  39  39   0   0
  0.2439952E+02  0.6834254E-09  0.1767185E-08  0.7880486E-09  0.0000000E+00
   1.0000000000000000E-004
  CAR 
 NEB_refined                             
      9.51180388    -23.83080377  301      1.07407322      1.00000000
    -23.831  0.0000E+00  0.0000E+00
    -23.720  0.0000E+00  0.0000E+00
    -23.609  0.0000E+00  0.0000E+00
    -23.497 -0.9269E-31 -0.1030E-31
    -23.386 -0.6876E-27 -0.7643E-28
    -23.275 -0.2733E-23 -0.3039E-24
    -23.164 -0.5842E-20 -0.6496E-21
    -23.053 -0.6710E-17 -0.7465E-18
    -22.942 -0.4009E-14 -0.4463E-15
    -22.831 -0.1319E-11 -0.1470E-12
    -22.719 -0.2320E-09 -0.2593E-10
    -22.608 -0.2175E-07 -0.2443E-08
    -22.497 -0.1081E-05 -0.1226E-06
    -22.386 -0.2818E-04 -0.3255E-05
    -22.275 -0.3754E-03 -0.4497E-04
    -22.164 -0.2387E-02 -0.3102E-03
    -22.053 -0.5414E-02 -0.9120E-03
    -21.941  0.9068E-02  0.9589E-04
    -21.830  0.6571E-01  0.7399E-02
    -21.719  0.1229E+00  0.2106E-01
    -21.608  0.1219E+00  0.3461E-01
    -21.497  0.1322E+00  0.4931E-01
    -21.386  0.2581E+00  0.7799E-01
    -21.275  0.4448E+00  0.1274E+00
    -21.163  0.5018E+00  0.1832E+00
    -21.052  0.3303E+00  0.2199E+00
    -20.941  0.9732E-01  0.2307E+00
    -20.830 -0.7711E-02  0.2299E+00
    -20.719 -0.1297E-01  0.2284E+00
    -20.608 -0.3394E-02  0.2280E+00
    -20.497 -0.4040E-03  0.2280E+00
    -20.385 -0.2468E-04  0.2280E+00
    -20.274 -0.7998E-06  0.2280E+00
    -20.163 -0.1392E-07  0.2280E+00
    -20.052 -0.1308E-09  0.2280E+00
    -19.941 -0.6633E-12  0.2280E+00
    -19.830 -0.1814E-14  0.2280E+00
    -19.719  0.0000E+00  0.2280E+00
    -19.607  0.0000E+00  0.2280E+00
    -19.496  0.0000E+00  0.2280E+00
    -19.385  0.0000E+00  0.2280E+00
    -19.274  0.0000E+00  0.2280E+00
    -19.163  0.0000E+00  0.2280E+00
    -19.052  0.0000E+00  0.2280E+00
    -18.941  0.0000E+00  0.2280E+00
    -18.829  0.0000E+00  0.2280E+00
    -18.718  0.0000E+00  0.2280E+00
    -18.607  0.0000E+00  0.2280E+00
    -18.496  0.0000E+00  0.2280E+00
    -18.385  0.0000E+00  0.2280E+00
    -18.274  0.0000E+00  0.2280E+00
    -18.163  0.0000E+00  0.2280E+00
    -18.051  0.0000E+00  0.2280E+00
    -17.940  0.0000E+00  0.2280E+00
    -17.829  0.0000E+00  0.2280E+00
    -17.718  0.0000E+00  0.2280E+00
    -17.607  0.0000E+00  0.2280E+00
    -17.496  0.0000E+00  0.2280E+00
    -17.385  0.0000E+00  0.2280E+00
    -17.273  0.0000E+00  0.2280E+00
    -17.162  0.0000E+00  0.2280E+00
    -17.051  0.0000E+00  0.2280E+00
    -16.940  0.0000E+00  0.2280E+00
    -16.829  0.0000E+00  0.2280E+00
    -16.718  0.0000E+00  0.2280E+00
    -16.607  0.0000E+00  0.2280E+00
    -16.495  0.0000E+00  0.2280E+00
    -16.384  0.0000E+00  0.2280E+00
    -16.273  0.0000E+00  0.2280E+00
    -16.162  0.0000E+00  0.2280E+00
    -16.051  0.0000E+00  0.2280E+00
    -15.940  0.0000E+00  0.2280E+00
    -15.829  0.0000E+00  0.2280E+00
    -15.717  0.0000E+00  0.2280E+00
    -15.606  0.0000E+00  0.2280E+00
    -15.495  0.0000E+00  0.2280E+00
    -15.384  0.0000E+00  0.2280E+00
    -15.273  0.0000E+00  0.2280E+00
    -15.162  0.0000E+00  0.2280E+00
    -15.051  0.0000E+00  0.2280E+00
    -14.939  0.0000E+00  0.2280E+00
    -14.828  0.0000E+00  0.2280E+00
    -14.717  0.0000E+00  0.2280E+00
    -14.606  0.0000E+00  0.2280E+00
    -14.495  0.0000E+00  0.2280E+00
    -14.384  0.0000E+00  0.2280E+00
    -14.273  0.0000E+00  0.2280E+00
    -14.161 -0.1813E-30  0.2280E+00
    -14.050 -0.1306E-26  0.2280E+00
    -13.939 -0.5023E-23  0.2280E+00
    -13.828 -0.1041E-19  0.2280E+00
    -13.717 -0.1162E-16  0.2280E+00
    -13.606 -0.6769E-14  0.2280E+00
    -13.495 -0.2175E-11  0.2280E+00
    -13.383 -0.3753E-09  0.2280E+00
    -13.272 -0.3466E-07  0.2280E+00
    -13.161 -0.1703E-05  0.2280E+00
    -13.050 -0.4402E-04  0.2280E+00
    -12.939 -0.5829E-03  0.2279E+00
    -12.828 -0.3681E-02  0.2275E+00
    -12.717 -0.8177E-02  0.2266E+00
    -12.605  0.1477E-01  0.2283E+00
    -12.494  0.1029E+00  0.2397E+00
    -12.383  0.1978E+00  0.2617E+00
    -12.272  0.2069E+00  0.2847E+00
    -12.161  0.1458E+00  0.3009E+00
    -12.050  0.6436E-01  0.3080E+00
    -11.939  0.8257E-02  0.3089E+00
    -11.827 -0.5526E-02  0.3083E+00
    -11.716 -0.2532E-02  0.3081E+00
    -11.605 -0.4232E-03  0.3080E+00
    -11.494 -0.3404E-04  0.3080E+00
    -11.383 -0.1406E-05  0.3080E+00
    -11.272 -0.3052E-07  0.3080E+00
    -11.161 -0.3523E-09  0.3080E+00
    -11.049 -0.6649E-10  0.3080E+00
    -10.938 -0.6123E-08  0.3080E+00
    -10.827 -0.3058E-06  0.3080E+00
    -10.716 -0.7915E-05  0.3080E+00
    -10.605 -0.1036E-03  0.3080E+00
    -10.494 -0.6453E-03  0.3079E+00
    -10.383 -0.1486E-02  0.3078E+00
    -10.271  0.2000E-02  0.3080E+00
    -10.160  0.1755E-01  0.3099E+00
    -10.049  0.3958E-01  0.3143E+00
     -9.938  0.4678E-01  0.3195E+00
     -9.827  0.3100E-01  0.3230E+00
     -9.716  0.7627E-02  0.3238E+00
     -9.605 -0.5789E-02  0.3232E+00
     -9.493  0.1279E-01  0.3246E+00
     -9.382  0.8211E-01  0.3337E+00
     -9.271  0.1441E+00  0.3497E+00
     -9.160  0.1231E+00  0.3634E+00
     -9.049  0.6076E-01  0.3702E+00
     -8.938  0.1871E-01  0.3722E+00
     -8.827  0.1011E-02  0.3724E+00
     -8.715 -0.2203E-02  0.3721E+00
     -8.604 -0.8964E-03  0.3720E+00
     -8.493 -0.1457E-03  0.3720E+00
     -8.382 -0.1144E-04  0.3720E+00
     -8.271 -0.4576E-06  0.3720E+00
     -8.160 -0.9545E-08  0.3720E+00
     -8.049 -0.1050E-09  0.3720E+00
     -7.937 -0.6127E-12  0.3720E+00
     -7.826 -0.1910E-14  0.3720E+00
     -7.715  0.0000E+00  0.3720E+00
     -7.604  0.0000E+00  0.3720E+00
     -7.493  0.0000E+00  0.3720E+00
     -7.382  0.0000E+00  0.3720E+00
     -7.271  0.0000E+00  0.3720E+00
     -7.159  0.0000E+00  0.3720E+00
     -7.048  0.0000E+00  0.3720E+00
     -6.937  0.0000E+00  0.3720E+00
     -6.826  0.0000E+00  0.3720E+00
     -6.715  0.0000E+00  0.3720E+00
     -6.604  0.0000E+00  0.3720E+00
     -6.493  0.0000E+00  0.3720E+00
     -6.382  0.0000E+00  0.3720E+00
     -6.270  0.0000E+00  0.3720E+00
     -6.159  0.0000E+00  0.3720E+00
     -6.048  0.0000E+00  0.3720E+00
     -5.937  0.0000E+00  0.3720E+00
     -5.826  0.0000E+00  0.3720E+00
     -5.715  0.0000E+00  0.3720E+00
     -5.604  0.0000E+00  0.3720E+00
     -5.492  0.0000E+00  0.3720E+00
     -5.381  0.0000E+00  0.3720E+00
     -5.270  0.0000E+00  0.3720E+00
     -5.159  0.0000E+00  0.3720E+00
     -5.048  0.0000E+00  0.3720E+00
     -4.937 -0.1189E-30  0.3720E+00
     -4.826 -0.8177E-27  0.3720E+00
     -4.714 -0.3017E-23  0.3720E+00
     -4.603 -0.5964E-20  0.3720E+00
     -4.492 -0.6312E-17  0.3720E+00
     -4.381 -0.3455E-14  0.3720E+00
     -4.270 -0.1034E-11  0.3720E+00
     -4.159 -0.1642E-09  0.3720E+00
     -4.048 -0.1373E-07  0.3720E+00
     -3.936 -0.5992E-06  0.3720E+00
     -3.825 -0.1340E-04  0.3720E+00
     -3.714 -0.1481E-03  0.3720E+00
     -3.603 -0.7380E-03  0.3719E+00
     -3.492 -0.1046E-02  0.3718E+00
     -3.381  0.3619E-02  0.3722E+00
     -3.270  0.1752E-01  0.3741E+00
     -3.158  0.3668E-01  0.3782E+00
     -3.047  0.4680E-01  0.3834E+00
     -2.936  0.3344E-01  0.3871E+00
     -2.825  0.1031E-01  0.3883E+00
     -2.714 -0.7549E-03  0.3882E+00
     -2.603 -0.1337E-02  0.3880E+00
     -2.492 -0.3379E-03  0.3880E+00
     -2.380 -0.3761E-04  0.3880E+00
     -2.269 -0.2083E-05  0.3880E+00
     -2.158 -0.1350E-06  0.3880E+00
     -2.047 -0.2483E-05  0.3880E+00
     -1.936 -0.4131E-04  0.3880E+00
     -1.825 -0.3321E-03  0.3880E+00
     -1.714 -0.1124E-02  0.3878E+00
     -1.602 -0.4309E-03  0.3878E+00
     -1.491  0.6919E-02  0.3886E+00
     -1.380  0.2479E-01  0.3913E+00
     -1.269  0.5499E-01  0.3974E+00
     -1.158  0.8319E-01  0.4067E+00
     -1.047  0.8352E-01  0.4159E+00
     -0.936  0.5392E-01  0.4219E+00
     -0.824  0.2406E-01  0.4246E+00
     -0.713  0.2747E-01  0.4277E+00
     -0.602  0.4093E-01  0.4322E+00
     -0.491  0.2640E-01  0.4352E+00
     -0.380  0.4952E-02  0.4357E+00
     -0.269  0.1611E-01  0.4375E+00
     -0.158  0.6059E-01  0.4442E+00
     -0.046  0.1053E+00  0.4559E+00
      0.065  0.1282E+00  0.4702E+00
      0.176  0.1219E+00  0.4837E+00
      0.287  0.1044E+00  0.4953E+00
      0.398  0.1083E+00  0.5074E+00
      0.509  0.1126E+00  0.5199E+00
      0.620  0.8618E-01  0.5295E+00
      0.732  0.6220E-01  0.5364E+00
      0.843  0.7616E-01  0.5448E+00
      0.954  0.8997E-01  0.5548E+00
      1.065  0.6129E-01  0.5617E+00
      1.176  0.2174E-01  0.5641E+00
      1.287  0.2226E-02  0.5643E+00
      1.398 -0.1805E-02  0.5641E+00
      1.510 -0.9186E-03  0.5640E+00
      1.621 -0.1773E-03  0.5640E+00
      1.732 -0.1627E-04  0.5640E+00
      1.843 -0.7499E-06  0.5640E+00
      1.954 -0.1782E-07  0.5640E+00
      2.065 -0.2214E-09  0.5640E+00
      2.176 -0.1565E-10  0.5640E+00
      2.288 -0.1635E-08  0.5640E+00
      2.399 -0.9862E-07  0.5640E+00
      2.510 -0.3069E-05  0.5640E+00
      2.621 -0.4771E-04  0.5640E+00
      2.732 -0.3423E-03  0.5640E+00
      2.843 -0.8169E-03  0.5639E+00
      2.954  0.1684E-02  0.5641E+00
      3.066  0.1066E-01  0.5652E+00
      3.177  0.1617E-01  0.5670E+00
      3.288  0.8961E-02  0.5680E+00
      3.399  0.8185E-03  0.5681E+00
      3.510 -0.8011E-03  0.5680E+00
      3.621 -0.3103E-03  0.5680E+00
      3.732 -0.4576E-03  0.5679E+00
      3.844 -0.1563E-02  0.5678E+00
      3.955  0.1464E-04  0.5678E+00
      4.066  0.1428E-01  0.5694E+00
      4.177  0.3613E-01  0.5734E+00
      4.288  0.3887E-01  0.5777E+00
      4.399  0.1988E-01  0.5799E+00
      4.510  0.3091E-02  0.5803E+00
      4.622 -0.1416E-02  0.5801E+00
      4.733 -0.7150E-03  0.5800E+00
      4.844 -0.1259E-03  0.5800E+00
      4.955 -0.6610E-04  0.5800E+00
      5.066 -0.4666E-03  0.5799E+00
      5.177 -0.1628E-02  0.5798E+00
      5.288 -0.5074E-05  0.5798E+00
      5.400  0.1463E-01  0.5814E+00
      5.511  0.3814E-01  0.5856E+00
      5.622  0.4369E-01  0.5905E+00
      5.733  0.3296E-01  0.5941E+00
      5.844  0.3856E-01  0.5984E+00
      5.955  0.6020E-01  0.6051E+00
      6.066  0.6416E-01  0.6123E+00
      6.178  0.4476E-01  0.6172E+00
      6.289  0.2042E-01  0.6195E+00
      6.400  0.5123E-02  0.6201E+00
      6.511  0.1268E-01  0.6215E+00
      6.622  0.3244E-01  0.6251E+00
      6.733  0.4008E-01  0.6295E+00
      6.844  0.4148E-01  0.6341E+00
      6.956  0.4517E-01  0.6392E+00
      7.067  0.4611E-01  0.6443E+00
      7.178  0.4803E-01  0.6496E+00
      7.289  0.5348E-01  0.6556E+00
      7.400  0.5896E-01  0.6621E+00
      7.511  0.5445E-01  0.6682E+00
      7.622  0.3143E-01  0.6717E+00
      7.734  0.6521E-02  0.6724E+00
      7.845 -0.2057E-02  0.6722E+00
      7.956 -0.1244E-02  0.6720E+00
      8.067 -0.2231E-03  0.6720E+00
      8.178 -0.1825E-04  0.6720E+00
      8.289 -0.7442E-06  0.6720E+00
      8.400 -0.1564E-07  0.6720E+00
      8.512 -0.1723E-09  0.6720E+00
      8.623 -0.1003E-11  0.6720E+00
      8.734 -0.3109E-14  0.6720E+00
      8.845  0.0000E+00  0.6720E+00
      8.956  0.0000E+00  0.6720E+00
      9.067  0.0000E+00  0.6720E+00
      9.178  0.0000E+00  0.6720E+00
      9.290  0.0000E+00  0.6720E+00
      9.401  0.0000E+00  0.6720E+00
      9.512  0.0000E+00  0.6720E+00
