192  
18   

1    
  0.0085130464281404   0.0000000000000000   0.0052467171176198
  -0.0135692500   -0.0015768900   -0.0084449400
   0.0001579900   -0.0000527100   -0.0008135500
  -0.0000383500    0.0000361800   -0.0008238300
   0.0000564000    0.0000114900   -0.0008137000
  -0.0005726600   -0.0000005700    0.0016762700
   0.0001298100   -0.0000728500    0.0008204700
  -0.0000568500    0.0000722900    0.0008203400
   0.0000513100   -0.0000002900    0.0008097700
  -0.0001549100   -0.0000000400    0.0008064900
   0.0000814100    0.0000107300    0.0008278100
  -0.0003135800    0.0001065700    0.0010634800
   0.0000983700    0.0000163400    0.0008002100
  -0.0001689600   -0.0000002800   -0.0008664100
   0.0000818700    0.0000346900   -0.0007907200
  -0.0001281300   -0.0002659000   -0.0005761300
   0.0000994300    0.0000507500   -0.0008378700
  -0.0001610600   -0.0001300400    0.0001860900
   0.0001159900   -0.0001769400    0.0000326400
  -0.0000579600   -0.0001288500    0.0000227100
   0.0000719600   -0.0001046400    0.0000183500
   0.0002634400    0.0000157000   -0.0000241400
   0.0004071200   -0.0012394000    0.0007145400
   0.0001773900   -0.0000065000   -0.0000056300
   0.0000741200    0.0002770300   -0.0001144400
   0.0000851600    0.0000296400    0.0000099300
  -0.0002355700   -0.0001199900    0.0000478600
  -0.0001077000   -0.0000099500    0.0000053000
  -0.0001531100    0.0000426100    0.0000248700
   0.0009080500    0.0019483600   -0.0000203200
   0.0001439300    0.0000987500   -0.0000477700
  -0.0000332400   -0.0000187700   -0.0000243400
   0.0000540300    0.0001962200   -0.0000088300
   0.0001101000    0.0001095200   -0.0007020600
  -0.0000025100   -0.0000726400   -0.0007752000
   0.0000022500   -0.0000471500   -0.0007831900
   0.0000944800    0.0000805200   -0.0006783900
   0.0000302000    0.0000926300    0.0007798600
  -0.0000009200   -0.0001122600    0.0008110200
   0.0000268400   -0.0001517200    0.0006852700
   0.0002200400    0.0001701400    0.0007162000
   0.0006010500   -0.0000277000    0.0007524400
   0.0004275700   -0.0001030100    0.0004782500
  -0.0000057600    0.0000181700    0.0008003700
  -0.0000080300    0.0000348800    0.0007965900
   0.0002743800   -0.0000433400   -0.0009368600
   0.0006976900   -0.0002230000   -0.0005029600
  -0.0000045100    0.0000281900   -0.0008012000
   0.0000022300    0.0000572100   -0.0008273300
   0.0000478500   -0.0000929800   -0.0000085800
  -0.0000484700   -0.0001355900   -0.0000023200
   0.0002203500   -0.0001701100    0.0000415000
   0.0004183500    0.0013627000   -0.0010176900
   0.0001232300    0.0001339500   -0.0000312900
   0.0001465300    0.0000023600    0.0000023000
   0.0001907300   -0.0003572200    0.0003429400
   0.0001896100   -0.0000071100   -0.0000200800
  -0.0001687700    0.0000638800    0.0000063000
  -0.0001004400   -0.0000041000   -0.0000058900
  -0.0006256600   -0.0003475300   -0.0004279700
   0.0000371400    0.0000109100    0.0000299800
   0.0000439000    0.0001601600    0.0000089100
  -0.0000502800    0.0001534400    0.0000142900
   0.0001019900    0.0001032400    0.0000065300
   0.0000134300    0.0001751700    0.0005519800
   0.0009071000   -0.0004019500    0.0000613800
   0.0004412700   -0.0000600700    0.0003363100
   0.0005190400    0.0000356200    0.0002333600
   0.0004855000   -0.0001575700    0.0003076700
  -0.0001098300    0.0003787300   -0.0002292000
  -0.0000724000    0.0011174100   -0.0000038100
   0.0000196000    0.0005426700   -0.0003220800
   0.0001369400    0.0004699900   -0.0002491000
  -0.0002179700   -0.0005677400   -0.0002762400
   0.0001440100   -0.0003852000   -0.0005438900
  -0.0001468100   -0.0005281500   -0.0003263200
   0.0000049500   -0.0005869900   -0.0003566600
  -0.0000537700   -0.0013119700   -0.0005842600
   0.0004362300    0.0001647900   -0.0002966400
   0.0005868300    0.0000737300   -0.0002903800
   0.0004702100    0.0000629600   -0.0003398200
  -0.0005909800   -0.0001308100   -0.0002964800
  -0.0004885200   -0.0001292300   -0.0003289400
  -0.0006955100    0.0000246800   -0.0003407000
  -0.0006377000   -0.0003689500   -0.0003008700
   0.0032045100    0.0005272700   -0.0005974000
  -0.0007545700    0.0001607900    0.0003113500
  -0.0004665000    0.0000209400    0.0003195300
  -0.0005468000    0.0000556200    0.0003330700
  -0.0000897500    0.0004563400    0.0003070600
  -0.0001093900    0.0005422000    0.0002975000
  -0.0000369300    0.0005769600    0.0004162400
  -0.0003550200    0.0004930000    0.0000651500
  -0.0001028000   -0.0005123900    0.0003214700
   0.0000694200   -0.0003880700    0.0000975000
   0.0000625600   -0.0004999800    0.0003191000
   0.0000257700   -0.0007569800    0.0001767700
  -0.0001938300   -0.0007062600    0.0013248600
  -0.0000110200   -0.0007688500    0.0008223900
   0.0000092400   -0.0007204200    0.0008501200
  -0.0000488500   -0.0007257900    0.0008679500
   0.0007566000   -0.0000262900   -0.0008527500
   0.0007359100   -0.0000104600   -0.0008600900
   0.0006095900   -0.0000623900   -0.0009805100
   0.0007226900    0.0000841500   -0.0008036700
  -0.0006927700    0.0000280300   -0.0008821400
  -0.0007182200    0.0000646100   -0.0008632600
  -0.0005752800   -0.0001417300   -0.0006246900
  -0.0007255700    0.0000723300   -0.0008896300
   0.0001119600    0.0019113900   -0.0012355600
  -0.0000492600    0.0007405100   -0.0008586900
  -0.0000425400    0.0006905500   -0.0009052300
  -0.0000009000    0.0007477700   -0.0008256700
   0.0000285800   -0.0006645100   -0.0008849300
   0.0000266500   -0.0007295200   -0.0008549000
  -0.0000481300   -0.0006614900   -0.0008865500
   0.0003404300   -0.0005271800   -0.0004448100
  -0.0007804500    0.0014943900    0.0004526800
   0.0000320900    0.0006458300    0.0009336400
   0.0000619100    0.0008108800    0.0009246000
  -0.0000148600    0.0006910200    0.0008496600
  -0.0007517400   -0.0000115900    0.0008370000
  -0.0007186500   -0.0000461700    0.0008811800
  -0.0007139000    0.0000920200    0.0007695700
  -0.0006541000   -0.0001608400    0.0009545000
   0.0007470500   -0.0000667500    0.0008399900
   0.0008132300    0.0002105800    0.0008369600
   0.0007256800    0.0000008100    0.0008483300
   0.0006128900    0.0000557100    0.0009393900
   0.0004964400   -0.0001150100    0.0003136000
   0.0005652000   -0.0001327200    0.0003270500
   0.0003152100   -0.0000748300    0.0003679900
   0.0082669200   -0.0001747900    0.0032354300
   0.0001807000    0.0004237200   -0.0003681300
   0.0000382400    0.0005143400   -0.0003197100
   0.0004303000    0.0006812700   -0.0005282000
  -0.0000744400    0.0004628700   -0.0003778000
  -0.0000644000   -0.0005967900   -0.0002845700
  -0.0001097700   -0.0005420300   -0.0002950000
  -0.0004791900   -0.0004015100   -0.0002242500
  -0.0001433000   -0.0005512900   -0.0002571400
   0.0004573300    0.0000608100   -0.0003085200
   0.0006011300    0.0001418700   -0.0003300200
   0.0004523600    0.0001272900   -0.0002933700
  -0.0000572700   -0.0008483100   -0.0007433500
  -0.0004775500   -0.0000505400   -0.0001734600
  -0.0005792900   -0.0000392800   -0.0003267800
  -0.0003595900   -0.0001110300   -0.0002408800
  -0.0006397200   -0.0001348700   -0.0003221100
  -0.0006013900   -0.0000073000    0.0003157800
  -0.0004591000    0.0001085000    0.0003065800
  -0.0006668700    0.0001468800    0.0002555800
  -0.0003531600    0.0000668800    0.0002565700
  -0.0002223700    0.0005920700    0.0002804900
   0.0005248500    0.0026296500    0.0021838100
  -0.0001883500    0.0005289600    0.0003081700
   0.0000484600    0.0004812400    0.0004040100
   0.0001741500   -0.0005869600    0.0003119500
   0.0000248200   -0.0005340300    0.0003236600
   0.0007610200   -0.0032373800    0.0031204700
  -0.0000824200   -0.0004225700    0.0003967700
  -0.0000447500   -0.0007442100    0.0008805800
  -0.0000079900   -0.0006596000    0.0008854300
  -0.0000056600   -0.0008058900    0.0008103000
  -0.0009550800    0.0005306400    0.0029266800
   0.0007646300    0.0000719100   -0.0008017900
   0.0009521500   -0.0005344900   -0.0012306100
   0.0007325300   -0.0000016800   -0.0008443600
   0.0006814000   -0.0000809000   -0.0008213000
  -0.0006765000    0.0000946300   -0.0009861700
  -0.0008799800   -0.0001438600   -0.0007479200
  -0.0007070200    0.0000320400   -0.0008766800
  -0.0006917100   -0.0000026600   -0.0008894500
  -0.0000103200    0.0007484200   -0.0008543400
  -0.0000466100    0.0006648700   -0.0008809300
  -0.0000468600    0.0007695200   -0.0008557300
   0.0004973500    0.0016172300   -0.0008102100
   0.0003711400   -0.0014344700   -0.0011527400
  -0.0000203800   -0.0006713300   -0.0008668200
  -0.0000133600   -0.0007334300   -0.0009070700
   0.0000387000   -0.0006804900   -0.0008937600
   0.0000150600    0.0007161000    0.0008396900
   0.0000249400    0.0007354600    0.0008482600
   0.0000481100    0.0005882400    0.0009016800
  -0.0000156200    0.0007616900    0.0006314100
  -0.0007273000   -0.0001288900    0.0009518000
  -0.0009054800   -0.0001989600    0.0006896200
  -0.0006685000   -0.0000259800    0.0008856200
  -0.0007574000    0.0001105600    0.0008292900
   0.0006601600    0.0000314400    0.0009115700
   0.0007431500    0.0000081100    0.0008521100
   0.0012868700   -0.0000222300    0.0002150700
   0.0006412100   -0.0001492000    0.0007675400

1    
 -0.0085130464281404   0.0000000000000000  -0.0052467171176198
   0.0139319200    0.0016793300    0.0071104200
  -0.0001572500    0.0000525900   -0.0007967600
   0.0000389400   -0.0000363000   -0.0007862400
  -0.0000557000   -0.0000116000   -0.0007964300
   0.0005676000   -0.0000005600   -0.0000634200
  -0.0001292600    0.0000722500    0.0007899900
   0.0000570100   -0.0000728200    0.0007898700
  -0.0000510200   -0.0000002900    0.0008006200
   0.0001543200    0.0000001200    0.0008050100
  -0.0000818700   -0.0000105000    0.0007826600
   0.0003136900   -0.0001069700    0.0005459800
  -0.0000989100   -0.0000161400    0.0008102200
   0.0001670700   -0.0000010700   -0.0007455400
  -0.0000817600   -0.0000339900   -0.0008194900
   0.0001286200    0.0002687100   -0.0010349900
  -0.0000994100   -0.0000501700   -0.0007721700
   0.0001599100   -0.0001356300   -0.0001818800
  -0.0001158500   -0.0000888000   -0.0000325000
   0.0000580200   -0.0001367400   -0.0000226600
  -0.0000720000   -0.0001610500   -0.0000182800
   0.0000024500   -0.0000157900    0.0000243400
  -0.0001448400    0.0012473800   -0.0007202500
   0.0000883400    0.0000065400    0.0000057800
   0.0001917200   -0.0002778900    0.0001150100
  -0.0003490500   -0.0000293100   -0.0000098800
  -0.0000285600    0.0001201600   -0.0000493700
  -0.0001580800    0.0000099200   -0.0000052100
  -0.0001125300   -0.0000423700   -0.0000247600
  -0.0009047300   -0.0016664400    0.0000144500
  -0.0001439200    0.0001668800    0.0000479100
   0.0000331100    0.0002852100    0.0000245800
  -0.0000539800    0.0000694900    0.0000090000
  -0.0001087900   -0.0001090200   -0.0009065300
   0.0000033300    0.0000725700   -0.0008350100
  -0.0000018200    0.0000468800   -0.0008269400
  -0.0000939100   -0.0000804100   -0.0009323100
  -0.0000306500   -0.0000932900    0.0008301900
   0.0000013900    0.0001117800    0.0007994700
  -0.0000268500    0.0001512200    0.0009254500
  -0.0002206000   -0.0001709000    0.0008945200
  -0.0005966200    0.0000270700    0.0008549000
  -0.0004296300    0.0001032700    0.0011332000
   0.0000050800   -0.0000179000    0.0008099700
   0.0000075200   -0.0000347700    0.0008138300
  -0.0002773300    0.0000449300   -0.0006715400
  -0.0006963800    0.0002225400   -0.0011062700
   0.0000044000   -0.0000275100   -0.0008089000
  -0.0000022800   -0.0000567000   -0.0007827000
  -0.0000477900   -0.0001727000    0.0000086000
   0.0000486100   -0.0001306900    0.0000024400
  -0.0002204500   -0.0000957100   -0.0000417300
  -0.0004175000   -0.0016346300    0.0010244600
   0.0001424000   -0.0001328300    0.0000309200
   0.0001193300   -0.0000023700   -0.0000021900
   0.0000738100    0.0003526400   -0.0003426500
   0.0000766000    0.0000071900    0.0000203100
  -0.0000970300   -0.0000644300   -0.0000062400
  -0.0001651900    0.0000040900    0.0000060600
   0.0003584300    0.0003507500    0.0004312200
  -0.0003028000   -0.0000107400   -0.0000299300
  -0.0000438600    0.0001057100   -0.0000086300
   0.0000501800    0.0001121100   -0.0000141600
  -0.0001018300    0.0001624100   -0.0000061200
  -0.0000145600    0.0000907900   -0.0005535100
   0.0001491800    0.0002204300    0.0005646100
   0.0006109400   -0.0001182100    0.0002920600
   0.0005342400   -0.0002145000    0.0003955000
   0.0005668400   -0.0000208700    0.0003205900
   0.0002862900    0.0006723000   -0.0003981900
   0.0002518800   -0.0000689000   -0.0006260300
   0.0001589600    0.0005097200   -0.0003060000
   0.0000413000    0.0005825000   -0.0003794700
   0.0000395500   -0.0004847400   -0.0003515600
  -0.0003217600   -0.0006680600   -0.0000842500
  -0.0000315400   -0.0005241500   -0.0003016400
  -0.0001833100   -0.0004654200   -0.0002709400
   0.0011070000    0.0014769700   -0.0000344500
   0.0006158300    0.0000135400   -0.0003315400
   0.0004655800    0.0001044300   -0.0003377400
   0.0005822100    0.0001153500   -0.0002882400
  -0.0004616200   -0.0000478500   -0.0003312800
  -0.0005637600   -0.0000489600   -0.0002989700
  -0.0003573400   -0.0002020200   -0.0002872900
  -0.0004116500    0.0001871600   -0.0003283700
  -0.0041982000   -0.0003348200    0.0011609200
  -0.0002985200    0.0000177000    0.0003167500
  -0.0005859400    0.0001575900    0.0003086600
  -0.0005056400    0.0001227500    0.0002951100
  -0.0000884300    0.0005963600    0.0003207600
  -0.0000690000    0.0005103800    0.0003307700
  -0.0001412100    0.0004756100    0.0002105200
   0.0001760600    0.0005589600    0.0005626800
   0.0002810000   -0.0005392600    0.0003046800
   0.0001095500   -0.0006644900    0.0005305400
   0.0001158700   -0.0005525000    0.0003091000
   0.0001529300   -0.0002948400    0.0004519500
   0.0001479900   -0.0007282000    0.0004145000
  -0.0000330900   -0.0006663300    0.0009116300
  -0.0000535500   -0.0007144400    0.0008840700
   0.0000047100   -0.0007091900    0.0008661400
   0.0006787300   -0.0000178000   -0.0008807500
   0.0006991100   -0.0000336000   -0.0008735300
   0.0008248100    0.0000191800   -0.0007527400
   0.0007126400   -0.0001282000   -0.0009298200
  -0.0007426800    0.0000161600   -0.0008515600
  -0.0007166500   -0.0000208400   -0.0008706200
  -0.0008597300    0.0001810700   -0.0011067100
  -0.0007094000   -0.0000292200   -0.0008431200
  -0.0001535400   -0.0004646800   -0.0005043200
   0.0000050800    0.0006946500   -0.0008748900
  -0.0000013400    0.0007445700   -0.0008282400
  -0.0000432200    0.0006873500   -0.0009080300
   0.0000152900   -0.0007701600   -0.0008487400
   0.0000170200   -0.0007054800   -0.0008786800
   0.0000916500   -0.0007734300   -0.0008469600
  -0.0002988800   -0.0009040400   -0.0012900400
   0.0008221100   -0.0000671600    0.0012976100
   0.0000117700    0.0007889800    0.0008003600
  -0.0000181800    0.0006239400    0.0008089800
   0.0000587200    0.0007440000    0.0008842000
  -0.0006831000   -0.0000325300    0.0008970100
  -0.0007163200    0.0000019800    0.0008529300
  -0.0007206900   -0.0001370600    0.0009647400
  -0.0007808900    0.0001164800    0.0007796600
   0.0006878300    0.0001105700    0.0008941100
   0.0006214800   -0.0001665200    0.0008967200
   0.0007093700    0.0000430700    0.0008855200
   0.0008223500   -0.0000119600    0.0007942800
   0.0005560500   -0.0000633100    0.0003146800
   0.0004871300   -0.0000453500    0.0003012500
   0.0007379200   -0.0001035600    0.0002602100
  -0.0076026100   -0.0000579000   -0.0028444600
  -0.0000019700    0.0006281300   -0.0002605300
   0.0001400600    0.0005381600   -0.0003084000
  -0.0002519400    0.0003718000   -0.0000997500
   0.0002525600    0.0005895800   -0.0002504600
  -0.0001134500   -0.0004556200   -0.0003432600
  -0.0000687600   -0.0005103100   -0.0003328700
   0.0003010700   -0.0006472900   -0.0004036000
  -0.0000345200   -0.0005001200   -0.0003723600
   0.0005949800    0.0001173400   -0.0003197100
   0.0004511800    0.0000366400   -0.0002983000
   0.0005999900    0.0000510100   -0.0003348300
   0.0011117700    0.0010296300    0.0001163400
  -0.0005727200   -0.0001257200   -0.0004561900
  -0.0004730500   -0.0001389900   -0.0003011400
  -0.0006931600   -0.0000673000   -0.0003873500
  -0.0004125100   -0.0000433800   -0.0003057900
  -0.0004514200    0.0001851000    0.0003125100
  -0.0005938700    0.0000706700    0.0003221300
  -0.0003858000    0.0000321200    0.0003724900
  -0.0006991800    0.0001108500    0.0003725800
   0.0000439900    0.0004603600    0.0003479200
  -0.0007198700   -0.0015830600   -0.0015692200
   0.0000101200    0.0005234200    0.0003202100
  -0.0002270700    0.0005711100    0.0002238900
   0.0000048300   -0.0004653300    0.0003163600
   0.0001534000   -0.0005183300    0.0003046200
  -0.0005967100    0.0021398700   -0.0024811600
   0.0002608200   -0.0006299600    0.0002314000
   0.0000005600   -0.0006908100    0.0008534900
  -0.0000361200   -0.0007756500    0.0008484000
  -0.0000384000   -0.0006289100    0.0009239400
   0.0009016300   -0.0019757200   -0.0012136000
   0.0006708500   -0.0001151600   -0.0009311100
   0.0004837700    0.0004931600   -0.0005010900
   0.0007024500   -0.0000423200   -0.0008894100
   0.0007537400    0.0000370300   -0.0009124800
  -0.0007582200   -0.0000506300   -0.0007483400
  -0.0005551400    0.0001876500   -0.0009848600
  -0.0007280000    0.0000117900   -0.0008570100
  -0.0007432000    0.0000465300   -0.0008441900
  -0.0000336900    0.0006866500   -0.0008793000
   0.0000026200    0.0007702500   -0.0008527000
   0.0000028000    0.0006655900   -0.0008779500
  -0.0005419900   -0.0001832900   -0.0009222700
  -0.0003293900   -0.0000042600   -0.0005808500
   0.0000641900   -0.0007636600   -0.0008668900
   0.0000573600   -0.0007014400   -0.0008264600
   0.0000051400   -0.0007545100   -0.0008399000
   0.0000288400    0.0007190200    0.0008938900
   0.0000192100    0.0006994400    0.0008858400
  -0.0000043700    0.0008459400    0.0008320900
   0.0000595900    0.0006725700    0.0011019600
  -0.0007073900    0.0000846700    0.0007824700
  -0.0005237000    0.0001508600    0.0010452900
  -0.0007667300   -0.0000181300    0.0008482800
  -0.0006773500   -0.0001549200    0.0009048000
   0.0007747400    0.0000124700    0.0008224600
   0.0006919000    0.0000356900    0.0008817000
   0.0001470100    0.0000676500    0.0015212200
   0.0007941200    0.0001933600    0.0009662500

1    
  0.0000000000000000   0.0100000000000000   0.0000000000000000
  -0.0019113800   -0.0206922500   -0.0010198500
  -0.0000615300   -0.0000668700   -0.0008051000
   0.0000428700    0.0002048800   -0.0008045000
   0.0000138900    0.0000688900   -0.0008051400
   0.0000000800   -0.0006700100    0.0008038000
  -0.0000240300   -0.0000671500    0.0008051600
   0.0000242100    0.0001518700    0.0008051900
   0.0000000800    0.0000597900    0.0008051300
  -0.0000629100    0.0000846100    0.0007031100
  -0.0000161000    0.0000086000    0.0007997500
  -0.0000630000    0.0000847200    0.0009067400
  -0.0000160300    0.0000086900    0.0008104800
   0.0001719300    0.0005710600   -0.0004034900
  -0.0000165100   -0.0000010200   -0.0007987500
   0.0001714500    0.0005724100   -0.0012062200
  -0.0000164000   -0.0000008900   -0.0008114900
   0.0001062100   -0.0002173800   -0.0002523600
  -0.0000178100   -0.0001896700   -0.0000008500
  -0.0000143800   -0.0000036300   -0.0000034200
   0.0000197400   -0.0000918400    0.0000066900
   0.0001554800   -0.0000605700    0.0000090300
  -0.0005656200    0.0000133900   -0.0008687600
   0.0001085400    0.0000549700    0.0000146000
   0.0001561100    0.0002025100    0.0000023300
  -0.0000917700   -0.0000491700   -0.0000076800
  -0.0005966600   -0.0002868400    0.0005257600
  -0.0001646100    0.0000562800   -0.0000147500
  -0.0000844500    0.0001317600   -0.0000219500
   0.0020448400    0.0013562100    0.0003357300
  -0.0001899900    0.0001106700    0.0000606400
  -0.0000607500    0.0004489200    0.0000074600
   0.0000235500    0.0001567300   -0.0000075200
   0.0001117500    0.0000326700   -0.0008326700
  -0.0000699800   -0.0000061800   -0.0007807200
  -0.0000699000   -0.0000060000   -0.0008294900
   0.0001117700    0.0000329200   -0.0007777600
   0.0001367800    0.0000146600    0.0008317700
  -0.0001367100    0.0001471400    0.0006238700
  -0.0001363400    0.0001468300    0.0009858100
   0.0001366300    0.0000149300    0.0007784000
   0.0000758700   -0.0003063700    0.0007328900
   0.0000768800   -0.0003072100    0.0008772800
  -0.0000313000    0.0001214700    0.0008211500
  -0.0000313800    0.0001215300    0.0007891700
   0.0001709200   -0.0001732600   -0.0007671700
   0.0001724500   -0.0001742400   -0.0008427000
  -0.0000164100    0.0001067500   -0.0007883800
  -0.0000164800    0.0001068000   -0.0008219500
   0.0000235800   -0.0001091400    0.0000075600
  -0.0000608700    0.0001839000   -0.0000074900
  -0.0001893700   -0.0001549200   -0.0000604400
   0.0020246900    0.0010807800   -0.0003302900
   0.0001813500    0.0001314900    0.0000221400
   0.0001010400    0.0000562800    0.0000148000
  -0.0003307700   -0.0002865700   -0.0005241300
   0.0001742400   -0.0000491200    0.0000077100
  -0.0001094700    0.0002024000   -0.0000025300
  -0.0001572600    0.0000549500   -0.0000146600
  -0.0008269400    0.0000136700    0.0008630000
  -0.0001100300   -0.0000605500   -0.0000090700
   0.0000197300    0.0001738200   -0.0000067000
  -0.0000143900    0.0002621900    0.0000033300
  -0.0000178300    0.0000761800    0.0000008700
   0.0001059000    0.0000486000    0.0002519500
   0.0002944600   -0.0000896300    0.0002794200
   0.0005723400   -0.0000465500    0.0002849000
   0.0007643300   -0.0003562400    0.0004553300
   0.0005216800   -0.0001338200    0.0003004700
  -0.0000769700    0.0005665700   -0.0003465600
   0.0006272300    0.0011215100    0.0001091800
   0.0002093900    0.0004159800   -0.0003071600
  -0.0000299500    0.0003506900   -0.0003546300
  -0.0001029400   -0.0005086700   -0.0002948300
   0.0000356000   -0.0002800300   -0.0004518300
  -0.0000760100   -0.0005630200   -0.0003165000
  -0.0000957100   -0.0006559700   -0.0003040500
   0.0000181600    0.0001004900   -0.0008458300
   0.0005681100    0.0002053500   -0.0003297100
   0.0004927200   -0.0000402100   -0.0003411200
   0.0005236400    0.0000078900   -0.0003193300
  -0.0005287900   -0.0001703300   -0.0003088700
  -0.0005596800   -0.0002185600   -0.0002870700
  -0.0004842600    0.0000268200   -0.0002984200
  -0.0010317300   -0.0000835800    0.0002128000
   0.0004294600    0.0011526200    0.0001054200
  -0.0004273600    0.0002133300    0.0003981100
  -0.0004623900   -0.0000833400    0.0003646500
  -0.0005383900    0.0000222400    0.0003067500
  -0.0001373400    0.0003896300    0.0003573000
  -0.0000669800    0.0004574900    0.0003163000
  -0.0000687900    0.0006252900    0.0003234900
  -0.0001769800    0.0005848900    0.0002807000
   0.0000019700   -0.0004672700    0.0003469700
   0.0001094700   -0.0004265800    0.0003045100
   0.0001112800   -0.0005950000    0.0003118500
   0.0000410200   -0.0006630700    0.0002707100
   0.0001156300   -0.0007132300    0.0007806100
  -0.0000435300   -0.0007298300    0.0008717600
  -0.0001507800   -0.0006565500    0.0009574300
  -0.0000435700   -0.0007088300    0.0008791500
   0.0007773100   -0.0000071600   -0.0008335200
   0.0007534000   -0.0000442600   -0.0008754800
   0.0005758900   -0.0001312800   -0.0008601200
   0.0006730300    0.0000188200   -0.0008504800
  -0.0005096400    0.0000114600   -0.0009048300
  -0.0007157500    0.0000259600   -0.0008285700
  -0.0009003200   -0.0005965200   -0.0005188400
  -0.0006938500    0.0000785100   -0.0009103000
  -0.0000593000    0.0010818600   -0.0008582100
  -0.0000257700    0.0006669900   -0.0009152800
   0.0000722100    0.0007269700   -0.0007769500
  -0.0000097100    0.0007423900   -0.0008435000
   0.0000341800   -0.0006927700   -0.0008902700
   0.0001161100   -0.0007080800   -0.0009570100
   0.0000181300   -0.0007678700   -0.0008187400
  -0.0000166000   -0.0003511600   -0.0008730200
  -0.0003430500    0.0003121600    0.0010822300
   0.0000353400    0.0007656500    0.0008504500
  -0.0000504200    0.0007970800    0.0007381600
   0.0000053100    0.0007154500    0.0008580600
  -0.0007939300   -0.0000384100    0.0008461900
  -0.0007492400   -0.0000136600    0.0008531700
  -0.0006388700    0.0000650200    0.0008072800
  -0.0006738300   -0.0000508400    0.0009033100
   0.0007611900   -0.0000066000    0.0008306400
   0.0007963800    0.0001090600    0.0009263200
   0.0006858500    0.0000302500    0.0008806600
   0.0006410300    0.0000056200    0.0008877300
   0.0005140000   -0.0001560700    0.0003214200
   0.0005902100   -0.0002617300    0.0002634500
   0.0006251700    0.0000345200    0.0002302800
   0.0015038400    0.0009788500    0.0005307200
   0.0000825300    0.0003966200   -0.0003239500
   0.0001023500    0.0004895200   -0.0003115900
   0.0002142800    0.0007723300   -0.0001765700
   0.0000752500    0.0005436600   -0.0003333600
  -0.0002086300   -0.0007017800   -0.0002736500
   0.0000313900   -0.0006366700   -0.0003210000
   0.0004476200    0.0000683400   -0.0007358900
  -0.0002547200   -0.0004857600   -0.0002819500
   0.0004816800    0.0000606700   -0.0003227400
   0.0004968900   -0.0001491500   -0.0002283600
   0.0005989400    0.0000953200   -0.0003273500
   0.0002887700   -0.0000263800   -0.0005620300
  -0.0007619800   -0.0002008100   -0.0000646600
  -0.0004533700   -0.0000829100   -0.0003006600
  -0.0005555200   -0.0003270100   -0.0003992600
  -0.0005707000   -0.0001176300   -0.0003054000
  -0.0005307900    0.0000447200    0.0003275700
  -0.0002883000   -0.0001780000    0.0001724800
  -0.0004803000    0.0001315700    0.0003430700
  -0.0007581100    0.0000881200    0.0003492400
  -0.0000778200    0.0005899600    0.0002894700
   0.0003744700    0.0066191200    0.0054746500
  -0.0000362900    0.0004430400    0.0003406700
  -0.0002516600    0.0002851500    0.0003061800
  -0.0000737800   -0.0007676600    0.0003218600
   0.0001422300   -0.0006095200    0.0002873500
   0.0005883500    0.0052887600   -0.0046284800
   0.0001003600   -0.0004624400    0.0003387300
  -0.0000385700   -0.0007196600    0.0008757000
  -0.0000944300   -0.0006378700    0.0009958200
  -0.0000085900   -0.0006694500    0.0008833700
  -0.0003902200   -0.0011172100    0.0006543900
   0.0007413700    0.0000348300   -0.0008231300
   0.0005331500   -0.0006412700   -0.0012171300
   0.0007193400   -0.0000179700   -0.0009051200
   0.0009251100   -0.0000323700   -0.0008289600
  -0.0007622000    0.0000626600   -0.0008832100
  -0.0008594500   -0.0000873000   -0.0008731700
  -0.0006817100   -0.0000002600   -0.0008583900
  -0.0006576600    0.0000367100   -0.0009003300
  -0.0000014000    0.0007286200   -0.0008414600
   0.0000597700    0.0007512800   -0.0008233800
  -0.0000450700    0.0006870200   -0.0009060700
   0.0002574900    0.0017422900   -0.0005443100
   0.0003031900    0.0003080200   -0.0011936300
  -0.0000011900   -0.0007480900   -0.0008276200
   0.0001036000   -0.0006839400   -0.0009103400
   0.0000426200   -0.0007064700   -0.0008924000
   0.0000004800    0.0007262400    0.0008547300
  -0.0001069500    0.0007786600    0.0007764800
   0.0000005000    0.0007053200    0.0008620000
   0.0001601300    0.0007223100    0.0009520200
  -0.0007122800   -0.0000471100    0.0008862600
  -0.0018920800    0.0014633100   -0.0005242600
  -0.0007908200   -0.0000218400    0.0008547900
  -0.0007863600   -0.0000926900    0.0008641800
   0.0006485800   -0.0000487800    0.0008692800
   0.0006440900    0.0000221400    0.0008790600
  -0.0004521300    0.0014982800    0.0022510000
   0.0007227100   -0.0000033600    0.0008473400

17   
  0.0070710678118655   0.0070710678118655   0.0000000000000000
  -0.0000413600    0.0000157900   -0.0009496400
   0.0000602800   -0.0000527200   -0.0008054200
  -0.0000344100    0.0000810300   -0.0008216100
   0.0000714600    0.0000428200   -0.0007855800
   0.0004985800    0.0005701200    0.0019202600
   0.0001267700   -0.0001814200    0.0006459700
  -0.0000587900    0.0001132900    0.0007751700
   0.0000562400    0.0000360200    0.0008149400
  -0.0008201400   -0.0005806700    0.0006833700
   0.0001806200    0.0001185300    0.0008588500
   0.0000297200    0.0002661200    0.0006943800
  -0.0000007500    0.0000002600    0.0008167600
  -0.0005306100   -0.0002156800   -0.0007558600
   0.0001273700    0.0000609000   -0.0008736800
  -0.0000056800    0.0001229500   -0.0006726800
   0.0000173100    0.0000133000   -0.0008055800
  -0.0135909300   -0.0054445100   -0.0012184300
   0.0003583600   -0.0001474200    0.0000991400
  -0.0000407300   -0.0000020100   -0.0000016300
   0.0000385000   -0.0001121700   -0.0000014600
   0.0005034300    0.0000167700    0.0004260400
   0.0001683400   -0.0001611200   -0.0002628200
   0.0001377700    0.0000746400   -0.0000157800
   0.0001354400    0.0000656800   -0.0000124200
  -0.0000020900   -0.0000368500   -0.0002901400
   0.0001821800   -0.0000908200    0.0004429300
  -0.0001575000    0.0000612200    0.0000091800
  -0.0001203100    0.0000627500    0.0000131100
  -0.0001957100   -0.0000793100   -0.0002172800
   0.0000979600    0.0001184400   -0.0000036100
  -0.0000357200    0.0001880600    0.0000022100
   0.0000364700    0.0001486600    0.0000021200
   0.0019385600    0.0023169400   -0.0013469900
   0.0001221500   -0.0001498800   -0.0007557100
  -0.0000975700    0.0001803700   -0.0007148800
   0.0000853900    0.0000334300   -0.0008250900
   0.0001248800    0.0001784200    0.0010728000
   0.0000589800   -0.0000857600    0.0007510900
  -0.0000637200    0.0001039700    0.0007217900
   0.0000623300    0.0000189700    0.0007890600
  -0.0000800400   -0.0001339900    0.0007146700
   0.0001207200   -0.0000273500    0.0008243000