   8   8   0   0
  0.2246696E+02  0.6990148E-09  0.6990148E-09  0.6990148E-09  0.5000000E-15
   1.0000000000000000E-004
  CAR 
 unknown system                          
     11.99529484    -19.73077229  301      4.38764832      1.00000000
    -19.731  0.0000E+00  0.0000E+00
    -19.625  0.0000E+00  0.0000E+00
    -19.519  0.0000E+00  0.0000E+00
    -19.414  0.0000E+00  0.0000E+00
    -19.308  0.0000E+00  0.0000E+00
    -19.202  0.0000E+00  0.0000E+00
    -19.096  0.0000E+00  0.0000E+00
    -18.990  0.0000E+00  0.0000E+00
    -18.885  0.0000E+00  0.0000E+00
    -18.779  0.0000E+00  0.0000E+00
    -18.673  0.0000E+00  0.0000E+00
    -18.567  0.2601E-15  0.2751E-16
    -18.462  0.1104E-06  0.1167E-07
    -18.356  0.1046E-01  0.1106E-02
    -18.250  0.7523E+00  0.8066E-01
    -18.144  0.3715E+00  0.1199E+00
    -18.039  0.5008E-03  0.1200E+00
    -17.933  0.2057E-09  0.1200E+00
    -17.827  0.0000E+00  0.1200E+00
    -17.721  0.0000E+00  0.1200E+00
    -17.616  0.0000E+00  0.1200E+00
    -17.510  0.0000E+00  0.1200E+00
    -17.404  0.0000E+00  0.1200E+00
    -17.298  0.0000E+00  0.1200E+00
    -17.193  0.0000E+00  0.1200E+00
    -17.087  0.0000E+00  0.1200E+00
    -16.981  0.0000E+00  0.1200E+00
    -16.875  0.0000E+00  0.1200E+00
    -16.770  0.0000E+00  0.1200E+00
    -16.664  0.0000E+00  0.1200E+00
    -16.558  0.0000E+00  0.1200E+00
    -16.452  0.0000E+00  0.1200E+00
    -16.347  0.0000E+00  0.1200E+00
    -16.241  0.0000E+00  0.1200E+00
    -16.135  0.0000E+00  0.1200E+00
    -16.029  0.0000E+00  0.1200E+00
    -15.924  0.0000E+00  0.1200E+00
    -15.818  0.0000E+00  0.1200E+00
    -15.712  0.0000E+00  0.1200E+00
    -15.606  0.0000E+00  0.1200E+00
    -15.501  0.0000E+00  0.1200E+00
    -15.395  0.0000E+00  0.1200E+00
    -15.289  0.0000E+00  0.1200E+00
    -15.183  0.0000E+00  0.1200E+00
    -15.078  0.0000E+00  0.1200E+00
    -14.972  0.0000E+00  0.1200E+00
    -14.866  0.0000E+00  0.1200E+00
    -14.760  0.0000E+00  0.1200E+00
    -14.655  0.0000E+00  0.1200E+00
    -14.549  0.0000E+00  0.1200E+00
    -14.443  0.0000E+00  0.1200E+00
    -14.337  0.0000E+00  0.1200E+00
    -14.232  0.0000E+00  0.1200E+00
    -14.126  0.0000E+00  0.1200E+00
    -14.020  0.0000E+00  0.1200E+00
    -13.914  0.0000E+00  0.1200E+00
    -13.809  0.0000E+00  0.1200E+00
    -13.703  0.0000E+00  0.1200E+00
    -13.597  0.0000E+00  0.1200E+00
    -13.491  0.0000E+00  0.1200E+00
    -13.386  0.0000E+00  0.1200E+00
    -13.280  0.0000E+00  0.1200E+00
    -13.174  0.0000E+00  0.1200E+00
    -13.068  0.0000E+00  0.1200E+00
    -12.963  0.0000E+00  0.1200E+00
    -12.857  0.0000E+00  0.1200E+00
    -12.751  0.0000E+00  0.1200E+00
    -12.645  0.0000E+00  0.1200E+00
    -12.540  0.0000E+00  0.1200E+00
    -12.434  0.0000E+00  0.1200E+00
    -12.328  0.0000E+00  0.1200E+00
    -12.222  0.0000E+00  0.1200E+00
    -12.117  0.0000E+00  0.1200E+00
    -12.011  0.0000E+00  0.1200E+00
    -11.905  0.0000E+00  0.1200E+00
    -11.799  0.0000E+00  0.1200E+00
    -11.694  0.0000E+00  0.1200E+00
    -11.588  0.0000E+00  0.1200E+00
    -11.482  0.0000E+00  0.1200E+00
    -11.376  0.0000E+00  0.1200E+00
    -11.270  0.0000E+00  0.1200E+00
    -11.165  0.0000E+00  0.1200E+00
    -11.059  0.0000E+00  0.1200E+00
    -10.953  0.0000E+00  0.1200E+00
    -10.847  0.0000E+00  0.1200E+00
    -10.742  0.0000E+00  0.1200E+00
    -10.636  0.0000E+00  0.1200E+00
    -10.530  0.0000E+00  0.1200E+00
    -10.424  0.0000E+00  0.1200E+00
    -10.319  0.0000E+00  0.1200E+00
    -10.213  0.0000E+00  0.1200E+00
    -10.107  0.0000E+00  0.1200E+00
    -10.001  0.0000E+00  0.1200E+00
     -9.896  0.0000E+00  0.1200E+00
     -9.790  0.0000E+00  0.1200E+00
     -9.684  0.0000E+00  0.1200E+00
     -9.578  0.0000E+00  0.1200E+00
     -9.473  0.0000E+00  0.1200E+00
     -9.367  0.5321E-10  0.1200E+00
     -9.261  0.2671E-04  0.1200E+00
     -9.155  0.4363E-02  0.1205E+00
     -9.050  0.2612E-02  0.1207E+00
     -8.944  0.3561E-03  0.1208E+00
     -8.838  0.1363E-01  0.1222E+00
     -8.732  0.4968E-01  0.1275E+00
     -8.627  0.6391E-02  0.1281E+00
     -8.521  0.8309E-02  0.1290E+00
     -8.415  0.3374E-01  0.1326E+00
     -8.309  0.3083E-01  0.1359E+00
     -8.204  0.5093E-01  0.1412E+00
     -8.098  0.2816E-01  0.1442E+00
     -7.992  0.2122E-02  0.1444E+00
     -7.886  0.3114E-02  0.1448E+00
     -7.781  0.4899E-01  0.1500E+00
     -7.675  0.4647E-01  0.1549E+00
     -7.569  0.5439E-01  0.1606E+00
     -7.463  0.1663E+00  0.1782E+00
     -7.358  0.7461E-01  0.1861E+00
     -7.252  0.6339E-01  0.1928E+00
     -7.146  0.6413E-01  0.1996E+00
     -7.040  0.3909E-02  0.2000E+00
     -6.935  0.4210E-06  0.2000E+00
     -6.829  0.1379E-13  0.2000E+00
     -6.723  0.0000E+00  0.2000E+00
     -6.617  0.0000E+00  0.2000E+00
     -6.512  0.0000E+00  0.2000E+00
     -6.406  0.0000E+00  0.2000E+00
     -6.300  0.0000E+00  0.2000E+00
     -6.194  0.0000E+00  0.2000E+00
     -6.089  0.0000E+00  0.2000E+00
     -5.983  0.0000E+00  0.2000E+00
     -5.877  0.0000E+00  0.2000E+00
     -5.771  0.0000E+00  0.2000E+00
     -5.666  0.0000E+00  0.2000E+00
     -5.560  0.0000E+00  0.2000E+00
     -5.454  0.0000E+00  0.2000E+00
     -5.348  0.4351E-12  0.2000E+00
     -5.243  0.3670E-05  0.2000E+00
     -5.137  0.7138E-02  0.2008E+00
     -5.031  0.2060E-01  0.2029E+00
     -4.925  0.2807E-03  0.2030E+00
     -4.820  0.1235E-01  0.2043E+00
     -4.714  0.4294E-01  0.2088E+00
     -4.608  0.7387E-03  0.2089E+00
     -4.502  0.6351E-03  0.2090E+00
     -4.397  0.4207E-01  0.2134E+00
     -4.291  0.3306E-01  0.2169E+00
     -4.185  0.3706E-01  0.2208E+00
     -4.079  0.2421E-01  0.2234E+00
     -3.973  0.2377E-01  0.2259E+00
     -3.868  0.1400E-01  0.2274E+00
     -3.762  0.2984E-03  0.2274E+00
     -3.656  0.1162E-06  0.2274E+00
     -3.550  0.1938E-02  0.2276E+00
     -3.445  0.2604E-01  0.2304E+00
     -3.339  0.1404E-01  0.2319E+00
     -3.233  0.4007E-01  0.2361E+00
     -3.127  0.1597E-01  0.2378E+00
     -3.022  0.1044E-04  0.2378E+00
     -2.916  0.1613E-11  0.2378E+00
     -2.810  0.3968E-14  0.2378E+00
     -2.704  0.1733E-06  0.2378E+00
     -2.599  0.1542E-02  0.2379E+00
     -2.493  0.1192E-01  0.2392E+00
     -2.387  0.6126E-03  0.2393E+00
     -2.281  0.5156E-02  0.2398E+00
     -2.176  0.1778E-02  0.2400E+00
     -2.070  0.9065E-06  0.2400E+00
     -1.964  0.1065E-12  0.2400E+00
     -1.858  0.0000E+00  0.2400E+00
     -1.753  0.0000E+00  0.2400E+00
     -1.647  0.0000E+00  0.2400E+00
     -1.541  0.0000E+00  0.2400E+00
     -1.435  0.0000E+00  0.2400E+00
     -1.330  0.0000E+00  0.2400E+00
     -1.224  0.0000E+00  0.2400E+00
     -1.118  0.1956E-13  0.2400E+00
     -1.012  0.5958E-06  0.2400E+00
     -0.907  0.3788E-02  0.2404E+00
     -0.801  0.2511E-01  0.2431E+00
     -0.695  0.2516E-01  0.2457E+00
     -0.589  0.3493E-01  0.2494E+00
     -0.484  0.4269E-01  0.2539E+00
     -0.378  0.1401E-02  0.2541E+00
     -0.272  0.1196E-06  0.2541E+00
     -0.166  0.9518E-03  0.2542E+00
     -0.061  0.4590E-01  0.2590E+00
      0.045  0.3198E-01  0.2624E+00
      0.151  0.1915E-01  0.2644E+00
      0.257  0.1152E-01  0.2657E+00
      0.362  0.6780E-01  0.2728E+00
      0.468  0.5592E-01  0.2787E+00
      0.574  0.5517E-01  0.2846E+00
      0.680  0.2032E-01  0.2867E+00
      0.785  0.3961E-01  0.2909E+00
      0.891  0.4356E-01  0.2955E+00
      0.997  0.9362E-03  0.2956E+00
      1.103  0.4392E-01  0.3003E+00
      1.208  0.1085E+00  0.3117E+00
      1.314  0.5402E-01  0.3175E+00
      1.420  0.6941E-01  0.3248E+00
      1.526  0.8715E-02  0.3257E+00
      1.631  0.4933E-01  0.3309E+00
      1.737  0.2348E-01  0.3334E+00
      1.843  0.4228E-01  0.3379E+00
      1.949  0.7997E-01  0.3463E+00
      2.054  0.7370E-01  0.3541E+00
      2.160  0.7385E-01  0.3619E+00
      2.266  0.3955E-01  0.3661E+00
      2.372  0.2587E-01  0.3689E+00
      2.477  0.1041E+00  0.3799E+00
      2.583  0.4738E-01  0.3849E+00
      2.689  0.1882E-01  0.3869E+00
      2.795  0.4444E-01  0.3916E+00
      2.900  0.1548E+00  0.4079E+00
      3.006  0.9185E-01  0.4177E+00
      3.112  0.6816E-01  0.4249E+00
      3.218  0.9003E-01  0.4344E+00
      3.324  0.7830E-01  0.4427E+00
      3.429  0.1119E+00  0.4545E+00
      3.535  0.4961E-01  0.4597E+00
      3.641  0.3326E-01  0.4633E+00
      3.747  0.3007E-01  0.4664E+00
      3.852  0.6727E-01  0.4736E+00
      3.958  0.3277E-01  0.4770E+00
      4.064  0.9568E-02  0.4780E+00
      4.170  0.1844E-01  0.4800E+00
      4.275  0.1425E-03  0.4800E+00
      4.381  0.3754E-09  0.4800E+00
      4.487  0.0000E+00  0.4800E+00
      4.593  0.0000E+00  0.4800E+00
      4.698  0.0000E+00  0.4800E+00
      4.804  0.0000E+00  0.4800E+00
      4.910  0.0000E+00  0.4800E+00
      5.016  0.0000E+00  0.4800E+00
      5.121  0.0000E+00  0.4800E+00
      5.227  0.0000E+00  0.4800E+00
      5.333  0.0000E+00  0.4800E+00
      5.439  0.0000E+00  0.4800E+00
      5.544  0.0000E+00  0.4800E+00
      5.650  0.0000E+00  0.4800E+00
      5.756  0.0000E+00  0.4800E+00
      5.862  0.9761E-11  0.4800E+00
      5.967  0.3567E-04  0.4800E+00
      6.073  0.3674E-01  0.4839E+00
      6.179  0.1015E+00  0.4946E+00
      6.285  0.2932E-01  0.4977E+00
      6.390  0.4808E-03  0.4978E+00
      6.496  0.4279E-02  0.4982E+00
      6.602  0.1124E+00  0.5101E+00
      6.708  0.5646E-01  0.5161E+00
      6.813  0.1274E-01  0.5174E+00
      6.919  0.7227E-01  0.5251E+00
      7.025  0.1451E-01  0.5266E+00
      7.131  0.2781E-02  0.5269E+00
      7.236  0.7660E-01  0.5350E+00
      7.342  0.5729E-01  0.5411E+00
      7.448  0.6179E-01  0.5476E+00
      7.554  0.5236E-01  0.5531E+00
      7.659  0.3023E-01  0.5563E+00
      7.765  0.4729E-01  0.5613E+00
      7.871  0.3405E-01  0.5649E+00
      7.977  0.2753E-01  0.5679E+00
      8.082  0.3069E-01  0.5711E+00
      8.188  0.3638E-02  0.5715E+00
      8.294  0.1034E-01  0.5726E+00
      8.400  0.8630E-03  0.5727E+00
      8.505  0.6113E-02  0.5733E+00
      8.611  0.6118E-02  0.5740E+00
      8.717  0.2784E-01  0.5769E+00
      8.823  0.2955E-01  0.5800E+00
      8.928  0.5926E-01  0.5863E+00
      9.034  0.4293E-01  0.5908E+00
      9.140  0.2583E-02  0.5911E+00
      9.246  0.1117E-04  0.5911E+00
      9.351  0.9152E-02  0.5921E+00
      9.457  0.6879E-01  0.5994E+00
      9.563  0.2005E-01  0.6015E+00
      9.669  0.2217E-02  0.6017E+00
      9.774  0.2807E-01  0.6047E+00
      9.880  0.2882E-01  0.6077E+00
      9.986  0.1746E-01  0.6096E+00
     10.092  0.5089E-01  0.6150E+00
     10.197  0.5414E-01  0.6207E+00
     10.303  0.7254E-01  0.6284E+00
     10.409  0.4981E-01  0.6336E+00
     10.515  0.3381E-01  0.6372E+00
     10.620  0.2574E-01  0.6399E+00
     10.726  0.7984E-03  0.6400E+00
     10.832  0.1380E-07  0.6400E+00
     10.938  0.4355E-16  0.6400E+00
     11.044  0.0000E+00  0.6400E+00
     11.149  0.0000E+00  0.6400E+00
     11.255  0.0000E+00  0.6400E+00
     11.361  0.0000E+00  0.6400E+00
     11.467  0.0000E+00  0.6400E+00
     11.572  0.0000E+00  0.6400E+00
     11.678  0.0000E+00  0.6400E+00
     11.784  0.0000E+00  0.6400E+00
     11.890  0.0000E+00  0.6400E+00
     11.995  0.0000E+00  0.6400E+00
