       N       E                     dE             d eps       ncg     rms          rms(c)
DAV:   1     0.175216875214E+03    0.17522E+03   -0.20355E+04   384   0.115E+03
DAV:   2    -0.278269189651E+02   -0.20304E+03   -0.20270E+03   576   0.176E+02
DAV:   3    -0.347882495540E+02   -0.69613E+01   -0.69613E+01   480   0.416E+01
DAV:   4    -0.348647317117E+02   -0.76482E-01   -0.76482E-01   704   0.532E+00
DAV:   5    -0.348647904358E+02   -0.58724E-04   -0.58724E-04   448   0.125E-01    0.101E+01
DAV:   6    -0.328821639913E+02    0.19826E+01   -0.86057E+00   448   0.747E+00    0.748E+00
DAV:   7    -0.328522151495E+02    0.29949E-01   -0.79074E-01   640   0.300E+00    0.378E+00
DAV:   8    -0.328562026366E+02   -0.39875E-02   -0.69507E-02   672   0.104E+00    0.619E-01
DAV:   9    -0.328574999098E+02   -0.12973E-02   -0.10607E-02   576   0.388E-01    0.161E-01
DAV:  10    -0.328579614672E+02   -0.46156E-03   -0.94294E-04   704   0.143E-01    0.680E-02
DAV:  11    -0.328581304203E+02   -0.16895E-03   -0.22107E-04   576   0.758E-02    0.214E-02
DAV:  12    -0.328581340430E+02   -0.36227E-05   -0.13883E-05   768   0.180E-02
   1 F= -.32858134E+02 E0= -.32858134E+02  d E =-.328581E+02
       N       E                     dE             d eps       ncg     rms          rms(c)
DAV:   1    -0.329228528193E+02   -0.64722E-01   -0.24788E+00   448   0.915E+00    0.142E+00
DAV:   2    -0.328910858093E+02    0.31767E-01   -0.79252E-02   640   0.162E+00    0.712E-01
DAV:   3    -0.328765154842E+02    0.14570E-01   -0.24630E-02   704   0.794E-01    0.242E-01
DAV:   4    -0.328756723032E+02    0.84318E-03   -0.18677E-03   640   0.224E-01    0.138E-01
DAV:   5    -0.328756049707E+02    0.67333E-04   -0.17208E-04   672   0.734E-02    0.354E-02
DAV:   6    -0.328756079540E+02   -0.29833E-05   -0.91347E-06   672   0.164E-02
   2 F= -.32875608E+02 E0= -.32875608E+02  d E =-.174739E-01
