 vasp.6.3.2 27Jun22 (build Jun 14 2024 17:29:11) complex                         
 executed on             LinuxGNU date 2026.03.29  20:28:09
 running on   32 total cores
 distrk:  each k-point on   32 cores,    1 groups
 distr:  one band on NCORE=   1 cores,   32 groups


--------------------------------------------------------------------------------------------------------


 INCAR:
   EDIFF = 1e-05
   EDIFFG = -0.05
   ENCUT = 400.0
   IBRION = 2
   ISIF = 3
   ISMEAR = 0
   LCHARG = False
   LREAL = Auto
   LWAVE = False
   NSW = 100
   SIGMA = 0.05

 POTCAR:    PAW_PBE Na_pv 19Sep2006               
 POTCAR:    PAW_PBE Sb 06Sep2000                  
 POTCAR:    PAW_PBE S 06Sep2000                   
 -----------------------------------------------------------------------------
|                                                                             |
|           W    W    AA    RRRRR   N    N  II  N    N   GGGG   !!!           |
|           W    W   A  A   R    R  NN   N  II  NN   N  G    G  !!!           |
|           W    W  A    A  R    R  N N  N  II  N N  N  G       !!!           |
|           W WW W  AAAAAA  RRRRR   N  N N  II  N  N N  G  GGG   !            |
|           WW  WW  A    A  R   R   N   NN  II  N   NN  G    G                |
|           W    W  A    A  R    R  N    N  II  N    N   GGGG   !!!           |
|                                                                             |
|     For optimal performance we recommend to set                             |
|       NCORE = 2 up to number-of-cores-per-socket                            |
|     NCORE specifies how many cores store one orbital (NPAR=cpu/NCORE).      |
|     This setting can greatly improve the performance of VASP for DFT.       |
|     The default, NCORE=1 might be grossly inefficient on modern             |
|     multi-core architectures or massively parallel machines. Do your        |
|     own testing! More info at https://www.vasp.at/wiki/index.php/NCORE      |
|     Unfortunately you need to use the default for GW and RPA                |
|     calculations (for HF NCORE is supported but not extensively tested      |
|     yet).                                                                   |
|                                                                             |
 -----------------------------------------------------------------------------

 POTCAR:    PAW_PBE Na_pv 19Sep2006               
   SHA256 =  6a2f546d9e11350984debacf3dc457d8cffc0868e817d445faca461816a32b94 Na_pv/POTCAR          
   COPYR  = (c) Copyright 19Sep2006 Georg Kresse                                                    
   COPYR  = This file is part of the software VASP. Any use, copying, and all other rights are regul
   COPYR  = If you do not have a valid VASP license, you may not use, copy or distribute this file. 
   VRHFIN =Na: p6s1                                                                                 
   LEXCH  = PE                                                                                      
   EATOM  =   766.0439 eV,   56.3026 Ry                                                             
                                                                                                    
   TITEL  = PAW_PBE Na_pv 19Sep2006                                                                 
   LULTRA =        F    use ultrasoft PP ?                                                          
   IUNSCR =        1    unscreen: 0-lin 1-nonlin 2-no                                               
   RPACOR =    1.800    partial core radius                                                         
   POMASS =   22.990; ZVAL   =    7.000    mass and valenz                                          
   RCORE  =    2.200    outmost cutoff radius                                                       
   RWIGS  =    2.200; RWIGS  =    1.164    wigner-seitz radius (au A)                               
   ENMAX  =  259.561; ENMIN  =  194.671 eV                                                          
   ICORE  =        2    local potential                                                             
   LCOR   =        T    correct aug charges                                                         
   LPAW   =        T    paw PP                                                                      
   EAUG   =  368.056                                                                                
   DEXC   =    0.000                                                                                
   RMAX   =    2.245    core radius for proj-oper                                                   
   RAUG   =    1.300    factor for augmentation sphere                                              
   RDEP   =    2.259    radius for radial grids                                                     
   RDEPT  =    1.738    core radius for aug-charge                                                  
                                                                                                    
   Atomic configuration                                                                             
    5 entries                                                                                       
     n  l   j            E        occ.                                                              
     1  0  0.50     -1033.6933   2.0000                                                             
     2  0  0.50       -56.7526   2.0000                                                             
     2  1  1.50       -28.6721   6.0000                                                             
     3  0  0.50        -2.7440   1.0000                                                             
     3  2  1.50        -1.3606   0.0000                                                             
   Description                                                                                      
     l       E           TYP  RCUT    TYP  RCUT                                                     
     1    -28.6720912     23  2.000                                                                 
     1      6.8029130     23  2.000                                                                 
     0     -2.7439560     23  2.200                                                                 
     0     34.0145650     23  2.200                                                                 
     2     -1.3605826     23  2.200                                                                 
  local pseudopotential read in
  partial core-charges read in
  partial kinetic energy density read in
  atomic valenz-charges read in
  non local Contribution for L=           1  read in
    real space projection operators read in
  non local Contribution for L=           1  read in
    real space projection operators read in
  non local Contribution for L=           0  read in
    real space projection operators read in
  non local Contribution for L=           0  read in
    real space projection operators read in
    PAW grid and wavefunctions read in

   number of l-projection  operators is LMAX  =           4
   number of lm-projection operators is LMMAX =           8

 POTCAR:    PAW_PBE Sb 06Sep2000                  
   SHA256 =  8a1325a3afd8ca988779475cff04188eb880a428d1acb53275fe456fa3b784fc Sb/POTCAR             
   COPYR  = (c) Copyright 06Sep2000 Georg Kresse                                                    
   COPYR  = This file is part of the software VASP. Any use, copying, and all other rights are regul
   COPYR  = If you do not have a valid VASP license, you may not use, copy or distribute this file. 
   VRHFIN =Sb: s2p3                                                                                 
   LEXCH  = PE                                                                                      
   EATOM  =   149.9515 eV,   11.0211 Ry                                                             
                                                                                                    
   TITEL  = PAW_PBE Sb 06Sep2000                                                                    
   LULTRA =        F    use ultrasoft PP ?                                                          
   IUNSCR =        1    unscreen: 0-lin 1-nonlin 2-no                                               
   RPACOR =    2.200    partial core radius                                                         
   POMASS =  121.750; ZVAL   =    5.000    mass and valenz                                          
   RCORE  =    2.300    outmost cutoff radius                                                       
   RWIGS  =    2.980; RWIGS  =    1.577    wigner-seitz radius (au A)                               
   ENMAX  =  172.069; ENMIN  =  129.052 eV                                                          
   ICORE  =        3    local potential                                                             
   LCOR   =        T    correct aug charges                                                         
   LPAW   =        T    paw PP                                                                      
   EAUG   =  380.513                                                                                
   DEXC   =    0.000                                                                                
   RMAX   =    2.346    core radius for proj-oper                                                   
   RAUG   =    1.300    factor for augmentation sphere                                              
   RDEP   =    2.360    radius for radial grids                                                     
   RDEPT  =    2.192    core radius for aug-charge                                                  
                                                                                                    
   Atomic configuration                                                                             
   13 entries                                                                                       
     n  l   j            E        occ.                                                              
     1  0  0.50    -30298.2797   2.0000                                                             
     2  0  0.50     -4610.2252   2.0000                                                             
     2  1  1.50     -4138.3407   6.0000                                                             
     3  0  0.50      -903.8815   2.0000                                                             
     3  1  1.50      -750.1337   6.0000                                                             
     3  2  2.50      -515.7092  10.0000                                                             
     4  0  0.50      -148.8034   2.0000                                                             
     4  1  1.50      -101.7581   6.0000                                                             
     4  2  2.50       -33.5048  10.0000                                                             
     5  0  0.50       -12.8298   2.0000                                                             
     5  1  0.50        -4.8276   3.0000                                                             
     5  2  1.50        -4.0817   0.0000                                                             
     4  3  2.50        -4.0817   0.0000                                                             
   Description                                                                                      
     l       E           TYP  RCUT    TYP  RCUT                                                     
     0    -12.8297861     23  2.300                                                                 
     0     13.6058260     23  2.300                                                                 
     1     -4.8275512     23  2.300                                                                 
     1     -0.7245443     23  2.300                                                                 
     2     -4.0817478     23  2.300                                                                 
     3     -1.3605826     23  2.300                                                                 
  local pseudopotential read in
  partial core-charges read in
  partial kinetic energy density read in
  atomic valenz-charges read in
  non local Contribution for L=           0  read in
    real space projection operators read in
  non local Contribution for L=           0  read in
    real space projection operators read in
  non local Contribution for L=           1  read in
    real space projection operators read in
  non local Contribution for L=           1  read in
    real space projection operators read in
  non local Contribution for L=           2  read in
    real space projection operators read in
    PAW grid and wavefunctions read in

   number of l-projection  operators is LMAX  =           5
   number of lm-projection operators is LMMAX =          13

 POTCAR:    PAW_PBE S 06Sep2000                   
   SHA256 =  0fc7481fb0695f01bdc6462160264c5c84044ae9ec85a907d398b887a2bc3132 S/POTCAR              
   COPYR  = (c) Copyright 06Sep2000 Georg Kresse                                                    
   COPYR  = This file is part of the software VASP. Any use, copying, and all other rights are regul
   COPYR  = If you do not have a valid VASP license, you may not use, copy or distribute this file. 
   VRHFIN =S : s2p4                                                                                 
   LEXCH  = PE                                                                                      
   EATOM  =   276.8230 eV,   20.3459 Ry                                                             
                                                                                                    
   TITEL  = PAW_PBE S 06Sep2000                                                                     
   LULTRA =        F    use ultrasoft PP ?                                                          
   IUNSCR =        1    unscreen: 0-lin 1-nonlin 2-no                                               
   RPACOR =    1.500    partial core radius                                                         
   POMASS =   32.066; ZVAL   =    6.000    mass and valenz                                          
   RCORE  =    1.900    outmost cutoff radius                                                       
   RWIGS  =    2.200; RWIGS  =    1.164    wigner-seitz radius (au A)                               
   ENMAX  =  258.689; ENMIN  =  194.016 eV                                                          
   ICORE  =        2    local potential                                                             
   LCOR   =        T    correct aug charges                                                         
   LPAW   =        T    paw PP                                                                      
   EAUG   =  335.092                                                                                
   DEXC   =    0.000                                                                                
   RMAX   =    1.942    core radius for proj-oper                                                   
   RAUG   =    1.300    factor for augmentation sphere                                              
   RDEP   =    1.954    radius for radial grids                                                     
   RDEPT  =    1.744    core radius for aug-charge                                                  
                                                                                                    
   Atomic configuration                                                                             
    6 entries                                                                                       
     n  l   j            E        occ.                                                              
     1  0  0.50     -2405.8406   2.0000                                                             
     2  0  0.50      -211.7007   2.0000                                                             
     2  1  1.50      -156.4958   6.0000                                                             
     3  0  0.50       -17.2562   2.0000                                                             
     3  1  0.50        -7.0085   4.0000                                                             
     3  2  1.50        -6.8029   0.0000                                                             
   Description                                                                                      
     l       E           TYP  RCUT    TYP  RCUT                                                     
     0    -17.2561641     23  1.900                                                                 
     0    -15.8743224     23  1.900                                                                 
     1     -7.0085400     23  1.900                                                                 
     1     -2.7779785     23  1.900                                                                 
     2     -6.8029130     23  1.900                                                                 
  local pseudopotential read in
  partial core-charges read in
  partial kinetic energy density read in
  atomic valenz-charges read in
  non local Contribution for L=           0  read in
    real space projection operators read in
  non local Contribution for L=           0  read in
    real space projection operators read in
  non local Contribution for L=           1  read in
    real space projection operators read in
  non local Contribution for L=           1  read in
    real space projection operators read in
    PAW grid and wavefunctions read in

   number of l-projection  operators is LMAX  =           4
   number of lm-projection operators is LMMAX =           8

 -----------------------------------------------------------------------------
|                                                                             |
|               ----> ADVICE to this user running VASP <----                  |
|                                                                             |
|     You have a (more or less) 'small supercell' and for smaller cells       |
|     it is recommended to use the reciprocal-space projection scheme!        |
|     The real-space optimization is not efficient for small cells and it     |
|     is also less accurate ...                                               |
|     Therefore, set LREAL=.FALSE. in the INCAR file.                         |
|                                                                             |
 -----------------------------------------------------------------------------

 Optimization of the real space projectors (new method)

 maximal supplied QI-value         = 17.01
 optimisation between [QCUT,QGAM] = [ 10.20, 20.41] = [ 29.16,116.64] Ry 
 Optimized for a Real-space Cutoff    1.30 Angstroem

   l    n(q)    QCUT    max X(q) W(low)/X(q) W(high)/X(q)  e(spline) 
   1      7    10.205     4.940    0.23E-03    0.84E-03    0.11E-06
   1      7    10.205     6.253    0.40E-03    0.13E-02    0.18E-06
   0      8    10.205    37.438    0.23E-03    0.37E-03    0.42E-07
   0      8    10.205     9.606    0.16E-03    0.26E-03    0.31E-07
 Optimization of the real space projectors (new method)

 maximal supplied QI-value         = 16.25
 optimisation between [QCUT,QGAM] = [ 10.24, 20.48] = [ 29.35,117.42] Ry 
 Optimized for a Real-space Cutoff    1.38 Angstroem

   l    n(q)    QCUT    max X(q) W(low)/X(q) W(high)/X(q)  e(spline) 
   0      8    10.239    19.000    0.74E-04    0.15E-03    0.61E-07
   0      8    10.239     9.057    0.91E-04    0.19E-03    0.74E-07
   1      8    10.239   125.345    0.50E-03    0.38E-03    0.74E-07
   1      8    10.239    79.963    0.49E-03    0.37E-03    0.73E-07
   2      7    10.239     6.963    0.74E-04    0.11E-03    0.40E-07
 Optimization of the real space projectors (new method)

 maximal supplied QI-value         = 19.84
 optimisation between [QCUT,QGAM] = [ 10.12, 20.44] = [ 28.68,116.96] Ry 
 Optimized for a Real-space Cutoff    1.23 Angstroem

   l    n(q)    QCUT    max X(q) W(low)/X(q) W(high)/X(q)  e(spline) 
   0      7    10.119   187.594    0.62E-04    0.28E-03    0.52E-07
   0      7    10.119   164.243    0.61E-04    0.28E-03    0.52E-07
   1      7    10.119    67.533    0.45E-03    0.63E-03    0.13E-06
   1      7    10.119    50.729    0.44E-03    0.62E-03    0.12E-06
  PAW_PBE Na_pv 19Sep2006               :
 energy of atom  1       EATOM= -766.0439
 kinetic energy error for atom=    0.0103 (will be added to EATOM!!)
  PAW_PBE Sb 06Sep2000                  :
 energy of atom  2       EATOM= -149.9515
 kinetic energy error for atom=    0.0008 (will be added to EATOM!!)
  PAW_PBE S 06Sep2000                   :
 energy of atom  3       EATOM= -276.8230
 kinetic energy error for atom=    0.0046 (will be added to EATOM!!)


 POSCAR: Na2 Sb2 S4
  positions in direct lattice
  No initial velocities read in
 exchange correlation table for  LEXCH =        8
   RHO(1)=    0.500       N(1)  =     2000
   RHO(2)=  100.500       N(2)  =     4000



--------------------------------------------------------------------------------------------------------


 ion  position               nearest neighbor table
   1  0.500  0.500  0.000-
   2  0.250  0.750  0.500-
   3  0.000  0.000  0.000-   5 2.76   6 2.76   8 2.79   7 2.79   8 2.79   7 2.79
   4  0.750  0.250  0.500-   7 2.76   8 2.76   5 2.79   6 2.79   5 2.79   6 2.79
   5  0.761  0.761  0.000-   3 2.76   4 2.79   4 2.79
   6  0.239  0.239  0.000-   3 2.76   4 2.79   4 2.79
   7  0.989  0.489  0.500-   4 2.76   3 2.79   3 2.79
   8  0.511  0.011  0.500-   4 2.76   3 2.79   3 2.79

  LATTYP: Found a body centered tetragonal cell.
 ALAT       =     5.5815359975
 C/A-ratio  =     2.0672983207
  
  Lattice vectors:
  
 A1 = (   5.1174041075,   0.0000000000,  -4.7617587758)
 A2 = (  -0.9703590313,   5.0245624834,  -4.7617587758)
 A3 = (   0.0000000000,   0.0000000000,   6.9901481700)


Analysis of symmetry for initial positions (statically):
=====================================================================
 Subroutine PRICEL returns:
 Original cell was already a primitive cell.
 

 Routine SETGRP: Setting up the symmetry group for a 
 body centered tetragonal supercell.


 Subroutine GETGRP returns: Found 16 space group operations
 (whereof  8 operations were pure point group operations)
 out of a pool of 16 trial point group operations.


The static configuration has the point symmetry D_2d.
 The point group associated with its full space group is D_4h.


Analysis of symmetry for dynamics (positions and initial velocities):
=====================================================================
 Subroutine PRICEL returns:
 Original cell was already a primitive cell.
 

 Routine SETGRP: Setting up the symmetry group for a 
 body centered tetragonal supercell.


 Subroutine GETGRP returns: Found 16 space group operations
 (whereof  8 operations were pure point group operations)
 out of a pool of 16 trial point group operations.


The dynamic configuration has the point symmetry D_2d.
 The point group associated with its full space group is D_4h.


 Subroutine INISYM returns: Found 16 space group operations
 (whereof  8 operations are pure point group operations),
 and found     1 'primitive' translations


----------------------------------------------------------------------------------------

                                     Primitive cell                                     

  volume of cell :     179.7357

  direct lattice vectors                    reciprocal lattice vectors
     5.117404107  0.000000000 -4.761758776     0.195411576  0.037738487 -0.000000000
    -0.970359031  5.024562483 -4.761758776    -0.000000000  0.199022304  0.000000000
     0.000000000  0.000000000  6.990148170     0.133116318  0.161283816  0.143058484

  length of vectors
     6.990148170  6.990148170  6.990148170     0.199022304  0.199022304  0.253373545

  position of ions in fractional coordinates (direct lattice)
     0.500000000  0.500000000  0.000000000
     0.250000000  0.750000000  0.500000000
     0.000000000  0.000000000  0.000000000
     0.750000000  0.250000000  0.500000000
     0.761015000  0.761015000  0.000000000
     0.238985000  0.238985000  0.000000000
     0.988985000  0.488985000  0.500000000
     0.511015000  0.011015000  0.500000000

  ion indices of the primitive-cell ions
   primitive index   ion index
                 1           1
                 2           2
                 3           3
                 4           4
                 5           5
                 6           6
                 7           7
                 8           8

----------------------------------------------------------------------------------------



 KPOINTS: pymatgen with grid density = 500 / numbe

Automatic generation of k-mesh.
 Grid dimensions read from file:
 generate k-points for:    3    3    3

 Generating k-lattice:

  Cartesian coordinates                     Fractional coordinates (reciprocal lattice)
     0.065137192  0.012579496 -0.000000000     0.333333333  0.000000000  0.000000000
    -0.000000000  0.066340768  0.000000000     0.000000000  0.333333333  0.000000000
     0.044372106  0.053761272  0.047686161    -0.000000000  0.000000000  0.333333333

  Length of vectors
     0.066340768  0.066340768  0.084457848

  Shift w.r.t. Gamma in fractional coordinates (k-lattice)
     0.000000000  0.000000000  0.000000000

 
 Subroutine IBZKPT returns following result:
 ===========================================
 
 Found      6 irreducible k-points:
 
 Following reciprocal coordinates:
            Coordinates               Weight
  0.000000  0.000000  0.000000      1.000000
  0.333333  0.000000  0.000000      8.000000
  0.333333  0.333333  0.000000      8.000000
 -0.333333  0.333333  0.000000      4.000000
 -0.333333  0.333333  0.333333      4.000000
 -0.333333 -0.333333  0.333333      2.000000
 
 Following cartesian coordinates:
            Coordinates               Weight
  0.000000  0.000000  0.000000      1.000000
  0.065137  0.012579  0.000000      8.000000
  0.065137  0.078920  0.000000      8.000000
 -0.065137  0.053761  0.000000      4.000000
 -0.020765  0.107523  0.047686      4.000000
 -0.020765 -0.025159  0.047686      2.000000
 


--------------------------------------------------------------------------------------------------------




 Dimension of arrays:
   k-points           NKPTS =      6   k-points in BZ     NKDIM =      6   number of bands    NBANDS=     32
   number of dos      NEDOS =    301   number of ions     NIONS =      8
   non local maximal  LDIM  =      5   non local SUM 2l+1 LMDIM =     13
   total plane-waves  NPLWV =  46656
   max r-space proj   IRMAX =   2910   max aug-charges    IRDMAX=  14604
   dimension x,y,z NGX =    36 NGY =   36 NGZ =   36
   dimension x,y,z NGXF=    72 NGYF=   72 NGZF=   72
   support grid    NGXF=    72 NGYF=   72 NGZF=   72
   ions per type =               2   2   4
   NGX,Y,Z   is equivalent  to a cutoff of   8.56,  8.56,  8.56 a.u.
   NGXF,Y,Z  is equivalent  to a cutoff of  17.12, 17.12, 17.12 a.u.

 SYSTEM =  unknown system                          
 POSCAR =  Na2 Sb2 S4                              

 Startparameter for this run:
   NWRITE =      2    write-flag & timer
   PREC   = normal    normal or accurate (medium, high low for compatibility)
   ISTART =      0    job   : 0-new  1-cont  2-samecut
   ICHARG =      2    charge: 1-file 2-atom 10-const
   ISPIN  =      1    spin polarized calculation?
   LNONCOLLINEAR =      F non collinear calculations
   LSORBIT =      F    spin-orbit coupling
   INIWAV =      1    electr: 0-lowe 1-rand  2-diag
   LASPH  =      F    aspherical Exc in radial PAW
 Electronic Relaxation 1
   ENCUT  =  400.0 eV  29.40 Ry    5.42 a.u.  11.40 11.40 11.40*2*pi/ulx,y,z
   ENINI  =  400.0     initial cutoff
   ENAUG  =  380.5 eV  augmentation charge cutoff
   NELM   =     60;   NELMIN=  2; NELMDL= -5     # of ELM steps 
   EDIFF  = 0.1E-04   stopping-criterion for ELM
   LREAL  =      T    real-space projection
   NLSPLINE    = F    spline interpolate recip. space projectors
   LCOMPAT=      F    compatible to vasp.4.4
   GGA_COMPAT  = T    GGA compatible to vasp.4.4-vasp.4.6
   LMAXPAW     = -100 max onsite density
   LMAXMIX     =    2 max onsite mixed and CHGCAR
   VOSKOWN=      0    Vosko Wilk Nusair interpolation
   ROPT   =   -0.00050  -0.00050  -0.00050
 Ionic relaxation
   EDIFFG = -.5E-01   stopping-criterion for IOM
   NSW    =    100    number of steps for IOM
   NBLOCK =      1;   KBLOCK =    100    inner block; outer block 
   IBRION =      2    ionic relax: 0-MD 1-quasi-New 2-CG
   NFREE  =      1    steps in history (QN), initial steepest desc. (CG)
   ISIF   =      3    stress and relaxation
   IWAVPR =     11    prediction:  0-non 1-charg 2-wave 3-comb
   ISYM   =      2    0-nonsym 1-usesym 2-fastsym
   LCORR  =      T    Harris-Foulkes like correction to forces

   POTIM  = 0.5000    time-step for ionic-motion
   TEIN   =    0.0    initial temperature
   TEBEG  =    0.0;   TEEND  =   0.0 temperature during run
   SMASS  =  -3.00    Nose mass-parameter (am)
   estimated Nose-frequenzy (Omega)   =  0.10E-29 period in steps = 0.13E+47 mass=  -0.112E-26a.u.
   SCALEE = 1.0000    scale energy and forces
   NPACO  =    256;   APACO  = 10.0  distance and # of slots for P.C.
   PSTRESS=    0.0 pullay stress

  Mass of Ions in am
   POMASS =  22.99121.75 32.07
  Ionic Valenz
   ZVAL   =   7.00  5.00  6.00
  Atomic Wigner-Seitz radii
   RWIGS  =  -1.00 -1.00 -1.00
  virtual crystal weights 
   VCA    =   1.00  1.00  1.00
   NELECT =      48.0000    total number of electrons
   NUPDOWN=      -1.0000    fix difference up-down

 DOS related values:
   EMIN   =  10.00;   EMAX   =-10.00  energy-range for DOS
   EFERMI =   0.00
   ISMEAR =     0;   SIGMA  =   0.05  broadening in eV -4-tet -1-fermi 0-gaus

 Electronic relaxation 2 (details)
   IALGO  =     38    algorithm
   LDIAG  =      T    sub-space diagonalisation (order eigenvalues)
   LSUBROT=      F    optimize rotation matrix (better conditioning)
   TURBO    =      0    0=normal 1=particle mesh
   IRESTART =      0    0=no restart 2=restart with 2 vectors
   NREBOOT  =      0    no. of reboots
   NMIN     =      0    reboot dimension
   EREF     =   0.00    reference energy to select bands
   IMIX   =      4    mixing-type and parameters
     AMIX     =   0.40;   BMIX     =  1.00
     AMIX_MAG =   1.60;   BMIX_MAG =  1.00
     AMIN     =   0.10
     WC   =   100.;   INIMIX=   1;  MIXPRE=   1;  MAXMIX= -45

 Intra band minimization:
   WEIMIN = 0.0010     energy-eigenvalue tresh-hold
   EBREAK =  0.78E-07  absolut break condition
   DEPER  =   0.30     relativ break condition  

   TIME   =   0.40     timestep for ELM

  volume/ion in A,a.u.               =      22.47       151.61
  Fermi-wavevector in a.u.,A,eV,Ry     =   1.054250  1.992244 15.122114  1.111444
  Thomas-Fermi vector in A             =   2.189403

 Write flags
   LWAVE        =      F    write WAVECAR
   LDOWNSAMPLE  =      F    k-point downsampling of WAVECAR
   LCHARG       =      F    write CHGCAR
   LVTOT        =      F    write LOCPOT, total local potential
   LVHAR        =      F    write LOCPOT, Hartree potential only
   LELF         =      F    write electronic localiz. function (ELF)
   LORBIT       =      0    0 simple, 1 ext, 2 COOP (PROOUT), +10 PAW based schemes


 Dipole corrections
   LMONO  =      F    monopole corrections only (constant potential shift)
   LDIPOL =      F    correct potential (dipole corrections)
   IDIPOL =      0    1-x, 2-y, 3-z, 4-all directions 
   EPSILON=  1.0000000 bulk dielectric constant

 Exchange correlation treatment:
   GGA     =    --    GGA type
   LEXCH   =     8    internal setting for exchange type
   LIBXC   =     F    Libxc                    
   VOSKOWN =     0    Vosko Wilk Nusair interpolation
   LHFCALC =     F    Hartree Fock is set to
   LHFONE  =     F    Hartree Fock one center treatment
   AEXX    =    0.0000 exact exchange contribution

 Linear response parameters
   LEPSILON=     F    determine dielectric tensor
   LRPA    =     F    only Hartree local field effects (RPA)
   LNABLA  =     F    use nabla operator in PAW spheres
   LVEL    =     F    velocity operator in full k-point grid
   CSHIFT  =0.1000    complex shift for real part using Kramers Kronig
   OMEGAMAX=  -1.0    maximum frequency
   DEG_THRESHOLD= 0.2000000E-02 threshold for treating states as degnerate
   RTIME   =   -0.100 relaxation time in fs
  (WPLASMAI=    0.000 imaginary part of plasma frequency in eV, 0.658/RTIME)
   DFIELD  = 0.0000000 0.0000000 0.0000000 field for delta impulse in time

  Optional k-point grid parameters
   LKPOINTS_OPT  =     F    use optional k-point grid
   KPOINTS_OPT_MODE=     1    mode for optional k-point grid

 Orbital magnetization related:
   ORBITALMAG=     F  switch on orbital magnetization
   LCHIMAG   =     F  perturbation theory with respect to B field
   DQ        =  0.001000  dq finite difference perturbation B field
   LLRAUG    =     F  two centre corrections for induced B field



--------------------------------------------------------------------------------------------------------


 conjugate gradient relaxation of ions
 charge density and potential will be updated during run
 non-spin polarized calculation
 Variant of blocked Davidson
 Davidson routine will perform the subspace rotation
 perform sub-space diagonalisation
    after iterative eigenvector-optimisation
 modified Broyden-mixing scheme, WC =      100.0
 initial mixing is a Kerker type mixing with AMIX =  0.4000 and BMIX =      1.0000
 Hartree-type preconditioning will be used
 using additional bands            8
 real space projection scheme for non local part
 use partial core corrections
 calculate Harris-corrections to forces   (improved forces if not selfconsistent)
 use gradient corrections 
 use of overlap-Matrix (Vanderbilt PP)
 Gauss-broadening in eV      SIGMA  =   0.05


--------------------------------------------------------------------------------------------------------


  energy-cutoff  :      400.00
  volume of cell :      179.74
      direct lattice vectors                 reciprocal lattice vectors
     5.117404107  0.000000000 -4.761758776     0.195411576  0.037738487 -0.000000000
    -0.970359031  5.024562483 -4.761758776    -0.000000000  0.199022304  0.000000000
     0.000000000  0.000000000  6.990148170     0.133116318  0.161283816  0.143058484

  length of vectors
     6.990148170  6.990148170  6.990148170     0.199022304  0.199022304  0.253373545



 k-points in units of 2pi/SCALE and weight: pymatgen with grid density = 500 / numbe
   0.00000000  0.00000000  0.00000000       0.037
   0.06513719  0.01257950  0.00000000       0.296
   0.06513719  0.07892026  0.00000000       0.296
  -0.06513719  0.05376127  0.00000000       0.148
  -0.02076509  0.10752254  0.04768616       0.148
  -0.02076509 -0.02515899  0.04768616       0.074

 k-points in reciprocal lattice and weights: pymatgen with grid density = 500 / numbe
   0.00000000  0.00000000  0.00000000       0.037
   0.33333333  0.00000000  0.00000000       0.296
   0.33333333  0.33333333  0.00000000       0.296
  -0.33333333  0.33333333  0.00000000       0.148
  -0.33333333  0.33333333  0.33333333       0.148
  -0.33333333 -0.33333333  0.33333333       0.074

 position of ions in fractional coordinates (direct lattice) 
   0.50000000  0.50000000  0.00000000
   0.25000000  0.75000000  0.50000000
   0.00000000  0.00000000  0.00000000
   0.75000000  0.25000000  0.50000000
   0.76101500  0.76101500  0.00000000
   0.23898500  0.23898500  0.00000000
   0.98898500  0.48898500  0.50000000
   0.51101500  0.01101500  0.50000000

 position of ions in cartesian coordinates  (Angst):
   2.07352254  2.51228124 -4.76175878
   0.55158175  3.76842186 -1.26668469
   0.00000000  0.00000000  0.00000000
   3.59546332  1.25614062 -1.26668469
   3.15596351  3.82376742 -7.24753971
   0.99108157  1.20079507 -2.27597784
   4.58654489  2.45693569 -3.54266253
   2.60438176  0.05534556  1.00929315



--------------------------------------------------------------------------------------------------------


 k-point   1 :   0.0000 0.0000 0.0000  plane waves:    3235
 k-point   2 :   0.3333 0.0000 0.0000  plane waves:    3277
 k-point   3 :   0.3333 0.3333 0.0000  plane waves:    3269
 k-point   4 :  -0.3333 0.3333 0.0000  plane waves:    3289
 k-point   5 :  -0.3333 0.3333 0.3333  plane waves:    3255
 k-point   6 :  -0.3333-0.3333 0.3333  plane waves:    3267

 maximum and minimum number of plane-waves per node :      3289     3235

 maximum number of plane-waves:      3289
 maximum index in each direction: 
   IXMAX=   11   IYMAX=   11   IZMAX=   11
   IXMIN=  -11   IYMIN=  -11   IZMIN=  -11


 serial   3D FFT for wavefunctions
 parallel 3D FFT for charge:
    minimum data exchange during FFTs selected (reduces bandwidth)


 total amount of memory used by VASP MPI-rank0    35891. kBytes
=======================================================================

   base      :      30000. kBytes
   nonlr-proj:       1891. kBytes
   fftplans  :        708. kBytes
   grid      :       2903. kBytes
   one-center:         64. kBytes
   wavefun   :        325. kBytes

     INWAV:  cpu time      0.0000: real time      0.0002
 Broyden mixing: mesh for mixing (old mesh)
   NGX = 23   NGY = 23   NGZ = 23
  (NGX  = 72   NGY  = 72   NGZ  = 72)
  gives a total of  12167 points

 initial charge density was supplied:
 charge density of overlapping atoms calculated
 number of electron      48.0000000 magnetization 
 keeping initial charge density in first step


--------------------------------------------------------------------------------------------------------


 Maximum index for non-local projection operator         2777
 Maximum index for augmentation-charges         1103 (set IRDMAX)


--------------------------------------------------------------------------------------------------------


 First call to EWALD:  gamma=   0.314
 Maximum number of real-space cells 3x 3x 4
 Maximum number of reciprocal cells 3x 3x 3

    FEWALD:  cpu time      0.0007: real time      0.0008


--------------------------------------- Iteration      1(   1)  ---------------------------------------


    POTLOK:  cpu time      0.0140: real time      0.0142
    SETDIJ:  cpu time      0.0026: real time      0.0027
     EDDAV:  cpu time      0.1506: real time      0.1508
       DOS:  cpu time      0.0005: real time      0.0007
    --------------------------------------------
      LOOP:  cpu time      0.1677: real time      0.1685

 eigenvalue-minimisations  :   384
 total energy-change (2. order) : 0.1752169E+03  (-0.2035495E+04)
 number of electron      48.0000000 magnetization 
 augmentation part       48.0000000 magnetization 

 Free energy of the ion-electron system (eV)
  ---------------------------------------------------
  alpha Z        PSCENC =        43.77227828
  Ewald energy   TEWEN  =     -2099.69206701
  -Hartree energ DENC   =      -597.65240994
  -exchange      EXHF   =         0.00000000
  -V(xc)+E(xc)   XCENC  =         6.39260908
  PAW double counting   =      2201.99118543    -2258.46358349
  entropy T*S    EENTRO =        -0.00725249
  eigenvalues    EBANDS =       -60.36604289
  atomic energy  EATOM  =      2939.24215825
  Solvation  Ediel_sol  =         0.00000000
  ---------------------------------------------------
  free energy    TOTEN  =       175.21687521 eV

  energy without entropy =      175.22412771  energy(sigma->0) =      175.22050146


--------------------------------------------------------------------------------------------------------




--------------------------------------- Iteration      1(   2)  ---------------------------------------


     EDDAV:  cpu time      0.2514: real time      0.2519
       DOS:  cpu time      0.0002: real time      0.0003
    --------------------------------------------
      LOOP:  cpu time      0.2515: real time      0.2522

 eigenvalue-minimisations  :   576
 total energy-change (2. order) :-0.2030438E+03  (-0.2027033E+03)
 number of electron      48.0000000 magnetization 
 augmentation part       48.0000000 magnetization 

 Free energy of the ion-electron system (eV)
  ---------------------------------------------------
  alpha Z        PSCENC =        43.77227828
  Ewald energy   TEWEN  =     -2099.69206701
  -Hartree energ DENC   =      -597.65240994
  -exchange      EXHF   =         0.00000000
  -V(xc)+E(xc)   XCENC  =         6.39260908
  PAW double counting   =      2201.99118543    -2258.46358349
  entropy T*S    EENTRO =        -0.00000000
  eigenvalues    EBANDS =      -263.41708957
  atomic energy  EATOM  =      2939.24215825
  Solvation  Ediel_sol  =         0.00000000
  ---------------------------------------------------
  free energy    TOTEN  =       -27.82691897 eV

  energy without entropy =      -27.82691897  energy(sigma->0) =      -27.82691897


--------------------------------------------------------------------------------------------------------




--------------------------------------- Iteration      1(   3)  ---------------------------------------


     EDDAV:  cpu time      0.2050: real time      0.2052
       DOS:  cpu time      0.0002: real time      0.0003
    --------------------------------------------
      LOOP:  cpu time      0.2052: real time      0.2054

 eigenvalue-minimisations  :   480
 total energy-change (2. order) :-0.6961331E+01  (-0.6961331E+01)
 number of electron      48.0000000 magnetization 
 augmentation part       48.0000000 magnetization 

 Free energy of the ion-electron system (eV)
  ---------------------------------------------------
  alpha Z        PSCENC =        43.77227828
  Ewald energy   TEWEN  =     -2099.69206701
  -Hartree energ DENC   =      -597.65240994
  -exchange      EXHF   =         0.00000000
  -V(xc)+E(xc)   XCENC  =         6.39260908
  PAW double counting   =      2201.99118543    -2258.46358349
  entropy T*S    EENTRO =        -0.00000000
  eigenvalues    EBANDS =      -270.37842016
  atomic energy  EATOM  =      2939.24215825
  Solvation  Ediel_sol  =         0.00000000
  ---------------------------------------------------
  free energy    TOTEN  =       -34.78824955 eV

  energy without entropy =      -34.78824955  energy(sigma->0) =      -34.78824955


--------------------------------------------------------------------------------------------------------




--------------------------------------- Iteration      1(   4)  ---------------------------------------


     EDDAV:  cpu time      0.3563: real time      0.3569
       DOS:  cpu time      0.0003: real time      0.0004
    --------------------------------------------
      LOOP:  cpu time      0.3566: real time      0.3573

 eigenvalue-minimisations  :   704
 total energy-change (2. order) :-0.7648216E-01  (-0.7648216E-01)
 number of electron      48.0000000 magnetization 
 augmentation part       48.0000000 magnetization 

 Free energy of the ion-electron system (eV)
  ---------------------------------------------------
  alpha Z        PSCENC =        43.77227828
  Ewald energy   TEWEN  =     -2099.69206701
  -Hartree energ DENC   =      -597.65240994
  -exchange      EXHF   =         0.00000000
  -V(xc)+E(xc)   XCENC  =         6.39260908
  PAW double counting   =      2201.99118543    -2258.46358349
  entropy T*S    EENTRO =        -0.00000000
  eigenvalues    EBANDS =      -270.45490231
  atomic energy  EATOM  =      2939.24215825
  Solvation  Ediel_sol  =         0.00000000
  ---------------------------------------------------
  free energy    TOTEN  =       -34.86473171 eV

  energy without entropy =      -34.86473171  energy(sigma->0) =      -34.86473171


--------------------------------------------------------------------------------------------------------




--------------------------------------- Iteration      1(   5)  ---------------------------------------


     EDDAV:  cpu time      0.2152: real time      0.2155
       DOS:  cpu time      0.0003: real time      0.0004
    CHARGE:  cpu time      0.0132: real time      0.0134
    MIXING:  cpu time      0.0041: real time      0.0042
    --------------------------------------------
      LOOP:  cpu time      0.2327: real time      0.2335

 eigenvalue-minimisations  :   448
 total energy-change (2. order) :-0.5872408E-04  (-0.5872408E-04)
 number of electron      48.0000077 magnetization 
 augmentation part        3.9359690 magnetization 

 Broyden mixing:
  rms(total) = 0.10068E+01    rms(broyden)= 0.10068E+01
  rms(prec ) = 0.16554E+01
  weight for this iteration     100.00

 Free energy of the ion-electron system (eV)
  ---------------------------------------------------
  alpha Z        PSCENC =        43.77227828
  Ewald energy   TEWEN  =     -2099.69206701
  -Hartree energ DENC   =      -597.65240994
  -exchange      EXHF   =         0.00000000
  -V(xc)+E(xc)   XCENC  =         6.39260908
  PAW double counting   =      2201.99118543    -2258.46358349
  entropy T*S    EENTRO =        -0.00000000
  eigenvalues    EBANDS =      -270.45496104
  atomic energy  EATOM  =      2939.24215825
  Solvation  Ediel_sol  =         0.00000000
  ---------------------------------------------------
  free energy    TOTEN  =       -34.86479044 eV

  energy without entropy =      -34.86479044  energy(sigma->0) =      -34.86479044


--------------------------------------------------------------------------------------------------------




--------------------------------------- Iteration      1(   6)  ---------------------------------------


    POTLOK:  cpu time      0.0138: real time      0.0139
    SETDIJ:  cpu time      0.0018: real time      0.0018
     EDDAV:  cpu time      0.1876: real time      0.1876
       DOS:  cpu time      0.0002: real time      0.0004
    CHARGE:  cpu time      0.0113: real time      0.0113
    MIXING:  cpu time      0.0006: real time      0.0006
    --------------------------------------------
      LOOP:  cpu time      0.2152: real time      0.2156

 eigenvalue-minimisations  :   448
 total energy-change (2. order) : 0.1982626E+01  (-0.8605685E+00)
 number of electron      48.0000076 magnetization 
 augmentation part        4.0111022 magnetization 

 Broyden mixing:
  rms(total) = 0.74783E+00    rms(broyden)= 0.74783E+00
  rms(prec ) = 0.81955E+00
  weight for this iteration     100.00

 eigenvalues of (default mixing * dielectric matrix)
  average eigenvalue GAMMA=   1.5767
  1.5767

 Free energy of the ion-electron system (eV)
  ---------------------------------------------------
  alpha Z        PSCENC =        43.77227828
  Ewald energy   TEWEN  =     -2099.69206701
  -Hartree energ DENC   =      -610.70830715
  -exchange      EXHF   =         0.00000000
  -V(xc)+E(xc)   XCENC  =         7.61624596
  PAW double counting   =      2605.75378987    -2662.63724593
  entropy T*S    EENTRO =        -0.00000000
  eigenvalues    EBANDS =      -256.22901626
  atomic energy  EATOM  =      2939.24215825
  Solvation  Ediel_sol  =         0.00000000
  ---------------------------------------------------
  free energy    TOTEN  =       -32.88216399 eV

  energy without entropy =      -32.88216399  energy(sigma->0) =      -32.88216399


--------------------------------------------------------------------------------------------------------




--------------------------------------- Iteration      1(   7)  ---------------------------------------


    POTLOK:  cpu time      0.0108: real time      0.0109
    SETDIJ:  cpu time      0.0017: real time      0.0017
     EDDAV:  cpu time      0.3066: real time      0.3070
       DOS:  cpu time      0.0002: real time      0.0003
    CHARGE:  cpu time      0.0114: real time      0.0114
    MIXING:  cpu time      0.0004: real time      0.0004
    --------------------------------------------
      LOOP:  cpu time      0.3310: real time      0.3317

 eigenvalue-minimisations  :   640
 total energy-change (2. order) : 0.2994884E-01  (-0.7907429E-01)
 number of electron      48.0000076 magnetization 
 augmentation part        4.0117289 magnetization 

 Broyden mixing:
  rms(total) = 0.37834E+00    rms(broyden)= 0.37834E+00
  rms(prec ) = 0.40213E+00
  weight for this iteration     100.00

 eigenvalues of (default mixing * dielectric matrix)
  average eigenvalue GAMMA=   1.5592
  1.2297  1.8887

 Free energy of the ion-electron system (eV)
  ---------------------------------------------------
  alpha Z        PSCENC =        43.77227828
  Ewald energy   TEWEN  =     -2099.69206701
  -Hartree energ DENC   =      -613.02083215
  -exchange      EXHF   =         0.00000000
  -V(xc)+E(xc)   XCENC  =         7.96641936
  PAW double counting   =      3095.07696823    -3152.29448504
  entropy T*S    EENTRO =        -0.00000000
  eigenvalues    EBANDS =      -253.90265507
  atomic energy  EATOM  =      2939.24215825
  Solvation  Ediel_sol  =         0.00000000
  ---------------------------------------------------
  free energy    TOTEN  =       -32.85221515 eV

  energy without entropy =      -32.85221515  energy(sigma->0) =      -32.85221515


--------------------------------------------------------------------------------------------------------




--------------------------------------- Iteration      1(   8)  ---------------------------------------


    POTLOK:  cpu time      0.0105: real time      0.0108
    SETDIJ:  cpu time      0.0018: real time      0.0018
     EDDAV:  cpu time      0.3338: real time      0.3339
       DOS:  cpu time      0.0002: real time      0.0003
    CHARGE:  cpu time      0.0113: real time      0.0113
    MIXING:  cpu time      0.0005: real time      0.0005
    --------------------------------------------
      LOOP:  cpu time      0.3580: real time      0.3586

 eigenvalue-minimisations  :   672
 total energy-change (2. order) :-0.3987487E-02  (-0.6950683E-02)
 number of electron      48.0000076 magnetization 
 augmentation part        3.9962326 magnetization 

 Broyden mixing:
  rms(total) = 0.61887E-01    rms(broyden)= 0.61887E-01
  rms(prec ) = 0.79254E-01
  weight for this iteration     100.00

 eigenvalues of (default mixing * dielectric matrix)
  average eigenvalue GAMMA=   1.5324
  2.3447  1.1262  1.1262

 Free energy of the ion-electron system (eV)
  ---------------------------------------------------
  alpha Z        PSCENC =        43.77227828
  Ewald energy   TEWEN  =     -2099.69206701
  -Hartree energ DENC   =      -612.10762542
  -exchange      EXHF   =         0.00000000
  -V(xc)+E(xc)   XCENC  =         8.03609353
  PAW double counting   =      3483.38435221    -3540.80556025
  entropy T*S    EENTRO =        -0.00000000
  eigenvalues    EBANDS =      -254.68583222
  atomic energy  EATOM  =      2939.24215825
  Solvation  Ediel_sol  =         0.00000000
  ---------------------------------------------------
  free energy    TOTEN  =       -32.85620264 eV

  energy without entropy =      -32.85620264  energy(sigma->0) =      -32.85620264


--------------------------------------------------------------------------------------------------------




--------------------------------------- Iteration      1(   9)  ---------------------------------------


    POTLOK:  cpu time      0.0106: real time      0.0108
    SETDIJ:  cpu time      0.0018: real time      0.0018
     EDDAV:  cpu time      0.2637: real time      0.2637
       DOS:  cpu time      0.0002: real time      0.0003
    CHARGE:  cpu time      0.0113: real time      0.0114
    MIXING:  cpu time      0.0004: real time      0.0004
    --------------------------------------------
      LOOP:  cpu time      0.2881: real time      0.2885

 eigenvalue-minimisations  :   576
 total energy-change (2. order) :-0.1297273E-02  (-0.1060655E-02)
 number of electron      48.0000076 magnetization 
 augmentation part        3.9967471 magnetization 

 Broyden mixing:
  rms(total) = 0.16084E-01    rms(broyden)= 0.16084E-01
  rms(prec ) = 0.21112E-01
  weight for this iteration     100.00

 eigenvalues of (default mixing * dielectric matrix)
  average eigenvalue GAMMA=   1.4655
  2.1950  1.5174  1.0749  1.0749

 Free energy of the ion-electron system (eV)
  ---------------------------------------------------
  alpha Z        PSCENC =        43.77227828
  Ewald energy   TEWEN  =     -2099.69206701
  -Hartree energ DENC   =      -612.60868678
  -exchange      EXHF   =         0.00000000
  -V(xc)+E(xc)   XCENC  =         8.11695849
  PAW double counting   =      3566.76060960    -3624.22610175
  entropy T*S    EENTRO =        -0.00000000
  eigenvalues    EBANDS =      -254.22264898
  atomic energy  EATOM  =      2939.24215825
  Solvation  Ediel_sol  =         0.00000000
  ---------------------------------------------------
  free energy    TOTEN  =       -32.85749991 eV

  energy without entropy =      -32.85749991  energy(sigma->0) =      -32.85749991


--------------------------------------------------------------------------------------------------------




--------------------------------------- Iteration      1(  10)  ---------------------------------------


    POTLOK:  cpu time      0.0106: real time      0.0108
    SETDIJ:  cpu time      0.0018: real time      0.0018
     EDDAV:  cpu time      0.3616: real time      0.3620
       DOS:  cpu time      0.0002: real time      0.0004
    CHARGE:  cpu time      0.0113: real time      0.0113
    MIXING:  cpu time      0.0005: real time      0.0005
    --------------------------------------------
      LOOP:  cpu time      0.3859: real time      0.3867

 eigenvalue-minimisations  :   704
 total energy-change (2. order) :-0.4615575E-03  (-0.9429403E-04)
 number of electron      48.0000076 magnetization 
 augmentation part        3.9973036 magnetization 

 Broyden mixing:
  rms(total) = 0.68002E-02    rms(broyden)= 0.68002E-02
  rms(prec ) = 0.96150E-02
  weight for this iteration     100.00

 eigenvalues of (default mixing * dielectric matrix)
  average eigenvalue GAMMA=   1.6405
  2.5021  2.5021  1.0705  1.0705  1.0573

 Free energy of the ion-electron system (eV)
  ---------------------------------------------------
  alpha Z        PSCENC =        43.77227828
  Ewald energy   TEWEN  =     -2099.69206701
  -Hartree energ DENC   =      -612.67749074
  -exchange      EXHF   =         0.00000000
  -V(xc)+E(xc)   XCENC  =         8.12588072
  PAW double counting   =      3540.43105375    -3597.89574256
  entropy T*S    EENTRO =        -0.00000000
  eigenvalues    EBANDS =      -254.16403215
  atomic energy  EATOM  =      2939.24215825
  Solvation  Ediel_sol  =         0.00000000
  ---------------------------------------------------
  free energy    TOTEN  =       -32.85796147 eV

  energy without entropy =      -32.85796147  energy(sigma->0) =      -32.85796147


--------------------------------------------------------------------------------------------------------




--------------------------------------- Iteration      1(  11)  ---------------------------------------


    POTLOK:  cpu time      0.0106: real time      0.0108
    SETDIJ:  cpu time      0.0018: real time      0.0018
     EDDAV:  cpu time      0.2732: real time      0.2733
       DOS:  cpu time      0.0002: real time      0.0004
    CHARGE:  cpu time      0.0114: real time      0.0114
    MIXING:  cpu time      0.0005: real time      0.0005
    --------------------------------------------
      LOOP:  cpu time      0.2978: real time      0.2983

 eigenvalue-minimisations  :   576
 total energy-change (2. order) :-0.1689531E-03  (-0.2210694E-04)
 number of electron      48.0000076 magnetization 
 augmentation part        3.9974006 magnetization 

 Broyden mixing:
  rms(total) = 0.21365E-02    rms(broyden)= 0.21365E-02
  rms(prec ) = 0.24422E-02
  weight for this iteration     100.00

 eigenvalues of (default mixing * dielectric matrix)
  average eigenvalue GAMMA=   1.7426
  2.6663  2.6663  1.9749  1.0133  1.0674  1.0674

 Free energy of the ion-electron system (eV)
  ---------------------------------------------------
  alpha Z        PSCENC =        43.77227828
  Ewald energy   TEWEN  =     -2099.69206701
  -Hartree energ DENC   =      -612.73078511
  -exchange      EXHF   =         0.00000000
  -V(xc)+E(xc)   XCENC  =         8.13662929
  PAW double counting   =      3539.57909870    -3597.05575064
  entropy T*S    EENTRO =        -0.00000000
  eigenvalues    EBANDS =      -254.10969217
  atomic energy  EATOM  =      2939.24215825
  Solvation  Ediel_sol  =         0.00000000
  ---------------------------------------------------
  free energy    TOTEN  =       -32.85813042 eV

  energy without entropy =      -32.85813042  energy(sigma->0) =      -32.85813042


--------------------------------------------------------------------------------------------------------




--------------------------------------- Iteration      1(  12)  ---------------------------------------


    POTLOK:  cpu time      0.0109: real time      0.0111
    SETDIJ:  cpu time      0.0017: real time      0.0017
     EDDAV:  cpu time      0.4018: real time      0.4019
       DOS:  cpu time      0.0002: real time      0.0003
    --------------------------------------------
      LOOP:  cpu time      0.4146: real time      0.4150

 eigenvalue-minimisations  :   768
 total energy-change (2. order) :-0.3622734E-05  (-0.1388269E-05)
 number of electron      48.0000076 magnetization 
 augmentation part        3.9974006 magnetization 

 Free energy of the ion-electron system (eV)
  ---------------------------------------------------
  alpha Z        PSCENC =        43.77227828
  Ewald energy   TEWEN  =     -2099.69206701
  -Hartree energ DENC   =      -612.74381455
  -exchange      EXHF   =         0.00000000
  -V(xc)+E(xc)   XCENC  =         8.13731188
  PAW double counting   =      3538.45231800    -3595.93329603
  entropy T*S    EENTRO =        -0.00000000
  eigenvalues    EBANDS =      -254.09302286
  atomic energy  EATOM  =      2939.24215825
  Solvation  Ediel_sol  =         0.00000000
  ---------------------------------------------------
  free energy    TOTEN  =       -32.85813404 eV

  energy without entropy =      -32.85813404  energy(sigma->0) =      -32.85813404


--------------------------------------------------------------------------------------------------------




 average (electrostatic) potential at core
  the test charge radii are     0.9254  1.1712  0.9698
  (the norm of the test charge is              1.0000)
       1 -44.1759       2 -44.1759       3 -88.9760       4 -88.9760       5 -86.5221
       6 -86.5221       7 -86.5221       8 -86.5221



 E-fermi :   4.2597     XC(G=0):  -9.2382     alpha+bet :-10.4795

 Fermi energy:         4.2596645893

 k-point     1 :       0.0000    0.0000    0.0000
  band No.  band energies     occupation 
      1     -18.3983      2.00000
      2     -18.3891      2.00000
      3     -18.3701      2.00000
      4     -18.3701      2.00000
      5     -18.3665      2.00000
      6     -18.3665      2.00000
      7      -9.2071      2.00000
      8      -7.4802      2.00000
      9      -7.4035      2.00000
     10      -7.3090      2.00000
     11      -4.1146      2.00000
     12      -2.4444      2.00000
     13      -0.6194      2.00000
     14      -0.5521      2.00000
     15      -0.5521      2.00000
     16      -0.0109      2.00000
     17      -0.0109      2.00000
     18       2.5709      2.00000
     19       2.5887      2.00000
     20       2.5887      2.00000
     21       3.0522      2.00000
     22       3.1942      2.00000
     23       3.1942      2.00000
     24       3.4400      2.00000
     25       6.7616      0.00000
     26       8.4317      0.00000
     27       8.4781      0.00000
     28       8.8785      0.00000
     29       9.0943      0.00000
     30       9.0943      0.00000
     31       9.8529      0.00000
     32      10.0036      0.00000

 k-point     2 :       0.3333    0.0000    0.0000
  band No.  band energies     occupation 
      1     -18.3972      2.00000
      2     -18.3912      2.00000
      3     -18.3705      2.00000
      4     -18.3703      2.00000
      5     -18.3685      2.00000
      6     -18.3662      2.00000
      7      -8.8254      2.00000
      8      -7.7587      2.00000
      9      -7.5383      2.00000
     10      -7.3283      2.00000
     11      -4.5371      2.00000
     12      -3.3372      2.00000
     13      -0.6221      2.00000
     14      -0.1559      2.00000
     15       0.3266      2.00000
     16       1.0720      2.00000
     17       1.4975      2.00000
     18       2.0211      2.00000
     19       2.3470      2.00000
     20       2.3913      2.00000
     21       2.7940      2.00000
     22       2.8372      2.00000
     23       3.4606      2.00000
     24       3.7981      2.00000
     25       6.3727      0.00000
     26       6.6439      0.00000
     27       7.1951      0.00000
     28       7.9699      0.00000
     29       8.6591      0.00000
     30       9.2472      0.00000
     31       9.9547      0.00000
     32      10.2653      0.00000

 k-point     3 :       0.3333    0.3333    0.0000
  band No.  band energies     occupation 
      1     -18.3956      2.00000
      2     -18.3934      2.00000
      3     -18.3710      2.00000
      4     -18.3704      2.00000
      5     -18.3683      2.00000
      6     -18.3678      2.00000
      7      -8.3508      2.00000
      8      -7.8932      2.00000
      9      -7.6009      2.00000
     10      -7.5220      2.00000
     11      -4.8350      2.00000
     12      -4.3127      2.00000
     13       0.3051      2.00000
     14       0.7062      2.00000
     15       0.9894      2.00000
     16       1.1171      2.00000
     17       1.8787      2.00000
     18       1.9487      2.00000
     19       2.1966      2.00000
     20       2.7478      2.00000
     21       3.0397      2.00000
     22       3.2361      2.00000
     23       3.3186      2.00000
     24       3.7117      2.00000
     25       5.8894      0.00000
     26       5.9269      0.00000
     27       6.8133      0.00000
     28       7.0654      0.00000
     29       7.0736      0.00000
     30       7.7393      0.00000
     31      10.1209      0.00000
     32      10.1419      0.00000

 k-point     4 :      -0.3333    0.3333    0.0000
  band No.  band energies     occupation 
      1     -18.3968      2.00000
      2     -18.3923      2.00000
      3     -18.3707      2.00000
      4     -18.3698      2.00000
      5     -18.3690      2.00000
      6     -18.3682      2.00000
      7      -8.5627      2.00000
      8      -7.6308      2.00000
      9      -7.5915      2.00000
     10      -7.4389      2.00000
     11      -5.1567      2.00000
     12      -4.1561      2.00000
     13      -0.0125      2.00000
     14       1.0913      2.00000
     15       1.3001      2.00000
     16       1.3026      2.00000
     17       1.6195      2.00000
     18       1.7776      2.00000
     19       1.7981      2.00000
     20       2.4924      2.00000
     21       3.0979      2.00000
     22       3.2107      2.00000
     23       3.5970      2.00000
     24       4.0224      2.00000
     25       5.9842      0.00000
     26       6.3186      0.00000
     27       6.5172      0.00000
     28       6.8200      0.00000
     29       7.3171      0.00000
     30       7.5346      0.00000
     31      10.3549      0.00000
     32      10.4118      0.00000

 k-point     5 :      -0.3333    0.3333    0.3333
  band No.  band energies     occupation 
      1     -18.3953      2.00000
      2     -18.3930      2.00000
      3     -18.3711      2.00000
      4     -18.3708      2.00000
      5     -18.3677      2.00000
      6     -18.3658      2.00000
      7      -8.4682      2.00000
      8      -8.2390      2.00000
      9      -7.6359      2.00000
     10      -7.2717      2.00000
     11      -4.0927      2.00000
     12      -3.5921      2.00000
     13      -0.7783      2.00000
     14       0.4634      2.00000
     15       0.5920      2.00000
     16       0.6565      2.00000
     17       1.2362      2.00000
     18       2.0559      2.00000
     19       2.3978      2.00000
     20       2.7383      2.00000
     21       2.8102      2.00000
     22       2.8823      2.00000
     23       3.0880      2.00000
     24       3.3648      2.00000
     25       6.0085      0.00000
     26       7.1946      0.00000
     27       7.5828      0.00000
     28       7.7996      0.00000
     29       8.6557      0.00000
     30       8.6680      0.00000
     31       9.6253      0.00000
     32       9.6523      0.00000

 k-point     6 :      -0.3333   -0.3333    0.3333
  band No.  band energies     occupation 
      1     -18.3961      2.00000
      2     -18.3914      2.00000
      3     -18.3710      2.00000
      4     -18.3710      2.00000
      5     -18.3658      2.00000
      6     -18.3658      2.00000
      7      -8.9110      2.00000
      8      -8.1630      2.00000
      9      -7.3026      2.00000
     10      -7.2576      2.00000
     11      -3.5726      2.00000
     12      -2.6996      2.00000
     13      -0.8956      2.00000
     14      -0.8956      2.00000
     15       0.1839      2.00000
     16       0.5088      2.00000
     17       0.5088      2.00000
     18       1.4095      2.00000
     19       2.7183      2.00000
     20       2.7183      2.00000
     21       2.9817      2.00000
     22       2.9947      2.00000
     23       2.9947      2.00000
     24       3.2341      2.00000
     25       6.9323      0.00000
     26       8.1658      0.00000
     27       8.6018      0.00000
     28       8.6018      0.00000
     29       8.9092      0.00000
     30       9.1994      0.00000
     31       9.1994      0.00000
     32       9.8127      0.00000


--------------------------------------------------------------------------------------------------------


 soft charge-density along one line, spin component           1
         0         1         2         3         4         5         6         7         8         9
 total charge-density along one line

 pseudopotential strength for first ion, spin component:           1
-23.192   0.007  -0.003   1.513  -0.003   0.001   0.000   0.000
  0.007 -23.202   0.006  -0.003   1.517  -0.003   0.000   0.000
 -0.003   0.006 -23.191   0.001  -0.003   1.513  -0.000  -0.000
  1.513  -0.003   0.001   6.947   0.001  -0.000  -0.000   0.000
 -0.003   1.517  -0.003   0.001   6.946   0.001  -0.000   0.000
  0.001  -0.003   1.513  -0.000   0.001   6.947   0.000  -0.000
  0.000   0.000  -0.000  -0.000  -0.000   0.000   1.438   6.966
  0.000   0.000  -0.000   0.000   0.000  -0.000   6.966  33.599
 total augmentation occupancy for first ion, spin component:           1
  2.001  -0.000   0.000  -0.001  -0.001   0.000   0.000   0.000
 -0.000   2.001  -0.000  -0.001   0.000  -0.001   0.000  -0.000
  0.000  -0.000   2.001   0.000  -0.001  -0.002   0.000  -0.000
 -0.001  -0.001   0.000   0.023   0.004  -0.002  -0.000  -0.000
 -0.001   0.000  -0.001   0.004   0.017   0.003  -0.000   0.000
  0.000  -0.001  -0.002  -0.002   0.003   0.023   0.000   0.000
  0.000   0.000   0.000  -0.000   0.000   0.000   0.511  -0.001
  0.000   0.000  -0.000  -0.000  -0.000   0.000  -0.001   0.000


------------------------ aborting loop because EDIFF is reached ----------------------------------------


    CHARGE:  cpu time      0.0116: real time      0.0116
    FORLOC:  cpu time      0.0010: real time      0.0010
    FORNL :  cpu time      0.0437: real time      0.0438
    STRESS:  cpu time      0.1391: real time      0.1391
    FORCOR:  cpu time      0.0120: real time      0.0120
    FORHAR:  cpu time      0.0030: real time      0.0030
    MIXING:  cpu time      0.0005: real time      0.0005
    OFIELD:  cpu time      0.0000: real time      0.0000

  FORCE on cell =-STRESS in cart. coord.  units (eV):
  Direction    XX          YY          ZZ          XY          YZ          ZX
  --------------------------------------------------------------------------------------
  Alpha Z    43.77228    43.77228    43.77228
  Ewald    -685.22076  -689.56662  -724.90864   -11.25152    25.83864    21.32604
  Hartree   213.32798   210.63940   188.77497    -6.96078    15.98514    13.19341
  E(xc)    -199.79276  -199.79688  -199.82841    -0.01066     0.02335     0.01927
  Local    -247.09187  -240.00271  -182.35146    18.35401   -42.14909   -34.78794
  n-local   409.09765   409.45192   408.96530     0.15045     0.92389     0.41736
  augment   -21.18359   -21.17785   -21.12717     0.01486    -0.03520    -0.02906
  Kinetic   487.24477   485.22259   486.43974     0.57963    -1.57062    -1.23752
  Fock        0.00000     0.00000     0.00000     0.00000     0.00000     0.00000
  -------------------------------------------------------------------------------------
  Total      -1.04913    -0.89321     0.37478     0.40368    -0.92703    -0.76513
  in kB      -9.35201    -7.96214     3.34085     3.59843    -8.26364    -6.82043
  external pressure =       -4.66 kB  Pullay stress =        0.00 kB


 VOLUME and BASIS-vectors are now :
 -----------------------------------------------------------------------------
  energy-cutoff  :      400.00
  volume of cell :      179.74
      direct lattice vectors                 reciprocal lattice vectors
     5.117404107  0.000000000 -4.761758776     0.195411576  0.037738487 -0.000000000
    -0.970359031  5.024562483 -4.761758776    -0.000000000  0.199022304  0.000000000
     0.000000000  0.000000000  6.990148170     0.133116318  0.161283816  0.143058484

  length of vectors
     6.990148170  6.990148170  6.990148170     0.199022304  0.199022304  0.253373545


 FORCES acting on ions
    electron-ion (+dipol)            ewald-force                    non-local-force                 convergence-correction
 -----------------------------------------------------------------------------------------------
   0.187E-05 -.155E-05 -.914E-12   0.454E-11 -.375E-11 -.160E-13   -.547E-19 0.102E-18 -.278E-18   -.499E-08 0.412E-08 0.945E-13
   -.187E-05 0.155E-05 -.513E-12   -.453E-11 0.374E-11 -.107E-13   -.602E-19 -.285E-19 0.751E-19   0.499E-08 -.412E-08 0.322E-14
   0.153E-06 -.126E-06 0.192E-13   -.324E-11 0.268E-11 0.200E-13   0.622E-18 0.910E-18 -.137E-17   -.478E-09 0.394E-09 0.175E-13
   -.153E-06 0.126E-06 -.291E-12   0.324E-11 -.266E-11 0.213E-13   0.125E-17 0.217E-18 0.396E-17   0.478E-09 -.394E-09 -.326E-13
   -.159E+01 -.193E+01 0.366E+01   0.969E+00 0.117E+01 -.223E+01   0.592E+00 0.717E+00 -.136E+01   -.122E-03 -.147E-03 0.279E-03
   0.159E+01 0.193E+01 -.366E+01   -.969E+00 -.117E+01 0.223E+01   -.592E+00 -.717E+00 0.136E+01   0.122E-03 0.147E-03 -.279E-03
   0.159E+01 0.193E+01 -.366E+01   -.969E+00 -.117E+01 0.223E+01   -.592E+00 -.717E+00 0.136E+01   0.122E-03 0.147E-03 -.279E-03
   -.159E+01 -.193E+01 0.366E+01   0.969E+00 0.117E+01 -.223E+01   0.592E+00 0.717E+00 -.136E+01   -.122E-03 -.147E-03 0.279E-03
 -----------------------------------------------------------------------------------------------
   -.339E-12 0.336E-11 -.328E-11   0.411E-14 0.444E-15 0.266E-14   -.111E-15 0.111E-15 0.222E-15   0.531E-13 0.384E-13 0.841E-13


 POSITION                                       TOTAL-FORCE (eV/Angst)
 -----------------------------------------------------------------------------------
      2.07352      2.51228     -4.76176        -0.000000     -0.000000     -0.000000
      0.55158      3.76842     -1.26668        -0.000000     -0.000000     -0.000000
      0.00000      0.00000      0.00000        -0.000000     -0.000000     -0.000000
      3.59546      1.25614     -1.26668         0.000000     -0.000000     -0.000000
      3.15596      3.82377     -7.24754        -0.031708     -0.038418      0.072817
      0.99108      1.20080     -2.27598         0.031708      0.038418     -0.072817
      4.58654      2.45694     -3.54266         0.031708      0.038418     -0.072817
      2.60438      0.05535      1.00929        -0.031708     -0.038418      0.072817
 -----------------------------------------------------------------------------------
    total drift:                               -0.000000      0.000000     -0.000000


--------------------------------------------------------------------------------------------------------



  FREE ENERGIE OF THE ION-ELECTRON SYSTEM (eV)
  ---------------------------------------------------
  free  energy   TOTEN  =       -32.85813404 eV

  energy  without entropy=      -32.85813404  energy(sigma->0) =      -32.85813404



--------------------------------------------------------------------------------------------------------


    POTLOK:  cpu time      0.0137: real time      0.0140


--------------------------------------------------------------------------------------------------------




--------------------------------------------------------------------------------------------------------


    WAVPRE:  cpu time      0.0044: real time      0.0050
    FEWALD:  cpu time      0.0003: real time      0.0003
    GENKIN:  cpu time      0.0031: real time      0.0032
    ORTHCH:  cpu time      0.0157: real time      0.0157
     LOOP+:  cpu time      3.7579: real time      3.7662


--------------------------------------- Iteration      2(   1)  ---------------------------------------


    POTLOK:  cpu time      0.0128: real time      0.0131
    SETDIJ:  cpu time      0.0019: real time      0.0019
     EDDAV:  cpu time      0.1790: real time      0.1790
       DOS:  cpu time      0.0002: real time      0.0004
    CHARGE:  cpu time      0.0116: real time      0.0116
    MIXING:  cpu time      0.0004: real time      0.0005
    --------------------------------------------
      LOOP:  cpu time      0.2060: real time      0.2065

 eigenvalue-minimisations  :   448
 total energy-change (2. order) :-0.6472240E-01  (-0.2478768E+00)
 number of electron      48.0000071 magnetization 
 augmentation part        3.9966466 magnetization 

 Broyden mixing:
  rms(total) = 0.14248E+00    rms(broyden)= 0.14244E+00
  rms(prec ) = 0.21904E+00
  weight for this iteration     100.00

 Free energy of the ion-electron system (eV)
  ---------------------------------------------------
  alpha Z        PSCENC =        44.19224759
  Ewald energy   TEWEN  =     -2105.41780965
  -Hartree energ DENC   =      -615.27141748
  -exchange      EXHF   =         0.00000000
  -V(xc)+E(xc)   XCENC  =         8.52900547
  PAW double counting   =      3538.75482349    -3596.23516302
  entropy T*S    EENTRO =        -0.00000000
  eigenvalues    EBANDS =      -246.71669746
  atomic energy  EATOM  =      2939.24215825
  Solvation  Ediel_sol  =         0.00000000
  ---------------------------------------------------
  free energy    TOTEN  =       -32.92285282 eV

  energy without entropy =      -32.92285282  energy(sigma->0) =      -32.92285282


--------------------------------------------------------------------------------------------------------




--------------------------------------- Iteration      2(   2)  ---------------------------------------


    POTLOK:  cpu time      0.0105: real time      0.0107
    SETDIJ:  cpu time      0.0017: real time      0.0017
     EDDAV:  cpu time      0.3135: real time      0.3143
       DOS:  cpu time      0.0002: real time      0.0003
    CHARGE:  cpu time      0.0112: real time      0.0112
    MIXING:  cpu time      0.0003: real time      0.0003
    --------------------------------------------
      LOOP:  cpu time      0.3375: real time      0.3386

 eigenvalue-minimisations  :   640
 total energy-change (2. order) : 0.3176701E-01  (-0.7925174E-02)
 number of electron      48.0000071 magnetization 
 augmentation part        4.0014404 magnetization 

 Broyden mixing:
  rms(total) = 0.71155E-01    rms(broyden)= 0.71152E-01
  rms(prec ) = 0.11638E+00
  weight for this iteration     100.00

 eigenvalues of (default mixing * dielectric matrix)
  average eigenvalue GAMMA=   1.4909
  1.4909

 Free energy of the ion-electron system (eV)
  ---------------------------------------------------
  alpha Z        PSCENC =        44.19224759
  Ewald energy   TEWEN  =     -2105.41780965
  -Hartree energ DENC   =      -613.01952773
  -exchange      EXHF   =         0.00000000
  -V(xc)+E(xc)   XCENC  =         8.37430372
  PAW double counting   =      3570.72872899    -3627.98679321
  entropy T*S    EENTRO =        -0.00000000
  eigenvalues    EBANDS =      -249.00439377
  atomic energy  EATOM  =      2939.24215825
  Solvation  Ediel_sol  =         0.00000000
  ---------------------------------------------------
  free energy    TOTEN  =       -32.89108581 eV

  energy without entropy =      -32.89108581  energy(sigma->0) =      -32.89108581


--------------------------------------------------------------------------------------------------------




--------------------------------------- Iteration      2(   3)  ---------------------------------------


    POTLOK:  cpu time      0.0105: real time      0.0107
    SETDIJ:  cpu time      0.0017: real time      0.0017
     EDDAV:  cpu time      0.3535: real time      0.3535
       DOS:  cpu time      0.0002: real time      0.0004
    CHARGE:  cpu time      0.0113: real time      0.0113
    MIXING:  cpu time      0.0004: real time      0.0004
    --------------------------------------------
      LOOP:  cpu time      0.3776: real time      0.3780

 eigenvalue-minimisations  :   704
 total energy-change (2. order) : 0.1457033E-01  (-0.2463006E-02)
 number of electron      48.0000071 magnetization 
 augmentation part        3.9985556 magnetization 

 Broyden mixing:
  rms(total) = 0.24168E-01    rms(broyden)= 0.24167E-01
  rms(prec ) = 0.34178E-01
  weight for this iteration     100.00

 eigenvalues of (default mixing * dielectric matrix)
  average eigenvalue GAMMA=   1.5216
  1.2140  1.8291

 Free energy of the ion-electron system (eV)
  ---------------------------------------------------
  alpha Z        PSCENC =        44.19224759
  Ewald energy   TEWEN  =     -2105.41780965
  -Hartree energ DENC   =      -611.46864958
  -exchange      EXHF   =         0.00000000
  -V(xc)+E(xc)   XCENC  =         8.28054432
  PAW double counting   =      3592.96867386    -3650.27897641
  entropy T*S    EENTRO =        -0.00000000
  eigenvalues    EBANDS =      -250.39470387
  atomic energy  EATOM  =      2939.24215825
  Solvation  Ediel_sol  =         0.00000000
  ---------------------------------------------------
  free energy    TOTEN  =       -32.87651548 eV

  energy without entropy =      -32.87651548  energy(sigma->0) =      -32.87651548


--------------------------------------------------------------------------------------------------------




--------------------------------------- Iteration      2(   4)  ---------------------------------------


    POTLOK:  cpu time      0.0105: real time      0.0106
    SETDIJ:  cpu time      0.0018: real time      0.0018
     EDDAV:  cpu time      0.3073: real time      0.3077
       DOS:  cpu time      0.0002: real time      0.0004
    CHARGE:  cpu time      0.0112: real time      0.0112
    MIXING:  cpu time      0.0004: real time      0.0004
    --------------------------------------------
      LOOP:  cpu time      0.3314: real time      0.3322

 eigenvalue-minimisations  :   640
 total energy-change (2. order) : 0.8431810E-03  (-0.1867710E-03)
 number of electron      48.0000071 magnetization 
 augmentation part        3.9966640 magnetization 

[...]

  energy without entropy =      -32.87567230  energy(sigma->0) =      -32.87567230


--------------------------------------------------------------------------------------------------------




--------------------------------------- Iteration      2(   5)  ---------------------------------------


    POTLOK:  cpu time      0.0104: real time      0.0107
    SETDIJ:  cpu time      0.0018: real time      0.0018
     EDDAV:  cpu time      0.3323: real time      0.3325
       DOS:  cpu time      0.0002: real time      0.0004
    CHARGE:  cpu time      0.0113: real time      0.0114
    MIXING:  cpu time      0.0004: real time      0.0004
    --------------------------------------------
      LOOP:  cpu time      0.3565: real time      0.3571

 eigenvalue-minimisations  :   672
 total energy-change (2. order) : 0.6733257E-04  (-0.1720795E-04)
 number of electron      48.0000071 magnetization 
 augmentation part        3.9961743 magnetization 

 Broyden mixing:
  rms(total) = 0.35393E-02    rms(broyden)= 0.35393E-02
  rms(prec ) = 0.39656E-02
  weight for this iteration     100.00

 eigenvalues of (default mixing * dielectric matrix)
  average eigenvalue GAMMA=   1.6957
  2.4927  1.1004  1.2221  1.9676

 Free energy of the ion-electron system (eV)
  ---------------------------------------------------
  alpha Z        PSCENC =        44.19224759
  Ewald energy   TEWEN  =     -2105.41780965
  -Hartree energ DENC   =      -611.25825923
  -exchange      EXHF   =         0.00000000
  -V(xc)+E(xc)   XCENC  =         8.27199465
  PAW double counting   =      3572.74560141    -3630.29399596
  entropy T*S    EENTRO =        -0.00000000
  eigenvalues    EBANDS =      -250.35754203
  atomic energy  EATOM  =      2939.24215825
  Solvation  Ediel_sol  =         0.00000000
  ---------------------------------------------------
  free energy    TOTEN  =       -32.87560497 eV

  energy without entropy =      -32.87560497  energy(sigma->0) =      -32.87560497


--------------------------------------------------------------------------------------------------------




--------------------------------------- Iteration      2(   6)  ---------------------------------------


    POTLOK:  cpu time      0.0104: real time      0.0106
    SETDIJ:  cpu time      0.0018: real time      0.0018
     EDDAV:  cpu time      0.3319: real time      0.3322
       DOS:  cpu time      0.0002: real time      0.0003
    --------------------------------------------
      LOOP:  cpu time      0.3442: real time      0.3448

 eigenvalue-minimisations  :   672
 total energy-change (2. order) :-0.2983305E-05  (-0.9134687E-06)
 number of electron      48.0000071 magnetization 
 augmentation part        3.9961743 magnetization 

 Free energy of the ion-electron system (eV)
  ---------------------------------------------------
  alpha Z        PSCENC =        44.19224759
  Ewald energy   TEWEN  =     -2105.41780965
  -Hartree energ DENC   =      -611.25261342
  -exchange      EXHF   =         0.00000000
  -V(xc)+E(xc)   XCENC  =         8.27127750
  PAW double counting   =      3569.30910676    -3626.86816503
  entropy T*S    EENTRO =        -0.00000000
  eigenvalues    EBANDS =      -250.35180994
  atomic energy  EATOM  =      2939.24215825
  Solvation  Ediel_sol  =         0.00000000
  ---------------------------------------------------
  free energy    TOTEN  =       -32.87560795 eV

  energy without entropy =      -32.87560795  energy(sigma->0) =      -32.87560795


--------------------------------------------------------------------------------------------------------




 average (electrostatic) potential at core
  the test charge radii are     0.9254  1.1712  0.9698
  (the norm of the test charge is              1.0000)
       1 -44.0641       2 -44.0641       3 -88.8726       4 -88.8726       5 -86.4438
       6 -86.4438       7 -86.4438       8 -86.4438



 E-fermi :   4.3876     XC(G=0):  -9.2790     alpha+bet :-10.5801

 Fermi energy:         4.3876483226

 k-point     1 :       0.0000    0.0000    0.0000
  band No.  band energies     occupation 
      1     -18.2887      2.00000
      2     -18.2792      2.00000
      3     -18.2593      2.00000
      4     -18.2593      2.00000
      5     -18.2558      2.00000
      6     -18.2558      2.00000
      7      -9.1668      2.00000
      8      -7.4848      2.00000
      9      -7.3164      2.00000
     10      -7.2247      2.00000
     11      -3.9289      2.00000
     12      -2.3048      2.00000
     13      -0.5699      2.00000
     14      -0.5305      2.00000
     15      -0.5305      2.00000
     16      -0.0175      2.00000
     17      -0.0175      2.00000
     18       2.6788      2.00000
     19       2.6788      2.00000
     20       2.7502      2.00000
     21       3.1143      2.00000
     22       3.2627      2.00000
     23       3.2627      2.00000
     24       3.4936      2.00000
     25       6.6829      0.00000
     26       8.4444      0.00000
     27       8.5797      0.00000
     28       8.9610      0.00000
     29       9.3580      0.00000
     30       9.3580      0.00000
     31      10.1079      0.00000
     32      10.1295      0.00000

 k-point     2 :       0.3333    0.0000    0.0000
  band No.  band energies     occupation 
      1     -18.2875      2.00000
      2     -18.2813      2.00000
      3     -18.2598      2.00000
      4     -18.2597      2.00000
      5     -18.2580      2.00000
      6     -18.2555      2.00000
      7      -8.7750      2.00000
      8      -7.6996      2.00000
      9      -7.4790      2.00000
     10      -7.2811      2.00000
     11      -4.4217      2.00000
     12      -3.2533      2.00000
     13      -0.5929      2.00000
     14      -0.0914      2.00000
     15       0.3174      2.00000
     16       1.1701      2.00000
     17       1.6108      2.00000
     18       2.0944      2.00000
     19       2.4148      2.00000
     20       2.4571      2.00000
     21       2.8927      2.00000
     22       2.8974      2.00000
     23       3.5263      2.00000
     24       3.8588      2.00000
     25       6.5658      0.00000
     26       6.6140      0.00000
     27       7.3711      0.00000
     28       7.9811      0.00000
     29       8.9043      0.00000
     30       9.4075      0.00000
     31      10.0280      0.00000
     32      10.3643      0.00000

 k-point     3 :       0.3333    0.3333    0.0000
  band No.  band energies     occupation 
      1     -18.2858      2.00000
      2     -18.2835      2.00000
      3     -18.2604      2.00000
      4     -18.2599      2.00000
      5     -18.2578      2.00000
      6     -18.2573      2.00000
      7      -8.2909      2.00000
      8      -7.8300      2.00000
      9      -7.5346      2.00000
     10      -7.4610      2.00000
     11      -4.7923      2.00000
     12      -4.2773      2.00000
     13       0.3845      2.00000
     14       0.8034      2.00000
     15       1.0790      2.00000
     16       1.2144      2.00000
     17       1.9244      2.00000
     18       1.9952      2.00000
     19       2.2515      2.00000
     20       2.8320      2.00000
     21       3.1327      2.00000
     22       3.3297      2.00000
     23       3.3782      2.00000
     24       3.7746      2.00000
     25       6.0842      0.00000
     26       6.0943      0.00000
     27       6.8552      0.00000
     28       7.1927      0.00000
     29       7.2350      0.00000
     30       7.7322      0.00000
     31      10.2069      0.00000
     32      10.2112      0.00000

 k-point     4 :      -0.3333    0.3333    0.0000
  band No.  band energies     occupation 
      1     -18.2870      2.00000
      2     -18.2824      2.00000
      3     -18.2601      2.00000
      4     -18.2592      2.00000
      5     -18.2585      2.00000
      6     -18.2577      2.00000
      7      -8.5019      2.00000
      8      -7.5636      2.00000
      9      -7.5260      2.00000
     10      -7.3817      2.00000
     11      -5.1135      2.00000
     12      -4.1214      2.00000
     13       0.0604      2.00000
     14       1.1681      2.00000
     15       1.3523      2.00000
     16       1.3725      2.00000
     17       1.7588      2.00000
     18       1.8252      2.00000
     19       1.8925      2.00000
     20       2.5700      2.00000
     21       3.1943      2.00000
     22       3.3060      2.00000
     23       3.6541      2.00000
     24       4.0787      2.00000
     25       6.1528      0.00000
     26       6.5438      0.00000
     27       6.5732      0.00000
     28       6.8502      0.00000
     29       7.4989      0.00000
     30       7.5178      0.00000
     31      10.4663      0.00000
     32      10.5532      0.00000

 k-point     5 :      -0.3333    0.3333    0.3333
  band No.  band energies     occupation 
      1     -18.2856      2.00000
      2     -18.2831      2.00000
      3     -18.2606      2.00000
      4     -18.2600      2.00000
      5     -18.2572      2.00000
      6     -18.2550      2.00000
      7      -8.4158      2.00000
      8      -8.1965      2.00000
      9      -7.5750      2.00000
     10      -7.2031      2.00000
     11      -3.9935      2.00000
     12      -3.4981      2.00000
     13      -0.7462      2.00000
     14       0.5474      2.00000
     15       0.5717      2.00000
     16       0.7529      2.00000
     17       1.3433      2.00000
     18       2.0987      2.00000
     19       2.4693      2.00000
     20       2.7991      2.00000
     21       2.9028      2.00000
     22       2.9741      2.00000
     23       3.1240      2.00000
     24       3.4016      2.00000
     25       6.2097      0.00000
     26       7.3465      0.00000
     27       7.5900      0.00000
     28       7.8221      0.00000
     29       8.7438      0.00000
     30       8.9226      0.00000
     31       9.7191      0.00000
     32       9.8131      0.00000

 k-point     6 :      -0.3333   -0.3333    0.3333
  band No.  band energies     occupation 
      1     -18.2864      2.00000
      2     -18.2816      2.00000
      3     -18.2602      2.00000
      4     -18.2602      2.00000
      5     -18.2551      2.00000
      6     -18.2551      2.00000
      7      -8.8747      2.00000
      8      -8.1351      2.00000
      9      -7.2184      2.00000
     10      -7.1835      2.00000
     11      -3.4046      2.00000
     12      -2.5554      2.00000
     13      -0.8677      2.00000
     14      -0.8677      2.00000
     15       0.2436      2.00000
     16       0.4839      2.00000
     17       0.4839      2.00000
     18       1.5418      2.00000
     19       2.8012      2.00000
     20       2.8012      2.00000
     21       3.0312      2.00000
     22       3.0762      2.00000
     23       3.0762      2.00000
     24       3.2560      2.00000
     25       6.9601      0.00000
     26       8.2118      0.00000
     27       8.6951      0.00000
     28       8.6951      0.00000
     29       9.0008      0.00000
     30       9.4623      0.00000
     31       9.4623      0.00000
     32       9.9016      0.00000


--------------------------------------------------------------------------------------------------------


 soft charge-density along one line, spin component           1
         0         1         2         3         4         5         6         7         8         9
 total charge-density along one line

 pseudopotential strength for first ion, spin component:           1
-23.106   0.008  -0.004   1.471  -0.003   0.001   0.000   0.000
  0.008 -23.118   0.007  -0.003   1.476  -0.003   0.000   0.000
 -0.004   0.007 -23.105   0.001  -0.003   1.471  -0.000  -0.000
  1.471  -0.003   0.001   6.963   0.001  -0.000  -0.000   0.000
 -0.003   1.476  -0.003   0.001   6.962   0.001  -0.000   0.000
  0.001  -0.003   1.471  -0.000   0.001   6.963   0.000  -0.000
  0.000   0.000  -0.000  -0.000  -0.000   0.000   1.439   6.965
  0.000   0.000  -0.000   0.000   0.000  -0.000   6.965  33.583
 total augmentation occupancy for first ion, spin component:           1
  2.001  -0.000   0.000  -0.001  -0.001   0.001  -0.000   0.000
 -0.000   2.001  -0.000  -0.001   0.001  -0.001   0.000   0.000
  0.000  -0.000   2.001   0.001  -0.001  -0.001   0.000   0.000
 -0.001  -0.001   0.001   0.024   0.005  -0.002   0.000   0.000
 -0.001   0.001  -0.001   0.005   0.017   0.004   0.000   0.000
  0.001  -0.001  -0.001  -0.002   0.004   0.024   0.000   0.000
  0.000   0.000   0.000   0.000   0.000   0.000   0.527  -0.001
  0.000  -0.000   0.000   0.000   0.000  -0.000  -0.001   0.000


------------------------ aborting loop because EDIFF is reached ----------------------------------------


    CHARGE:  cpu time      0.0112: real time      0.0115
    FORLOC:  cpu time      0.0009: real time      0.0009
    FORNL :  cpu time      0.0443: real time      0.0443
    STRESS:  cpu time      0.1326: real time      0.1326
    FORCOR:  cpu time      0.0093: real time      0.0093
    FORHAR:  cpu time      0.0029: real time      0.0029
    MIXING:  cpu time      0.0003: real time      0.0003
    OFIELD:  cpu time      0.0000: real time      0.0000

  FORCE on cell =-STRESS in cart. coord.  units (eV):
  Direction    XX          YY          ZZ          XY          YZ          ZX
  --------------------------------------------------------------------------------------
  Alpha Z    44.19225    44.19225    44.19225
  Ewald    -680.37168  -686.71830  -738.33124   -16.43154    37.73435    31.14421
  Hartree   215.45222   211.98707   183.80724    -8.97136    20.60235    17.00424
  E(xc)    -199.95595  -199.95707  -199.96429    -0.00292     0.00557     0.00460
  Local    -254.75141  -244.89302  -164.72151    25.52359   -58.61372   -48.37710
  n-local   409.86416   410.13375   408.88801    -0.14687     1.52188     0.95531
  augment   -21.23496   -21.22366   -21.12733     0.02927    -0.06840    -0.05646
  Kinetic   487.89342   485.87501   486.79855     0.37181    -1.32102    -0.99823
  Fock        0.00000     0.00000     0.00000     0.00000     0.00000     0.00000
  -------------------------------------------------------------------------------------
  Total      -0.02616    -0.01587     0.06777     0.02663    -0.06115    -0.05047
  in kB      -0.23542    -0.14286     0.60986     0.23964    -0.55032    -0.45421
  external pressure =        0.08 kB  Pullay stress =        0.00 kB


 VOLUME and BASIS-vectors are now :
 -----------------------------------------------------------------------------
  energy-cutoff  :      400.00
  volume of cell :      178.03
      direct lattice vectors                 reciprocal lattice vectors
     5.106999080  0.039077148 -4.796132358     0.196569120  0.037468018  0.001113909
    -0.930017839  5.021756012 -4.796132358    -0.000485055  0.200107561  0.001113909
    -0.032252498 -0.039077148  7.005946401     0.134235273  0.162639543  0.144261011

  length of vectors
     7.006129617  7.006129617  7.006129617     0.200111249  0.200111249  0.255503363


 FORCES acting on ions
    electron-ion (+dipol)            ewald-force                    non-local-force                 convergence-correction
 -----------------------------------------------------------------------------------------------
   0.200E-05 -.165E-05 -.107E-11   0.524E-11 -.431E-11 -.622E-14   0.265E-18 -.645E-18 -.794E-18   -.301E-09 0.248E-09 -.149E-13
   -.200E-05 0.165E-05 -.423E-12   -.523E-11 0.431E-11 0.711E-14   -.293E-18 0.627E-18 0.750E-18   0.301E-09 -.248E-09 0.283E-13
   0.315E-06 -.260E-06 -.114E-14   -.373E-11 0.308E-11 -.844E-14   -.247E-17 -.235E-17 -.341E-18   -.945E-10 0.781E-10 -.390E-13
   -.315E-06 0.260E-06 -.275E-12   0.374E-11 -.309E-11 -.107E-13   0.379E-17 0.337E-17 -.396E-18   0.946E-10 -.781E-10 0.240E-13
   -.174E+01 -.211E+01 0.400E+01   0.110E+01 0.134E+01 -.253E+01   0.641E+00 0.776E+00 -.147E+01   0.128E-02 0.155E-02 -.293E-02
   0.174E+01 0.211E+01 -.400E+01   -.110E+01 -.134E+01 0.253E+01   -.641E+00 -.776E+00 0.147E+01   -.128E-02 -.155E-02 0.293E-02
   0.174E+01 0.211E+01 -.400E+01   -.110E+01 -.134E+01 0.253E+01   -.641E+00 -.776E+00 0.147E+01   -.128E-02 -.155E-02 0.293E-02
   -.174E+01 -.211E+01 0.400E+01   0.110E+01 0.134E+01 -.253E+01   0.641E+00 0.776E+00 -.147E+01   0.128E-02 0.155E-02 -.293E-02
 -----------------------------------------------------------------------------------------------
   -.268E-11 0.395E-11 -.882E-11   -.888E-15 0.222E-15 0.311E-14   0.222E-15 0.000E+00 0.000E+00   -.451E-14 0.585E-13 0.687E-13


 POSITION                                       TOTAL-FORCE (eV/Angst)
 -----------------------------------------------------------------------------------
      2.08849      2.53042     -4.79613         0.000000     -0.000000      0.000000
      0.56311      3.75655     -1.29316         0.000000     -0.000000      0.000000
      0.00000     -0.00000     -0.00000         0.000000     -0.000000      0.000000
      3.58162      1.26521     -1.29316         0.000000     -0.000000      0.000000
      3.17720      3.84950     -7.29632         0.002644      0.003203     -0.006072
      0.99978      1.21133     -2.29595        -0.002644     -0.003203      0.006072
      4.58140      2.47654     -3.58910        -0.002644     -0.003203      0.006072
      2.58184      0.05388      1.00279         0.002644      0.003203     -0.006072
 -----------------------------------------------------------------------------------
    total drift:                               -0.000000      0.000000     -0.000000


--------------------------------------------------------------------------------------------------------



  FREE ENERGIE OF THE ION-ELECTRON SYSTEM (eV)
  ---------------------------------------------------
  free  energy   TOTEN  =       -32.87560795 eV

  energy  without entropy=      -32.87560795  energy(sigma->0) =      -32.87560795

 d Force = 0.6933537E-03[-0.126E-03, 0.151E-02]  d Energy = 0.1747391E-01-0.168E-01
 d Force =-0.4940418E-01[-0.526E-01,-0.462E-01]  d Ewald  = 0.5725743E+01-0.578E+01


--------------------------------------------------------------------------------------------------------


    POTLOK:  cpu time      0.0121: real time      0.0121


--------------------------------------------------------------------------------------------------------


 Steepest descent step on ions:
 trial-energy change:   -0.017474  1 .order   -0.017373   -0.033188   -0.001558
  (g-gl).g = 0.332E-01      g.g   = 0.332E-01  gl.gl    = 0.000E+00
 g(Force)  = 0.150E-02   g(Stress)= 0.317E-01 ortho     = 0.000E+00
 gamma     =   0.00000
 trial     =   1.00000
 opt step  =   1.04829  (harmonic =   1.04926) maximal distance =0.00368251
 next E    =   -32.875646   (d E  =  -0.01751)


--------------------------------------------------------------------------------------------------------


  
 reached required accuracy - stopping structural energy minimisation
     LOOP+:  cpu time      2.1723: real time      2.1797
    4ORBIT:  cpu time      0.0000: real time      0.0000

 total amount of memory used by VASP MPI-rank0    35891. kBytes
=======================================================================

   base      :      30000. kBytes
   nonlr-proj:       1891. kBytes
   fftplans  :        708. kBytes
   grid      :       2903. kBytes
   one-center:         64. kBytes
   wavefun   :        325. kBytes

  
  
 General timing and accounting informations for this job:
 ========================================================
  
                  Total CPU time used (sec):        8.782
                            User time (sec):        7.407
                          System time (sec):        1.375
                         Elapsed time (sec):        9.406
  
                   Maximum memory used (kb):      125648.
                   Average memory used (kb):          N/A
  
                          Minor page faults:        24318
                          Major page faults:          119
                 Voluntary context switches:         1113
