 vasp.6.3.2 27Jun22 (build Mar 25 2024 10:42:18) complex                         
 executed on             LinuxGNU date 2024.03.31  13:18:06
 running on   32 total cores
 distrk:  each k-point on   32 cores,    1 groups
 distr:  one band on NCORE=   1 cores,   32 groups


--------------------------------------------------------------------------------------------------------


 INCAR:
   ISTART = 0
   ICHARG = 2
   PREC = Accurate
   IBRION = -1
   EDIFF = 0.000000001
   EDIFFG = -0.0005
   NSW = 0
   NELM = 100
   ENCUT = 520
   ISMEAR = -5
   SIGMA = 0.05
   ISPIN = 2
   ISYM = 0
   LWAVE = False
   LCHARG = False
   LASPH = True
   LORBIT = 11
   ADDGRID = TRUE

 POTCAR:    PAW_PBE S 06Sep2000                   
 -----------------------------------------------------------------------------
|                                                                             |
|           W    W    AA    RRRRR   N    N  II  N    N   GGGG   !!!           |
|           W    W   A  A   R    R  NN   N  II  NN   N  G    G  !!!           |
|           W    W  A    A  R    R  N N  N  II  N N  N  G       !!!           |
|           W WW W  AAAAAA  RRRRR   N  N N  II  N  N N  G  GGG   !            |
|           WW  WW  A    A  R   R   N   NN  II  N   NN  G    G                |
|           W    W  A    A  R    R  N    N  II  N    N   GGGG   !!!           |
|                                                                             |
|     You use a magnetic or noncollinear calculation, but did not specify     |
|     the initial magnetic moment with the MAGMOM tag. Note that a            |
|     default of 1 will be used for all atoms. This ferromagnetic setup       |
|     may break the symmetry of the crystal, in particular it may rule        |
|     out finding an antiferromagnetic solution. Thence, we recommend         |
|     setting the initial magnetic moment manually or verifying carefully     |
|     that this magnetic setup is desired.                                    |
|                                                                             |
 -----------------------------------------------------------------------------

 -----------------------------------------------------------------------------
|                                                                             |
|           W    W    AA    RRRRR   N    N  II  N    N   GGGG   !!!           |
|           W    W   A  A   R    R  NN   N  II  NN   N  G    G  !!!           |
|           W    W  A    A  R    R  N N  N  II  N N  N  G       !!!           |
|           W WW W  AAAAAA  RRRRR   N  N N  II  N  N N  G  GGG   !            |
|           WW  WW  A    A  R   R   N   NN  II  N   NN  G    G                |
|           W    W  A    A  R    R  N    N  II  N    N   GGGG   !!!           |
|                                                                             |
|     For optimal performance we recommend to set                             |
|       NCORE = 2 up to number-of-cores-per-socket                            |
|     NCORE specifies how many cores store one orbital (NPAR=cpu/NCORE).      |
|     This setting can greatly improve the performance of VASP for DFT.       |
|     The default, NCORE=1 might be grossly inefficient on modern             |
|     multi-core architectures or massively parallel machines. Do your        |
|     own testing! More info at https://www.vasp.at/wiki/index.php/NCORE      |
|     Unfortunately you need to use the default for GW and RPA                |
|     calculations (for HF NCORE is supported but not extensively tested      |
|     yet).                                                                   |
|                                                                             |
 -----------------------------------------------------------------------------

 POTCAR:    PAW_PBE S 06Sep2000                   
   SHA256 =  0fc7481fb0695f01bdc6462160264c5c84044ae9ec85a907d398b887a2bc3132 S/POTCAR              
   COPYR  = (c) Copyright 06Sep2000 Georg Kresse                                                    
   COPYR  = This file is part of the software VASP. Any use, copying, and all other rights are regul
   COPYR  = If you do not have a valid VASP license, you may not use, copy or distribute this file. 
   VRHFIN =S : s2p4                                                                                 
   LEXCH  = PE                                                                                      
   EATOM  =   276.8230 eV,   20.3459 Ry                                                             
                                                                                                    
   TITEL  = PAW_PBE S 06Sep2000                                                                     
   LULTRA =        F    use ultrasoft PP ?                                                          
   IUNSCR =        1    unscreen: 0-lin 1-nonlin 2-no                                               
   RPACOR =    1.500    partial core radius                                                         
   POMASS =   32.066; ZVAL   =    6.000    mass and valenz                                          
   RCORE  =    1.900    outmost cutoff radius                                                       
   RWIGS  =    2.200; RWIGS  =    1.164    wigner-seitz radius (au A)                               
   ENMAX  =  258.689; ENMIN  =  194.016 eV                                                          
   ICORE  =        2    local potential                                                             
   LCOR   =        T    correct aug charges                                                         
   LPAW   =        T    paw PP                                                                      
   EAUG   =  335.092                                                                                
   DEXC   =    0.000                                                                                
   RMAX   =    1.942    core radius for proj-oper                                                   
   RAUG   =    1.300    factor for augmentation sphere                                              
   RDEP   =    1.954    radius for radial grids                                                     
   RDEPT  =    1.744    core radius for aug-charge                                                  
                                                                                                    
   Atomic configuration                                                                             
    6 entries                                                                                       
     n  l   j            E        occ.                                                              
     1  0  0.50     -2405.8406   2.0000                                                             
     2  0  0.50      -211.7007   2.0000                                                             
     2  1  1.50      -156.4958   6.0000                                                             
     3  0  0.50       -17.2562   2.0000                                                             
     3  1  0.50        -7.0085   4.0000                                                             
     3  2  1.50        -6.8029   0.0000                                                             
   Description                                                                                      
     l       E           TYP  RCUT    TYP  RCUT                                                     
     0    -17.2561641     23  1.900                                                                 
     0    -15.8743224     23  1.900                                                                 
     1     -7.0085400     23  1.900                                                                 
     1     -2.7779785     23  1.900                                                                 
     2     -6.8029130     23  1.900                                                                 
  local pseudopotential read in
  partial core-charges read in
  partial kinetic energy density read in
  atomic valenz-charges read in
  non local Contribution for L=           0  read in
    real space projection operators read in
  non local Contribution for L=           0  read in
    real space projection operators read in
  non local Contribution for L=           1  read in
    real space projection operators read in
  non local Contribution for L=           1  read in
    real space projection operators read in
    PAW grid and wavefunctions read in

   number of l-projection  operators is LMAX  =           4
   number of lm-projection operators is LMMAX =           8

 -----------------------------------------------------------------------------
|                                                                             |
|               ----> ADVICE to this user running VASP <----                  |
|                                                                             |
|     You have a (more or less) 'large supercell' and for larger cells it     |
|     might be more efficient to use real-space projection operators.         |
|     Therefore, try LREAL= Auto in the INCAR file.                           |
|     Mind: For very accurate calculation, you might also keep the            |
|     reciprocal projection scheme (i.e. LREAL=.FALSE.).                      |
|                                                                             |
 -----------------------------------------------------------------------------

  PAW_PBE S 06Sep2000                   :
 energy of atom  1       EATOM= -276.8230
 kinetic energy error for atom=    0.0016 (will be added to EATOM!!)


 POSCAR: generated by phonopy
  positions in direct lattice
  No initial velocities read in
 exchange correlation table for  LEXCH =        8
   RHO(1)=    0.500       N(1)  =     2000
   RHO(2)=  100.500       N(2)  =     4000



--------------------------------------------------------------------------------------------------------


 ion  position               nearest neighbor table
   1  0.886  0.467  0.678-  45 1.98  24 2.13
   2  0.886  0.967  0.678-  46 1.98  23 2.13
   3  0.330  0.189  0.551-  41 2.05  19 2.13
   4  0.330  0.689  0.551-  42 2.05  20 2.13
   5  0.912  0.105  0.912-  51 1.97  11 2.13
   6  0.913  0.605  0.912-  52 1.98  12 2.13
   7  0.240  0.301  0.777-  19 1.98  37 2.23
   8  0.240  0.801  0.777-  20 1.98  38 2.23
   9  0.144  0.306  0.224-  31 2.05  39 2.13
  10  0.144  0.806  0.224-  32 2.05  40 2.13
  11  0.856  0.194  0.776-  47 2.05   5 2.13
  12  0.856  0.694  0.776-  48 2.05   6 2.13
  13  0.760  0.199  0.223-  27 1.98  33 2.23
  14  0.760  0.699  0.223-  28 1.98  34 2.23
  15  0.170  0.439  0.449-  31 2.05  30 2.13
  16  0.170  0.939  0.449-  32 2.05  29 2.13
  17  0.413  0.145  0.912-  37 1.98  43 2.13
  18  0.413  0.645  0.912-  38 1.98  44 2.13
  19  0.386  0.283  0.678-   7 1.98   3 2.13
  20  0.386  0.783  0.678-   8 1.98   4 2.13
  21  0.644  0.444  0.224-  53 2.05  35 2.13
  22  0.644  0.944  0.224-  54 2.05  36 2.13
  23  0.830  0.061  0.551-  47 2.05   2 2.13
  24  0.830  0.561  0.551-  48 2.05   1 2.13
  25  0.260  0.051  0.223-  29 1.98  50 2.23
  26  0.260  0.551  0.223-  30 1.98  49 2.23
  27  0.614  0.217  0.322-  13 1.98  55 2.13
  28  0.614  0.717  0.322-  14 1.98  56 2.13
  29  0.114  0.033  0.322-  25 1.98  16 2.13
  30  0.114  0.533  0.322-  26 1.98  15 2.13
  31  0.060  0.345  0.374-   9 2.05  15 2.05
  32  0.060  0.845  0.374-  10 2.05  16 2.05
  33  0.743  0.289  0.071-  35 1.98  13 2.23
  34  0.743  0.789  0.071-  36 1.98  14 2.23
  35  0.587  0.355  0.088-  33 1.98  21 2.13
  36  0.587  0.855  0.088-  34 1.98  22 2.13
  37  0.257  0.211  0.929-  17 1.98   7 2.23
  38  0.257  0.711  0.929-  18 1.98   8 2.23
  39  0.087  0.395  0.088-  49 1.98   9 2.13
  40  0.087  0.895  0.088-  50 1.98  10 2.13
  41  0.440  0.095  0.626-  43 2.05   3 2.05
  42  0.440  0.595  0.626-  44 2.05   4 2.05
  43  0.356  0.056  0.776-  41 2.05  17 2.13
  44  0.356  0.556  0.776-  42 2.05  18 2.13
  45  0.740  0.449  0.777-   1 1.98  52 2.23
  46  0.740  0.949  0.777-   2 1.98  51 2.23
  47  0.940  0.155  0.626-  11 2.05  23 2.05
  48  0.940  0.655  0.626-  12 2.05  24 2.05
  49  0.243  0.461  0.071-  39 1.98  26 2.23
  50  0.243  0.961  0.071-  40 1.98  25 2.23
  51  0.757  0.039  0.929-   5 1.97  46 2.23
  52  0.757  0.539  0.929-   6 1.98  45 2.23
  53  0.560  0.405  0.374-  21 2.05  55 2.05
  54  0.560  0.905  0.374-  22 2.05  56 2.05
  55  0.670  0.311  0.449-  53 2.05  27 2.13
  56  0.670  0.811  0.449-  54 2.05  28 2.13


IMPORTANT INFORMATION: All symmetrisations will be switched off!
NOSYMM: (Re-)initialisation of all symmetry stuff for point group C_1.


----------------------------------------------------------------------------------------

                                     Primitive cell                                     

  volume of cell :    1863.6770

  direct lattice vectors                    reciprocal lattice vectors
     0.000000000 10.307367086 -0.372855731     0.000000000  0.096453423 -0.015606996
    16.788494411  0.000000000  0.000000000     0.059564603  0.000000000  0.000000000
     0.000000000 -1.732519801-10.707215182     0.000000000 -0.003358783 -0.092851486

  length of vectors
    10.314108670 16.788494411 10.846477853     0.097707938  0.059564603  0.092912216

  position of ions in fractional coordinates (direct lattice)
     0.886423141  0.467004751  0.678126386
     0.886423141  0.967004751  0.678126386
     0.329563264  0.188743823  0.550707721
     0.329563264  0.688743823  0.550707721
     0.911701740  0.105241885  0.911960471
     0.912671285  0.605241885  0.911960471
     0.239736405  0.300831047  0.776574189
     0.239736405  0.800831047  0.776574189
     0.144417516  0.305688762  0.224396680
     0.144417516  0.805688762  0.224396680
     0.855582484  0.194311238  0.775603320
     0.855582484  0.694311238  0.775603320
     0.760263595  0.199168953  0.223425811
     0.760263595  0.699168953  0.223425811
     0.170436736  0.438743823  0.449292279
     0.170436736  0.938743823  0.449292279
     0.412671285  0.144758115  0.911960471
     0.412671285  0.644758115  0.911960471
     0.386423141  0.282995249  0.678126386
     0.386423141  0.782995249  0.678126386
     0.644417516  0.444311238  0.224396680
     0.644417516  0.944311238  0.224396680
     0.829563264  0.061256177  0.550707721
     0.829563264  0.561256177  0.550707721
     0.260263595  0.050831047  0.223425811
     0.260263595  0.550831047  0.223425811
     0.613576859  0.217004751  0.321873614
     0.613576859  0.717004751  0.321873614
     0.113576859  0.032995249  0.321873614
     0.113576859  0.532995249  0.321873614
     0.059895700  0.345087734  0.374484367
     0.059895700  0.845087734  0.374484367
     0.743425210  0.289344343  0.071165234
     0.743425210  0.789344343  0.071165234
     0.587328715  0.355241885  0.088039529
     0.587328715  0.855241885  0.088039529
     0.256574790  0.210655657  0.928834766
     0.256574790  0.710655657  0.928834766
     0.087328715  0.394758115  0.088039529
     0.087328715  0.894758115  0.088039529
     0.440104300  0.095087734  0.625515633
     0.440104300  0.595087734  0.625515633
     0.355582484  0.055688762  0.775603320
     0.355582484  0.555688762  0.775603320
     0.739736405  0.449168953  0.776574189
     0.739736405  0.949168953  0.776574189
     0.940104300  0.154912266  0.625515633
     0.940104300  0.654912266  0.625515633
     0.243425210  0.460655657  0.071165234
     0.243425210  0.960655657  0.071165234
     0.756574790  0.039344343  0.928834766
     0.756574790  0.539344343  0.928834766
     0.559895700  0.404912266  0.374484367
     0.559895700  0.904912266  0.374484367
     0.670436736  0.311256177  0.449292279
     0.670436736  0.811256177  0.449292279

  ion indices of the primitive-cell ions
   primitive index   ion index
                 1           1
                 2           2
                 3           3
                 4           4
                 5           5
                 6           6
                 7           7
                 8           8
                 9           9
                10          10
                11          11
                12          12
                13          13
                14          14
                15          15
                16          16
                17          17
                18          18
                19          19
                20          20
                21          21
                22          22
                23          23
                24          24
                25          25
                26          26
                27          27
                28          28
                29          29
                30          30
                31          31
                32          32
                33          33
                34          34
                35          35
                36          36
                37          37
                38          38
                39          39
                40          40
                41          41
                42          42
                43          43
                44          44
                45          45
                46          46
                47          47
                48          48
                49          49
                50          50
                51          51
                52          52
                53          53
                54          54
                55          55
                56          56

----------------------------------------------------------------------------------------



 KPOINTS: pymatgen with grid density = 595 / numbe

Automatic generation of k-mesh.
 Grid dimensions read from file:
 generate k-points for:    2    2    2

 Generating k-lattice:

  Cartesian coordinates                     Fractional coordinates (reciprocal lattice)
     0.000000000  0.048226712 -0.007803498     0.500000000  0.000000000 -0.000000000
     0.029782301  0.000000000  0.000000000     0.000000000  0.500000000  0.000000000
     0.000000000 -0.001679391 -0.046425743    -0.000000000  0.000000000  0.500000000

  Length of vectors
     0.048853969  0.029782301  0.046456108

  Shift w.r.t. Gamma in fractional coordinates (k-lattice)
     0.000000000  0.000000000  0.000000000

 TETIRR: Found     24 inequivalent tetrahedra from       48
 
 Subroutine IBZKPT returns following result:
 ===========================================
 
 Found      8 irreducible k-points:
 
 Following reciprocal coordinates:
            Coordinates               Weight
  0.000000  0.000000  0.000000      1.000000
  0.500000  0.000000  0.000000      1.000000
  0.000000  0.500000  0.000000      1.000000
  0.500000  0.500000  0.000000      1.000000
  0.000000  0.000000  0.500000      1.000000
  0.500000  0.000000  0.500000      1.000000
  0.000000  0.500000  0.500000      1.000000
  0.500000  0.500000  0.500000      1.000000
 
 Following cartesian coordinates:
            Coordinates               Weight
  0.000000  0.000000 -0.000000      1.000000
  0.000000  0.048227 -0.007803      1.000000
  0.029782  0.000000 -0.000000      1.000000
  0.029782  0.048227 -0.007803      1.000000
  0.000000 -0.001679 -0.046426      1.000000
  0.000000  0.046547 -0.054229      1.000000
  0.029782 -0.001679 -0.046426      1.000000
  0.029782  0.046547 -0.054229      1.000000
 


--------------------------------------------------------------------------------------------------------




 Dimension of arrays:
   k-points           NKPTS =      8   k-points in BZ     NKDIM =      8   number of bands    NBANDS=    256
   number of dos      NEDOS =    301   number of ions     NIONS =     56
   non local maximal  LDIM  =      4   non local SUM 2l+1 LMDIM =      8
   total plane-waves  NPLWV = 846720
   max r-space proj   IRMAX =      1   max aug-charges    IRDMAX= 114695
   dimension x,y,z NGX =    80 NGY =  126 NGZ =   84
   dimension x,y,z NGXF=   160 NGYF=  252 NGZF=  168
   support grid    NGXF=   320 NGYF=  504 NGZF=  336
   ions per type =              56
   NGX,Y,Z   is equivalent  to a cutoff of  12.89, 12.48, 12.87 a.u.
   NGXF,Y,Z  is equivalent  to a cutoff of  25.79, 24.95, 25.75 a.u.

 SYSTEM =  unknown system                          
 POSCAR =  generated by phonopy                    

 Startparameter for this run:
   NWRITE =      2    write-flag & timer
   PREC   = accura    normal or accurate (medium, high low for compatibility)
   ISTART =      0    job   : 0-new  1-cont  2-samecut
   ICHARG =      2    charge: 1-file 2-atom 10-const
   ISPIN  =      2    spin polarized calculation?
   LNONCOLLINEAR =      F non collinear calculations
   LSORBIT =      F    spin-orbit coupling
   INIWAV =      1    electr: 0-lowe 1-rand  2-diag
   LASPH  =      T    aspherical Exc in radial PAW
 Electronic Relaxation 1
   ENCUT  =  520.0 eV  38.22 Ry    6.18 a.u.  19.18 31.22 20.17*2*pi/ulx,y,z
   ENINI  =  520.0     initial cutoff
   ENAUG  =  335.1 eV  augmentation charge cutoff
   NELM   =    100;   NELMIN=  2; NELMDL= -5     # of ELM steps 
   EDIFF  = 0.1E-08   stopping-criterion for ELM
   LREAL  =      F    real-space projection
   NLSPLINE    = F    spline interpolate recip. space projectors
   LCOMPAT=      F    compatible to vasp.4.4
   GGA_COMPAT  = T    GGA compatible to vasp.4.4-vasp.4.6
   LMAXPAW     = -100 max onsite density
   LMAXMIX     =    2 max onsite mixed and CHGCAR
   VOSKOWN=      0    Vosko Wilk Nusair interpolation
   ROPT   =    0.00000
 Ionic relaxation
   EDIFFG = -.5E-03   stopping-criterion for IOM
   NSW    =      0    number of steps for IOM
   NBLOCK =      1;   KBLOCK =      1    inner block; outer block 
   IBRION =     -1    ionic relax: 0-MD 1-quasi-New 2-CG
   NFREE  =      0    steps in history (QN), initial steepest desc. (CG)
   ISIF   =      2    stress and relaxation
   IWAVPR =     10    prediction:  0-non 1-charg 2-wave 3-comb
   ISYM   =      0    0-nonsym 1-usesym 2-fastsym
   LCORR  =      T    Harris-Foulkes like correction to forces

   POTIM  = 0.5000    time-step for ionic-motion
   TEIN   =    0.0    initial temperature
   TEBEG  =    0.0;   TEEND  =   0.0 temperature during run
   SMASS  =  -3.00    Nose mass-parameter (am)
   estimated Nose-frequenzy (Omega)   =  0.10E-29 period in steps = 0.13E+47 mass=  -0.243E-26a.u.
   SCALEE = 1.0000    scale energy and forces
   NPACO  =    256;   APACO  = 10.0  distance and # of slots for P.C.
   PSTRESS=    0.0 pullay stress

  Mass of Ions in am
   POMASS =  32.07
  Ionic Valenz
   ZVAL   =   6.00
  Atomic Wigner-Seitz radii
   RWIGS  =  -1.00
  virtual crystal weights 
   VCA    =   1.00
   NELECT =     336.0000    total number of electrons
   NUPDOWN=      -1.0000    fix difference up-down

 DOS related values:
   EMIN   =  10.00;   EMAX   =-10.00  energy-range for DOS
   EFERMI =   0.00
   ISMEAR =    -5;   SIGMA  =   0.05  broadening in eV -4-tet -1-fermi 0-gaus

 Electronic relaxation 2 (details)
   IALGO  =     38    algorithm
   LDIAG  =      T    sub-space diagonalisation (order eigenvalues)
   LSUBROT=      F    optimize rotation matrix (better conditioning)
   TURBO    =      0    0=normal 1=particle mesh
   IRESTART =      0    0=no restart 2=restart with 2 vectors
   NREBOOT  =      0    no. of reboots
   NMIN     =      0    reboot dimension
   EREF     =   0.00    reference energy to select bands
   IMIX   =      4    mixing-type and parameters
     AMIX     =   0.40;   BMIX     =  1.00
     AMIX_MAG =   1.60;   BMIX_MAG =  1.00
     AMIN     =   0.10
     WC   =   100.;   INIMIX=   1;  MIXPRE=   1;  MAXMIX= -45

 Intra band minimization:
   WEIMIN = 0.0000     energy-eigenvalue tresh-hold
   EBREAK =  0.98E-12  absolut break condition
   DEPER  =   0.30     relativ break condition  

   TIME   =   0.40     timestep for ELM

  volume/ion in A,a.u.               =      33.28       224.58
  Fermi-wavevector in a.u.,A,eV,Ry     =   0.924835  1.747685 11.637339  0.855320
  Thomas-Fermi vector in A             =   2.050624

 Write flags
   LWAVE        =      F    write WAVECAR
   LDOWNSAMPLE  =      F    k-point downsampling of WAVECAR
   LCHARG       =      F    write CHGCAR
   LVTOT        =      F    write LOCPOT, total local potential
   LVHAR        =      F    write LOCPOT, Hartree potential only
   LELF         =      F    write electronic localiz. function (ELF)
   LORBIT       =     11    0 simple, 1 ext, 2 COOP (PROOUT), +10 PAW based schemes


 Dipole corrections
   LMONO  =      F    monopole corrections only (constant potential shift)
   LDIPOL =      F    correct potential (dipole corrections)
   IDIPOL =      0    1-x, 2-y, 3-z, 4-all directions 
   EPSILON=  1.0000000 bulk dielectric constant

 Exchange correlation treatment:
   GGA     =    --    GGA type
   LEXCH   =     8    internal setting for exchange type
   LIBXC   =     F    Libxc                    
   VOSKOWN =     0    Vosko Wilk Nusair interpolation
   LHFCALC =     F    Hartree Fock is set to
   LHFONE  =     F    Hartree Fock one center treatment
   AEXX    =    0.0000 exact exchange contribution

 Linear response parameters
   LEPSILON=     F    determine dielectric tensor
   LRPA    =     F    only Hartree local field effects (RPA)
   LNABLA  =     F    use nabla operator in PAW spheres
   LVEL    =     F    velocity operator in full k-point grid
   CSHIFT  =0.1000    complex shift for real part using Kramers Kronig
   OMEGAMAX=  -1.0    maximum frequency
   DEG_THRESHOLD= 0.2000000E-02 threshold for treating states as degnerate
   RTIME   =   -0.100 relaxation time in fs
  (WPLASMAI=    0.000 imaginary part of plasma frequency in eV, 0.658/RTIME)
   DFIELD  = 0.0000000 0.0000000 0.0000000 field for delta impulse in time

  Optional k-point grid parameters
   LKPOINTS_OPT  =     F    use optional k-point grid
   KPOINTS_OPT_MODE=     1    mode for optional k-point grid

 Orbital magnetization related:
   ORBITALMAG=     F  switch on orbital magnetization
   LCHIMAG   =     F  perturbation theory with respect to B field
   DQ        =  0.001000  dq finite difference perturbation B field
   LLRAUG    =     F  two centre corrections for induced B field



--------------------------------------------------------------------------------------------------------


 Static calculation
 charge density and potential will be updated during run
 spin polarized calculation
 Variant of blocked Davidson
 Davidson routine will perform the subspace rotation
 perform sub-space diagonalisation
    after iterative eigenvector-optimisation
 modified Broyden-mixing scheme, WC =      100.0
 initial mixing is a Kerker type mixing with AMIX =  0.4000 and BMIX =      1.0000
 Hartree-type preconditioning will be used
 using additional bands           88
 reciprocal scheme for non local part
 use partial core corrections
 calculate Harris-corrections to forces   (improved forces if not selfconsistent)
 use gradient corrections 
 use of overlap-Matrix (Vanderbilt PP)
 Fermi weights with tetrahedron method with Bloechl corrections


--------------------------------------------------------------------------------------------------------


  energy-cutoff  :      520.00
  volume of cell :     1863.68
      direct lattice vectors                 reciprocal lattice vectors
     0.000000000 10.307367086 -0.372855731     0.000000000  0.096453423 -0.015606996
    16.788494411  0.000000000  0.000000000     0.059564603  0.000000000  0.000000000
     0.000000000 -1.732519801-10.707215182     0.000000000 -0.003358783 -0.092851486

  length of vectors
    10.314108670 16.788494411 10.846477853     0.097707938  0.059564603  0.092912216



 k-points in units of 2pi/SCALE and weight: pymatgen with grid density = 595 / numbe
   0.00000000  0.00000000 -0.00000000       0.125
   0.00000000  0.04822671 -0.00780350       0.125
   0.02978230  0.00000000 -0.00000000       0.125
   0.02978230  0.04822671 -0.00780350       0.125
   0.00000000 -0.00167939 -0.04642574       0.125
   0.00000000  0.04654732 -0.05422924       0.125
   0.02978230 -0.00167939 -0.04642574       0.125
   0.02978230  0.04654732 -0.05422924       0.125

 k-points in reciprocal lattice and weights: pymatgen with grid density = 595 / numbe
   0.00000000  0.00000000  0.00000000       0.125
   0.50000000  0.00000000  0.00000000       0.125
   0.00000000  0.50000000  0.00000000       0.125
   0.50000000  0.50000000  0.00000000       0.125
   0.00000000  0.00000000  0.50000000       0.125
   0.50000000  0.00000000  0.50000000       0.125
   0.00000000  0.50000000  0.50000000       0.125
   0.50000000  0.50000000  0.50000000       0.125

 position of ions in fractional coordinates (direct lattice) 
   0.88642314  0.46700475  0.67812639
   0.88642314  0.96700475  0.67812639
   0.32956326  0.18874382  0.55070772
   0.32956326  0.68874382  0.55070772
   0.91170174  0.10524188  0.91196047
   0.91267129  0.60524188  0.91196047
   0.23973640  0.30083105  0.77657419
   0.23973640  0.80083105  0.77657419
   0.14441752  0.30568876  0.22439668
   0.14441752  0.80568876  0.22439668
   0.85558248  0.19431124  0.77560332
   0.85558248  0.69431124  0.77560332
   0.76026360  0.19916895  0.22342581
   0.76026360  0.69916895  0.22342581
   0.17043674  0.43874382  0.44929228
   0.17043674  0.93874382  0.44929228
   0.41267129  0.14475812  0.91196047
   0.41267129  0.64475812  0.91196047
   0.38642314  0.28299525  0.67812639
   0.38642314  0.78299525  0.67812639
   0.64441752  0.44431124  0.22439668
   0.64441752  0.94431124  0.22439668
   0.82956326  0.06125618  0.55070772
   0.82956326  0.56125618  0.55070772
   0.26026360  0.05083105  0.22342581
   0.26026360  0.55083105  0.22342581
   0.61357686  0.21700475  0.32187361
   0.61357686  0.71700475  0.32187361
   0.11357686  0.03299525  0.32187361
   0.11357686  0.53299525  0.32187361
   0.05989570  0.34508773  0.37448437
   0.05989570  0.84508773  0.37448437
   0.74342521  0.28934434  0.07116523
   0.74342521  0.78934434  0.07116523
   0.58732871  0.35524188  0.08803953
   0.58732871  0.85524188  0.08803953
   0.25657479  0.21065566  0.92883477
   0.25657479  0.71065566  0.92883477
   0.08732871  0.39475812  0.08803953
   0.08732871  0.89475812  0.08803953
   0.44010430  0.09508773  0.62551563
   0.44010430  0.59508773  0.62551563
   0.35558248  0.05568876  0.77560332
   0.35558248  0.55568876  0.77560332
   0.73973640  0.44916895  0.77657419
   0.73973640  0.94916895  0.77657419
   0.94010430  0.15491227  0.62551563
   0.94010430  0.65491227  0.62551563
   0.24342521  0.46065566  0.07116523
   0.24342521  0.96065566  0.07116523
   0.75657479  0.03934434  0.92883477
   0.75657479  0.53934434  0.92883477
   0.55989570  0.40491227  0.37448437
   0.55989570  0.90491227  0.37448437
   0.67043674  0.31125618  0.44929228
   0.67043674  0.81125618  0.44929228

 position of ions in cartesian coordinates  (Angst):
   7.84030666  7.96182132 -7.59135308
  16.23455387  7.96182132 -7.59135308
   3.16872461  2.44281751 -6.01942562
  11.56297182  2.44281751 -6.01942562
   1.76685280  7.81725493-10.10449022
  10.16110000  7.82724839-10.10485172
   5.05050035  1.12562097 -8.40433404
  13.44474755  1.12562097 -8.40433404
   5.13205407  1.09979266 -2.45651044
  13.52630128  1.09979266 -2.45651044
   3.26219313  7.47505463 -8.62356047
  11.65644034  7.47505463 -8.62356047
   3.34374686  7.44922632 -2.67573688
  11.73799406  7.44922632 -2.67573688
   7.36584822  0.97834624 -4.87421742
  15.76009542  0.97834624 -4.87421742
   2.43027081  2.67356485 -9.91842386
  10.82451801  2.67356485 -9.91842386
   4.75106415  2.80813777 -7.40492521
  13.14531135  2.80813777 -7.40492521
   7.45931673  6.25347620 -2.64293831
  15.85356394  6.25347620 -2.64293831
   1.02839899  7.59650105 -6.20585349
   9.42264619  7.59650105 -6.20585349
   0.85337674  2.29554277 -2.48930901
   9.24762395  2.29554277 -2.48930901
   3.64318306  5.76670951 -3.67514570
  12.03743026  5.76670951 -3.67514570
   0.55394055  0.61302597 -3.48871783
   8.94818775  0.61302597 -3.48871783
   5.79350349 -0.03143461 -4.03201715
  14.18775070 -0.03143461 -4.03201715
   4.85765589  7.53946136 -1.03917182
  13.25190310  7.53946136 -1.03917182
   5.96397640  5.90128244 -1.16164705
  14.35822361  5.90128244 -1.16164705
   3.53659131  1.03538593-10.04089909
  11.93083852  1.03538593-10.04089909
   6.62739441  0.74759889 -0.97521919
  15.02164161  0.74759889 -0.97521919
   1.59637989  3.45259836 -6.86162589
   9.99062710  3.45259836 -6.86162589
   0.93493047  2.32137108 -8.43713261
   9.32917768  2.32137108 -8.43713261
   7.54087046  6.27930451 -8.59076190
  15.93511767  6.27930451 -8.59076190
   2.60074371  8.60628190 -7.04805376
  10.99499092  8.60628190 -7.04805376
   7.73371492  2.38577782 -0.85274396
  16.12796212  2.38577782 -0.85274396
   0.66053229  6.18906947-10.22732695
   9.05477950  6.18906947-10.22732695
   6.79786731  5.12224893 -4.21844502
  15.19211452  5.12224893 -4.21844502
   5.22552259  6.13202978 -5.06064529
  13.61976980  6.13202978 -5.06064529



--------------------------------------------------------------------------------------------------------


 k-point   1 :   0.0000 0.0000 0.0000  plane waves:   50179
 k-point   2 :   0.5000 0.0000 0.0000  plane waves:   50160
 k-point   3 :   0.0000 0.5000 0.0000  plane waves:   50162
 k-point   4 :   0.5000 0.5000 0.0000  plane waves:   50192
 k-point   5 :   0.0000 0.0000 0.5000  plane waves:   50190
 k-point   6 :   0.5000 0.0000 0.5000  plane waves:   50190
 k-point   7 :   0.0000 0.5000 0.5000  plane waves:   50172
 k-point   8 :   0.5000 0.5000 0.5000  plane waves:   50200

 maximum and minimum number of plane-waves per node :     50200    50160

 maximum number of plane-waves:     50200
 maximum index in each direction: 
   IXMAX=   19   IYMAX=   31   IZMAX=   20
   IXMIN=  -19   IYMIN=  -31   IZMIN=  -20


 serial   3D FFT for wavefunctions
 parallel 3D FFT for charge:
    minimum data exchange during FFTs selected (reduces bandwidth)


 total amount of memory used by VASP MPI-rank0   322725. kBytes
=======================================================================

   base      :      30000. kBytes
   nonl-proj :      70692. kBytes
   fftplans  :      34504. kBytes
   grid      :      83442. kBytes
   one-center:        344. kBytes
   wavefun   :     103743. kBytes

     INWAV:  cpu time      0.0000: real time      0.0002
 Broyden mixing: mesh for mixing (old mesh)
   NGX = 39   NGY = 63   NGZ = 41
  (NGX  =160   NGY  =252   NGZ  =168)
  gives a total of 100737 points

 initial charge density was supplied:
 charge density of overlapping atoms calculated
 number of electron     336.0000000 magnetization      56.0000000
 keeping initial charge density in first step


--------------------------------------------------------------------------------------------------------


 Maximum index for augmentation-charges         3947 (set IRDMAX)


--------------------------------------------------------------------------------------------------------


 First call to EWALD:  gamma=   0.144
 Maximum number of real-space cells 3x 2x 3
 Maximum number of reciprocal cells 2x 4x 2

    FEWALD:  cpu time      0.0021: real time      0.0021


--------------------------------------- Iteration      1(   1)  ---------------------------------------


    POTLOK:  cpu time      0.5539: real time      0.5544
    SETDIJ:  cpu time     12.0950: real time     12.1095
     EDDAV:  cpu time     58.3577: real time     58.5856
 BZINTS: Fermi energy:   10.166664;  336.000000 electrons
         Band energy: 0.225054E+03;  BLOECHL correction:   -0.008878
       DOS:  cpu time      0.0498: real time      0.0499
    --------------------------------------------
      LOOP:  cpu time     71.0564: real time     71.2994

 eigenvalue-minimisations  :  8192
 total energy-change (2. order) : 0.2106357E+04  (-0.1330938E+05)
 number of electron     336.0000000 magnetization      56.0000000
 augmentation part      336.0000000 magnetization      56.0000000

 Free energy of the ion-electron system (eV)
  ---------------------------------------------------
  alpha Z        PSCENC =       253.99581917
  Ewald energy   TEWEN  =     -9969.90642883
  -Hartree energ DENC   =     -4766.56564262
  -exchange      EXHF   =         0.00000000
  -V(xc)+E(xc)   XCENC  =       682.53271318
  PAW double counting   =     12174.71095765   -11995.46358648
  entropy T*S    EENTRO =         0.00000000
  eigenvalues    EBANDS =       225.05424862
  atomic energy  EATOM  =     15501.99929693
  Solvation  Ediel_sol  =         0.00000000
  ---------------------------------------------------
  free energy    TOTEN  =      2106.35737762 eV

  energy without entropy =     2106.35737762  energy(sigma->0) =     2106.35737762


--------------------------------------------------------------------------------------------------------




--------------------------------------- Iteration      1(   2)  ---------------------------------------


     EDDAV:  cpu time     61.1190: real time     61.4106
 BZINTS: Fermi energy:    1.452480;  336.000000 electrons
         Band energy:-0.187502E+04;  BLOECHL correction:    0.000000
       DOS:  cpu time      0.0272: real time      0.0273
    --------------------------------------------
      LOOP:  cpu time     61.1461: real time     61.4379

 eigenvalue-minimisations  : 10272
 total energy-change (2. order) :-0.2100070E+04  (-0.2021874E+04)
 number of electron     336.0000000 magnetization      56.0000000
 augmentation part      336.0000000 magnetization      56.0000000

 Free energy of the ion-electron system (eV)
  ---------------------------------------------------
  alpha Z        PSCENC =       253.99581917
  Ewald energy   TEWEN  =     -9969.90642883
  -Hartree energ DENC   =     -4766.56564262
  -exchange      EXHF   =         0.00000000
  -V(xc)+E(xc)   XCENC  =       682.53271318
  PAW double counting   =     12174.71095765   -11995.46358648
  entropy T*S    EENTRO =         0.00000000
  eigenvalues    EBANDS =     -1875.01586541
  atomic energy  EATOM  =     15501.99929693
  Solvation  Ediel_sol  =         0.00000000
  ---------------------------------------------------
  free energy    TOTEN  =         6.28726359 eV

  energy without entropy =        6.28726359  energy(sigma->0) =        6.28726359


--------------------------------------------------------------------------------------------------------




--------------------------------------- Iteration      1(   3)  ---------------------------------------


     EDDAV:  cpu time     65.7507: real time     65.9079
 BZINTS: Fermi energy:    0.219869;  336.000000 electrons
         Band energy:-0.209488E+04;  BLOECHL correction:    0.000000
       DOS:  cpu time      0.0275: real time      0.0275
    --------------------------------------------
      LOOP:  cpu time     65.7781: real time     65.9355

 eigenvalue-minimisations  : 10240
 total energy-change (2. order) :-0.2198657E+03  (-0.2171802E+03)
 number of electron     336.0000000 magnetization      56.0000000
 augmentation part      336.0000000 magnetization      56.0000000

 Free energy of the ion-electron system (eV)
  ---------------------------------------------------
  alpha Z        PSCENC =       253.99581917
  Ewald energy   TEWEN  =     -9969.90642883
  -Hartree energ DENC   =     -4766.56564262
  -exchange      EXHF   =         0.00000000
  -V(xc)+E(xc)   XCENC  =       682.53271318
  PAW double counting   =     12174.71095765   -11995.46358648
  entropy T*S    EENTRO =         0.00000000
  eigenvalues    EBANDS =     -2094.88158641
  atomic energy  EATOM  =     15501.99929693
  Solvation  Ediel_sol  =         0.00000000
  ---------------------------------------------------
  free energy    TOTEN  =      -213.57845740 eV

  energy without entropy =     -213.57845740  energy(sigma->0) =     -213.57845740


--------------------------------------------------------------------------------------------------------




--------------------------------------- Iteration      1(   4)  ---------------------------------------


     EDDAV:  cpu time     71.8408: real time     71.9827
 BZINTS: Fermi energy:    0.191643;  336.000000 electrons
         Band energy:-0.209978E+04;  BLOECHL correction:    0.000000
       DOS:  cpu time      0.0280: real time      0.0280
    --------------------------------------------
      LOOP:  cpu time     71.8687: real time     72.0107

 eigenvalue-minimisations  : 10336
 total energy-change (2. order) :-0.4896607E+01  (-0.4878230E+01)
 number of electron     336.0000000 magnetization      56.0000000
 augmentation part      336.0000000 magnetization      56.0000000

 Free energy of the ion-electron system (eV)
  ---------------------------------------------------
  alpha Z        PSCENC =       253.99581917
  Ewald energy   TEWEN  =     -9969.90642883
  -Hartree energ DENC   =     -4766.56564262
  -exchange      EXHF   =         0.00000000
  -V(xc)+E(xc)   XCENC  =       682.53271318
  PAW double counting   =     12174.71095765   -11995.46358648
  entropy T*S    EENTRO =         0.00000000
  eigenvalues    EBANDS =     -2099.77819300
  atomic energy  EATOM  =     15501.99929693
  Solvation  Ediel_sol  =         0.00000000
  ---------------------------------------------------
  free energy    TOTEN  =      -218.47506400 eV

  energy without entropy =     -218.47506400  energy(sigma->0) =     -218.47506400


--------------------------------------------------------------------------------------------------------




--------------------------------------- Iteration      1(   5)  ---------------------------------------


     EDDAV:  cpu time     71.7566: real time     71.9134
 BZINTS: Fermi energy:    0.191517;  336.000000 electrons
         Band energy:-0.209992E+04;  BLOECHL correction:    0.000000
       DOS:  cpu time      0.0273: real time      0.0274
    CHARGE:  cpu time      8.8113: real time      8.8541
    MIXING:  cpu time      0.0057: real time      0.0057
    --------------------------------------------
      LOOP:  cpu time     80.6009: real time     80.8006

 eigenvalue-minimisations  : 10080
 total energy-change (2. order) :-0.1371768E+00  (-0.1371107E+00)
 number of electron     335.9999997 magnetization      44.9918631
 augmentation part      -47.3224745 magnetization      44.8836872

 Broyden mixing:
  rms(total) = 0.82979E+01    rms(broyden)= 0.82979E+01
  rms(prec ) = 0.83178E+01
  weight for this iteration     100.00

 Free energy of the ion-electron system (eV)
  ---------------------------------------------------
  alpha Z        PSCENC =       253.99581917
  Ewald energy   TEWEN  =     -9969.90642883
  -Hartree energ DENC   =     -4766.56564262
  -exchange      EXHF   =         0.00000000
  -V(xc)+E(xc)   XCENC  =       682.53271318
  PAW double counting   =     12174.71095765   -11995.46358648
  entropy T*S    EENTRO =         0.00000000
  eigenvalues    EBANDS =     -2099.91536983
  atomic energy  EATOM  =     15501.99929693
  Solvation  Ediel_sol  =         0.00000000
  ---------------------------------------------------
  free energy    TOTEN  =      -218.61224083 eV

  energy without entropy =     -218.61224083  energy(sigma->0) =     -218.61224083


--------------------------------------------------------------------------------------------------------




--------------------------------------- Iteration      1(   6)  ---------------------------------------


    POTLOK:  cpu time      0.4444: real time      0.4549
    SETDIJ:  cpu time      8.1724: real time      8.1802
     EDDAV:  cpu time     68.2663: real time     68.3853
 BZINTS: Fermi energy:    0.408908;  336.000000 electrons
         Band energy:-0.201437E+04;  BLOECHL correction:    0.000000
       DOS:  cpu time      0.0272: real time      0.0273
    CHARGE:  cpu time      8.4899: real time      8.4994
    MIXING:  cpu time      0.0098: real time      0.0098
    --------------------------------------------
      LOOP:  cpu time     85.4101: real time     85.5568

 eigenvalue-minimisations  :  9632
 total energy-change (2. order) : 0.1022923E+03  (-0.2667794E+02)
 number of electron     335.9999997 magnetization      26.4957159
 augmentation part      -47.6485806 magnetization      27.5542657

 Broyden mixing:
  rms(total) = 0.49390E+01    rms(broyden)= 0.49390E+01
  rms(prec ) = 0.49613E+01
  weight for this iteration     100.00

 eigenvalues of (default mixing * dielectric matrix)
  average eigenvalue GAMMA=   1.6665
  1.6665

 Free energy of the ion-electron system (eV)
  ---------------------------------------------------
  alpha Z        PSCENC =       253.99581917
  Ewald energy   TEWEN  =     -9969.90642883
  -Hartree energ DENC   =     -4810.94151393
  -exchange      EXHF   =         0.00000000
  -V(xc)+E(xc)   XCENC  =       746.13016538
  PAW double counting   =     20741.28787058   -20564.51220176
  entropy T*S    EENTRO =         0.00000000
  eigenvalues    EBANDS =     -2014.37293361
  atomic energy  EATOM  =     15501.99929693
  Solvation  Ediel_sol  =         0.00000000
  ---------------------------------------------------
  free energy    TOTEN  =      -116.31992606 eV

  energy without entropy =     -116.31992606  energy(sigma->0) =     -116.31992606


--------------------------------------------------------------------------------------------------------




--------------------------------------- Iteration      1(   7)  ---------------------------------------


    POTLOK:  cpu time      0.4407: real time      0.4484
    SETDIJ:  cpu time     11.7277: real time     11.7606
     EDDAV:  cpu time     67.2996: real time     67.3510
 BZINTS: Fermi energy:    0.737878;  336.000000 electrons
         Band energy:-0.186798E+04;  BLOECHL correction:    0.000000
       DOS:  cpu time      0.0270: real time      0.0270
    CHARGE:  cpu time     14.7353: real time     14.7391
    MIXING:  cpu time      0.0094: real time      0.0094
    --------------------------------------------
      LOOP:  cpu time     94.2397: real time     94.3355

 eigenvalue-minimisations  : 10144
 total energy-change (2. order) :-0.1114651E+02  (-0.2695955E+01)
 number of electron     335.9999997 magnetization      19.7216847
 augmentation part      -47.3163856 magnetization      20.9273869

 Broyden mixing:
  rms(total) = 0.13988E+01    rms(broyden)= 0.13988E+01
  rms(prec ) = 0.14024E+01
  weight for this iteration     100.00

 eigenvalues of (default mixing * dielectric matrix)
  average eigenvalue GAMMA=   1.4856
  0.7902  2.1810

 Free energy of the ion-electron system (eV)
  ---------------------------------------------------
  alpha Z        PSCENC =       253.99581917
  Ewald energy   TEWEN  =     -9969.90642883
  -Hartree energ DENC   =     -4970.40445994
  -exchange      EXHF   =         0.00000000
  -V(xc)+E(xc)   XCENC  =       751.46568980
  PAW double counting   =     37053.66712888   -36880.30639681
  entropy T*S    EENTRO =         0.00000000
  eigenvalues    EBANDS =     -1867.97708527
  atomic energy  EATOM  =     15501.99929693
  Solvation  Ediel_sol  =         0.00000000
  ---------------------------------------------------
  free energy    TOTEN  =      -127.46643607 eV

  energy without entropy =     -127.46643607  energy(sigma->0) =     -127.46643607


--------------------------------------------------------------------------------------------------------




--------------------------------------- Iteration      1(   8)  ---------------------------------------


    POTLOK:  cpu time      0.4675: real time      0.4688
    SETDIJ:  cpu time      6.3228: real time      6.3590
     EDDAV:  cpu time     62.7623: real time     62.8851
 BZINTS: Fermi energy:    0.705575;  336.000000 electrons
         Band energy:-0.185543E+04;  BLOECHL correction:    0.000000
       DOS:  cpu time      0.0287: real time      0.0288
    CHARGE:  cpu time     11.4212: real time     11.4243
    MIXING:  cpu time      0.0103: real time      0.0103
    --------------------------------------------
      LOOP:  cpu time     81.0130: real time     81.1763

 eigenvalue-minimisations  :  9344
 total energy-change (2. order) :-0.4274203E+02  (-0.1978241E+01)
 number of electron     335.9999997 magnetization      16.0630415
 augmentation part      -47.0116958 magnetization      17.1076327

 Broyden mixing:
  rms(total) = 0.78213E+00    rms(broyden)= 0.78213E+00
  rms(prec ) = 0.78728E+00
  weight for this iteration     100.00

 eigenvalues of (default mixing * dielectric matrix)
  average eigenvalue GAMMA=   1.3385
  2.4899  0.9420  0.5835

 Free energy of the ion-electron system (eV)
  ---------------------------------------------------
  alpha Z        PSCENC =       253.99581917
  Ewald energy   TEWEN  =     -9969.90642883
  -Hartree energ DENC   =     -5000.03346034
  -exchange      EXHF   =         0.00000000
  -V(xc)+E(xc)   XCENC  =       726.57465801
  PAW double counting   =     40203.94642492   -40031.35272110
  entropy T*S    EENTRO =         0.00000000
  eigenvalues    EBANDS =     -1855.43205027
  atomic energy  EATOM  =     15501.99929693
  Solvation  Ediel_sol  =         0.00000000
  ---------------------------------------------------
  free energy    TOTEN  =      -170.20846152 eV

  energy without entropy =     -170.20846152  energy(sigma->0) =     -170.20846152


--------------------------------------------------------------------------------------------------------




--------------------------------------- Iteration      1(   9)  ---------------------------------------


    POTLOK:  cpu time      0.4486: real time      0.4500
    SETDIJ:  cpu time     11.7304: real time     11.7368
     EDDAV:  cpu time     79.0149: real time     79.1206
 BZINTS: Fermi energy:    0.627868;  336.000000 electrons
         Band energy:-0.186668E+04;  BLOECHL correction:    0.000000
       DOS:  cpu time      0.0297: real time      0.0298
    CHARGE:  cpu time     11.2757: real time     11.2922
    MIXING:  cpu time      0.0099: real time      0.0098
    --------------------------------------------
      LOOP:  cpu time    102.5091: real time    102.6392

 eigenvalue-minimisations  : 10240
 total energy-change (2. order) :-0.1674058E+02  (-0.6408487E+00)
 number of electron     335.9999997 magnetization      11.5344868
 augmentation part      -46.9154111 magnetization      12.3722550

 Broyden mixing:
  rms(total) = 0.43632E+00    rms(broyden)= 0.43632E+00
  rms(prec ) = 0.44837E+00
  weight for this iteration     100.00

 eigenvalues of (default mixing * dielectric matrix)
  average eigenvalue GAMMA=   1.3244
  2.5743  1.3008  0.7113  0.7113

 Free energy of the ion-electron system (eV)
  ---------------------------------------------------
  alpha Z        PSCENC =       253.99581917
  Ewald energy   TEWEN  =     -9969.90642883
  -Hartree energ DENC   =     -4996.22219469
  -exchange      EXHF   =         0.00000000
  -V(xc)+E(xc)   XCENC  =       717.25722849
  PAW double counting   =     40983.32894686   -40810.71677299
  entropy T*S    EENTRO =         0.00000000
  eigenvalues    EBANDS =     -1866.68494038
  atomic energy  EATOM  =     15501.99929693
  Solvation  Ediel_sol  =         0.00000000
  ---------------------------------------------------
  free energy    TOTEN  =      -186.94904544 eV

  energy without entropy =     -186.94904544  energy(sigma->0) =     -186.94904544


--------------------------------------------------------------------------------------------------------




--------------------------------------- Iteration      1(  10)  ---------------------------------------


    POTLOK:  cpu time      0.4643: real time      0.4656
    SETDIJ:  cpu time     14.4141: real time     14.4331
     EDDAV:  cpu time     72.3187: real time     72.4168
 BZINTS: Fermi energy:    0.474971;  336.000000 electrons
         Band energy:-0.190118E+04;  BLOECHL correction:    0.000000
       DOS:  cpu time      0.0273: real time      0.0273
    CHARGE:  cpu time     11.8659: real time     11.8733
    MIXING:  cpu time      0.0081: real time      0.0081
    --------------------------------------------
      LOOP:  cpu time     99.0984: real time     99.2242

 eigenvalue-minimisations  :  9984
 total energy-change (2. order) :-0.2006541E+02  (-0.1301710E+01)
 number of electron     335.9999997 magnetization       5.3084693
 augmentation part      -46.8735677 magnetization       5.8432755

 Broyden mixing:
  rms(total) = 0.32432E+00    rms(broyden)= 0.32432E+00
  rms(prec ) = 0.33728E+00
  weight for this iteration     100.00

 eigenvalues of (default mixing * dielectric matrix)
  average eigenvalue GAMMA=   1.4489
  2.4863  2.4863  0.9417  0.7282  0.6021

 Free energy of the ion-electron system (eV)
  ---------------------------------------------------
  alpha Z        PSCENC =       253.99581917
  Ewald energy   TEWEN  =     -9969.90642883
  -Hartree energ DENC   =     -4970.86882109
  -exchange      EXHF   =         0.00000000
  -V(xc)+E(xc)   XCENC  =       705.67764382
  PAW double counting   =     40993.30477256   -40820.03824934
  entropy T*S    EENTRO =         0.00000000
  eigenvalues    EBANDS =     -1901.17848997
  atomic energy  EATOM  =     15501.99929693
  Solvation  Ediel_sol  =         0.00000000
  ---------------------------------------------------
  free energy    TOTEN  =      -207.01445674 eV

  energy without entropy =     -207.01445674  energy(sigma->0) =     -207.01445674


--------------------------------------------------------------------------------------------------------




--------------------------------------- Iteration      1(  11)  ---------------------------------------


    POTLOK:  cpu time      0.4464: real time      0.4478
    SETDIJ:  cpu time      4.3584: real time      4.3592
     EDDAV:  cpu time     75.4045: real time     75.4784
 BZINTS: Fermi energy:    0.257347;  336.000000 electrons
         Band energy:-0.195856E+04;  BLOECHL correction:    0.000000
       DOS:  cpu time      0.0278: real time      0.0278
    CHARGE:  cpu time     12.5750: real time     12.6499
    MIXING:  cpu time      0.0095: real time      0.0095
    --------------------------------------------
      LOOP:  cpu time     92.8216: real time     92.9727

 eigenvalue-minimisations  :  9920
 total energy-change (2. order) :-0.1785551E+02  (-0.2165134E+01)
 number of electron     335.9999997 magnetization       3.5780130
 augmentation part      -46.9052154 magnetization       3.7613950

 Broyden mixing:
  rms(total) = 0.18667E+00    rms(broyden)= 0.18667E+00
  rms(prec ) = 0.20036E+00
  weight for this iteration     100.00

 eigenvalues of (default mixing * dielectric matrix)
  average eigenvalue GAMMA=   1.4662
  2.7962  2.7962  1.0263  0.8894  0.6991  0.5899

 Free energy of the ion-electron system (eV)
  ---------------------------------------------------
  alpha Z        PSCENC =       253.99581917
  Ewald energy   TEWEN  =     -9969.90642883
  -Hartree energ DENC   =     -4921.28929368
  -exchange      EXHF   =         0.00000000
  -V(xc)+E(xc)   XCENC  =       694.56363325
  PAW double counting   =     40420.65533233   -40246.32911664
  entropy T*S    EENTRO =         0.00000000
  eigenvalues    EBANDS =     -1958.55921042
  atomic energy  EATOM  =     15501.99929693
  Solvation  Ediel_sol  =         0.00000000
  ---------------------------------------------------
  free energy    TOTEN  =      -224.86996788 eV

  energy without entropy =     -224.86996788  energy(sigma->0) =     -224.86996788


--------------------------------------------------------------------------------------------------------




--------------------------------------- Iteration      1(  12)  ---------------------------------------


    POTLOK:  cpu time      0.4521: real time      0.4620
    SETDIJ:  cpu time      6.7392: real time      6.7583
     EDDAV:  cpu time     66.1186: real time     66.1700
 BZINTS: Fermi energy:    0.184099;  336.000000 electrons
         Band energy:-0.197916E+04;  BLOECHL correction:    0.000000
       DOS:  cpu time      0.0269: real time      0.0270
    CHARGE:  cpu time      5.2593: real time      5.2639
    MIXING:  cpu time      0.0102: real time      0.0102
    --------------------------------------------
      LOOP:  cpu time     78.6064: real time     78.6914

 eigenvalue-minimisations  : 10048
 total energy-change (2. order) :-0.3387520E+01  (-0.3874948E+00)
 number of electron     335.9999997 magnetization       2.3944447
 augmentation part      -46.9150608 magnetization       2.4777623

 Broyden mixing:
  rms(total) = 0.15993E+00    rms(broyden)= 0.15993E+00
  rms(prec ) = 0.17248E+00
  weight for this iteration     100.00

 eigenvalues of (default mixing * dielectric matrix)
  average eigenvalue GAMMA=   1.4912
  3.0999  3.0999  1.0546  1.0546  0.7809  0.7809  0.5677

 Free energy of the ion-electron system (eV)
  ---------------------------------------------------
  alpha Z        PSCENC =       253.99581917
  Ewald energy   TEWEN  =     -9969.90642883
  -Hartree energ DENC   =     -4901.86104483
  -exchange      EXHF   =         0.00000000
  -V(xc)+E(xc)   XCENC  =       692.11409055
  PAW double counting   =     39989.29932007   -39814.73717502
  entropy T*S    EENTRO =         0.00000000
  eigenvalues    EBANDS =     -1979.16136566
  atomic energy  EATOM  =     15501.99929693
  Solvation  Ediel_sol  =         0.00000000
  ---------------------------------------------------
  free energy    TOTEN  =      -228.25748762 eV

  energy without entropy =     -228.25748762  energy(sigma->0) =     -228.25748762


--------------------------------------------------------------------------------------------------------




--------------------------------------- Iteration      1(  13)  ---------------------------------------


    POTLOK:  cpu time      0.4559: real time      0.4569
    SETDIJ:  cpu time     10.1498: real time     10.1555
     EDDAV:  cpu time     61.3148: real time     61.6065
 BZINTS: Fermi energy:    0.115944;  336.000000 electrons
         Band energy:-0.200164E+04;  BLOECHL correction:    0.000000
       DOS:  cpu time      0.0272: real time      0.0273
    CHARGE:  cpu time      9.9363: real time      9.9943
    MIXING:  cpu time      0.0111: real time      0.0111
    --------------------------------------------
      LOOP:  cpu time     81.8950: real time     82.2516

 eigenvalue-minimisations  :  9536
 total energy-change (2. order) :-0.1056310E+01  (-0.1339963E+00)
 number of electron     335.9999997 magnetization       0.8906165
 augmentation part      -46.9734186 magnetization       0.9166858

 Broyden mixing:
  rms(total) = 0.93159E-01    rms(broyden)= 0.93159E-01
  rms(prec ) = 0.99982E-01
  weight for this iteration     100.00

 eigenvalues of (default mixing * dielectric matrix)
  average eigenvalue GAMMA=   1.5510
  3.3213  3.3213  1.5820  1.2851  0.9270  0.6995  0.6995  0.5720

 Free energy of the ion-electron system (eV)
  ---------------------------------------------------
  alpha Z        PSCENC =       253.99581917
  Ewald energy   TEWEN  =     -9969.90642883
  -Hartree energ DENC   =     -4878.69026683
  -exchange      EXHF   =         0.00000000
  -V(xc)+E(xc)   XCENC  =       690.12774371
  PAW double counting   =     39167.84622698   -38993.04373599
  entropy T*S    EENTRO =         0.00000000
  eigenvalues    EBANDS =     -2001.64245298
  atomic energy  EATOM  =     15501.99929693
  Solvation  Ediel_sol  =         0.00000000
  ---------------------------------------------------
  free energy    TOTEN  =      -229.31379784 eV

  energy without entropy =     -229.31379784  energy(sigma->0) =     -229.31379784


--------------------------------------------------------------------------------------------------------




--------------------------------------- Iteration      1(  14)  ---------------------------------------


    POTLOK:  cpu time      0.4460: real time      0.4473
    SETDIJ:  cpu time      4.7734: real time      4.7877
     EDDAV:  cpu time     66.5563: real time     67.2367
 BZINTS: Fermi energy:    0.080251;  336.000000 electrons
         Band energy:-0.201214E+04;  BLOECHL correction:    0.000000
       DOS:  cpu time      0.0273: real time      0.0275
    CHARGE:  cpu time      7.4040: real time      7.5141
    MIXING:  cpu time      0.0104: real time      0.0104
    --------------------------------------------
      LOOP:  cpu time     79.2173: real time     80.0237

 eigenvalue-minimisations  :  8992
 total energy-change (2. order) :-0.6578377E-01  (-0.1632564E-01)
 number of electron     335.9999997 magnetization       0.4186811
 augmentation part      -47.0005927 magnetization       0.4257014

 Broyden mixing:
  rms(total) = 0.43842E-01    rms(broyden)= 0.43842E-01
  rms(prec ) = 0.46547E-01
  weight for this iteration     100.00

 eigenvalues of (default mixing * dielectric matrix)
  average eigenvalue GAMMA=   1.5781
  4.1282  2.5568  2.5568  1.0963  1.0963  0.7711  0.7711  0.5746  0.6516

 Free energy of the ion-electron system (eV)
  ---------------------------------------------------
  alpha Z        PSCENC =       253.99581917
  Ewald energy   TEWEN  =     -9969.90642883
  -Hartree energ DENC   =     -4867.29784146
  -exchange      EXHF   =         0.00000000
  -V(xc)+E(xc)   XCENC  =       689.21288638
  PAW double counting   =     39105.85830672   -38931.10066396
  entropy T*S    EENTRO =         0.00000000
  eigenvalues    EBANDS =     -2012.14095657
  atomic energy  EATOM  =     15501.99929693
  Solvation  Ediel_sol  =         0.00000000
  ---------------------------------------------------
  free energy    TOTEN  =      -229.37958161 eV

  energy without entropy =     -229.37958161  energy(sigma->0) =     -229.37958161


--------------------------------------------------------------------------------------------------------




--------------------------------------- Iteration      1(  15)  ---------------------------------------


    POTLOK:  cpu time      0.4394: real time      0.4476
    SETDIJ:  cpu time     12.6726: real time     12.7835
     EDDAV:  cpu time     68.4343: real time     68.7190
 BZINTS: Fermi energy:    0.078482;  336.000000 electrons
         Band energy:-0.201185E+04;  BLOECHL correction:    0.000000
       DOS:  cpu time      0.0282: real time      0.0284
    CHARGE:  cpu time     12.9809: real time     13.0016
    MIXING:  cpu time      0.0118: real time      0.0118
    --------------------------------------------
      LOOP:  cpu time     94.5672: real time     94.9919

 eigenvalue-minimisations  :  9600
 total energy-change (2. order) : 0.1261838E-02  (-0.2077418E-02)
 number of electron     335.9999997 magnetization       0.1725342
 augmentation part      -46.9944744 magnetization       0.1768262

 Broyden mixing:
  rms(total) = 0.20248E-01    rms(broyden)= 0.20248E-01
  rms(prec ) = 0.21828E-01
  weight for this iteration     100.00

 eigenvalues of (default mixing * dielectric matrix)
  average eigenvalue GAMMA=   1.5643
  4.5522  2.5273  2.5273  1.3334  0.9967  0.9967  0.7585  0.7585  0.6240  0.5690

 Free energy of the ion-electron system (eV)
  ---------------------------------------------------
  alpha Z        PSCENC =       253.99581917
  Ewald energy   TEWEN  =     -9969.90642883
  -Hartree energ DENC   =     -4867.46558631
  -exchange      EXHF   =         0.00000000
  -V(xc)+E(xc)   XCENC  =       689.17429187
  PAW double counting   =     39191.52841288   -39016.85800390
  entropy T*S    EENTRO =         0.00000000
  eigenvalues    EBANDS =     -2011.84612159
  atomic energy  EATOM  =     15501.99929693
  Solvation  Ediel_sol  =         0.00000000
  ---------------------------------------------------
  free energy    TOTEN  =      -229.37831978 eV

  energy without entropy =     -229.37831978  energy(sigma->0) =     -229.37831978


--------------------------------------------------------------------------------------------------------




--------------------------------------- Iteration      1(  16)  ---------------------------------------


    POTLOK:  cpu time      0.4419: real time      0.4435
    SETDIJ:  cpu time      7.4386: real time      7.4503
     EDDAV:  cpu time     61.6149: real time     61.7911
 BZINTS: Fermi energy:    0.076494;  336.000000 electrons
         Band energy:-0.201231E+04;  BLOECHL correction:    0.000000
       DOS:  cpu time      0.0290: real time      0.0291
    CHARGE:  cpu time     14.5862: real time     14.6003
    MIXING:  cpu time      0.0095: real time      0.0095
    --------------------------------------------
      LOOP:  cpu time     84.1200: real time     84.3239

 eigenvalue-minimisations  :  9152
 total energy-change (2. order) : 0.3108364E-02  (-0.5516753E-03)
 number of electron     335.9999997 magnetization       0.0699117
 augmentation part      -46.9933360 magnetization       0.0707061

 Broyden mixing:
  rms(total) = 0.12377E-01    rms(broyden)= 0.12377E-01
  rms(prec ) = 0.13391E-01
  weight for this iteration     100.00

 eigenvalues of (default mixing * dielectric matrix)
  average eigenvalue GAMMA=   1.5463
  4.7574  2.4272  2.4272  1.8401  0.9958  0.9958  0.9224  0.7278  0.7278  0.5804
  0.6070

 Free energy of the ion-electron system (eV)
  ---------------------------------------------------
  alpha Z        PSCENC =       253.99581917
  Ewald energy   TEWEN  =     -9969.90642883
  -Hartree energ DENC   =     -4866.90274041
  -exchange      EXHF   =         0.00000000
  -V(xc)+E(xc)   XCENC  =       689.10585940
  PAW double counting   =     39161.53397224   -38986.88744955
  entropy T*S    EENTRO =         0.00000000
  eigenvalues    EBANDS =     -2012.31354037
  atomic energy  EATOM  =     15501.99929693
  Solvation  Ediel_sol  =         0.00000000
  ---------------------------------------------------
  free energy    TOTEN  =      -229.37521141 eV

  energy without entropy =     -229.37521141  energy(sigma->0) =     -229.37521141


--------------------------------------------------------------------------------------------------------




--------------------------------------- Iteration      1(  17)  ---------------------------------------


    POTLOK:  cpu time      0.4350: real time      0.4365
    SETDIJ:  cpu time     11.0522: real time     11.0617
     EDDAV:  cpu time     65.3181: real time     67.0615
 BZINTS: Fermi energy:    0.078503;  336.000000 electrons
         Band energy:-0.201139E+04;  BLOECHL correction:    0.000000
       DOS:  cpu time      0.0272: real time      0.0273
    CHARGE:  cpu time      3.4894: real time      3.6378
    MIXING:  cpu time      0.0135: real time      0.0135
    --------------------------------------------
      LOOP:  cpu time     80.3353: real time     82.2382

 eigenvalue-minimisations  :  9472
 total energy-change (2. order) :-0.5031195E-03  (-0.1195626E-03)
 number of electron     335.9999997 magnetization       0.0178234
 augmentation part      -46.9882545 magnetization       0.0182203

 Broyden mixing:
  rms(total) = 0.49352E-02    rms(broyden)= 0.49351E-02
  rms(prec ) = 0.55384E-02
  weight for this iteration     100.00

 eigenvalues of (default mixing * dielectric matrix)
  average eigenvalue GAMMA=   1.5758
  4.9482  2.6009  2.6009  2.2006  1.1771  0.9962  0.9962  0.7616  0.7616  0.6812
  0.5867  0.5981

 Free energy of the ion-electron system (eV)
  ---------------------------------------------------
  alpha Z        PSCENC =       253.99581917
  Ewald energy   TEWEN  =     -9969.90642883
  -Hartree energ DENC   =     -4867.86728564
  -exchange      EXHF   =         0.00000000
  -V(xc)+E(xc)   XCENC  =       689.16589822
  PAW double counting   =     39202.47260603   -39027.85043226
  entropy T*S    EENTRO =         0.00000000
  eigenvalues    EBANDS =     -2011.38518815
  atomic energy  EATOM  =     15501.99929693
  Solvation  Ediel_sol  =         0.00000000
  ---------------------------------------------------
  free energy    TOTEN  =      -229.37571453 eV

  energy without entropy =     -229.37571453  energy(sigma->0) =     -229.37571453


--------------------------------------------------------------------------------------------------------




--------------------------------------- Iteration      1(  18)  ---------------------------------------


    POTLOK:  cpu time      0.4434: real time      0.4528
    SETDIJ:  cpu time      5.4545: real time      5.6862
     EDDAV:  cpu time     71.8078: real time     72.4812
 BZINTS: Fermi energy:    0.079549;  336.000000 electrons
         Band energy:-0.201086E+04;  BLOECHL correction:    0.000000
       DOS:  cpu time      0.0281: real time      0.0282
    CHARGE:  cpu time      4.5547: real time      4.5595
    MIXING:  cpu time      0.0108: real time      0.0109
    --------------------------------------------
      LOOP:  cpu time     82.2992: real time     83.2188

 eigenvalue-minimisations  :  9472
 total energy-change (2. order) :-0.1150929E-03  (-0.3984051E-04)
 number of electron     335.9999997 magnetization       0.0051623
 augmentation part      -46.9849038 magnetization       0.0057036

 Broyden mixing:
  rms(total) = 0.44620E-02    rms(broyden)= 0.44620E-02
  rms(prec ) = 0.47155E-02
  weight for this iteration     100.00

 eigenvalues of (default mixing * dielectric matrix)
  average eigenvalue GAMMA=   1.5442
  5.0021  2.6445  2.6445  2.2626  1.1302  1.1302  0.9903  0.9903  0.7251  0.7251
  0.5781  0.6446  0.6066

 Free energy of the ion-electron system (eV)
  ---------------------------------------------------
  alpha Z        PSCENC =       253.99581917
  Ewald energy   TEWEN  =     -9969.90642883
  -Hartree energ DENC   =     -4868.41407562
  -exchange      EXHF   =         0.00000000
  -V(xc)+E(xc)   XCENC  =       689.20139433
  PAW double counting   =     39231.39118456   -39056.78392381
  entropy T*S    EENTRO =         0.00000000
  eigenvalues    EBANDS =     -2010.85909635
  atomic energy  EATOM  =     15501.99929693
  Solvation  Ediel_sol  =         0.00000000
  ---------------------------------------------------
  free energy    TOTEN  =      -229.37582963 eV

  energy without entropy =     -229.37582963  energy(sigma->0) =     -229.37582963


--------------------------------------------------------------------------------------------------------




--------------------------------------- Iteration      1(  19)  ---------------------------------------


    POTLOK:  cpu time      0.4660: real time      0.4677
    SETDIJ:  cpu time      8.7696: real time      8.7758
     EDDAV:  cpu time     69.1532: real time     69.2718
 BZINTS: Fermi energy:    0.078938;  336.000000 electrons
         Band energy:-0.201112E+04;  BLOECHL correction:    0.000000
       DOS:  cpu time      0.0275: real time      0.0275
    CHARGE:  cpu time      5.1019: real time      5.1070
    MIXING:  cpu time      0.0094: real time      0.0094
    --------------------------------------------
      LOOP:  cpu time     83.5276: real time     83.6593

 eigenvalue-minimisations  :  9792
 total energy-change (2. order) :-0.6096634E-05  (-0.6242256E-05)
 number of electron     335.9999997 magnetization      -0.0005132
 augmentation part      -46.9857376 magnetization      -0.0002713

 Broyden mixing:
  rms(total) = 0.20280E-02    rms(broyden)= 0.20280E-02
  rms(prec ) = 0.22036E-02
  weight for this iteration     100.00

 eigenvalues of (default mixing * dielectric matrix)
  average eigenvalue GAMMA=   1.5452
  5.0450  2.7064  2.7064  2.1074  1.4092  1.4092  1.0319  1.0319  0.8585  0.7537
  0.7537  0.5796  0.6093  0.6310

 Free energy of the ion-electron system (eV)
  ---------------------------------------------------
  alpha Z        PSCENC =       253.99581917
  Ewald energy   TEWEN  =     -9969.90642883
  -Hartree energ DENC   =     -4868.13944114
  -exchange      EXHF   =         0.00000000
  -V(xc)+E(xc)   XCENC  =       689.18445651
  PAW double counting   =     39230.01764138   -39055.40724088
  entropy T*S    EENTRO =         0.00000000
  eigenvalues    EBANDS =     -2011.11993886
  atomic energy  EATOM  =     15501.99929693
  Solvation  Ediel_sol  =         0.00000000
  ---------------------------------------------------
  free energy    TOTEN  =      -229.37583572 eV

  energy without entropy =     -229.37583572  energy(sigma->0) =     -229.37583572


--------------------------------------------------------------------------------------------------------




--------------------------------------- Iteration      1(  20)  ---------------------------------------


    POTLOK:  cpu time      0.4309: real time      0.4347
    SETDIJ:  cpu time      9.6515: real time      9.6678
     EDDAV:  cpu time     85.2559: real time     85.3731
 BZINTS: Fermi energy:    0.078637;  336.000000 electrons
         Band energy:-0.201126E+04;  BLOECHL correction:    0.000000
       DOS:  cpu time      0.0272: real time      0.0274
    CHARGE:  cpu time     16.0000: real time     16.0203
    MIXING:  cpu time      0.0092: real time      0.0092
    --------------------------------------------
      LOOP:  cpu time    111.3747: real time    111.5325

 eigenvalue-minimisations  :  9184
 total energy-change (2. order) :-0.1062275E-04  (-0.3479197E-05)
 number of electron     335.9999997 magnetization      -0.0016364
 augmentation part      -46.9862666 magnetization      -0.0015573

 Broyden mixing:
  rms(total) = 0.95495E-03    rms(broyden)= 0.95483E-03
  rms(prec ) = 0.10145E-02
  weight for this iteration     100.00

 eigenvalues of (default mixing * dielectric matrix)
  average eigenvalue GAMMA=   1.5470
  5.0952  2.7075  2.7075  2.0991  2.0991  1.2301  1.2301  0.9904  0.9904  0.7800
  0.7329  0.7329  0.5776  0.6159  0.6159

 Free energy of the ion-electron system (eV)
  ---------------------------------------------------
  alpha Z        PSCENC =       253.99581917
  Ewald energy   TEWEN  =     -9969.90642883
  -Hartree energ DENC   =     -4867.99637160
  -exchange      EXHF   =         0.00000000
  -V(xc)+E(xc)   XCENC  =       689.17742952
  PAW double counting   =     39235.21160582   -39060.59929670
  entropy T*S    EENTRO =         0.00000000
  eigenvalues    EBANDS =     -2011.25790066
  atomic energy  EATOM  =     15501.99929693
  Solvation  Ediel_sol  =         0.00000000
  ---------------------------------------------------
  free energy    TOTEN  =      -229.37584634 eV

  energy without entropy =     -229.37584634  energy(sigma->0) =     -229.37584634


--------------------------------------------------------------------------------------------------------




--------------------------------------- Iteration      1(  21)  ---------------------------------------


    POTLOK:  cpu time      0.4323: real time      0.4337
    SETDIJ:  cpu time      8.6093: real time      8.6188
     EDDAV:  cpu time     63.3436: real time     63.4473
 BZINTS: Fermi energy:    0.078264;  336.000000 electrons
         Band energy:-0.201131E+04;  BLOECHL correction:    0.000000
       DOS:  cpu time      0.0281: real time      0.0282
    CHARGE:  cpu time      8.4695: real time      8.4847
    MIXING:  cpu time      0.0089: real time      0.0089
    --------------------------------------------
      LOOP:  cpu time     80.8916: real time     81.0216

 eigenvalue-minimisations  :  9216
 total energy-change (2. order) : 0.1150231E-05  (-0.8918963E-06)
 number of electron     335.9999997 magnetization      -0.0013496
 augmentation part      -46.9864639 magnetization      -0.0013536

 Broyden mixing:
  rms(total) = 0.42572E-03    rms(broyden)= 0.42545E-03
  rms(prec ) = 0.44781E-03
  weight for this iteration     100.00

 eigenvalues of (default mixing * dielectric matrix)
  average eigenvalue GAMMA=   1.5117
  5.0970  2.6673  2.6673  2.5700  1.6162  1.3980  1.1556  1.1556  0.9276  0.9276
  0.7392  0.7392  0.7250  0.5773  0.6126  0.6126

 Free energy of the ion-electron system (eV)
  ---------------------------------------------------
  alpha Z        PSCENC =       253.99581917
  Ewald energy   TEWEN  =     -9969.90642883
  -Hartree energ DENC   =     -4867.93646086
  -exchange      EXHF   =         0.00000000
  -V(xc)+E(xc)   XCENC  =       689.17375425
  PAW double counting   =     39234.64079485   -39060.02766331
  entropy T*S    EENTRO =         0.00000000
  eigenvalues    EBANDS =     -2011.31495740
  atomic energy  EATOM  =     15501.99929693
  Solvation  Ediel_sol  =         0.00000000
  ---------------------------------------------------
  free energy    TOTEN  =      -229.37584519 eV

  energy without entropy =     -229.37584519  energy(sigma->0) =     -229.37584519


--------------------------------------------------------------------------------------------------------




--------------------------------------- Iteration      1(  22)  ---------------------------------------


    POTLOK:  cpu time      0.4313: real time      0.4373
    SETDIJ:  cpu time      1.0345: real time      1.0373
     EDDAV:  cpu time     74.7398: real time     74.8751
 BZINTS: Fermi energy:    0.078129;  336.000000 electrons
         Band energy:-0.201134E+04;  BLOECHL correction:    0.000000
       DOS:  cpu time      0.0283: real time      0.0284
    CHARGE:  cpu time      9.6494: real time      9.6575
    MIXING:  cpu time      0.0137: real time      0.0138
    --------------------------------------------
      LOOP:  cpu time     85.8969: real time     86.0494

 eigenvalue-minimisations  :  9920
 total energy-change (2. order) : 0.4546091E-06  (-0.1418317E-06)
 number of electron     335.9999997 magnetization      -0.0004753
 augmentation part      -46.9865329 magnetization      -0.0004968

 Broyden mixing:
  rms(total) = 0.23205E-03    rms(broyden)= 0.23156E-03
  rms(prec ) = 0.24622E-03
  weight for this iteration     100.00

 eigenvalues of (default mixing * dielectric matrix)
  average eigenvalue GAMMA=   1.5003
  5.0912  2.6561  2.6561  2.6235  1.6721  1.4390  1.4390  1.0828  1.0828  0.9003
  0.9003  0.7423  0.7423  0.6729  0.5784  0.6126  0.6126

 Free energy of the ion-electron system (eV)
  ---------------------------------------------------
  alpha Z        PSCENC =       253.99581917
  Ewald energy   TEWEN  =     -9969.90642883
  -Hartree energ DENC   =     -4867.91481605
  -exchange      EXHF   =         0.00000000
  -V(xc)+E(xc)   XCENC  =       689.17217203
  PAW double counting   =     39233.22688021   -39058.61344225
  entropy T*S    EENTRO =         0.00000000
  eigenvalues    EBANDS =     -2011.33532594
  atomic energy  EATOM  =     15501.99929693
  Solvation  Ediel_sol  =         0.00000000
  ---------------------------------------------------
  free energy    TOTEN  =      -229.37584474 eV

  energy without entropy =     -229.37584474  energy(sigma->0) =     -229.37584474


--------------------------------------------------------------------------------------------------------




--------------------------------------- Iteration      1(  23)  ---------------------------------------


    POTLOK:  cpu time      0.4359: real time      0.4378
    SETDIJ:  cpu time      6.8748: real time      6.8795
     EDDAV:  cpu time     61.4737: real time     61.6055
 BZINTS: Fermi energy:    0.078205;  336.000000 electrons
         Band energy:-0.201133E+04;  BLOECHL correction:    0.000000
       DOS:  cpu time      0.0283: real time      0.0284
    CHARGE:  cpu time      5.2177: real time      5.2251
    MIXING:  cpu time      0.0141: real time      0.0141
    --------------------------------------------
      LOOP:  cpu time     74.0445: real time     74.1903

 eigenvalue-minimisations  :  9216
 total energy-change (2. order) :-0.2242232E-06  (-0.5740799E-07)
 number of electron     335.9999997 magnetization      -0.0002603
 augmentation part      -46.9865061 magnetization      -0.0002565

 Broyden mixing:
[...]

  length of vectors
    10.314108670 16.788494411 10.846477853     0.097707938  0.059564603  0.092912216


 FORCES acting on ions
    electron-ion (+dipol)            ewald-force                    non-local-force                 convergence-correction
 -----------------------------------------------------------------------------------------------
   0.986E+02 -.105E+03 -.125E+02   -.104E+03 0.113E+03 0.112E+02   0.495E+01 -.888E+01 0.132E+01   0.183E-05 -.440E-06 0.888E-06
   0.986E+02 -.105E+03 -.125E+02   -.104E+03 0.114E+03 0.112E+02   0.495E+01 -.889E+01 0.131E+01   0.152E-05 -.420E-06 0.946E-06
   -.124E+02 0.420E+02 -.127E+03   0.126E+02 -.472E+02 0.134E+03   -.246E+00 0.519E+01 -.705E+01   0.224E-06 0.184E-06 -.915E-06
   -.124E+02 0.420E+02 -.127E+03   0.126E+02 -.472E+02 0.134E+03   -.246E+00 0.519E+01 -.705E+01   0.677E-07 0.128E-06 -.119E-05
   -.219E+02 -.908E+02 0.981E+02   0.206E+02 0.996E+02 -.103E+03   0.141E+01 -.863E+01 0.534E+01   0.842E-08 -.239E-06 0.160E-05
   -.211E+02 -.902E+02 0.981E+02   0.198E+02 0.989E+02 -.103E+03   0.134E+01 -.874E+01 0.530E+01   -.894E-07 -.201E-06 0.183E-05
   -.108E+03 0.951E+02 0.627E+01   0.114E+03 -.101E+03 -.415E+01   -.534E+01 0.592E+01 -.212E+01   -.150E-05 0.176E-07 0.618E-06
   -.108E+03 0.950E+02 0.626E+01   0.114E+03 -.101E+03 -.414E+01   -.534E+01 0.592E+01 -.212E+01   -.191E-05 0.508E-07 0.645E-06
   0.136E+03 -.540E+02 -.187E+02   -.143E+03 0.595E+02 0.193E+02   0.680E+01 -.552E+01 -.558E+00   0.171E-05 -.363E-07 -.105E-05
   0.136E+03 -.540E+02 -.187E+02   -.143E+03 0.595E+02 0.193E+02   0.680E+01 -.552E+01 -.558E+00   0.151E-05 0.127E-08 -.102E-05
   -.137E+03 0.535E+02 0.185E+02   0.143E+03 -.590E+02 -.191E+02   -.680E+01 0.549E+01 0.589E+00   -.140E-05 -.161E-06 0.992E-06
   -.136E+03 0.539E+02 0.187E+02   0.143E+03 -.595E+02 -.193E+02   -.680E+01 0.552E+01 0.558E+00   -.174E-05 -.118E-06 0.102E-05
   0.108E+03 -.950E+02 -.618E+01   -.114E+03 0.101E+03 0.406E+01   0.534E+01 -.592E+01 0.212E+01   0.183E-05 -.998E-07 -.722E-06
   0.108E+03 -.950E+02 -.625E+01   -.114E+03 0.101E+03 0.413E+01   0.534E+01 -.592E+01 0.212E+01   0.162E-05 -.672E-07 -.670E-06
   -.124E+02 -.420E+02 0.127E+03   0.126E+02 0.472E+02 -.134E+03   -.246E+00 -.519E+01 0.705E+01   0.173E-06 -.147E-07 0.138E-05
   -.124E+02 -.420E+02 0.127E+03   0.126E+02 0.472E+02 -.134E+03   -.246E+00 -.519E+01 0.705E+01   -.243E-07 0.936E-07 0.137E-05
   0.211E+02 -.900E+02 0.981E+02   -.198E+02 0.988E+02 -.103E+03   -.133E+01 -.874E+01 0.530E+01   0.143E-06 0.125E-06 0.149E-05
   0.211E+02 -.902E+02 0.981E+02   -.198E+02 0.989E+02 -.103E+03   -.134E+01 -.874E+01 0.530E+01   0.562E-07 0.132E-06 0.173E-05
   -.986E+02 -.105E+03 -.125E+02   0.104E+03 0.113E+03 0.112E+02   -.495E+01 -.888E+01 0.132E+01   -.149E-05 -.344E-07 0.900E-06
   -.986E+02 -.105E+03 -.125E+02   0.104E+03 0.113E+03 0.112E+02   -.495E+01 -.888E+01 0.132E+01   -.181E-05 -.833E-07 0.790E-06
   -.136E+03 -.539E+02 -.187E+02   0.143E+03 0.595E+02 0.193E+02   -.680E+01 -.552E+01 -.558E+00   -.161E-05 0.335E-07 -.105E-05
   -.136E+03 -.539E+02 -.187E+02   0.143E+03 0.595E+02 0.192E+02   -.680E+01 -.552E+01 -.559E+00   -.162E-05 -.408E-07 -.106E-05
   0.124E+02 0.419E+02 -.127E+03   -.126E+02 -.471E+02 0.134E+03   0.247E+00 0.520E+01 -.705E+01   -.102E-06 -.176E-06 -.829E-06
   0.124E+02 0.420E+02 -.127E+03   -.126E+02 -.472E+02 0.134E+03   0.246E+00 0.519E+01 -.705E+01   -.126E-06 -.143E-06 -.109E-05
   -.108E+03 -.950E+02 -.631E+01   0.114E+03 0.101E+03 0.420E+01   -.534E+01 -.592E+01 0.212E+01   -.168E-05 0.270E-06 -.765E-06
   -.108E+03 -.950E+02 -.625E+01   0.114E+03 0.101E+03 0.414E+01   -.534E+01 -.592E+01 0.212E+01   -.176E-05 0.194E-06 -.700E-06
   0.986E+02 0.105E+03 0.126E+02   -.104E+03 -.113E+03 -.112E+02   0.495E+01 0.888E+01 -.132E+01   0.180E-05 0.322E-06 -.630E-06
   0.987E+02 0.105E+03 0.125E+02   -.104E+03 -.113E+03 -.112E+02   0.495E+01 0.888E+01 -.132E+01   0.164E-05 0.319E-06 -.758E-06
   -.987E+02 0.105E+03 0.125E+02   0.104E+03 -.113E+03 -.112E+02   -.495E+01 0.888E+01 -.132E+01   -.167E-05 0.202E-06 -.661E-06
   -.986E+02 0.105E+03 0.125E+02   0.104E+03 -.113E+03 -.112E+02   -.495E+01 0.888E+01 -.132E+01   -.173E-05 0.132E-06 -.738E-06
   0.728E+02 0.961E+02 0.633E+02   -.755E+02 -.106E+03 -.653E+02   0.274E+01 0.971E+01 0.207E+01   0.966E-06 0.234E-06 0.757E-06
   0.728E+02 0.961E+02 0.633E+02   -.755E+02 -.106E+03 -.653E+02   0.274E+01 0.971E+01 0.207E+01   0.748E-06 0.281E-06 0.630E-06
   0.217E+02 -.938E+02 -.888E+02   -.204E+02 0.100E+03 0.939E+02   -.133E+01 -.628E+01 -.509E+01   0.454E-06 -.174E-07 -.175E-05
   0.218E+02 -.938E+02 -.889E+02   -.205E+02 0.100E+03 0.940E+02   -.133E+01 -.628E+01 -.509E+01   0.164E-06 -.348E-07 -.157E-05
   -.211E+02 0.902E+02 -.981E+02   0.198E+02 -.990E+02 0.103E+03   0.134E+01 0.874E+01 -.530E+01   0.162E-07 0.159E-06 -.209E-05
   -.211E+02 0.902E+02 -.981E+02   0.198E+02 -.990E+02 0.103E+03   0.134E+01 0.874E+01 -.530E+01   -.179E-06 0.101E-06 -.201E-05
   -.217E+02 0.939E+02 0.889E+02   0.204E+02 -.100E+03 -.940E+02   0.133E+01 0.628E+01 0.508E+01   -.145E-06 0.178E-07 0.116E-05
   -.218E+02 0.938E+02 0.889E+02   0.205E+02 -.100E+03 -.940E+02   0.133E+01 0.628E+01 0.509E+01   -.371E-06 -.276E-07 0.143E-05
   0.211E+02 0.902E+02 -.981E+02   -.198E+02 -.989E+02 0.103E+03   -.134E+01 0.874E+01 -.530E+01   0.160E-06 -.110E-06 -.199E-05
   0.211E+02 0.902E+02 -.981E+02   -.197E+02 -.989E+02 0.103E+03   -.134E+01 0.874E+01 -.530E+01   -.607E-07 -.167E-07 -.196E-05
   0.728E+02 -.961E+02 -.633E+02   -.755E+02 0.106E+03 0.654E+02   0.274E+01 -.971E+01 -.207E+01   0.841E-06 -.279E-06 -.306E-06
   0.728E+02 -.961E+02 -.633E+02   -.755E+02 0.106E+03 0.653E+02   0.274E+01 -.971E+01 -.207E+01   0.873E-06 -.228E-06 -.502E-06
   0.136E+03 0.541E+02 0.187E+02   -.143E+03 -.596E+02 -.193E+02   0.680E+01 0.552E+01 0.558E+00   0.150E-05 0.159E-06 0.948E-06
   0.136E+03 0.540E+02 0.187E+02   -.143E+03 -.595E+02 -.193E+02   0.680E+01 0.552E+01 0.558E+00   0.169E-05 0.119E-06 0.957E-06
   0.108E+03 0.950E+02 0.625E+01   -.114E+03 -.101E+03 -.413E+01   0.534E+01 0.592E+01 -.212E+01   0.182E-05 -.813E-07 0.653E-06
   0.109E+03 0.950E+02 0.617E+01   -.114E+03 -.101E+03 -.406E+01   0.530E+01 0.592E+01 -.210E+01   0.146E-05 -.173E-06 0.668E-06
   -.728E+02 -.963E+02 -.632E+02   0.755E+02 0.106E+03 0.652E+02   -.274E+01 -.970E+01 -.207E+01   -.742E-06 -.616E-06 -.266E-06
   -.728E+02 -.962E+02 -.632E+02   0.755E+02 0.106E+03 0.653E+02   -.274E+01 -.971E+01 -.207E+01   -.943E-06 -.587E-06 -.497E-06
   -.218E+02 -.938E+02 -.889E+02   0.205E+02 0.100E+03 0.940E+02   0.133E+01 -.628E+01 -.509E+01   -.263E-06 0.189E-06 -.163E-05
   -.219E+02 -.937E+02 -.889E+02   0.206E+02 0.100E+03 0.940E+02   0.133E+01 -.628E+01 -.509E+01   -.406E-06 0.282E-06 -.169E-05
   0.227E+02 0.945E+02 0.890E+02   -.214E+02 -.101E+03 -.941E+02   -.139E+01 0.613E+01 0.509E+01   0.236E-06 -.258E-06 0.115E-05
   0.218E+02 0.938E+02 0.889E+02   -.205E+02 -.100E+03 -.940E+02   -.133E+01 0.628E+01 0.509E+01   0.285E-06 -.162E-06 0.136E-05
   -.728E+02 0.962E+02 0.632E+02   0.755E+02 -.106E+03 -.653E+02   -.274E+01 0.971E+01 0.207E+01   -.845E-06 0.585E-06 0.671E-06
   -.728E+02 0.962E+02 0.632E+02   0.755E+02 -.106E+03 -.653E+02   -.274E+01 0.971E+01 0.207E+01   -.946E-06 0.531E-06 0.690E-06
   0.123E+02 -.420E+02 0.127E+03   -.126E+02 0.472E+02 -.134E+03   0.245E+00 -.519E+01 0.705E+01   0.489E-07 0.347E-07 0.151E-05
   0.124E+02 -.420E+02 0.127E+03   -.126E+02 0.472E+02 -.134E+03   0.246E+00 -.519E+01 0.705E+01   -.240E-06 -.273E-07 0.136E-05
 -----------------------------------------------------------------------------------------------
   0.946E-02 0.581E-01 -.980E-01   -.924E-13 0.000E+00 0.568E-13   -.946E-02 -.581E-01 0.980E-01   -.354E-07 0.678E-08 0.460E-07


 POSITION                                       TOTAL-FORCE (eV/Angst)
 -----------------------------------------------------------------------------------
      7.84031      7.96182     -7.59135         0.002461     -0.001372      0.000847
     16.23455      7.96182     -7.59135         0.004415      0.002472     -0.002250
      3.16872      2.44282     -6.01943         0.002211     -0.000807     -0.002479
     11.56297      2.44282     -6.01943         0.002154     -0.000908     -0.002497
      1.76685      7.81725    -10.10449         0.047329      0.153046     -0.017562
     10.16110      7.82725    -10.10485        -0.000027      0.000046     -0.000521
      5.05050      1.12562     -8.40433         0.001425     -0.000575     -0.000930
     13.44475      1.12562     -8.40433         0.001586     -0.000630     -0.000677
      5.13205      1.09979     -2.45651        -0.000142      0.000491     -0.000239
     13.52630      1.09979     -2.45651        -0.000130      0.000253     -0.000308
      3.26219      7.47505     -8.62356         0.031175     -0.031721      0.022765
     11.65644      7.47505     -8.62356         0.000111     -0.000459      0.000287
      3.34375      7.44923     -2.67574        -0.001418      0.000727      0.000531
     11.73799      7.44923     -2.67574        -0.001520      0.000634      0.000692
      7.36585      0.97835     -4.87422         0.002122      0.000886      0.002538
     15.76010      0.97835     -4.87422         0.002108      0.000804      0.002494
      2.43027      2.67356     -9.91842         0.000476     -0.000289     -0.000624
     10.82452      2.67356     -9.91842         0.000032      0.000024     -0.000438
      4.75106      2.80814     -7.40493        -0.002372     -0.001213      0.001002
     13.14531      2.80814     -7.40493        -0.002450     -0.001260      0.000925
      7.45932      6.25348     -2.64294         0.000133      0.000519     -0.000105
     15.85356      6.25348     -2.64294        -0.000088      0.000006     -0.000569
      1.02840      7.59650     -6.20585        -0.000114     -0.002764     -0.002633
      9.42265      7.59650     -6.20585        -0.002136     -0.000878     -0.002479
      0.85338      2.29554     -2.48931         0.001493      0.000482      0.000875
      9.24762      2.29554     -2.48931         0.001587      0.000655      0.000698
      3.64318      5.76671     -3.67515         0.002614      0.000979     -0.001218
     12.03743      5.76671     -3.67515         0.002562      0.001307     -0.000901
      0.55394      0.61303     -3.48872        -0.002445      0.001449     -0.000959
      8.94819      0.61303     -3.48872        -0.002486      0.001237     -0.000974
      5.79350     -0.03143     -4.03202        -0.001168      0.001747      0.000199
     14.18775     -0.03143     -4.03202        -0.001222      0.001858      0.000164
      4.85766      7.53946     -1.03917        -0.003646      0.001966     -0.000268
     13.25190      7.53946     -1.03917        -0.004189      0.002218     -0.000286
      5.96398      5.90128     -1.16165         0.000009     -0.000079      0.000370
     14.35822      5.90128     -1.16165         0.000121     -0.000068      0.000578
      3.53659      1.03539    -10.04090         0.003647     -0.001679      0.000503
     11.93084      1.03539    -10.04090         0.003946     -0.002067      0.000258
      6.62739      0.74760     -0.97522         0.000136      0.000024      0.000476
     15.02164      0.74760     -0.97522         0.000233      0.000460      0.000568
      1.59638      3.45260     -6.86163        -0.001311     -0.001886     -0.000336
      9.99063      3.45260     -6.86163        -0.001243     -0.001777     -0.000270
      0.93493      2.32137     -8.43713        -0.000277     -0.000691      0.000507
      9.32918      2.32137     -8.43713        -0.000087     -0.000430      0.000287
      7.54087      6.27930     -8.59076        -0.001588     -0.000544     -0.000703
     15.93512      6.27930     -8.59076        -0.012890     -0.004208      0.008705
      2.60074      8.60628     -7.04805        -0.008418      0.004415     -0.004973
     10.99499      8.60628     -7.04805         0.001229     -0.001774     -0.000202
      7.73371      2.38578     -0.85274         0.003884      0.002019     -0.000257
     16.12796      2.38578     -0.85274         0.003976      0.001879     -0.000311
      0.66053      6.18907    -10.22733        -0.065625     -0.127827     -0.006164
      9.05478      6.18907    -10.22733        -0.003974     -0.002061      0.000345
      6.79787      5.12225     -4.21845         0.000961      0.001854      0.000232
     15.19211      5.12225     -4.21845         0.001170      0.001989      0.000093
      5.22552      6.13203     -5.06065        -0.002238      0.000764      0.002596
     13.61977      6.13203     -5.06065        -0.002102      0.000760      0.002597
 -----------------------------------------------------------------------------------
    total drift:                                0.000000     -0.000012      0.000002


--------------------------------------------------------------------------------------------------------



  FREE ENERGIE OF THE ION-ELECTRON SYSTEM (eV)
  ---------------------------------------------------
  free  energy   TOTEN  =      -229.37584477 eV

  energy  without entropy=     -229.37584477  energy(sigma->0) =     -229.37584477



--------------------------------------------------------------------------------------------------------


    POTLOK:  cpu time      7.9177: real time      7.9304


--------------------------------------------------------------------------------------------------------


     LOOP+:  cpu time   2908.0032: real time   2921.5693
    4ORBIT:  cpu time      0.0000: real time      0.0000



 total charge

# of ion       s       p       d       tot
------------------------------------------
    1        1.376   2.247   0.000   3.623
    2        1.376   2.247   0.000   3.623
    3        1.376   2.258   0.000   3.635
    4        1.376   2.258   0.000   3.635
    5        1.376   2.251   0.000   3.626
    6        1.376   2.247   0.000   3.623
    7        1.375   2.262   0.000   3.638
    8        1.375   2.262   0.000   3.638
    9        1.377   2.257   0.000   3.634
   10        1.377   2.257   0.000   3.634
   11        1.377   2.258   0.000   3.635
   12        1.377   2.257   0.000   3.634
   13        1.375   2.262   0.000   3.638
   14        1.375   2.262   0.000   3.638
   15        1.376   2.258   0.000   3.635
   16        1.376   2.258   0.000   3.635
   17        1.376   2.247   0.000   3.623
   18        1.376   2.247   0.000   3.623
   19        1.376   2.247   0.000   3.623
   20        1.376   2.247   0.000   3.623
   21        1.377   2.257   0.000   3.634
   22        1.377   2.257   0.000   3.634
   23        1.376   2.258   0.000   3.635
   24        1.376   2.258   0.000   3.635
   25        1.375   2.262   0.000   3.638
   26        1.375   2.262   0.000   3.638
   27        1.376   2.247   0.000   3.623
   28        1.376   2.247   0.000   3.623
   29        1.376   2.247   0.000   3.623
   30        1.376   2.247   0.000   3.623
   31        1.376   2.254   0.000   3.630
   32        1.376   2.254   0.000   3.630
   33        1.375   2.263   0.000   3.638
   34        1.375   2.263   0.000   3.638
   35        1.376   2.247   0.000   3.622
   36        1.376   2.247   0.000   3.623
   37        1.375   2.263   0.000   3.638
   38        1.375   2.263   0.000   3.638
   39        1.376   2.247   0.000   3.623
   40        1.376   2.247   0.000   3.623
   41        1.376   2.254   0.000   3.630
   42        1.376   2.254   0.000   3.630
   43        1.377   2.257   0.000   3.634
   44        1.377   2.257   0.000   3.634
   45        1.375   2.262   0.000   3.638
   46        1.376   2.263   0.000   3.638
   47        1.376   2.254   0.000   3.630
   48        1.376   2.254   0.000   3.630
   49        1.375   2.263   0.000   3.638
   50        1.375   2.263   0.000   3.638
   51        1.375   2.267   0.000   3.642
   52        1.375   2.263   0.000   3.638
   53        1.376   2.254   0.000   3.630
   54        1.376   2.254   0.000   3.630
   55        1.376   2.258   0.000   3.635
   56        1.376   2.258   0.000   3.635
--------------------------------------------------
tot         77.048 126.322   0.000 203.370



 magnetization (x)

# of ion       s       p       d       tot
------------------------------------------
    1        0.000   0.000   0.000   0.000
    2        0.000   0.000   0.000   0.000
    3        0.000   0.000   0.000   0.000
    4        0.000   0.000   0.000   0.000
    5        0.000   0.000   0.000   0.000
    6        0.000   0.000   0.000   0.000
    7        0.000   0.000   0.000   0.000
    8        0.000   0.000   0.000   0.000
    9        0.000   0.000   0.000   0.000
   10        0.000   0.000   0.000   0.000
   11        0.000   0.000   0.000   0.000
   12        0.000   0.000   0.000   0.000
   13        0.000   0.000   0.000   0.000
   14        0.000   0.000   0.000   0.000
   15        0.000   0.000   0.000   0.000
   16        0.000   0.000   0.000   0.000
   17        0.000   0.000   0.000   0.000
   18        0.000   0.000   0.000   0.000
   19        0.000   0.000   0.000   0.000
   20        0.000   0.000   0.000   0.000
   21        0.000   0.000   0.000   0.000
   22        0.000   0.000   0.000   0.000
   23        0.000   0.000   0.000   0.000
   24        0.000   0.000   0.000   0.000
   25        0.000   0.000   0.000   0.000
   26        0.000   0.000   0.000   0.000
   27        0.000   0.000   0.000   0.000
   28        0.000   0.000   0.000   0.000
   29        0.000   0.000   0.000   0.000
   30        0.000   0.000   0.000   0.000
   31        0.000   0.000   0.000   0.000
   32        0.000   0.000   0.000   0.000
   33        0.000   0.000   0.000   0.000
   34        0.000   0.000   0.000   0.000
   35        0.000   0.000   0.000   0.000
   36        0.000   0.000   0.000   0.000
   37        0.000   0.000   0.000   0.000
   38        0.000   0.000   0.000   0.000
   39        0.000   0.000   0.000   0.000
   40        0.000   0.000   0.000   0.000
   41        0.000   0.000   0.000   0.000
   42        0.000   0.000   0.000   0.000
   43        0.000   0.000   0.000   0.000
   44        0.000   0.000   0.000   0.000
   45        0.000   0.000   0.000   0.000
   46        0.000   0.000   0.000   0.000
   47        0.000   0.000   0.000   0.000
   48        0.000   0.000   0.000   0.000
   49        0.000   0.000   0.000   0.000
   50        0.000   0.000   0.000   0.000
   51        0.000   0.000   0.000   0.000
   52        0.000   0.000   0.000   0.000
   53        0.000   0.000   0.000   0.000
   54        0.000   0.000   0.000   0.000
   55        0.000   0.000   0.000   0.000
   56        0.000   0.000   0.000   0.000
--------------------------------------------------
tot          0.000   0.000   0.000   0.000

 BZINTS: Fermi energy:    0.078196;  336.000000 electrons
         Band energy:-0.201134E+04;  BLOECHL correction:    0.000000

 total amount of memory used by VASP MPI-rank0   322725. kBytes
=======================================================================

   base      :      30000. kBytes
   nonl-proj :      70692. kBytes
   fftplans  :      34504. kBytes
   grid      :      83442. kBytes
   one-center:        344. kBytes
   wavefun   :     103743. kBytes

  
  
 General timing and accounting informations for this job:
 ========================================================
  
                  Total CPU time used (sec):     2947.253
                            User time (sec):     2944.937
                          System time (sec):        2.316
                         Elapsed time (sec):     2962.681
  
                   Maximum memory used (kb):      606744.
                   Average memory used (kb):          N/A
  
                          Minor page faults:      1019426
                          Major page faults:          216
                 Voluntary context switches:         3850
