   4   4   0   0
  0.1892572E+02  0.7194456E-09  0.7194456E-09  0.7194456E-09  0.5000000E-15
   1.0000000000000000E-004
  CAR 
 unknown system                          
     22.94920437    -22.46468197  301      2.56409951      1.00000000
    -22.465  0.0000E+00  0.0000E+00
    -22.313  0.0000E+00  0.0000E+00
    -22.162  0.0000E+00  0.0000E+00
    -22.011  0.0000E+00  0.0000E+00
    -21.859  0.0000E+00  0.0000E+00
    -21.708  0.0000E+00  0.0000E+00
    -21.556  0.0000E+00  0.0000E+00
    -21.405  0.0000E+00  0.0000E+00
    -21.254  0.0000E+00  0.0000E+00
    -21.102  0.0000E+00  0.0000E+00
    -20.951  0.0000E+00  0.0000E+00
    -20.800  0.0000E+00  0.0000E+00
    -20.648  0.2900E-13  0.4389E-14
    -20.497  0.1679E-03  0.2542E-04
    -20.345  0.2361E+00  0.3577E-01
    -20.194  0.1601E+00  0.6000E-01
    -20.043  0.1752E-04  0.6000E-01
    -19.891  0.0000E+00  0.6000E-01
    -19.740  0.0000E+00  0.6000E-01
    -19.588  0.0000E+00  0.6000E-01
    -19.437  0.0000E+00  0.6000E-01
    -19.286  0.0000E+00  0.6000E-01
    -19.134  0.0000E+00  0.6000E-01
    -18.983  0.0000E+00  0.6000E-01
    -18.832  0.0000E+00  0.6000E-01
    -18.680  0.0000E+00  0.6000E-01
    -18.529  0.0000E+00  0.6000E-01
    -18.377  0.0000E+00  0.6000E-01
    -18.226  0.0000E+00  0.6000E-01
    -18.075  0.0000E+00  0.6000E-01
    -17.923  0.0000E+00  0.6000E-01
    -17.772  0.0000E+00  0.6000E-01
    -17.621  0.0000E+00  0.6000E-01
    -17.469  0.0000E+00  0.6000E-01
    -17.318  0.0000E+00  0.6000E-01
    -17.166  0.0000E+00  0.6000E-01
    -17.015  0.0000E+00  0.6000E-01
    -16.864  0.0000E+00  0.6000E-01
    -16.712  0.0000E+00  0.6000E-01
    -16.561  0.0000E+00  0.6000E-01
    -16.409  0.0000E+00  0.6000E-01
    -16.258  0.0000E+00  0.6000E-01
    -16.107  0.0000E+00  0.6000E-01
    -15.955  0.0000E+00  0.6000E-01
    -15.804  0.0000E+00  0.6000E-01
    -15.653  0.0000E+00  0.6000E-01
    -15.501  0.0000E+00  0.6000E-01
    -15.350  0.0000E+00  0.6000E-01
    -15.198  0.0000E+00  0.6000E-01
    -15.047  0.0000E+00  0.6000E-01
    -14.896  0.0000E+00  0.6000E-01
    -14.744  0.0000E+00  0.6000E-01
    -14.593  0.0000E+00  0.6000E-01
    -14.442  0.0000E+00  0.6000E-01
    -14.290  0.0000E+00  0.6000E-01
    -14.139  0.0000E+00  0.6000E-01
    -13.987  0.0000E+00  0.6000E-01
    -13.836  0.0000E+00  0.6000E-01
    -13.685  0.0000E+00  0.6000E-01
    -13.533  0.0000E+00  0.6000E-01
    -13.382  0.0000E+00  0.6000E-01
    -13.231  0.0000E+00  0.6000E-01
    -13.079  0.0000E+00  0.6000E-01
    -12.928  0.0000E+00  0.6000E-01
    -12.776  0.0000E+00  0.6000E-01
    -12.625  0.0000E+00  0.6000E-01
    -12.474  0.0000E+00  0.6000E-01
    -12.322  0.0000E+00  0.6000E-01
    -12.171  0.0000E+00  0.6000E-01
    -12.019  0.0000E+00  0.6000E-01
    -11.868  0.0000E+00  0.6000E-01
    -11.717  0.0000E+00  0.6000E-01
    -11.565  0.0000E+00  0.6000E-01
    -11.414  0.0000E+00  0.6000E-01
    -11.263  0.0000E+00  0.6000E-01
    -11.111  0.0000E+00  0.6000E-01
    -10.960  0.0000E+00  0.6000E-01
    -10.808  0.0000E+00  0.6000E-01
    -10.657  0.1715E-15  0.6000E-01
    -10.506  0.1609E-05  0.6000E-01
    -10.354  0.2143E-02  0.6032E-01
    -10.203  0.3643E-02  0.6088E-01
    -10.052  0.6975E-02  0.6193E-01
     -9.900  0.1454E-01  0.6413E-01
     -9.749  0.6153E-02  0.6506E-01
     -9.597  0.5366E-02  0.6588E-01
     -9.446  0.7659E-02  0.6704E-01
     -9.295  0.1850E-01  0.6984E-01
     -9.143  0.3187E-01  0.7466E-01
     -8.992  0.3111E-01  0.7937E-01
     -8.841  0.3943E-01  0.8534E-01
     -8.689  0.8645E-01  0.9843E-01
     -8.538  0.1040E-01  0.1000E+00
     -8.386  0.1447E-06  0.1000E+00
     -8.235  0.0000E+00  0.1000E+00
     -8.084  0.0000E+00  0.1000E+00
     -7.932  0.0000E+00  0.1000E+00
     -7.781  0.0000E+00  0.1000E+00
     -7.629  0.0000E+00  0.1000E+00
     -7.478  0.0000E+00  0.1000E+00
     -7.327  0.0000E+00  0.1000E+00
     -7.175  0.0000E+00  0.1000E+00
     -7.024  0.0000E+00  0.1000E+00
     -6.873  0.0000E+00  0.1000E+00
     -6.721  0.0000E+00  0.1000E+00
     -6.570  0.0000E+00  0.1000E+00
     -6.418  0.0000E+00  0.1000E+00
     -6.267  0.0000E+00  0.1000E+00
     -6.116  0.0000E+00  0.1000E+00
     -5.964  0.0000E+00  0.1000E+00
     -5.813  0.0000E+00  0.1000E+00
     -5.662  0.0000E+00  0.1000E+00
     -5.510  0.0000E+00  0.1000E+00
     -5.359  0.0000E+00  0.1000E+00
     -5.207  0.0000E+00  0.1000E+00
     -5.056  0.0000E+00  0.1000E+00
     -4.905  0.0000E+00  0.1000E+00
     -4.753  0.0000E+00  0.1000E+00
     -4.602  0.0000E+00  0.1000E+00
     -4.451  0.0000E+00  0.1000E+00
     -4.299  0.0000E+00  0.1000E+00
     -4.148  0.0000E+00  0.1000E+00
     -3.996  0.0000E+00  0.1000E+00
     -3.845  0.2634E-07  0.1000E+00
     -3.694  0.2284E-02  0.1003E+00
     -3.542  0.1766E+00  0.1271E+00
     -3.391  0.1740E+00  0.1534E+00
     -3.239  0.2158E+00  0.1861E+00
     -3.088  0.9144E-01  0.1999E+00
     -2.937  0.5014E-03  0.2000E+00
     -2.785  0.2290E-09  0.2000E+00
     -2.634  0.0000E+00  0.2000E+00
     -2.483  0.0000E+00  0.2000E+00
     -2.331  0.0000E+00  0.2000E+00
     -2.180  0.9406E-12  0.2000E+00
     -2.028  0.6544E-04  0.2000E+00
     -1.877  0.2687E-01  0.2041E+00
     -1.726  0.2825E-01  0.2084E+00
     -1.574  0.2007E-01  0.2114E+00
     -1.423  0.3044E-01  0.2160E+00
     -1.272  0.1647E-01  0.2185E+00
     -1.120  0.2608E-01  0.2224E+00
     -0.969  0.1882E-01  0.2253E+00
     -0.817  0.1547E-01  0.2276E+00
     -0.666  0.1482E-01  0.2299E+00
     -0.515  0.6452E-02  0.2309E+00
     -0.363  0.8509E-02  0.2321E+00
     -0.212  0.1091E-01  0.2338E+00
     -0.060  0.1820E-01  0.2365E+00
      0.091  0.2297E-01  0.2400E+00
      0.242  0.2160E-01  0.2433E+00
      0.394  0.2487E-01  0.2471E+00
      0.545  0.2770E-01  0.2513E+00
      0.696  0.3856E-01  0.2571E+00
      0.848  0.1616E-01  0.2595E+00
      0.999  0.8472E-02  0.2608E+00
      1.151  0.1965E-01  0.2638E+00
      1.302  0.3314E-01  0.2688E+00
      1.453  0.2237E-01  0.2722E+00
      1.605  0.4053E-01  0.2783E+00
      1.756  0.3518E-01  0.2837E+00
      1.907  0.3392E-01  0.2888E+00
      2.059  0.4251E-01  0.2952E+00
      2.210  0.3273E-01  0.3002E+00
      2.362  0.2931E-01  0.3046E+00
      2.513  0.2301E-01  0.3081E+00
      2.664  0.3424E-01  0.3133E+00
      2.816  0.1731E-01  0.3159E+00
      2.967  0.1842E-01  0.3187E+00
      3.118  0.8618E-02  0.3200E+00
      3.270  0.1006E-04  0.3200E+00
      3.421  0.3909E-14  0.3200E+00
      3.573  0.0000E+00  0.3200E+00
      3.724  0.0000E+00  0.3200E+00
      3.875  0.0000E+00  0.3200E+00
      4.027  0.0000E+00  0.3200E+00
      4.178  0.0000E+00  0.3200E+00
      4.330  0.0000E+00  0.3200E+00
      4.481  0.0000E+00  0.3200E+00
      4.632  0.0000E+00  0.3200E+00
      4.784  0.0000E+00  0.3200E+00
      4.935  0.0000E+00  0.3200E+00
      5.086  0.1928E-12  0.3200E+00
      5.238  0.2856E-04  0.3200E+00
      5.389  0.1278E-02  0.3202E+00
      5.541  0.1627E-02  0.3204E+00
      5.692  0.7542E-02  0.3216E+00
      5.843  0.8643E-02  0.3229E+00
      5.995  0.2522E-02  0.3233E+00
      6.146  0.1096E-01  0.3249E+00
      6.297  0.2074E-01  0.3281E+00
      6.449  0.1011E-01  0.3296E+00
      6.600  0.9456E-02  0.3310E+00
      6.752  0.8707E-02  0.3324E+00
      6.903  0.5631E-02  0.3332E+00
      7.054  0.1560E-01  0.3356E+00
      7.206  0.1583E-01  0.3380E+00
      7.357  0.8660E-02  0.3393E+00
      7.508  0.2278E-02  0.3396E+00
      7.660  0.2338E-01  0.3432E+00
      7.811  0.3629E-01  0.3487E+00
      7.963  0.3253E-01  0.3536E+00
      8.114  0.1218E-01  0.3554E+00
      8.265  0.8067E-02  0.3566E+00
      8.417  0.5555E-02  0.3575E+00
      8.568  0.1462E-01  0.3597E+00
      8.720  0.1191E-01  0.3615E+00
      8.871  0.1767E-01  0.3642E+00
      9.022  0.3984E-02  0.3648E+00
      9.174  0.9474E-02  0.3662E+00
      9.325  0.1847E-01  0.3690E+00
      9.476  0.2430E-01  0.3727E+00
      9.628  0.2663E-01  0.3767E+00
      9.779  0.3869E-01  0.3826E+00
      9.931  0.2149E-01  0.3858E+00
     10.082  0.2154E-01  0.3891E+00
     10.233  0.3370E-01  0.3942E+00
     10.385  0.3031E-01  0.3988E+00
     10.536  0.2821E-01  0.4030E+00
     10.687  0.4444E-01  0.4098E+00
     10.839  0.3123E-01  0.4145E+00
     10.990  0.2540E-01  0.4183E+00
     11.142  0.3847E-01  0.4242E+00
     11.293  0.4571E-01  0.4311E+00
     11.444  0.2784E-01  0.4353E+00
     11.596  0.1732E-01  0.4379E+00
     11.747  0.1830E-01  0.4407E+00
     11.898  0.2199E-01  0.4440E+00
     12.050  0.2604E-01  0.4480E+00
     12.201  0.3004E-01  0.4525E+00
     12.353  0.2741E-01  0.4567E+00
     12.504  0.3366E-01  0.4618E+00
     12.655  0.3046E-01  0.4664E+00
     12.807  0.2762E-01  0.4706E+00
     12.958  0.1929E-01  0.4735E+00
     13.110  0.1426E-01  0.4756E+00
     13.261  0.1603E-01  0.4781E+00
     13.412  0.9738E-02  0.4795E+00
     13.564  0.1583E-01  0.4819E+00
     13.715  0.2685E-01  0.4860E+00
     13.866  0.2712E-01  0.4901E+00
     14.018  0.1388E-01  0.4922E+00
     14.169  0.1501E-01  0.4945E+00
     14.321  0.2248E-01  0.4979E+00
     14.472  0.2196E-01  0.5012E+00
     14.623  0.9322E-02  0.5026E+00
     14.775  0.1919E-01  0.5055E+00
     14.926  0.2953E-01  0.5100E+00
     15.077  0.3270E-01  0.5149E+00
     15.229  0.1549E-01  0.5173E+00
     15.380  0.1433E-01  0.5195E+00
     15.532  0.3116E-01  0.5242E+00
     15.683  0.3363E-01  0.5293E+00
     15.834  0.2805E-01  0.5335E+00
     15.986  0.2426E-01  0.5372E+00
     16.137  0.3208E-01  0.5420E+00
     16.289  0.2696E-01  0.5461E+00
     16.440  0.1730E-01  0.5487E+00
     16.591  0.2307E-01  0.5522E+00
     16.743  0.2518E-01  0.5560E+00
     16.894  0.2570E-01  0.5599E+00
     17.045  0.2234E-01  0.5633E+00
     17.197  0.1355E-01  0.5654E+00
     17.348  0.1855E-01  0.5682E+00
     17.500  0.2631E-01  0.5722E+00
     17.651  0.3636E-01  0.5777E+00
     17.802  0.2254E-01  0.5811E+00
     17.954  0.2016E-01  0.5841E+00
     18.105  0.1836E-01  0.5869E+00
     18.256  0.3218E-01  0.5918E+00
     18.408  0.1605E-01  0.5942E+00
     18.559  0.3510E-01  0.5995E+00
     18.711  0.1401E-01  0.6016E+00
     18.862  0.4182E-01  0.6080E+00
     19.013  0.2345E-01  0.6115E+00
     19.165  0.3239E-01  0.6164E+00
     19.316  0.2138E-01  0.6197E+00
     19.467  0.2179E-01  0.6230E+00
     19.619  0.2167E-01  0.6262E+00
     19.770  0.1078E-01  0.6279E+00
     19.922  0.2122E-01  0.6311E+00
     20.073  0.1855E-01  0.6339E+00
     20.224  0.1421E-01  0.6360E+00
     20.376  0.9606E-02  0.6375E+00
     20.527  0.7556E-02  0.6386E+00
     20.679  0.3620E-02  0.6392E+00
     20.830  0.4048E-03  0.6392E+00
     20.981  0.4952E-02  0.6400E+00
     21.133  0.1701E-04  0.6400E+00
     21.284  0.6463E-14  0.6400E+00
     21.435  0.0000E+00  0.6400E+00
     21.587  0.0000E+00  0.6400E+00
     21.738  0.0000E+00  0.6400E+00
     21.890  0.0000E+00  0.6400E+00
     22.041  0.0000E+00  0.6400E+00
     22.192  0.0000E+00  0.6400E+00
     22.344  0.0000E+00  0.6400E+00
     22.495  0.0000E+00  0.6400E+00
     22.646  0.0000E+00  0.6400E+00
     22.798  0.0000E+00  0.6400E+00
     22.949  0.0000E+00  0.6400E+00
