       N       E                     dE             d eps       ncg     rms          rms(c)
DAV:   1     0.524239630812E+02    0.52424E+02   -0.15160E+04  2112   0.914E+02
DAV:   2    -0.125492590267E+02   -0.64973E+02   -0.64903E+02  2880   0.977E+01
DAV:   3    -0.135314719284E+02   -0.98221E+00   -0.98088E+00  2304   0.164E+01
DAV:   4    -0.135355111841E+02   -0.40393E-02   -0.40392E-02  4000   0.108E+00
DAV:   5    -0.135355114434E+02   -0.25923E-06   -0.25899E-06  2304   0.783E-03    0.742E+00
DAV:   6    -0.128841049803E+02    0.65141E+00   -0.57938E+00  2432   0.329E+01    0.642E+00
DAV:   7    -0.128106676133E+02    0.73437E-01   -0.38785E-01  2656   0.621E+00    0.360E+00
DAV:   8    -0.128046658506E+02    0.60018E-02   -0.75697E-02  3744   0.121E+00    0.518E-01
DAV:   9    -0.128062679797E+02   -0.16021E-02   -0.76357E-02  3904   0.981E-01    0.345E-01
DAV:  10    -0.128030790369E+02    0.31889E-02   -0.31145E-02  3936   0.303E-01    0.955E-02
DAV:  11    -0.128032991913E+02   -0.22015E-03   -0.10894E-03  2208   0.276E-01    0.402E-02
DAV:  12    -0.128033795352E+02   -0.80344E-04   -0.20162E-04  2752   0.107E-01    0.148E-02
DAV:  13    -0.128033914713E+02   -0.11936E-04   -0.18899E-05  3456   0.176E-02    0.459E-03
DAV:  14    -0.128033929045E+02   -0.14332E-05   -0.20409E-06  2656   0.777E-03
   1 F= -.12803393E+02 E0= -.12800487E+02  d E =-.128034E+02
       N       E                     dE             d eps       ncg     rms          rms(c)
DAV:   1    -0.128097902573E+02   -0.63988E-02   -0.27639E-01  2656   0.231E+00    0.437E-01
DAV:   2    -0.128077426369E+02    0.20476E-02   -0.92762E-03  3552   0.526E-01    0.256E-01
DAV:   3    -0.128066360129E+02    0.11066E-02   -0.19911E-03  3072   0.261E-01    0.652E-02
DAV:   4    -0.128066092793E+02    0.26734E-04   -0.68677E-04  3360   0.876E-02    0.355E-02
DAV:   5    -0.128065805456E+02    0.28734E-04   -0.35236E-04  3616   0.363E-02    0.134E-02
DAV:   6    -0.128065794443E+02    0.11013E-05   -0.12083E-05  1632   0.179E-02
   2 F= -.12806579E+02 E0= -.12803849E+02  d E =-.318654E-02
       N       E                     dE             d eps       ncg     rms          rms(c)
DAV:   1    -0.128175988866E+02   -0.11018E-01   -0.78073E-01  2560   0.389E+00    0.735E-01
DAV:   2    -0.128117712650E+02    0.58276E-02   -0.26571E-02  3680   0.885E-01    0.431E-01
DAV:   3    -0.128085957744E+02    0.31755E-02   -0.56206E-03  2816   0.439E-01    0.110E-01
DAV:   4    -0.128085079222E+02    0.87852E-04   -0.16712E-03  3392   0.150E-01    0.546E-02
DAV:   5    -0.128084430028E+02    0.64919E-04   -0.86901E-04  3584   0.576E-02    0.222E-02
DAV:   6    -0.128084395511E+02    0.34516E-05   -0.38811E-05  2592   0.292E-02
   3 F= -.12808440E+02 E0= -.12805855E+02  d E =-.504665E-02
