 vasp.6.3.2 27Jun22 (build Mar 25 2024 10:42:18) complex                         
 executed on             LinuxGNU date 2024.03.26  12:06:47
 running on   32 total cores
 distrk:  each k-point on   32 cores,    1 groups
 distr:  one band on NCORE=   1 cores,   32 groups


--------------------------------------------------------------------------------------------------------


 INCAR:
   ISTART = 0
   ICHARG = 2
   PREC = Accurate
   IBRION = -1
   EDIFF = 0.000000001
   EDIFFG = -0.0005
   NSW = 0
   NELM = 100
   ENCUT = 520
   ISMEAR = -5
   SIGMA = 0.05
   ISPIN = 2
   ISYM = 0
   LWAVE = False
   LCHARG = False
   LASPH = True
   LORBIT = 11
   ADDGRID = TRUE

 POTCAR:    PAW_PBE Na_pv 19Sep2006               
 POTCAR:    PAW_PBE S 06Sep2000                   
 -----------------------------------------------------------------------------
|                                                                             |
|           W    W    AA    RRRRR   N    N  II  N    N   GGGG   !!!           |
|           W    W   A  A   R    R  NN   N  II  NN   N  G    G  !!!           |
|           W    W  A    A  R    R  N N  N  II  N N  N  G       !!!           |
|           W WW W  AAAAAA  RRRRR   N  N N  II  N  N N  G  GGG   !            |
|           WW  WW  A    A  R   R   N   NN  II  N   NN  G    G                |
|           W    W  A    A  R    R  N    N  II  N    N   GGGG   !!!           |
|                                                                             |
|     You use a magnetic or noncollinear calculation, but did not specify     |
|     the initial magnetic moment with the MAGMOM tag. Note that a            |
|     default of 1 will be used for all atoms. This ferromagnetic setup       |
|     may break the symmetry of the crystal, in particular it may rule        |
|     out finding an antiferromagnetic solution. Thence, we recommend         |
|     setting the initial magnetic moment manually or verifying carefully     |
|     that this magnetic setup is desired.                                    |
|                                                                             |
 -----------------------------------------------------------------------------

 -----------------------------------------------------------------------------
|                                                                             |
|           W    W    AA    RRRRR   N    N  II  N    N   GGGG   !!!           |
|           W    W   A  A   R    R  NN   N  II  NN   N  G    G  !!!           |
|           W    W  A    A  R    R  N N  N  II  N N  N  G       !!!           |
|           W WW W  AAAAAA  RRRRR   N  N N  II  N  N N  G  GGG   !            |
|           WW  WW  A    A  R   R   N   NN  II  N   NN  G    G                |
|           W    W  A    A  R    R  N    N  II  N    N   GGGG   !!!           |
|                                                                             |
|     For optimal performance we recommend to set                             |
|       NCORE = 2 up to number-of-cores-per-socket                            |
|     NCORE specifies how many cores store one orbital (NPAR=cpu/NCORE).      |
|     This setting can greatly improve the performance of VASP for DFT.       |
|     The default, NCORE=1 might be grossly inefficient on modern             |
|     multi-core architectures or massively parallel machines. Do your        |
|     own testing! More info at https://www.vasp.at/wiki/index.php/NCORE      |
|     Unfortunately you need to use the default for GW and RPA                |
|     calculations (for HF NCORE is supported but not extensively tested      |
|     yet).                                                                   |
|                                                                             |
 -----------------------------------------------------------------------------

 POTCAR:    PAW_PBE Na_pv 19Sep2006               
   SHA256 =  6a2f546d9e11350984debacf3dc457d8cffc0868e817d445faca461816a32b94 Na_pv/POTCAR          
   COPYR  = (c) Copyright 19Sep2006 Georg Kresse                                                    
   COPYR  = This file is part of the software VASP. Any use, copying, and all other rights are regul
   COPYR  = If you do not have a valid VASP license, you may not use, copy or distribute this file. 
   VRHFIN =Na: p6s1                                                                                 
   LEXCH  = PE                                                                                      
   EATOM  =   766.0439 eV,   56.3026 Ry                                                             
                                                                                                    
   TITEL  = PAW_PBE Na_pv 19Sep2006                                                                 
   LULTRA =        F    use ultrasoft PP ?                                                          
   IUNSCR =        1    unscreen: 0-lin 1-nonlin 2-no                                               
   RPACOR =    1.800    partial core radius                                                         
   POMASS =   22.990; ZVAL   =    7.000    mass and valenz                                          
   RCORE  =    2.200    outmost cutoff radius                                                       
   RWIGS  =    2.200; RWIGS  =    1.164    wigner-seitz radius (au A)                               
   ENMAX  =  259.561; ENMIN  =  194.671 eV                                                          
   ICORE  =        2    local potential                                                             
   LCOR   =        T    correct aug charges                                                         
   LPAW   =        T    paw PP                                                                      
   EAUG   =  368.056                                                                                
   DEXC   =    0.000                                                                                
   RMAX   =    2.245    core radius for proj-oper                                                   
   RAUG   =    1.300    factor for augmentation sphere                                              
   RDEP   =    2.259    radius for radial grids                                                     
   RDEPT  =    1.738    core radius for aug-charge                                                  
                                                                                                    
   Atomic configuration                                                                             
    5 entries                                                                                       
     n  l   j            E        occ.                                                              
     1  0  0.50     -1033.6933   2.0000                                                             
     2  0  0.50       -56.7526   2.0000                                                             
     2  1  1.50       -28.6721   6.0000                                                             
     3  0  0.50        -2.7440   1.0000                                                             
     3  2  1.50        -1.3606   0.0000                                                             
   Description                                                                                      
     l       E           TYP  RCUT    TYP  RCUT                                                     
     1    -28.6720912     23  2.000                                                                 
     1      6.8029130     23  2.000                                                                 
     0     -2.7439560     23  2.200                                                                 
     0     34.0145650     23  2.200                                                                 
     2     -1.3605826     23  2.200                                                                 
  local pseudopotential read in
  partial core-charges read in
  partial kinetic energy density read in
  atomic valenz-charges read in
  non local Contribution for L=           1  read in
    real space projection operators read in
  non local Contribution for L=           1  read in
    real space projection operators read in
  non local Contribution for L=           0  read in
    real space projection operators read in
  non local Contribution for L=           0  read in
    real space projection operators read in
    PAW grid and wavefunctions read in

   number of l-projection  operators is LMAX  =           4
   number of lm-projection operators is LMMAX =           8

 POTCAR:    PAW_PBE S 06Sep2000                   
   SHA256 =  0fc7481fb0695f01bdc6462160264c5c84044ae9ec85a907d398b887a2bc3132 S/POTCAR              
   COPYR  = (c) Copyright 06Sep2000 Georg Kresse                                                    
   COPYR  = This file is part of the software VASP. Any use, copying, and all other rights are regul
   COPYR  = If you do not have a valid VASP license, you may not use, copy or distribute this file. 
   VRHFIN =S : s2p4                                                                                 
   LEXCH  = PE                                                                                      
   EATOM  =   276.8230 eV,   20.3459 Ry                                                             
                                                                                                    
   TITEL  = PAW_PBE S 06Sep2000                                                                     
   LULTRA =        F    use ultrasoft PP ?                                                          
   IUNSCR =        1    unscreen: 0-lin 1-nonlin 2-no                                               
   RPACOR =    1.500    partial core radius                                                         
   POMASS =   32.066; ZVAL   =    6.000    mass and valenz                                          
   RCORE  =    1.900    outmost cutoff radius                                                       
   RWIGS  =    2.200; RWIGS  =    1.164    wigner-seitz radius (au A)                               
   ENMAX  =  258.689; ENMIN  =  194.016 eV                                                          
   ICORE  =        2    local potential                                                             
   LCOR   =        T    correct aug charges                                                         
   LPAW   =        T    paw PP                                                                      
   EAUG   =  335.092                                                                                
   DEXC   =    0.000                                                                                
   RMAX   =    1.942    core radius for proj-oper                                                   
   RAUG   =    1.300    factor for augmentation sphere                                              
   RDEP   =    1.954    radius for radial grids                                                     
   RDEPT  =    1.744    core radius for aug-charge                                                  
                                                                                                    
   Atomic configuration                                                                             
    6 entries                                                                                       
     n  l   j            E        occ.                                                              
     1  0  0.50     -2405.8406   2.0000                                                             
     2  0  0.50      -211.7007   2.0000                                                             
     2  1  1.50      -156.4958   6.0000                                                             
     3  0  0.50       -17.2562   2.0000                                                             
     3  1  0.50        -7.0085   4.0000                                                             
     3  2  1.50        -6.8029   0.0000                                                             
   Description                                                                                      
     l       E           TYP  RCUT    TYP  RCUT                                                     
     0    -17.2561641     23  1.900                                                                 
     0    -15.8743224     23  1.900                                                                 
     1     -7.0085400     23  1.900                                                                 
     1     -2.7779785     23  1.900                                                                 
     2     -6.8029130     23  1.900                                                                 
  local pseudopotential read in
  partial core-charges read in
  partial kinetic energy density read in
  atomic valenz-charges read in
  non local Contribution for L=           0  read in
    real space projection operators read in
  non local Contribution for L=           0  read in
    real space projection operators read in
  non local Contribution for L=           1  read in
    real space projection operators read in
  non local Contribution for L=           1  read in
    real space projection operators read in
    PAW grid and wavefunctions read in

   number of l-projection  operators is LMAX  =           4
   number of lm-projection operators is LMMAX =           8

 -----------------------------------------------------------------------------
|                                                                             |
|               ----> ADVICE to this user running VASP <----                  |
|                                                                             |
|     You have a (more or less) 'large supercell' and for larger cells it     |
|     might be more efficient to use real-space projection operators.         |
|     Therefore, try LREAL= Auto in the INCAR file.                           |
|     Mind: For very accurate calculation, you might also keep the            |
|     reciprocal projection scheme (i.e. LREAL=.FALSE.).                      |
|                                                                             |
 -----------------------------------------------------------------------------

  PAW_PBE Na_pv 19Sep2006               :
 energy of atom  1       EATOM= -766.0439
 kinetic energy error for atom=    0.0019 (will be added to EATOM!!)
  PAW_PBE S 06Sep2000                   :
 energy of atom  2       EATOM= -276.8230
 kinetic energy error for atom=    0.0016 (will be added to EATOM!!)


 POSCAR: generated by phonopy
  positions in direct lattice
  No initial velocities read in
 exchange correlation table for  LEXCH =        8
   RHO(1)=    0.500       N(1)  =     2000
   RHO(2)=  100.500       N(2)  =     4000



--------------------------------------------------------------------------------------------------------


 ion  position               nearest neighbor table
   1  0.125  0.125  0.125-
   2  0.625  0.125  0.125-
   3  0.125  0.625  0.125-
   4  0.625  0.625  0.125-
   5  0.125  0.125  0.625-
   6  0.625  0.125  0.625-
   7  0.125  0.625  0.625-
   8  0.625  0.625  0.625-
   9  0.125  0.375  0.125-
  10  0.625  0.375  0.125-
  11  0.125  0.875  0.125-
  12  0.625  0.875  0.125-
  13  0.125  0.375  0.625-
  14  0.625  0.375  0.625-
  15  0.125  0.875  0.625-
  16  0.625  0.875  0.625-
  17  0.125  0.375  0.375-
  18  0.625  0.375  0.375-
  19  0.125  0.875  0.375-
  20  0.625  0.875  0.375-
  21  0.125  0.375  0.875-
  22  0.625  0.375  0.875-
  23  0.125  0.875  0.875-
  24  0.625  0.875  0.875-
  25  0.125  0.125  0.375-
  26  0.625  0.125  0.375-
  27  0.125  0.625  0.375-
  28  0.625  0.625  0.375-
  29  0.125  0.125  0.875-
  30  0.625  0.125  0.875-
  31  0.125  0.625  0.875-
  32  0.625  0.625  0.875-
  33  0.375  0.125  0.375-
  34  0.875  0.125  0.375-
  35  0.375  0.625  0.375-
  36  0.875  0.625  0.375-
  37  0.375  0.125  0.875-
  38  0.875  0.125  0.875-
  39  0.375  0.625  0.875-
  40  0.875  0.625  0.875-
  41  0.375  0.375  0.375-
  42  0.875  0.375  0.375-
  43  0.375  0.875  0.375-
  44  0.875  0.875  0.375-
  45  0.375  0.375  0.875-
  46  0.875  0.375  0.875-
  47  0.375  0.875  0.875-
  48  0.875  0.875  0.875-
  49  0.375  0.375  0.125-
  50  0.875  0.375  0.125-
  51  0.375  0.875  0.125-
  52  0.875  0.875  0.125-
  53  0.375  0.375  0.625-
  54  0.875  0.375  0.625-
  55  0.375  0.875  0.625-
  56  0.875  0.875  0.625-
  57  0.375  0.125  0.125-
  58  0.875  0.125  0.125-
  59  0.375  0.625  0.125-
  60  0.875  0.625  0.125-
  61  0.375  0.125  0.625-
  62  0.875  0.125  0.625-
  63  0.375  0.625  0.625-
  64  0.875  0.625  0.625-
  65  0.001  0.000  0.000-
  66  0.500  0.000  0.000-
  67  0.000  0.500  0.000-
  68  0.500  0.500  0.000-
  69  0.000  0.000  0.500-
  70  0.500  0.000  0.500-
  71  0.000  0.500  0.500-
  72  0.500  0.500  0.500-
  73  0.000  0.250  0.250-
  74  0.500  0.250  0.250-
  75  0.000  0.750  0.250-
  76  0.500  0.750  0.250-
  77  0.000  0.250  0.750-
  78  0.500  0.250  0.750-
  79  0.000  0.750  0.750-
  80  0.500  0.750  0.750-
  81  0.250  0.000  0.250-
  82  0.750  0.000  0.250-
  83  0.250  0.500  0.250-
  84  0.750  0.500  0.250-
  85  0.250  0.000  0.750-
  86  0.750  0.000  0.750-
  87  0.250  0.500  0.750-
  88  0.750  0.500  0.750-
  89  0.250  0.250  0.000-
  90  0.750  0.250  0.000-
  91  0.250  0.750  0.000-
  92  0.750  0.750  0.000-
  93  0.250  0.250  0.500-
  94  0.750  0.250  0.500-
  95  0.250  0.750  0.500-
  96  0.750  0.750  0.500-


IMPORTANT INFORMATION: All symmetrisations will be switched off!
NOSYMM: (Re-)initialisation of all symmetry stuff for point group C_1.


----------------------------------------------------------------------------------------

                                     Primitive cell                                     

  volume of cell :    2267.8288

  direct lattice vectors                    reciprocal lattice vectors
    13.138226862  0.000000000  0.000000000     0.076113772 -0.000000000  0.000000000
     0.000000000 13.138226862  0.000000000     0.000000000  0.076113772  0.000000000
     0.000000000  0.000000000 13.138226862    -0.000000000 -0.000000000  0.076113772

  length of vectors
    13.138226862 13.138226862 13.138226862     0.076113772  0.076113772  0.076113772

  position of ions in fractional coordinates (direct lattice)
     0.125000000  0.125000000  0.125000000
     0.625000000  0.125000000  0.125000000
     0.125000000  0.625000000  0.125000000
     0.625000000  0.625000000  0.125000000
     0.125000000  0.125000000  0.625000000
     0.625000000  0.125000000  0.625000000
     0.125000000  0.625000000  0.625000000
     0.625000000  0.625000000  0.625000000
     0.125000000  0.375000000  0.125000000
     0.625000000  0.375000000  0.125000000
     0.125000000  0.875000000  0.125000000
     0.625000000  0.875000000  0.125000000
     0.125000000  0.375000000  0.625000000
     0.625000000  0.375000000  0.625000000
     0.125000000  0.875000000  0.625000000
     0.625000000  0.875000000  0.625000000
     0.125000000  0.375000000  0.375000000
     0.625000000  0.375000000  0.375000000
     0.125000000  0.875000000  0.375000000
     0.625000000  0.875000000  0.375000000
     0.125000000  0.375000000  0.875000000
     0.625000000  0.375000000  0.875000000
     0.125000000  0.875000000  0.875000000
     0.625000000  0.875000000  0.875000000
     0.125000000  0.125000000  0.375000000
     0.625000000  0.125000000  0.375000000
     0.125000000  0.625000000  0.375000000
     0.625000000  0.625000000  0.375000000
     0.125000000  0.125000000  0.875000000
     0.625000000  0.125000000  0.875000000
     0.125000000  0.625000000  0.875000000
     0.625000000  0.625000000  0.875000000
     0.375000000  0.125000000  0.375000000
     0.875000000  0.125000000  0.375000000
     0.375000000  0.625000000  0.375000000
     0.875000000  0.625000000  0.375000000
     0.375000000  0.125000000  0.875000000
     0.875000000  0.125000000  0.875000000
     0.375000000  0.625000000  0.875000000
     0.875000000  0.625000000  0.875000000
     0.375000000  0.375000000  0.375000000
     0.875000000  0.375000000  0.375000000
     0.375000000  0.875000000  0.375000000
     0.875000000  0.875000000  0.375000000
     0.375000000  0.375000000  0.875000000
     0.875000000  0.375000000  0.875000000
     0.375000000  0.875000000  0.875000000
     0.875000000  0.875000000  0.875000000
     0.375000000  0.375000000  0.125000000
     0.875000000  0.375000000  0.125000000
     0.375000000  0.875000000  0.125000000
     0.875000000  0.875000000  0.125000000
     0.375000000  0.375000000  0.625000000
     0.875000000  0.375000000  0.625000000
     0.375000000  0.875000000  0.625000000
     0.875000000  0.875000000  0.625000000
     0.375000000  0.125000000  0.125000000
     0.875000000  0.125000000  0.125000000
     0.375000000  0.625000000  0.125000000
     0.875000000  0.625000000  0.125000000
     0.375000000  0.125000000  0.625000000
     0.875000000  0.125000000  0.625000000
     0.375000000  0.625000000  0.625000000
     0.875000000  0.625000000  0.625000000
     0.000761138  0.000000000  1.000000000
     0.500000000  0.000000000  1.000000000
     0.000000000  0.500000000  1.000000000
     0.500000000  0.500000000  1.000000000
     0.000000000  0.000000000  0.500000000
     0.500000000  0.000000000  0.500000000
     0.000000000  0.500000000  0.500000000
     0.500000000  0.500000000  0.500000000
     0.000000000  0.250000000  0.250000000
     0.500000000  0.250000000  0.250000000
     0.000000000  0.750000000  0.250000000
     0.500000000  0.750000000  0.250000000
     0.000000000  0.250000000  0.750000000
     0.500000000  0.250000000  0.750000000
     0.000000000  0.750000000  0.750000000
     0.500000000  0.750000000  0.750000000
     0.250000000  0.000000000  0.250000000
     0.750000000  0.000000000  0.250000000
     0.250000000  0.500000000  0.250000000
     0.750000000  0.500000000  0.250000000
     0.250000000  0.000000000  0.750000000
     0.750000000  0.000000000  0.750000000
     0.250000000  0.500000000  0.750000000
     0.750000000  0.500000000  0.750000000
     0.250000000  0.250000000  1.000000000
     0.750000000  0.250000000  1.000000000
     0.250000000  0.750000000  1.000000000
     0.750000000  0.750000000  1.000000000
     0.250000000  0.250000000  0.500000000
     0.750000000  0.250000000  0.500000000
     0.250000000  0.750000000  0.500000000
     0.750000000  0.750000000  0.500000000

  ion indices of the primitive-cell ions
   primitive index   ion index
                 1           1
                 2           2
                 3           3
                 4           4
                 5           5
                 6           6
                 7           7
                 8           8
                 9           9
                10          10
                11          11
                12          12
                13          13
                14          14
                15          15
                16          16
                17          17
                18          18
                19          19
                20          20
                21          21
                22          22
                23          23
                24          24
                25          25
                26          26
                27          27
                28          28
                29          29
                30          30
                31          31
                32          32
                33          33
                34          34
                35          35
                36          36
                37          37
                38          38
                39          39
                40          40
                41          41
                42          42
                43          43
                44          44
                45          45
                46          46
                47          47
                48          48
                49          49
                50          50
                51          51
                52          52
                53          53
                54          54
                55          55
                56          56
                57          57
                58          58
                59          59
                60          60
                61          61
                62          62
                63          63
                64          64
                65          65
                66          66
                67          67
                68          68
                69          69
                70          70
                71          71
                72          72
                73          73
                74          74
                75          75
                76          76
                77          77
                78          78
                79          79
                80          80
                81          81
                82          82
                83          83
                84          84
                85          85
                86          86
                87          87
                88          88
                89          89
                90          90
                91          91
                92          92
                93          93
                94          94
                95          95
                96          96

----------------------------------------------------------------------------------------



 KPOINTS: pymatgen with grid density = 694 / numbe

Automatic generation of k-mesh.
 Grid dimensions read from file:
 generate k-points for:    3    3    3

 Generating k-lattice:

  Cartesian coordinates                     Fractional coordinates (reciprocal lattice)
     0.025371257 -0.000000000  0.000000000     0.333333333  0.000000000  0.000000000
     0.000000000  0.025371257  0.000000000     0.000000000  0.333333333  0.000000000
    -0.000000000 -0.000000000  0.025371257    -0.000000000 -0.000000000  0.333333333

  Length of vectors
     0.025371257  0.025371257  0.025371257

  Shift w.r.t. Gamma in fractional coordinates (k-lattice)
     0.000000000  0.000000000  0.000000000

 TETIRR: Found     78 inequivalent tetrahedra from      162
 
 Subroutine IBZKPT returns following result:
 ===========================================
 
 Found     14 irreducible k-points:
 
 Following reciprocal coordinates:
            Coordinates               Weight
  0.000000  0.000000  0.000000      1.000000
  0.333333  0.000000  0.000000      2.000000
  0.000000  0.333333  0.000000      2.000000
  0.000000  0.000000  0.333333      2.000000
  0.333333  0.333333  0.000000      2.000000
  0.000000  0.333333  0.333333      2.000000
  0.333333  0.000000  0.333333      2.000000
 -0.333333  0.333333  0.000000      2.000000
 -0.333333  0.000000  0.333333      2.000000
  0.000000 -0.333333  0.333333      2.000000
  0.333333  0.333333  0.333333      2.000000
 -0.333333  0.333333  0.333333      2.000000
 -0.333333 -0.333333  0.333333      2.000000
  0.333333 -0.333333  0.333333      2.000000
 
 Following cartesian coordinates:
            Coordinates               Weight
  0.000000  0.000000  0.000000      1.000000
  0.025371  0.000000  0.000000      2.000000
  0.000000  0.025371  0.000000      2.000000
  0.000000  0.000000  0.025371      2.000000
  0.025371  0.025371  0.000000      2.000000
  0.000000  0.025371  0.025371      2.000000
  0.025371  0.000000  0.025371      2.000000
 -0.025371  0.025371  0.000000      2.000000
 -0.025371  0.000000  0.025371      2.000000
  0.000000 -0.025371  0.025371      2.000000
  0.025371  0.025371  0.025371      2.000000
 -0.025371  0.025371  0.025371      2.000000
 -0.025371 -0.025371  0.025371      2.000000
  0.025371 -0.025371  0.025371      2.000000
 


--------------------------------------------------------------------------------------------------------




 Dimension of arrays:
   k-points           NKPTS =     14   k-points in BZ     NKDIM =     14   number of bands    NBANDS=    448
   number of dos      NEDOS =    301   number of ions     NIONS =     96
   non local maximal  LDIM  =      4   non local SUM 2l+1 LMDIM =      8
   total plane-waves  NPLWV = 941192
   max r-space proj   IRMAX =      1   max aug-charges    IRDMAX= 104788
   dimension x,y,z NGX =    98 NGY =   98 NGZ =   98
   dimension x,y,z NGXF=   196 NGYF=  196 NGZF=  196
   support grid    NGXF=   392 NGYF=  392 NGZF=  392
   ions per type =              64  32
   NGX,Y,Z   is equivalent  to a cutoff of  12.40, 12.40, 12.40 a.u.
   NGXF,Y,Z  is equivalent  to a cutoff of  24.80, 24.80, 24.80 a.u.

 SYSTEM =  unknown system                          
 POSCAR =  generated by phonopy                    

 Startparameter for this run:
   NWRITE =      2    write-flag & timer
   PREC   = accura    normal or accurate (medium, high low for compatibility)
   ISTART =      0    job   : 0-new  1-cont  2-samecut
   ICHARG =      2    charge: 1-file 2-atom 10-const
   ISPIN  =      2    spin polarized calculation?
   LNONCOLLINEAR =      F non collinear calculations
   LSORBIT =      F    spin-orbit coupling
   INIWAV =      1    electr: 0-lowe 1-rand  2-diag
   LASPH  =      T    aspherical Exc in radial PAW
 Electronic Relaxation 1
   ENCUT  =  520.0 eV  38.22 Ry    6.18 a.u.  24.43 24.43 24.43*2*pi/ulx,y,z
   ENINI  =  520.0     initial cutoff
   ENAUG  =  368.1 eV  augmentation charge cutoff
   NELM   =    100;   NELMIN=  2; NELMDL= -5     # of ELM steps 
   EDIFF  = 0.1E-08   stopping-criterion for ELM
   LREAL  =      F    real-space projection
   NLSPLINE    = F    spline interpolate recip. space projectors
   LCOMPAT=      F    compatible to vasp.4.4
   GGA_COMPAT  = T    GGA compatible to vasp.4.4-vasp.4.6
   LMAXPAW     = -100 max onsite density
   LMAXMIX     =    2 max onsite mixed and CHGCAR
   VOSKOWN=      0    Vosko Wilk Nusair interpolation
   ROPT   =    0.00000   0.00000
 Ionic relaxation
   EDIFFG = -.5E-03   stopping-criterion for IOM
   NSW    =      0    number of steps for IOM
   NBLOCK =      1;   KBLOCK =      1    inner block; outer block 
   IBRION =     -1    ionic relax: 0-MD 1-quasi-New 2-CG
   NFREE  =      0    steps in history (QN), initial steepest desc. (CG)
   ISIF   =      2    stress and relaxation
   IWAVPR =     10    prediction:  0-non 1-charg 2-wave 3-comb
   ISYM   =      0    0-nonsym 1-usesym 2-fastsym
   LCORR  =      T    Harris-Foulkes like correction to forces

   POTIM  = 0.5000    time-step for ionic-motion
   TEIN   =    0.0    initial temperature
   TEBEG  =    0.0;   TEEND  =   0.0 temperature during run
   SMASS  =  -3.00    Nose mass-parameter (am)
   estimated Nose-frequenzy (Omega)   =  0.10E-29 period in steps = 0.13E+47 mass=  -0.394E-26a.u.
   SCALEE = 1.0000    scale energy and forces
   NPACO  =    256;   APACO  = 10.0  distance and # of slots for P.C.
   PSTRESS=    0.0 pullay stress

  Mass of Ions in am
   POMASS =  22.99 32.07
  Ionic Valenz
   ZVAL   =   7.00  6.00
  Atomic Wigner-Seitz radii
   RWIGS  =  -1.00 -1.00
  virtual crystal weights 
   VCA    =   1.00  1.00
   NELECT =     640.0000    total number of electrons
   NUPDOWN=      -1.0000    fix difference up-down

 DOS related values:
   EMIN   =  10.00;   EMAX   =-10.00  energy-range for DOS
   EFERMI =   0.00
   ISMEAR =    -5;   SIGMA  =   0.05  broadening in eV -4-tet -1-fermi 0-gaus

 Electronic relaxation 2 (details)
   IALGO  =     38    algorithm
   LDIAG  =      T    sub-space diagonalisation (order eigenvalues)
   LSUBROT=      F    optimize rotation matrix (better conditioning)
   TURBO    =      0    0=normal 1=particle mesh
   IRESTART =      0    0=no restart 2=restart with 2 vectors
   NREBOOT  =      0    no. of reboots
   NMIN     =      0    reboot dimension
   EREF     =   0.00    reference energy to select bands
   IMIX   =      4    mixing-type and parameters
     AMIX     =   0.40;   BMIX     =  1.00
     AMIX_MAG =   1.60;   BMIX_MAG =  1.00
     AMIN     =   0.10
     WC   =   100.;   INIMIX=   1;  MIXPRE=   1;  MAXMIX= -45

 Intra band minimization:
   WEIMIN = 0.0000     energy-eigenvalue tresh-hold
   EBREAK =  0.56E-12  absolut break condition
   DEPER  =   0.30     relativ break condition  

   TIME   =   0.40     timestep for ELM

  volume/ion in A,a.u.               =      23.62       159.42
  Fermi-wavevector in a.u.,A,eV,Ry     =   1.073820  2.029225 15.688727  1.153089
  Thomas-Fermi vector in A             =   2.209630

 Write flags
   LWAVE        =      F    write WAVECAR
   LDOWNSAMPLE  =      F    k-point downsampling of WAVECAR
   LCHARG       =      F    write CHGCAR
   LVTOT        =      F    write LOCPOT, total local potential
   LVHAR        =      F    write LOCPOT, Hartree potential only
   LELF         =      F    write electronic localiz. function (ELF)
   LORBIT       =     11    0 simple, 1 ext, 2 COOP (PROOUT), +10 PAW based schemes


 Dipole corrections
   LMONO  =      F    monopole corrections only (constant potential shift)
   LDIPOL =      F    correct potential (dipole corrections)
   IDIPOL =      0    1-x, 2-y, 3-z, 4-all directions 
   EPSILON=  1.0000000 bulk dielectric constant

 Exchange correlation treatment:
   GGA     =    --    GGA type
   LEXCH   =     8    internal setting for exchange type
   LIBXC   =     F    Libxc                    
   VOSKOWN =     0    Vosko Wilk Nusair interpolation
   LHFCALC =     F    Hartree Fock is set to
   LHFONE  =     F    Hartree Fock one center treatment
   AEXX    =    0.0000 exact exchange contribution

 Linear response parameters
   LEPSILON=     F    determine dielectric tensor
   LRPA    =     F    only Hartree local field effects (RPA)
   LNABLA  =     F    use nabla operator in PAW spheres
   LVEL    =     F    velocity operator in full k-point grid
   CSHIFT  =0.1000    complex shift for real part using Kramers Kronig
   OMEGAMAX=  -1.0    maximum frequency
   DEG_THRESHOLD= 0.2000000E-02 threshold for treating states as degnerate
   RTIME   =   -0.100 relaxation time in fs
  (WPLASMAI=    0.000 imaginary part of plasma frequency in eV, 0.658/RTIME)
   DFIELD  = 0.0000000 0.0000000 0.0000000 field for delta impulse in time

  Optional k-point grid parameters
   LKPOINTS_OPT  =     F    use optional k-point grid
   KPOINTS_OPT_MODE=     1    mode for optional k-point grid

 Orbital magnetization related:
   ORBITALMAG=     F  switch on orbital magnetization
   LCHIMAG   =     F  perturbation theory with respect to B field
   DQ        =  0.001000  dq finite difference perturbation B field
   LLRAUG    =     F  two centre corrections for induced B field



--------------------------------------------------------------------------------------------------------


 Static calculation
 charge density and potential will be updated during run
 spin polarized calculation
 Variant of blocked Davidson
 Davidson routine will perform the subspace rotation
 perform sub-space diagonalisation
    after iterative eigenvector-optimisation
 modified Broyden-mixing scheme, WC =      100.0
 initial mixing is a Kerker type mixing with AMIX =  0.4000 and BMIX =      1.0000
 Hartree-type preconditioning will be used
 using additional bands          128
 reciprocal scheme for non local part
 use partial core corrections
 calculate Harris-corrections to forces   (improved forces if not selfconsistent)
 use gradient corrections 
 use of overlap-Matrix (Vanderbilt PP)
 Fermi weights with tetrahedron method with Bloechl corrections


--------------------------------------------------------------------------------------------------------


  energy-cutoff  :      520.00
  volume of cell :     2267.83
      direct lattice vectors                 reciprocal lattice vectors
    13.138226862  0.000000000  0.000000000     0.076113772 -0.000000000  0.000000000
     0.000000000 13.138226862  0.000000000     0.000000000  0.076113772  0.000000000
     0.000000000  0.000000000 13.138226862    -0.000000000 -0.000000000  0.076113772

  length of vectors
    13.138226862 13.138226862 13.138226862     0.076113772  0.076113772  0.076113772



 k-points in units of 2pi/SCALE and weight: pymatgen with grid density = 694 / numbe
   0.00000000  0.00000000  0.00000000       0.037
   0.02537126  0.00000000  0.00000000       0.074
   0.00000000  0.02537126  0.00000000       0.074
   0.00000000  0.00000000  0.02537126       0.074
   0.02537126  0.02537126  0.00000000       0.074
   0.00000000  0.02537126  0.02537126       0.074
   0.02537126  0.00000000  0.02537126       0.074
  -0.02537126  0.02537126  0.00000000       0.074
  -0.02537126  0.00000000  0.02537126       0.074
   0.00000000 -0.02537126  0.02537126       0.074
   0.02537126  0.02537126  0.02537126       0.074
  -0.02537126  0.02537126  0.02537126       0.074
  -0.02537126 -0.02537126  0.02537126       0.074
   0.02537126 -0.02537126  0.02537126       0.074

 k-points in reciprocal lattice and weights: pymatgen with grid density = 694 / numbe
   0.00000000  0.00000000  0.00000000       0.037
   0.33333333  0.00000000  0.00000000       0.074
   0.00000000  0.33333333  0.00000000       0.074
   0.00000000  0.00000000  0.33333333       0.074
   0.33333333  0.33333333  0.00000000       0.074
   0.00000000  0.33333333  0.33333333       0.074
   0.33333333  0.00000000  0.33333333       0.074
  -0.33333333  0.33333333  0.00000000       0.074
  -0.33333333  0.00000000  0.33333333       0.074
   0.00000000 -0.33333333  0.33333333       0.074
   0.33333333  0.33333333  0.33333333       0.074
  -0.33333333  0.33333333  0.33333333       0.074
  -0.33333333 -0.33333333  0.33333333       0.074
   0.33333333 -0.33333333  0.33333333       0.074

 position of ions in fractional coordinates (direct lattice) 
   0.12500000  0.12500000  0.12500000
   0.62500000  0.12500000  0.12500000
   0.12500000  0.62500000  0.12500000
   0.62500000  0.62500000  0.12500000
   0.12500000  0.12500000  0.62500000
   0.62500000  0.12500000  0.62500000
   0.12500000  0.62500000  0.62500000
   0.62500000  0.62500000  0.62500000
   0.12500000  0.37500000  0.12500000
   0.62500000  0.37500000  0.12500000
   0.12500000  0.87500000  0.12500000
   0.62500000  0.87500000  0.12500000
   0.12500000  0.37500000  0.62500000
   0.62500000  0.37500000  0.62500000
   0.12500000  0.87500000  0.62500000
   0.62500000  0.87500000  0.62500000
   0.12500000  0.37500000  0.37500000
   0.62500000  0.37500000  0.37500000
   0.12500000  0.87500000  0.37500000
   0.62500000  0.87500000  0.37500000
   0.12500000  0.37500000  0.87500000
   0.62500000  0.37500000  0.87500000
   0.12500000  0.87500000  0.87500000
   0.62500000  0.87500000  0.87500000
   0.12500000  0.12500000  0.37500000
   0.62500000  0.12500000  0.37500000
   0.12500000  0.62500000  0.37500000
   0.62500000  0.62500000  0.37500000
   0.12500000  0.12500000  0.87500000
   0.62500000  0.12500000  0.87500000
   0.12500000  0.62500000  0.87500000
   0.62500000  0.62500000  0.87500000
   0.37500000  0.12500000  0.37500000
   0.87500000  0.12500000  0.37500000
   0.37500000  0.62500000  0.37500000
   0.87500000  0.62500000  0.37500000
   0.37500000  0.12500000  0.87500000
   0.87500000  0.12500000  0.87500000
   0.37500000  0.62500000  0.87500000
   0.87500000  0.62500000  0.87500000
   0.37500000  0.37500000  0.37500000
   0.87500000  0.37500000  0.37500000
   0.37500000  0.87500000  0.37500000
   0.87500000  0.87500000  0.37500000
   0.37500000  0.37500000  0.87500000
   0.87500000  0.37500000  0.87500000
   0.37500000  0.87500000  0.87500000
   0.87500000  0.87500000  0.87500000
   0.37500000  0.37500000  0.12500000
   0.87500000  0.37500000  0.12500000
   0.37500000  0.87500000  0.12500000
   0.87500000  0.87500000  0.12500000
   0.37500000  0.37500000  0.62500000
   0.87500000  0.37500000  0.62500000
   0.37500000  0.87500000  0.62500000
   0.87500000  0.87500000  0.62500000
   0.37500000  0.12500000  0.12500000
   0.87500000  0.12500000  0.12500000
   0.37500000  0.62500000  0.12500000
   0.87500000  0.62500000  0.12500000
   0.37500000  0.12500000  0.62500000
   0.87500000  0.12500000  0.62500000
   0.37500000  0.62500000  0.62500000
   0.87500000  0.62500000  0.62500000
   0.00076114  0.00000000  0.00000000
   0.50000000  0.00000000  0.00000000
   0.00000000  0.50000000  0.00000000
   0.50000000  0.50000000  0.00000000
   0.00000000  0.00000000  0.50000000
   0.50000000  0.00000000  0.50000000
   0.00000000  0.50000000  0.50000000
   0.50000000  0.50000000  0.50000000
   0.00000000  0.25000000  0.25000000
   0.50000000  0.25000000  0.25000000
   0.00000000  0.75000000  0.25000000
   0.50000000  0.75000000  0.25000000
   0.00000000  0.25000000  0.75000000
   0.50000000  0.25000000  0.75000000
   0.00000000  0.75000000  0.75000000
   0.50000000  0.75000000  0.75000000
   0.25000000  0.00000000  0.25000000
   0.75000000  0.00000000  0.25000000
   0.25000000  0.50000000  0.25000000
   0.75000000  0.50000000  0.25000000
   0.25000000  0.00000000  0.75000000
   0.75000000  0.00000000  0.75000000
   0.25000000  0.50000000  0.75000000
   0.75000000  0.50000000  0.75000000
   0.25000000  0.25000000  0.00000000
   0.75000000  0.25000000  0.00000000
   0.25000000  0.75000000  0.00000000
   0.75000000  0.75000000  0.00000000
   0.25000000  0.25000000  0.50000000
   0.75000000  0.25000000  0.50000000
   0.25000000  0.75000000  0.50000000
   0.75000000  0.75000000  0.50000000

 position of ions in cartesian coordinates  (Angst):
   1.64227836  1.64227836  1.64227836
   8.21139179  1.64227836  1.64227836
   1.64227836  8.21139179  1.64227836
   8.21139179  8.21139179  1.64227836
   1.64227836  1.64227836  8.21139179
   8.21139179  1.64227836  8.21139179
   1.64227836  8.21139179  8.21139179
   8.21139179  8.21139179  8.21139179
   1.64227836  4.92683507  1.64227836
   8.21139179  4.92683507  1.64227836
   1.64227836 11.49594850  1.64227836
   8.21139179 11.49594850  1.64227836
   1.64227836  4.92683507  8.21139179
   8.21139179  4.92683507  8.21139179
   1.64227836 11.49594850  8.21139179
   8.21139179 11.49594850  8.21139179
   1.64227836  4.92683507  4.92683507
   8.21139179  4.92683507  4.92683507
   1.64227836 11.49594850  4.92683507
   8.21139179 11.49594850  4.92683507
   1.64227836  4.92683507 11.49594850
   8.21139179  4.92683507 11.49594850
   1.64227836 11.49594850 11.49594850
   8.21139179 11.49594850 11.49594850
   1.64227836  1.64227836  4.92683507
   8.21139179  1.64227836  4.92683507
   1.64227836  8.21139179  4.92683507
   8.21139179  8.21139179  4.92683507
   1.64227836  1.64227836 11.49594850
   8.21139179  1.64227836 11.49594850
   1.64227836  8.21139179 11.49594850
   8.21139179  8.21139179 11.49594850
   4.92683507  1.64227836  4.92683507
  11.49594850  1.64227836  4.92683507
   4.92683507  8.21139179  4.92683507
  11.49594850  8.21139179  4.92683507
   4.92683507  1.64227836 11.49594850
  11.49594850  1.64227836 11.49594850
   4.92683507  8.21139179 11.49594850
  11.49594850  8.21139179 11.49594850
   4.92683507  4.92683507  4.92683507
  11.49594850  4.92683507  4.92683507
   4.92683507 11.49594850  4.92683507
  11.49594850 11.49594850  4.92683507
   4.92683507  4.92683507 11.49594850
  11.49594850  4.92683507 11.49594850
   4.92683507 11.49594850 11.49594850
  11.49594850 11.49594850 11.49594850
   4.92683507  4.92683507  1.64227836
  11.49594850  4.92683507  1.64227836
   4.92683507 11.49594850  1.64227836
  11.49594850 11.49594850  1.64227836
   4.92683507  4.92683507  8.21139179
  11.49594850  4.92683507  8.21139179
   4.92683507 11.49594850  8.21139179
  11.49594850 11.49594850  8.21139179
   4.92683507  1.64227836  1.64227836
  11.49594850  1.64227836  1.64227836
   4.92683507  8.21139179  1.64227836
  11.49594850  8.21139179  1.64227836
   4.92683507  1.64227836  8.21139179
  11.49594850  1.64227836  8.21139179
   4.92683507  8.21139179  8.21139179
  11.49594850  8.21139179  8.21139179
   0.01000000  0.00000000  0.00000000
   6.56911343  0.00000000  0.00000000
   0.00000000  6.56911343  0.00000000
   6.56911343  6.56911343  0.00000000
   0.00000000  0.00000000  6.56911343
   6.56911343  0.00000000  6.56911343
   0.00000000  6.56911343  6.56911343
   6.56911343  6.56911343  6.56911343
   0.00000000  3.28455672  3.28455672
   6.56911343  3.28455672  3.28455672
   0.00000000  9.85367015  3.28455672
   6.56911343  9.85367015  3.28455672
   0.00000000  3.28455672  9.85367015
   6.56911343  3.28455672  9.85367015
   0.00000000  9.85367015  9.85367015
   6.56911343  9.85367015  9.85367015
   3.28455672  0.00000000  3.28455672
   9.85367015  0.00000000  3.28455672
   3.28455672  6.56911343  3.28455672
   9.85367015  6.56911343  3.28455672
   3.28455672  0.00000000  9.85367015
   9.85367015  0.00000000  9.85367015
   3.28455672  6.56911343  9.85367015
   9.85367015  6.56911343  9.85367015
   3.28455672  3.28455672  0.00000000
   9.85367015  3.28455672  0.00000000
   3.28455672  9.85367015  0.00000000
   9.85367015  9.85367015  0.00000000
   3.28455672  3.28455672  6.56911343
   9.85367015  3.28455672  6.56911343
   3.28455672  9.85367015  6.56911343
   9.85367015  9.85367015  6.56911343



--------------------------------------------------------------------------------------------------------


 k-point   1 :   0.0000 0.0000 0.0000  plane waves:   61205
 k-point   2 :   0.3333 0.0000 0.0000  plane waves:   61041
 k-point   3 :   0.0000 0.3333 0.0000  plane waves:   61041
 k-point   4 :   0.0000 0.0000 0.3333  plane waves:   61041
 k-point   5 :   0.3333 0.3333 0.0000  plane waves:   61076
 k-point   6 :   0.0000 0.3333 0.3333  plane waves:   61076
 k-point   7 :   0.3333 0.0000 0.3333  plane waves:   61076
 k-point   8 :  -0.3333 0.3333 0.0000  plane waves:   61076
 k-point   9 :  -0.3333 0.0000 0.3333  plane waves:   61076
 k-point  10 :   0.0000-0.3333 0.3333  plane waves:   61076
 k-point  11 :   0.3333 0.3333 0.3333  plane waves:   61102
 k-point  12 :  -0.3333 0.3333 0.3333  plane waves:   61102
 k-point  13 :  -0.3333-0.3333 0.3333  plane waves:   61102
 k-point  14 :   0.3333-0.3333 0.3333  plane waves:   61102

 maximum and minimum number of plane-waves per node :     61205    61041

 maximum number of plane-waves:     61205
 maximum index in each direction: 
   IXMAX=   24   IYMAX=   24   IZMAX=   24
   IXMIN=  -24   IYMIN=  -24   IZMIN=  -24


 serial   3D FFT for wavefunctions
 parallel 3D FFT for charge:
    minimum data exchange during FFTs selected (reduces bandwidth)


 total amount of memory used by VASP MPI-rank0   760552. kBytes
=======================================================================

   base      :      30000. kBytes
   nonl-proj :     203726. kBytes
   fftplans  :      40183. kBytes
   grid      :      97291. kBytes
   one-center:        589. kBytes
   wavefun   :     388763. kBytes

     INWAV:  cpu time      0.0000: real time      0.0002
 Broyden mixing: mesh for mixing (old mesh)
   NGX = 49   NGY = 49   NGZ = 49
  (NGX  =196   NGY  =196   NGZ  =196)
  gives a total of 117649 points

 initial charge density was supplied:
 charge density of overlapping atoms calculated
 number of electron     640.0000000 magnetization      96.0000000
 keeping initial charge density in first step


--------------------------------------------------------------------------------------------------------


 Maximum index for augmentation-charges         5050 (set IRDMAX)


--------------------------------------------------------------------------------------------------------


 First call to EWALD:  gamma=   0.135
 Maximum number of real-space cells 3x 3x 3
 Maximum number of reciprocal cells 3x 3x 3

    FEWALD:  cpu time      0.0061: real time      0.0061


--------------------------------------- Iteration      1(   1)  ---------------------------------------


    POTLOK:  cpu time      4.9653: real time      4.9716
    SETDIJ:  cpu time     22.6808: real time     22.6841
     EDDAV:  cpu time    447.8931: real time    447.9750
 BZINTS: Fermi energy:   15.775705;  640.000000 electrons
         Band energy:-0.208264E+04;  BLOECHL correction:   -0.030622
       DOS:  cpu time      0.2925: real time      0.2926
    --------------------------------------------
      LOOP:  cpu time    475.8316: real time    475.9233

 eigenvalue-minimisations  : 25088
 total energy-change (2. order) : 0.6956296E+04  (-0.3052082E+05)
 number of electron     640.0000000 magnetization      96.0000000
 augmentation part      640.0000000 magnetization      96.0000000

 Free energy of the ion-electron system (eV)
  ---------------------------------------------------
  alpha Z        PSCENC =      1013.89101159
  Ewald energy   TEWEN  =    -30018.40159856
  -Hartree energ DENC   =    -16256.60208556
  -exchange      EXHF   =         0.00000000
  -V(xc)+E(xc)   XCENC  =      1977.81368557
  PAW double counting   =     39097.47874294   -44660.22105574
  entropy T*S    EENTRO =         0.00000000
  eigenvalues    EBANDS =     -2082.63636787
  atomic energy  EATOM  =     57884.97359149
  Solvation  Ediel_sol  =         0.00000000
  ---------------------------------------------------
  free energy    TOTEN  =      6956.29592386 eV

  energy without entropy =     6956.29592386  energy(sigma->0) =     6956.29592386


--------------------------------------------------------------------------------------------------------




--------------------------------------- Iteration      1(   2)  ---------------------------------------


     EDDAV:  cpu time    460.4512: real time    460.5382
 BZINTS: Fermi energy:    5.195257;  640.000000 electrons
         Band energy:-0.832537E+04;  BLOECHL correction:   -0.029248
       DOS:  cpu time      0.2695: real time      0.2695
    --------------------------------------------
      LOOP:  cpu time    460.7207: real time    460.8078

 eigenvalue-minimisations  : 25088
 total energy-change (2. order) :-0.6242733E+04  (-0.5948225E+04)
 number of electron     640.0000000 magnetization      96.0000000
 augmentation part      640.0000000 magnetization      96.0000000

 Free energy of the ion-electron system (eV)
  ---------------------------------------------------
  alpha Z        PSCENC =      1013.89101159
  Ewald energy   TEWEN  =    -30018.40159856
  -Hartree energ DENC   =    -16256.60208556
  -exchange      EXHF   =         0.00000000
  -V(xc)+E(xc)   XCENC  =      1977.81368557
  PAW double counting   =     39097.47874294   -44660.22105574
  entropy T*S    EENTRO =         0.00000000
  eigenvalues    EBANDS =     -8325.36921311
  atomic energy  EATOM  =     57884.97359149
  Solvation  Ediel_sol  =         0.00000000
  ---------------------------------------------------
  free energy    TOTEN  =       713.56307863 eV

  energy without entropy =      713.56307863  energy(sigma->0) =      713.56307863


--------------------------------------------------------------------------------------------------------




--------------------------------------- Iteration      1(   3)  ---------------------------------------


     EDDAV:  cpu time    488.3984: real time    488.4904
 BZINTS: Fermi energy:    0.123995;  640.000000 electrons
         Band energy:-0.928115E+04;  BLOECHL correction:   -0.000000
       DOS:  cpu time      0.1731: real time      0.1731
    --------------------------------------------
      LOOP:  cpu time    488.5714: real time    488.6635

 eigenvalue-minimisations  : 29568
 total energy-change (2. order) :-0.9557774E+03  (-0.9296529E+03)
 number of electron     640.0000000 magnetization      96.0000000
 augmentation part      640.0000000 magnetization      96.0000000

 Free energy of the ion-electron system (eV)
  ---------------------------------------------------
  alpha Z        PSCENC =      1013.89101159
  Ewald energy   TEWEN  =    -30018.40159856
  -Hartree energ DENC   =    -16256.60208556
  -exchange      EXHF   =         0.00000000
  -V(xc)+E(xc)   XCENC  =      1977.81368557
  PAW double counting   =     39097.47874294   -44660.22105574
  entropy T*S    EENTRO =         0.00000000
  eigenvalues    EBANDS =     -9281.14662200
  atomic energy  EATOM  =     57884.97359149
  Solvation  Ediel_sol  =         0.00000000
  ---------------------------------------------------
  free energy    TOTEN  =      -242.21433027 eV

  energy without entropy =     -242.21433027  energy(sigma->0) =     -242.21433027


--------------------------------------------------------------------------------------------------------




--------------------------------------- Iteration      1(   4)  ---------------------------------------


     EDDAV:  cpu time    534.7734: real time    534.8801
 BZINTS: Fermi energy:   -0.997654;  640.000000 electrons
         Band energy:-0.935187E+04;  BLOECHL correction:   -0.000000
       DOS:  cpu time      0.1891: real time      0.1891
    --------------------------------------------
      LOOP:  cpu time    534.9624: real time    535.0692

 eigenvalue-minimisations  : 30112
 total energy-change (2. order) :-0.7072685E+02  (-0.6993660E+02)
 number of electron     640.0000000 magnetization      96.0000000
 augmentation part      640.0000000 magnetization      96.0000000

 Free energy of the ion-electron system (eV)
  ---------------------------------------------------
  alpha Z        PSCENC =      1013.89101159
  Ewald energy   TEWEN  =    -30018.40159856
  -Hartree energ DENC   =    -16256.60208556
  -exchange      EXHF   =         0.00000000
  -V(xc)+E(xc)   XCENC  =      1977.81368557
  PAW double counting   =     39097.47874294   -44660.22105574
  entropy T*S    EENTRO =         0.00000000
  eigenvalues    EBANDS =     -9351.87347355
  atomic energy  EATOM  =     57884.97359149
  Solvation  Ediel_sol  =         0.00000000
  ---------------------------------------------------
  free energy    TOTEN  =      -312.94118181 eV

  energy without entropy =     -312.94118181  energy(sigma->0) =     -312.94118181


--------------------------------------------------------------------------------------------------------




--------------------------------------- Iteration      1(   5)  ---------------------------------------


     EDDAV:  cpu time    447.9550: real time    448.0413
 BZINTS: Fermi energy:   -1.012307;  640.000000 electrons
         Band energy:-0.935417E+04;  BLOECHL correction:   -0.000000
       DOS:  cpu time      0.1895: real time      0.1896
    CHARGE:  cpu time     15.9174: real time     15.9216
    MIXING:  cpu time      0.0137: real time      0.0137
    --------------------------------------------
      LOOP:  cpu time    464.0756: real time    464.1662

 eigenvalue-minimisations  : 29856
 total energy-change (2. order) :-0.2297572E+01  (-0.2292630E+01)
 number of electron     639.9999986 magnetization      67.4090986
 augmentation part      257.4442240 magnetization      68.9407385

 Broyden mixing:
  rms(total) = 0.64885E+01    rms(broyden)= 0.64885E+01
  rms(prec ) = 0.68010E+01
  weight for this iteration     100.00

 Free energy of the ion-electron system (eV)
  ---------------------------------------------------
  alpha Z        PSCENC =      1013.89101159
  Ewald energy   TEWEN  =    -30018.40159856
  -Hartree energ DENC   =    -16256.60208556
  -exchange      EXHF   =         0.00000000
  -V(xc)+E(xc)   XCENC  =      1977.81368557
  PAW double counting   =     39097.47874294   -44660.22105574
  entropy T*S    EENTRO =         0.00000000
  eigenvalues    EBANDS =     -9354.17104517
  atomic energy  EATOM  =     57884.97359149
  Solvation  Ediel_sol  =         0.00000000
  ---------------------------------------------------
  free energy    TOTEN  =      -315.23875344 eV

  energy without entropy =     -315.23875344  energy(sigma->0) =     -315.23875344


--------------------------------------------------------------------------------------------------------




--------------------------------------- Iteration      1(   6)  ---------------------------------------


    POTLOK:  cpu time      2.5813: real time      2.5949
    SETDIJ:  cpu time     20.3787: real time     20.3809
     EDDAV:  cpu time    481.7220: real time    481.8056
 BZINTS: Fermi energy:    0.009354;  640.000000 electrons
         Band energy:-0.922220E+04;  BLOECHL correction:   -0.000000
       DOS:  cpu time      0.1715: real time      0.1715
    CHARGE:  cpu time     20.3372: real time     20.3404
    MIXING:  cpu time      0.0144: real time      0.0144
    --------------------------------------------
      LOOP:  cpu time    525.2051: real time    525.3079

 eigenvalue-minimisations  : 27424
 total energy-change (2. order) : 0.7733465E+02  (-0.1330741E+02)
 number of electron     639.9999986 magnetization      51.9337364
 augmentation part      259.9450600 magnetization      50.9862621

 Broyden mixing:
  rms(total) = 0.31536E+01    rms(broyden)= 0.31535E+01
  rms(prec ) = 0.33177E+01
  weight for this iteration     100.00

 eigenvalues of (default mixing * dielectric matrix)
  average eigenvalue GAMMA=   0.7309
  0.7309

 Free energy of the ion-electron system (eV)
  ---------------------------------------------------
  alpha Z        PSCENC =      1013.89101159
  Ewald energy   TEWEN  =    -30018.40159856
  -Hartree energ DENC   =    -16357.29031568
  -exchange      EXHF   =         0.00000000
  -V(xc)+E(xc)   XCENC  =      2018.58153840
  PAW double counting   =     41023.92016292   -46581.38278203
  entropy T*S    EENTRO =         0.00000000
  eigenvalues    EBANDS =     -9222.19571115
  atomic energy  EATOM  =     57884.97359149
  Solvation  Ediel_sol  =         0.00000000
  ---------------------------------------------------
  free energy    TOTEN  =      -237.90410300 eV

  energy without entropy =     -237.90410300  energy(sigma->0) =     -237.90410300


--------------------------------------------------------------------------------------------------------




--------------------------------------- Iteration      1(   7)  ---------------------------------------


    POTLOK:  cpu time      2.0637: real time      2.0646
    SETDIJ:  cpu time     24.1675: real time     24.1708
     EDDAV:  cpu time    480.4305: real time    480.5867
 BZINTS: Fermi energy:    0.197992;  640.000000 electrons
         Band energy:-0.918881E+04;  BLOECHL correction:   -0.000000
       DOS:  cpu time      0.1872: real time      0.1872
    CHARGE:  cpu time     16.7249: real time     16.7272
    MIXING:  cpu time      0.0132: real time      0.0132
    --------------------------------------------
      LOOP:  cpu time    523.5869: real time    523.7497

 eigenvalue-minimisations  : 27776
 total energy-change (2. order) :-0.4401991E+02  (-0.4041336E+01)
 number of electron     639.9999986 magnetization      31.1771167
 augmentation part      260.1721076 magnetization      31.8082717

 Broyden mixing:
  rms(total) = 0.17737E+01    rms(broyden)= 0.17737E+01
  rms(prec ) = 0.18358E+01
  weight for this iteration     100.00

 eigenvalues of (default mixing * dielectric matrix)
  average eigenvalue GAMMA=   0.8800
  1.0220  0.7381

 Free energy of the ion-electron system (eV)
  ---------------------------------------------------
  alpha Z        PSCENC =      1013.89101159
  Ewald energy   TEWEN  =    -30018.40159856
  -Hartree energ DENC   =    -16409.54876585
  -exchange      EXHF   =         0.00000000
  -V(xc)+E(xc)   XCENC  =      2009.02276664
  PAW double counting   =     42848.44186583   -48421.49428121
  entropy T*S    EENTRO =         0.00000000
  eigenvalues    EBANDS =     -9188.80860379
  atomic energy  EATOM  =     57884.97359149
  Solvation  Ediel_sol  =         0.00000000
  ---------------------------------------------------
  free energy    TOTEN  =      -281.92401385 eV

  energy without entropy =     -281.92401385  energy(sigma->0) =     -281.92401385


--------------------------------------------------------------------------------------------------------




--------------------------------------- Iteration      1(   8)  ---------------------------------------


    POTLOK:  cpu time      0.5248: real time      0.5252
    SETDIJ:  cpu time     11.7969: real time     11.8019
     EDDAV:  cpu time    487.6219: real time    487.7134
 BZINTS: Fermi energy:    0.264152;  640.000000 electrons
         Band energy:-0.918330E+04;  BLOECHL correction:   -0.000000
       DOS:  cpu time      0.1729: real time      0.1730
    CHARGE:  cpu time     16.4854: real time     16.4881
    MIXING:  cpu time      0.0146: real time      0.0146
    --------------------------------------------
      LOOP:  cpu time    516.6164: real time    516.7163

 eigenvalue-minimisations  : 26432
 total energy-change (2. order) :-0.2117225E+02  (-0.1562409E+01)
 number of electron     639.9999986 magnetization      14.0315166
 augmentation part      260.5369237 magnetization      14.4740259

 Broyden mixing:
  rms(total) = 0.10586E+01    rms(broyden)= 0.10586E+01
  rms(prec ) = 0.10847E+01
  weight for this iteration     100.00

 eigenvalues of (default mixing * dielectric matrix)
  average eigenvalue GAMMA=   1.0808
  1.6508  0.8779  0.7136

 Free energy of the ion-electron system (eV)
  ---------------------------------------------------
  alpha Z        PSCENC =      1013.89101159
  Ewald energy   TEWEN  =    -30018.40159856
  -Hartree energ DENC   =    -16420.04553957
  -exchange      EXHF   =         0.00000000
  -V(xc)+E(xc)   XCENC  =      2001.57999295
  PAW double counting   =     45667.61197208   -51249.41021554
  entropy T*S    EENTRO =         0.00000000
  eigenvalues    EBANDS =     -9183.29547790
  atomic energy  EATOM  =     57884.97359149
  Solvation  Ediel_sol  =         0.00000000
  ---------------------------------------------------
  free energy    TOTEN  =      -303.09626346 eV

  energy without entropy =     -303.09626346  energy(sigma->0) =     -303.09626346


--------------------------------------------------------------------------------------------------------




--------------------------------------- Iteration      1(   9)  ---------------------------------------


    POTLOK:  cpu time      2.3765: real time      2.3771
    SETDIJ:  cpu time     23.5780: real time     23.5813
     EDDAV:  cpu time    453.0026: real time    453.0919
 BZINTS: Fermi energy:    0.184386;  640.000000 electrons
         Band energy:-0.920283E+04;  BLOECHL correction:   -0.000000
       DOS:  cpu time      0.1869: real time      0.1869
    CHARGE:  cpu time     26.2436: real time     26.2472
    MIXING:  cpu time      0.0124: real time      0.0124
    --------------------------------------------
      LOOP:  cpu time    505.4000: real time    505.4969

 eigenvalue-minimisations  : 26208
 total energy-change (2. order) :-0.1517337E+02  (-0.1666897E+01)
 number of electron     639.9999986 magnetization       8.0348281
 augmentation part      260.4990244 magnetization       8.1262259

 Broyden mixing:
  rms(total) = 0.46363E+00    rms(broyden)= 0.46363E+00
  rms(prec ) = 0.47518E+00
  weight for this iteration     100.00

 eigenvalues of (default mixing * dielectric matrix)
  average eigenvalue GAMMA=   1.2369
  2.2915  1.2902  0.7371  0.6288

 Free energy of the ion-electron system (eV)
  ---------------------------------------------------
  alpha Z        PSCENC =      1013.89101159
  Ewald energy   TEWEN  =    -30018.40159856
  -Hartree energ DENC   =    -16403.30961846
  -exchange      EXHF   =         0.00000000
  -V(xc)+E(xc)   XCENC  =      1996.13159052
  PAW double counting   =     47807.90881504   -53396.63167579
  entropy T*S    EENTRO =         0.00000000
  eigenvalues    EBANDS =     -9202.83174877
  atomic energy  EATOM  =     57884.97359149
  Solvation  Ediel_sol  =         0.00000000
  ---------------------------------------------------
  free energy    TOTEN  =      -318.26963294 eV

  energy without entropy =     -318.26963294  energy(sigma->0) =     -318.26963294


--------------------------------------------------------------------------------------------------------




--------------------------------------- Iteration      1(  10)  ---------------------------------------


    POTLOK:  cpu time      2.6637: real time      2.6647
    SETDIJ:  cpu time     11.8035: real time     11.8051
     EDDAV:  cpu time    540.6397: real time    540.7405
 BZINTS: Fermi energy:    0.127788;  640.000000 electrons
         Band energy:-0.921572E+04;  BLOECHL correction:   -0.000000
       DOS:  cpu time      0.1867: real time      0.1867
    CHARGE:  cpu time     23.5789: real time     23.5824
    MIXING:  cpu time      0.0131: real time      0.0131
    --------------------------------------------
      LOOP:  cpu time    578.8856: real time    578.9926

 eigenvalue-minimisations  : 27360
 total energy-change (2. order) :-0.5264030E+00  (-0.2109434E+00)
 number of electron     639.9999986 magnetization       5.7117269
 augmentation part      260.3524388 magnetization       5.7893826

 Broyden mixing:
  rms(total) = 0.26144E+00    rms(broyden)= 0.26144E+00
  rms(prec ) = 0.26416E+00
  weight for this iteration     100.00

 eigenvalues of (default mixing * dielectric matrix)
  average eigenvalue GAMMA=   1.1200
  2.2156  1.2643  0.8012  0.7477  0.5712

 Free energy of the ion-electron system (eV)
  ---------------------------------------------------
  alpha Z        PSCENC =      1013.89101159
  Ewald energy   TEWEN  =    -30018.40159856
  -Hartree energ DENC   =    -16387.26774402
  -exchange      EXHF   =         0.00000000
  -V(xc)+E(xc)   XCENC  =      1993.72755401
  PAW double counting   =     48028.46243642   -53618.45938741
  entropy T*S    EENTRO =         0.00000000
  eigenvalues    EBANDS =     -9215.72189948
  atomic energy  EATOM  =     57884.97359149
  Solvation  Ediel_sol  =         0.00000000
  ---------------------------------------------------
  free energy    TOTEN  =      -318.79603597 eV

  energy without entropy =     -318.79603597  energy(sigma->0) =     -318.79603597


--------------------------------------------------------------------------------------------------------




--------------------------------------- Iteration      1(  11)  ---------------------------------------


    POTLOK:  cpu time      0.5333: real time      0.5337
    SETDIJ:  cpu time     19.9105: real time     19.9130
     EDDAV:  cpu time    500.4000: real time    500.4937
 BZINTS: Fermi energy:    0.139736;  640.000000 electrons
         Band energy:-0.921525E+04;  BLOECHL correction:   -0.000000
       DOS:  cpu time      0.1866: real time      0.1868
    CHARGE:  cpu time     22.1750: real time     22.1785
    MIXING:  cpu time      0.0122: real time      0.0122
    --------------------------------------------
      LOOP:  cpu time    543.2176: real time    543.3179

 eigenvalue-minimisations  : 29056
 total energy-change (2. order) :-0.2015282E+00  (-0.1794477E-01)
 number of electron     639.9999986 magnetization       1.1809228
 augmentation part      260.3917401 magnetization       1.2360839

 Broyden mixing:
  rms(total) = 0.19634E+00    rms(broyden)= 0.19634E+00
  rms(prec ) = 0.19722E+00
  weight for this iteration     100.00

 eigenvalues of (default mixing * dielectric matrix)
  average eigenvalue GAMMA=   1.4080
  2.5588  2.5588  1.3074  0.7265  0.6813  0.6153

 Free energy of the ion-electron system (eV)
  ---------------------------------------------------
  alpha Z        PSCENC =      1013.89101159
  Ewald energy   TEWEN  =    -30018.40159856
  -Hartree energ DENC   =    -16388.77895275
  -exchange      EXHF   =         0.00000000
  -V(xc)+E(xc)   XCENC  =      1993.96925912
  PAW double counting   =     47855.72964026   -53445.13386112
  entropy T*S    EENTRO =         0.00000000
  eigenvalues    EBANDS =     -9215.24665425
  atomic energy  EATOM  =     57884.97359149
  Solvation  Ediel_sol  =         0.00000000
  ---------------------------------------------------
  free energy    TOTEN  =      -318.99756421 eV

  energy without entropy =     -318.99756421  energy(sigma->0) =     -318.99756421


--------------------------------------------------------------------------------------------------------




--------------------------------------- Iteration      1(  12)  ---------------------------------------


    POTLOK:  cpu time      6.3471: real time      6.3483
    SETDIJ:  cpu time      5.9346: real time      5.9354
     EDDAV:  cpu time    473.8828: real time    473.9719
 BZINTS: Fermi energy:    0.157909;  640.000000 electrons
         Band energy:-0.921476E+04;  BLOECHL correction:   -0.000000
       DOS:  cpu time      0.1876: real time      0.1876
    CHARGE:  cpu time     20.3534: real time     20.3565
    MIXING:  cpu time      0.0091: real time      0.0091
    --------------------------------------------
      LOOP:  cpu time    506.7146: real time    506.8089

 eigenvalue-minimisations  : 27360
 total energy-change (2. order) :-0.2134142E+00  (-0.1548484E-01)
 number of electron     639.9999986 magnetization       0.0294577
 augmentation part      260.4592967 magnetization       0.0392406

 Broyden mixing:
  rms(total) = 0.11252E+00    rms(broyden)= 0.11252E+00
  rms(prec ) = 0.11861E+00
  weight for this iteration     100.00

 eigenvalues of (default mixing * dielectric matrix)
  average eigenvalue GAMMA=   1.3967
  3.2319  2.4848  1.2815  0.8408  0.7430  0.5976  0.5976

 Free energy of the ion-electron system (eV)
  ---------------------------------------------------
  alpha Z        PSCENC =      1013.89101159
  Ewald energy   TEWEN  =    -30018.40159856
  -Hartree energ DENC   =    -16390.24809558
  -exchange      EXHF   =         0.00000000
  -V(xc)+E(xc)   XCENC  =      1994.12713894
  PAW double counting   =     47116.30077022   -52705.09629541
  entropy T*S    EENTRO =         0.00000000
  eigenvalues    EBANDS =     -9214.75750112
  atomic energy  EATOM  =     57884.97359149
  Solvation  Ediel_sol  =         0.00000000
  ---------------------------------------------------
  free energy    TOTEN  =      -319.21097842 eV

  energy without entropy =     -319.21097842  energy(sigma->0) =     -319.21097842


--------------------------------------------------------------------------------------------------------




--------------------------------------- Iteration      1(  13)  ---------------------------------------


    POTLOK:  cpu time      5.2532: real time      5.2543
    SETDIJ:  cpu time     16.2962: real time     16.2981
     EDDAV:  cpu time   1125.8534: real time   1126.0268
 BZINTS: Fermi energy:    0.137275;  640.000000 electrons
         Band energy:-0.921700E+04;  BLOECHL correction:   -0.000000
       DOS:  cpu time      0.1881: real time      0.1881
    CHARGE:  cpu time     24.4955: real time     24.4989
    MIXING:  cpu time      0.0120: real time      0.0120
    --------------------------------------------
      LOOP:  cpu time   1172.0983: real time   1172.2782

 eigenvalue-minimisations  : 27392
 total energy-change (2. order) :-0.3224321E-01  (-0.6099757E-02)
 number of electron     639.9999986 magnetization       0.0290733
 augmentation part      260.4108781 magnetization       0.0290489

 Broyden mixing:
  rms(total) = 0.40355E-01    rms(broyden)= 0.40355E-01
  rms(prec ) = 0.40990E-01
  weight for this iteration     100.00

 eigenvalues of (default mixing * dielectric matrix)
  average eigenvalue GAMMA=   1.3051
  3.3365  2.0736  1.3421  0.8436  0.8436  0.7420  0.6296  0.6296

 Free energy of the ion-electron system (eV)
  ---------------------------------------------------
  alpha Z        PSCENC =      1013.89101159
  Ewald energy   TEWEN  =    -30018.40159856
  -Hartree energ DENC   =    -16387.03673392
  -exchange      EXHF   =         0.00000000
  -V(xc)+E(xc)   XCENC  =      1993.84757031
  PAW double counting   =     47188.68772805   -52778.20640153
  entropy T*S    EENTRO =         0.00000000
  eigenvalues    EBANDS =     -9216.99838906
  atomic energy  EATOM  =     57884.97359149
  Solvation  Ediel_sol  =         0.00000000
  ---------------------------------------------------
  free energy    TOTEN  =      -319.24322163 eV

  energy without entropy =     -319.24322163  energy(sigma->0) =     -319.24322163


--------------------------------------------------------------------------------------------------------




--------------------------------------- Iteration      1(  14)  ---------------------------------------


    POTLOK:  cpu time      5.4278: real time      5.4287
    SETDIJ:  cpu time      8.7930: real time      8.7939
     EDDAV:  cpu time   1240.7954: real time   1240.9835
 BZINTS: Fermi energy:    0.133746;  640.000000 electrons
         Band energy:-0.921699E+04;  BLOECHL correction:   -0.000000
       DOS:  cpu time      0.1827: real time      0.1827
    CHARGE:  cpu time     17.2667: real time     17.2689
    MIXING:  cpu time      0.0135: real time      0.0135
    --------------------------------------------
      LOOP:  cpu time   1272.4791: real time   1272.6713

 eigenvalue-minimisations  : 31424
 total energy-change (2. order) :-0.1498700E-02  (-0.6158408E-03)
 number of electron     639.9999986 magnetization       0.0387134
 augmentation part      260.3941182 magnetization       0.0395134

 Broyden mixing:
  rms(total) = 0.81866E-02    rms(broyden)= 0.81866E-02
  rms(prec ) = 0.85896E-02
  weight for this iteration     100.00

 eigenvalues of (default mixing * dielectric matrix)
  average eigenvalue GAMMA=   1.2308
  3.3169  2.1488  1.3014  0.8793  0.8793  0.7378  0.6149  0.6117  0.5875

 Free energy of the ion-electron system (eV)
  ---------------------------------------------------
  alpha Z        PSCENC =      1013.89101159
  Ewald energy   TEWEN  =    -30018.40159856
  -Hartree energ DENC   =    -16386.81272074
  -exchange      EXHF   =         0.00000000
  -V(xc)+E(xc)   XCENC  =      1993.81655833
  PAW double counting   =     47280.40084568   -52870.12518462
  entropy T*S    EENTRO =         0.00000000
  eigenvalues    EBANDS =     -9216.98722350
  atomic energy  EATOM  =     57884.97359149
  Solvation  Ediel_sol  =         0.00000000
  ---------------------------------------------------
  free energy    TOTEN  =      -319.24472033 eV

  energy without entropy =     -319.24472033  energy(sigma->0) =     -319.24472033


--------------------------------------------------------------------------------------------------------




--------------------------------------- Iteration      1(  15)  ---------------------------------------


    POTLOK:  cpu time      3.6042: real time      3.6049
    SETDIJ:  cpu time     13.5525: real time     13.5545
     EDDAV:  cpu time    670.3139: real time    670.4247
 BZINTS: Fermi energy:    0.134016;  640.000000 electrons
         Band energy:-0.921668E+04;  BLOECHL correction:   -0.000000
       DOS:  cpu time      0.1871: real time      0.1871
    CHARGE:  cpu time     20.8851: real time     20.8881
    MIXING:  cpu time      0.0127: real time      0.0127
    --------------------------------------------
      LOOP:  cpu time    708.5556: real time    708.6721

 eigenvalue-minimisations  : 33600
 total energy-change (2. order) :-0.8538401E-04  (-0.9306616E-05)
 number of electron     639.9999986 magnetization       0.0018436
 augmentation part      260.3940583 magnetization       0.0025913

 Broyden mixing:
  rms(total) = 0.60192E-02    rms(broyden)= 0.60192E-02
  rms(prec ) = 0.63198E-02
  weight for this iteration     100.00

 eigenvalues of (default mixing * dielectric matrix)
  average eigenvalue GAMMA=   1.3233
  3.3218  2.3614  1.3565  1.3565  1.1944  0.8162  0.8162  0.7491  0.6303  0.6303

 Free energy of the ion-electron system (eV)
  ---------------------------------------------------
  alpha Z        PSCENC =      1013.89101159
  Ewald energy   TEWEN  =    -30018.40159856
  -Hartree energ DENC   =    -16387.10711646
  -exchange      EXHF   =         0.00000000
  -V(xc)+E(xc)   XCENC  =      1993.81965657
  PAW double counting   =     47268.74633033   -52858.48588284
  entropy T*S    EENTRO =         0.00000000
  eigenvalues    EBANDS =     -9216.68079784
  atomic energy  EATOM  =     57884.97359149
  Solvation  Ediel_sol  =         0.00000000
  ---------------------------------------------------
  free energy    TOTEN  =      -319.24480572 eV

  energy without entropy =     -319.24480572  energy(sigma->0) =     -319.24480572


--------------------------------------------------------------------------------------------------------




--------------------------------------- Iteration      1(  16)  ---------------------------------------


    POTLOK:  cpu time      0.4955: real time      0.4959
    SETDIJ:  cpu time     10.2678: real time     10.2711
     EDDAV:  cpu time    639.5623: real time    639.6723
 BZINTS: Fermi energy:    0.134298;  640.000000 electrons
         Band energy:-0.921592E+04;  BLOECHL correction:   -0.000000
       DOS:  cpu time      0.1718: real time      0.1719
    CHARGE:  cpu time     15.9365: real time     15.9390
    MIXING:  cpu time      0.0126: real time      0.0126
    --------------------------------------------
      LOOP:  cpu time    666.4465: real time    666.5628

 eigenvalue-minimisations  : 27136
 total energy-change (2. order) :-0.1258185E-03  (-0.1988549E-04)
 number of electron     639.9999986 magnetization       0.0006404
 augmentation part      260.3935592 magnetization       0.0006521

 Broyden mixing:
  rms(total) = 0.56837E-02    rms(broyden)= 0.56837E-02
  rms(prec ) = 0.57154E-02
  weight for this iteration     100.00

 eigenvalues of (default mixing * dielectric matrix)
  average eigenvalue GAMMA=   1.3248
  3.3447  2.1985  2.1985  1.2530  1.2530  0.8135  0.8135  0.7456  0.7236  0.6143
  0.6143

 Free energy of the ion-electron system (eV)
  ---------------------------------------------------
  alpha Z        PSCENC =      1013.89101159
  Ewald energy   TEWEN  =    -30018.40159856
  -Hartree energ DENC   =    -16387.85329027
  -exchange      EXHF   =         0.00000000
  -V(xc)+E(xc)   XCENC  =      1993.81571414
  PAW double counting   =     47233.05215342   -52822.80681571
  entropy T*S    EENTRO =         0.00000000
  eigenvalues    EBANDS =     -9215.91569764
  atomic energy  EATOM  =     57884.97359149
  Solvation  Ediel_sol  =         0.00000000
  ---------------------------------------------------
  free energy    TOTEN  =      -319.24493154 eV

  energy without entropy =     -319.24493154  energy(sigma->0) =     -319.24493154


--------------------------------------------------------------------------------------------------------




--------------------------------------- Iteration      1(  17)  ---------------------------------------


    POTLOK:  cpu time      4.4558: real time      4.4567
    SETDIJ:  cpu time     15.0613: real time     15.0635
     EDDAV:  cpu time    687.7909: real time    688.1060
 BZINTS: Fermi energy:    0.134174;  640.000000 electrons
         Band energy:-0.921586E+04;  BLOECHL correction:   -0.000000
       DOS:  cpu time      0.1524: real time      0.1525
    CHARGE:  cpu time     16.9601: real time     16.9964
    MIXING:  cpu time      0.0117: real time      0.0117
    --------------------------------------------
      LOOP:  cpu time    724.4322: real time    724.7868

 eigenvalue-minimisations  : 27008
 total energy-change (2. order) :-0.2309643E-04  (-0.3543093E-05)
 number of electron     639.9999986 magnetization       0.0004073
 augmentation part      260.3932060 magnetization       0.0001805

 Broyden mixing:
  rms(total) = 0.22975E-02    rms(broyden)= 0.22975E-02
  rms(prec ) = 0.23186E-02
[...]
   -.406E-01 -.759E-01 -.719E-07   0.378E-01 0.719E-01 0.534E-13   0.434E-02 0.643E-02 0.669E-07   0.105E-08 0.386E-07 -.314E-07
   -.111E-02 -.647E-02 -.934E-07   0.117E-02 0.594E-02 0.176E-13   -.928E-04 0.828E-03 0.771E-07   -.348E-07 0.765E-07 -.361E-07
   -.118E-02 0.646E-02 0.917E-07   0.124E-02 -.594E-02 0.339E-14   -.875E-04 -.825E-03 -.661E-07   0.147E-07 -.552E-07 0.126E-07
   -.111E-02 0.647E-02 -.426E-07   0.117E-02 -.594E-02 0.117E-14   -.929E-04 -.828E-03 0.320E-07   0.155E-07 -.578E-07 -.147E-07
   -.118E-02 -.646E-02 -.665E-07   0.124E-02 0.594E-02 -.126E-13   -.875E-04 0.825E-03 0.574E-07   -.115E-07 0.557E-07 -.316E-07
 -----------------------------------------------------------------------------------------------
   -.586E-01 0.192E-06 0.526E-06   0.184E-12 0.520E-13 0.446E-13   0.586E-01 -.115E-06 -.360E-06   0.154E-06 0.266E-08 0.141E-07


 POSITION                                       TOTAL-FORCE (eV/Angst)
 -----------------------------------------------------------------------------------
      1.64228      1.64228      1.64228         0.004293      0.001722      0.001722
      8.21139      1.64228      1.64228        -0.000840      0.000119      0.000119
      1.64228      8.21139      1.64228         0.000403      0.000280     -0.000259
      8.21139      8.21139      1.64228        -0.000410     -0.000213      0.000305
      1.64228      1.64228      8.21139         0.000403     -0.000259      0.000280
      8.21139      1.64228      8.21139        -0.000410      0.000305     -0.000213
      1.64228      8.21139      8.21139         0.000150      0.000003      0.000003
      8.21139      8.21139      8.21139        -0.000149     -0.000012     -0.000011
      1.64228      4.92684      1.64228         0.000403     -0.000280     -0.000259
      8.21139      4.92684      1.64228        -0.000410      0.000213      0.000305
      1.64228     11.49595      1.64228         0.004293     -0.001722      0.001722
      8.21139     11.49595      1.64228        -0.000840     -0.000119      0.000119
      1.64228      4.92684      8.21139         0.000150     -0.000003      0.000003
      8.21139      4.92684      8.21139        -0.000149      0.000012     -0.000011
      1.64228     11.49595      8.21139         0.000403      0.000259      0.000280
      8.21139     11.49595      8.21139        -0.000410     -0.000305     -0.000213
      1.64228      4.92684      4.92684         0.000150     -0.000003     -0.000003
      8.21139      4.92684      4.92684        -0.000149      0.000011      0.000011
      1.64228     11.49595      4.92684         0.000403      0.000259     -0.000280
      8.21139     11.49595      4.92684        -0.000410     -0.000305      0.000213
      1.64228      4.92684     11.49595         0.000403     -0.000280      0.000259
      8.21139      4.92684     11.49595        -0.000410      0.000213     -0.000305
      1.64228     11.49595     11.49595         0.004293     -0.001722     -0.001722
      8.21139     11.49595     11.49595        -0.000840     -0.000119     -0.000119
      1.64228      1.64228      4.92684         0.000403     -0.000259     -0.000280
      8.21139      1.64228      4.92684        -0.000410      0.000305      0.000213
      1.64228      8.21139      4.92684         0.000150      0.000003     -0.000003
      8.21139      8.21139      4.92684        -0.000149     -0.000011      0.000011
      1.64228      1.64228     11.49595         0.004293      0.001722     -0.001722
      8.21139      1.64228     11.49595        -0.000840      0.000119     -0.000119
      1.64228      8.21139     11.49595         0.000403      0.000280      0.000259
      8.21139      8.21139     11.49595        -0.000410     -0.000213     -0.000305
      4.92684      1.64228      4.92684        -0.000410     -0.000306     -0.000213
     11.49595      1.64228      4.92684         0.000401      0.000258      0.000281
      4.92684      8.21139      4.92684        -0.000149      0.000012     -0.000012
     11.49595      8.21139      4.92684         0.000148     -0.000003      0.000003
      4.92684      1.64228     11.49595        -0.000843     -0.000121      0.000121
     11.49595      1.64228     11.49595         0.004224     -0.001626      0.001626
      4.92684      8.21139     11.49595        -0.000410      0.000213      0.000306
     11.49595      8.21139     11.49595         0.000401     -0.000281     -0.000258
      4.92684      4.92684      4.92684        -0.000149     -0.000012     -0.000012
     11.49595      4.92684      4.92684         0.000148      0.000003      0.000003
      4.92684     11.49595      4.92684        -0.000410      0.000306     -0.000213
     11.49595     11.49595      4.92684         0.000401     -0.000258      0.000281
      4.92684      4.92684     11.49595        -0.000410     -0.000213      0.000306
     11.49595      4.92684     11.49595         0.000401      0.000281     -0.000258
      4.92684     11.49595     11.49595        -0.000842      0.000121      0.000121
     11.49595     11.49595     11.49595         0.004224      0.001626      0.001626
      4.92684      4.92684      1.64228        -0.000410     -0.000213     -0.000306
     11.49595      4.92684      1.64228         0.000401      0.000281      0.000258
      4.92684     11.49595      1.64228        -0.000843      0.000121     -0.000121
     11.49595     11.49595      1.64228         0.004224      0.001626     -0.001626
      4.92684      4.92684      8.21139        -0.000149     -0.000012      0.000012
     11.49595      4.92684      8.21139         0.000148      0.000003     -0.000003
      4.92684     11.49595      8.21139        -0.000410      0.000306      0.000213
     11.49595     11.49595      8.21139         0.000401     -0.000258     -0.000281
      4.92684      1.64228      1.64228        -0.000842     -0.000121     -0.000121
     11.49595      1.64228      1.64228         0.004224     -0.001626     -0.001626
      4.92684      8.21139      1.64228        -0.000410      0.000213     -0.000306
     11.49595      8.21139      1.64228         0.000401     -0.000281      0.000258
      4.92684      1.64228      8.21139        -0.000410     -0.000306      0.000213
     11.49595      1.64228      8.21139         0.000401      0.000258     -0.000281
      4.92684      8.21139      8.21139        -0.000149      0.000012      0.000012
     11.49595      8.21139      8.21139         0.000148     -0.000003     -0.000003
      0.01000      0.00000      0.00000        -0.039983      0.000000     -0.000000
      6.56911      0.00000      0.00000         0.001504     -0.000000      0.000000
      0.00000      6.56911      0.00000        -0.000782      0.000000     -0.000000
      6.56911      6.56911      0.00000         0.001040      0.000000      0.000000
      0.00000      0.00000      6.56911        -0.000781     -0.000000     -0.000000
      6.56911      0.00000      6.56911         0.001040     -0.000000     -0.000000
      0.00000      6.56911      6.56911        -0.000254      0.000000     -0.000000
      6.56911      6.56911      6.56911         0.000265      0.000000     -0.000000
      0.00000      3.28456      3.28456        -0.001219     -0.000003     -0.000003
      6.56911      3.28456      3.28456         0.000782      0.000000      0.000000
      0.00000      9.85367      3.28456        -0.001219      0.000003     -0.000003
      6.56911      9.85367      3.28456         0.000782     -0.000000      0.000001
      0.00000      3.28456      9.85367        -0.001219     -0.000003      0.000003
      6.56911      3.28456      9.85367         0.000782      0.000000     -0.000000
      0.00000      9.85367      9.85367        -0.001219      0.000003      0.000003
      6.56911      9.85367      9.85367         0.000782     -0.000000     -0.000000
      3.28456      0.00000      3.28456         0.001591      0.000000      0.002388
      9.85367      0.00000      3.28456         0.001591      0.000000     -0.002377
      3.28456      6.56911      3.28456        -0.000031     -0.000000      0.000306
      9.85367      6.56911      3.28456        -0.000029      0.000000     -0.000305
      3.28456      0.00000      9.85367         0.001591     -0.000000     -0.002387
      9.85367      0.00000      9.85367         0.001592      0.000000      0.002377
      3.28456      6.56911      9.85367        -0.000031     -0.000000     -0.000306
      9.85367      6.56911      9.85367        -0.000029     -0.000000      0.000305
      3.28456      3.28456      0.00000         0.001591      0.002388      0.000000
      9.85367      3.28456      0.00000         0.001592     -0.002377     -0.000000
      3.28456      9.85367      0.00000         0.001591     -0.002388      0.000000
      9.85367      9.85367      0.00000         0.001592      0.002377     -0.000000
      3.28456      3.28456      6.56911        -0.000031      0.000306     -0.000000
      9.85367      3.28456      6.56911        -0.000029     -0.000305      0.000000
      3.28456      9.85367      6.56911        -0.000031     -0.000306     -0.000000
      9.85367      9.85367      6.56911        -0.000029      0.000305     -0.000000
 -----------------------------------------------------------------------------------
    total drift:                               -0.000004      0.000000      0.000000


--------------------------------------------------------------------------------------------------------



  FREE ENERGIE OF THE ION-ELECTRON SYSTEM (eV)
  ---------------------------------------------------
  free  energy   TOTEN  =      -319.24496017 eV

  energy  without entropy=     -319.24496017  energy(sigma->0) =     -319.24496017



--------------------------------------------------------------------------------------------------------


    POTLOK:  cpu time     24.7079: real time     24.7283


--------------------------------------------------------------------------------------------------------


     LOOP+:  cpu time  18610.0904: real time  18613.9455
    4ORBIT:  cpu time      0.0000: real time      0.0000



 total charge

# of ion       s       p       d       tot
------------------------------------------
    1        0.065   5.986   0.000   6.052
    2        0.065   5.986   0.000   6.051
    3        0.065   5.986   0.000   6.051
    4        0.065   5.986   0.000   6.051
    5        0.065   5.986   0.000   6.051
    6        0.065   5.986   0.000   6.051
    7        0.065   5.986   0.000   6.051
    8        0.065   5.986   0.000   6.051
    9        0.065   5.986   0.000   6.051
   10        0.065   5.986   0.000   6.051
   11        0.065   5.986   0.000   6.052
   12        0.065   5.986   0.000   6.051
   13        0.065   5.986   0.000   6.051
   14        0.065   5.986   0.000   6.051
   15        0.065   5.986   0.000   6.051
   16        0.065   5.986   0.000   6.051
   17        0.065   5.986   0.000   6.051
   18        0.065   5.986   0.000   6.051
   19        0.065   5.986   0.000   6.051
   20        0.065   5.986   0.000   6.051
   21        0.065   5.986   0.000   6.051
   22        0.065   5.986   0.000   6.051
   23        0.065   5.986   0.000   6.052
   24        0.065   5.986   0.000   6.051
   25        0.065   5.986   0.000   6.051
   26        0.065   5.986   0.000   6.051
   27        0.065   5.986   0.000   6.051
   28        0.065   5.986   0.000   6.051
   29        0.065   5.986   0.000   6.052
   30        0.065   5.986   0.000   6.051
   31        0.065   5.986   0.000   6.051
   32        0.065   5.986   0.000   6.051
   33        0.065   5.986   0.000   6.051
   34        0.065   5.986   0.000   6.051
   35        0.065   5.986   0.000   6.051
   36        0.065   5.986   0.000   6.051
   37        0.065   5.986   0.000   6.051
   38        0.065   5.986   0.000   6.051
   39        0.065   5.986   0.000   6.051
   40        0.065   5.986   0.000   6.051
   41        0.065   5.986   0.000   6.051
   42        0.065   5.986   0.000   6.051
   43        0.065   5.986   0.000   6.051
   44        0.065   5.986   0.000   6.051
   45        0.065   5.986   0.000   6.051
   46        0.065   5.986   0.000   6.051
   47        0.065   5.986   0.000   6.051
   48        0.065   5.986   0.000   6.051
   49        0.065   5.986   0.000   6.051
   50        0.065   5.986   0.000   6.051
   51        0.065   5.986   0.000   6.051
   52        0.065   5.986   0.000   6.051
   53        0.065   5.986   0.000   6.051
   54        0.065   5.986   0.000   6.051
   55        0.065   5.986   0.000   6.051
   56        0.065   5.986   0.000   6.051
   57        0.065   5.986   0.000   6.051
   58        0.065   5.986   0.000   6.051
   59        0.065   5.986   0.000   6.051
   60        0.065   5.986   0.000   6.051
   61        0.065   5.986   0.000   6.051
   62        0.065   5.986   0.000   6.051
   63        0.065   5.986   0.000   6.051
   64        0.065   5.986   0.000   6.051
   65        1.311   2.427   0.000   3.738
   66        1.311   2.427   0.000   3.738
   67        1.311   2.427   0.000   3.738
   68        1.311   2.427   0.000   3.738
   69        1.311   2.427   0.000   3.738
   70        1.311   2.427   0.000   3.738
   71        1.311   2.427   0.000   3.738
   72        1.311   2.427   0.000   3.738
   73        1.311   2.427   0.000   3.738
   74        1.311   2.427   0.000   3.738
   75        1.311   2.427   0.000   3.738
   76        1.311   2.427   0.000   3.738
   77        1.311   2.427   0.000   3.738
   78        1.311   2.427   0.000   3.738
   79        1.311   2.427   0.000   3.738
   80        1.311   2.427   0.000   3.738
   81        1.311   2.427   0.000   3.738
   82        1.311   2.427   0.000   3.738
   83        1.311   2.427   0.000   3.738
   84        1.311   2.427   0.000   3.738
   85        1.311   2.427   0.000   3.738
   86        1.311   2.427   0.000   3.738
   87        1.311   2.427   0.000   3.738
   88        1.311   2.427   0.000   3.738
   89        1.311   2.427   0.000   3.738
   90        1.311   2.427   0.000   3.738
   91        1.311   2.427   0.000   3.738
   92        1.311   2.427   0.000   3.738
   93        1.311   2.427   0.000   3.738
   94        1.311   2.427   0.000   3.738
   95        1.311   2.427   0.000   3.738
   96        1.311   2.427   0.000   3.738
--------------------------------------------------
tot         46.114 460.794   0.000 506.909



 magnetization (x)

# of ion       s       p       d       tot
------------------------------------------
    1        0.000  -0.000   0.000   0.000
    2        0.000   0.000   0.000   0.000
    3        0.000  -0.000   0.000  -0.000
    4        0.000  -0.000   0.000  -0.000
    5        0.000  -0.000   0.000  -0.000
    6        0.000  -0.000   0.000  -0.000
    7        0.000  -0.000   0.000  -0.000
    8        0.000   0.000   0.000   0.000
    9        0.000  -0.000   0.000  -0.000
   10        0.000  -0.000   0.000  -0.000
   11        0.000  -0.000   0.000   0.000
   12        0.000  -0.000   0.000  -0.000
   13        0.000  -0.000   0.000  -0.000
   14        0.000   0.000   0.000   0.000
   15        0.000  -0.000   0.000  -0.000
   16        0.000  -0.000   0.000  -0.000
   17        0.000  -0.000   0.000  -0.000
   18        0.000  -0.000   0.000   0.000
   19        0.000  -0.000   0.000  -0.000
   20        0.000  -0.000   0.000  -0.000
   21        0.000  -0.000   0.000  -0.000
   22        0.000  -0.000   0.000  -0.000
   23        0.000   0.000   0.000   0.000
   24        0.000  -0.000   0.000   0.000
   25        0.000  -0.000   0.000  -0.000
   26        0.000  -0.000   0.000  -0.000
   27        0.000  -0.000   0.000  -0.000
   28        0.000   0.000   0.000   0.000
   29        0.000   0.000   0.000   0.000
   30        0.000  -0.000   0.000   0.000
   31        0.000  -0.000   0.000  -0.000
   32        0.000  -0.000   0.000  -0.000
   33        0.000  -0.000   0.000  -0.000
   34        0.000   0.000   0.000   0.000
   35        0.000  -0.000   0.000  -0.000
   36        0.000  -0.000   0.000  -0.000
   37        0.000  -0.000   0.000  -0.000
   38        0.000  -0.000   0.000  -0.000
   39        0.000  -0.000   0.000  -0.000
   40        0.000   0.000   0.000   0.000
   41        0.000  -0.000   0.000  -0.000
   42        0.000  -0.000   0.000   0.000
   43        0.000  -0.000   0.000  -0.000
   44        0.000  -0.000   0.000   0.000
   45        0.000  -0.000   0.000   0.000
   46        0.000   0.000   0.000   0.000
   47        0.000  -0.000   0.000  -0.000
   48        0.000  -0.000   0.000  -0.000
   49        0.000  -0.000   0.000   0.000
   50        0.000  -0.000   0.000   0.000
   51        0.000  -0.000   0.000  -0.000
   52        0.000  -0.000   0.000  -0.000
   53        0.000  -0.000   0.000  -0.000
   54        0.000  -0.000   0.000  -0.000
   55        0.000  -0.000   0.000  -0.000
   56        0.000   0.000   0.000   0.000
   57        0.000  -0.000   0.000  -0.000
   58        0.000  -0.000   0.000  -0.000
   59        0.000  -0.000   0.000   0.000
   60        0.000   0.000   0.000   0.000
   61        0.000  -0.000   0.000  -0.000
   62        0.000   0.000   0.000   0.000
   63        0.000  -0.000   0.000  -0.000
   64        0.000  -0.000   0.000  -0.000
   65        0.000   0.000   0.000   0.000
   66        0.000   0.000   0.000   0.000
   67        0.000   0.000   0.000   0.000
   68        0.000   0.000   0.000   0.000
   69        0.000   0.000   0.000   0.000
   70        0.000   0.000   0.000   0.000
   71        0.000   0.000   0.000   0.000
   72        0.000   0.000   0.000   0.000
   73        0.000   0.000   0.000   0.000
   74        0.000   0.000   0.000   0.000
   75        0.000   0.000   0.000   0.000
   76        0.000   0.000   0.000   0.000
   77        0.000   0.000   0.000   0.000
   78        0.000   0.000   0.000   0.000
   79        0.000   0.000   0.000   0.000
   80        0.000   0.000   0.000   0.000
   81        0.000   0.000   0.000   0.000
   82        0.000   0.000   0.000   0.000
   83        0.000   0.000   0.000   0.000
   84        0.000   0.000   0.000   0.000
   85        0.000   0.000   0.000   0.000
   86        0.000   0.000   0.000   0.000
   87        0.000   0.000   0.000   0.000
   88        0.000   0.000   0.000   0.000
   89        0.000   0.000   0.000   0.000
   90        0.000   0.000   0.000   0.000
   91        0.000   0.000   0.000   0.000
   92        0.000   0.000   0.000   0.000
   93        0.000   0.000   0.000   0.000
   94        0.000   0.000   0.000   0.000
   95        0.000   0.000   0.000   0.000
   96        0.000   0.000   0.000   0.000
--------------------------------------------------
tot          0.000   0.000   0.000   0.000

 BZINTS: Fermi energy:    0.134297;  640.000000 electrons
         Band energy:-0.921577E+04;  BLOECHL correction:   -0.000000

 total amount of memory used by VASP MPI-rank0   760552. kBytes
=======================================================================

   base      :      30000. kBytes
   nonl-proj :     203726. kBytes
   fftplans  :      40183. kBytes
   grid      :      97291. kBytes
   one-center:        589. kBytes
   wavefun   :     388763. kBytes

  
  
 General timing and accounting informations for this job:
 ========================================================
  
                  Total CPU time used (sec):    18840.357
                            User time (sec):    18835.413
                          System time (sec):        4.945
                         Elapsed time (sec):    18847.610
  
                   Maximum memory used (kb):     1139868.
                   Average memory used (kb):          N/A
  
                          Minor page faults:      2018694
                          Major page faults:            0
                 Voluntary context switches:        23453
