  28  28   0   0
  0.2024833E+02  0.9789280E-09  0.9789281E-09  0.6662101E-09  0.5000000E-15
   1.0000000000000000E-004
  CAR 
 unknown system                          
     12.63439424    -23.08143146  301      1.81547537      1.00000000
    -23.081  0.0000E+00  0.0000E+00
    -22.962  0.0000E+00  0.0000E+00
    -22.843  0.0000E+00  0.0000E+00
    -22.724  0.0000E+00  0.0000E+00
    -22.605  0.0000E+00  0.0000E+00
    -22.486  0.0000E+00  0.0000E+00
    -22.367  0.0000E+00  0.0000E+00
    -22.248  0.0000E+00  0.0000E+00
    -22.129  0.0000E+00  0.0000E+00
    -22.010  0.0000E+00  0.0000E+00
    -21.891  0.0000E+00  0.0000E+00
    -21.772  0.0000E+00  0.0000E+00
    -21.653  0.4006E-08  0.4770E-09
    -21.534  0.6572E-02  0.7825E-03
    -21.415  0.8401E+00  0.1008E+00
    -21.296  0.1129E+01  0.2352E+00
    -21.177  0.1923E+00  0.2581E+00
    -21.058  0.1778E+01  0.4698E+00
    -20.938  0.8580E-01  0.4800E+00
    -20.819  0.7996E-06  0.4800E+00
    -20.700  0.0000E+00  0.4800E+00
    -20.581  0.0000E+00  0.4800E+00
    -20.462  0.0000E+00  0.4800E+00
    -20.343  0.0000E+00  0.4800E+00
    -20.224  0.0000E+00  0.4800E+00
    -20.105  0.0000E+00  0.4800E+00
    -19.986  0.0000E+00  0.4800E+00
    -19.867  0.0000E+00  0.4800E+00
    -19.748  0.0000E+00  0.4800E+00
    -19.629  0.0000E+00  0.4800E+00
    -19.510  0.0000E+00  0.4800E+00
    -19.391  0.0000E+00  0.4800E+00
    -19.272  0.0000E+00  0.4800E+00
    -19.153  0.0000E+00  0.4800E+00
    -19.034  0.0000E+00  0.4800E+00
    -18.915  0.0000E+00  0.4800E+00
    -18.796  0.0000E+00  0.4800E+00
    -18.676  0.0000E+00  0.4800E+00
    -18.557  0.0000E+00  0.4800E+00
    -18.438  0.0000E+00  0.4800E+00
    -18.319  0.0000E+00  0.4800E+00
    -18.200  0.0000E+00  0.4800E+00
    -18.081  0.0000E+00  0.4800E+00
    -17.962  0.0000E+00  0.4800E+00
    -17.843  0.0000E+00  0.4800E+00
    -17.724  0.0000E+00  0.4800E+00
    -17.605  0.0000E+00  0.4800E+00
    -17.486  0.0000E+00  0.4800E+00
    -17.367  0.0000E+00  0.4800E+00
    -17.248  0.0000E+00  0.4800E+00
    -17.129  0.0000E+00  0.4800E+00
    -17.010  0.0000E+00  0.4800E+00
    -16.891  0.0000E+00  0.4800E+00
    -16.772  0.0000E+00  0.4800E+00
    -16.653  0.0000E+00  0.4800E+00
    -16.534  0.0000E+00  0.4800E+00
    -16.414  0.0000E+00  0.4800E+00
    -16.295  0.0000E+00  0.4800E+00
    -16.176  0.0000E+00  0.4800E+00
    -16.057  0.0000E+00  0.4800E+00
    -15.938  0.0000E+00  0.4800E+00
    -15.819  0.0000E+00  0.4800E+00
    -15.700  0.0000E+00  0.4800E+00
    -15.581  0.0000E+00  0.4800E+00
    -15.462  0.0000E+00  0.4800E+00
    -15.343  0.0000E+00  0.4800E+00
    -15.224  0.0000E+00  0.4800E+00
    -15.105  0.0000E+00  0.4800E+00
    -14.986  0.0000E+00  0.4800E+00
    -14.867  0.0000E+00  0.4800E+00
    -14.748  0.0000E+00  0.4800E+00
    -14.629  0.0000E+00  0.4800E+00
    -14.510  0.0000E+00  0.4800E+00
    -14.391  0.0000E+00  0.4800E+00
    -14.272  0.0000E+00  0.4800E+00
    -14.152  0.0000E+00  0.4800E+00
    -14.033  0.0000E+00  0.4800E+00
    -13.914  0.0000E+00  0.4800E+00
    -13.795  0.0000E+00  0.4800E+00
    -13.676  0.0000E+00  0.4800E+00
    -13.557  0.0000E+00  0.4800E+00
    -13.438  0.0000E+00  0.4800E+00
    -13.319  0.0000E+00  0.4800E+00
    -13.200  0.0000E+00  0.4800E+00
    -13.081  0.0000E+00  0.4800E+00
    -12.962  0.0000E+00  0.4800E+00
    -12.843  0.0000E+00  0.4800E+00
    -12.724  0.0000E+00  0.4800E+00
    -12.605  0.0000E+00  0.4800E+00
    -12.486  0.0000E+00  0.4800E+00
    -12.367  0.0000E+00  0.4800E+00
    -12.248  0.0000E+00  0.4800E+00
    -12.129  0.0000E+00  0.4800E+00
    -12.010  0.0000E+00  0.4800E+00
    -11.890  0.0000E+00  0.4800E+00
    -11.771  0.0000E+00  0.4800E+00
    -11.652  0.0000E+00  0.4800E+00
    -11.533  0.0000E+00  0.4800E+00
    -11.414  0.0000E+00  0.4800E+00
    -11.295  0.0000E+00  0.4800E+00
    -11.176  0.0000E+00  0.4800E+00
    -11.057  0.1780E-08  0.4800E+00
    -10.938  0.5174E-03  0.4801E+00
    -10.819  0.1598E-01  0.4820E+00
    -10.700  0.7557E-01  0.4910E+00
    -10.581  0.1297E+00  0.5064E+00
    -10.462  0.1007E+00  0.5184E+00
    -10.343  0.1268E+00  0.5335E+00
    -10.224  0.2646E+00  0.5650E+00
    -10.105  0.2028E+00  0.5891E+00
     -9.986  0.2178E+00  0.6151E+00
     -9.867  0.2116E+00  0.6403E+00
     -9.748  0.1097E+00  0.6533E+00
     -9.628  0.3471E+00  0.6947E+00
     -9.509  0.2118E+00  0.7199E+00
     -9.390  0.9549E-03  0.7200E+00
     -9.271  0.3281E-09  0.7200E+00
     -9.152  0.0000E+00  0.7200E+00
     -9.033  0.0000E+00  0.7200E+00
     -8.914  0.0000E+00  0.7200E+00
     -8.795  0.0000E+00  0.7200E+00
     -8.676  0.0000E+00  0.7200E+00
     -8.557  0.0000E+00  0.7200E+00
     -8.438  0.0000E+00  0.7200E+00
     -8.319  0.0000E+00  0.7200E+00
     -8.200  0.0000E+00  0.7200E+00
     -8.081  0.0000E+00  0.7200E+00
     -7.962  0.0000E+00  0.7200E+00
     -7.843  0.0000E+00  0.7200E+00
     -7.724  0.0000E+00  0.7200E+00
     -7.605  0.0000E+00  0.7200E+00
     -7.486  0.0000E+00  0.7200E+00
     -7.366  0.0000E+00  0.7200E+00
     -7.247  0.0000E+00  0.7200E+00
     -7.128  0.0000E+00  0.7200E+00
     -7.009  0.0000E+00  0.7200E+00
     -6.890  0.0000E+00  0.7200E+00
     -6.771  0.0000E+00  0.7200E+00
     -6.652  0.0000E+00  0.7200E+00
     -6.533  0.0000E+00  0.7200E+00
     -6.414  0.0000E+00  0.7200E+00
     -6.295  0.0000E+00  0.7200E+00
     -6.176  0.0000E+00  0.7200E+00
     -6.057  0.0000E+00  0.7200E+00
     -5.938  0.0000E+00  0.7200E+00
     -5.819  0.0000E+00  0.7200E+00
     -5.700  0.0000E+00  0.7200E+00
     -5.581  0.0000E+00  0.7200E+00
     -5.462  0.0000E+00  0.7200E+00
     -5.343  0.0000E+00  0.7200E+00
     -5.224  0.0000E+00  0.7200E+00
     -5.104  0.0000E+00  0.7200E+00
     -4.985  0.0000E+00  0.7200E+00
     -4.866  0.1892E-09  0.7200E+00
     -4.747  0.6233E-03  0.7201E+00
     -4.628  0.3600E+00  0.7629E+00
     -4.509  0.1260E+01  0.9130E+00
     -4.390  0.1546E+01  0.1097E+01
     -4.271  0.1486E+01  0.1274E+01
     -4.152  0.1343E+01  0.1434E+01
     -4.033  0.6941E+00  0.1516E+01
     -3.914  0.2974E-01  0.1520E+01
     -3.795  0.3338E-05  0.1520E+01
     -3.676  0.2590E-13  0.1520E+01
     -3.557  0.0000E+00  0.1520E+01
     -3.438  0.1458E-11  0.1520E+01
     -3.319  0.2539E-04  0.1520E+01
     -3.200  0.1649E-01  0.1522E+01
     -3.081  0.4042E-01  0.1527E+01
     -2.962  0.4725E-01  0.1532E+01
     -2.842  0.1376E+00  0.1549E+01
     -2.723  0.8650E-01  0.1559E+01
     -2.604  0.1957E+00  0.1582E+01
     -2.485  0.1460E+00  0.1600E+01
     -2.366  0.9393E-01  0.1611E+01
     -2.247  0.1489E+00  0.1629E+01
     -2.128  0.1216E+00  0.1643E+01
     -2.009  0.8974E-01  0.1654E+01
     -1.890  0.5553E-01  0.1660E+01
     -1.771  0.7827E-01  0.1670E+01
     -1.652  0.5124E-01  0.1676E+01
     -1.533  0.6637E-01  0.1684E+01
     -1.414  0.7791E-01  0.1693E+01
     -1.295  0.9019E-01  0.1704E+01
     -1.176  0.1731E+00  0.1724E+01
     -1.057  0.1251E+00  0.1739E+01
     -0.938  0.7909E-01  0.1749E+01
     -0.819  0.1650E+00  0.1768E+01
     -0.700  0.1952E+00  0.1792E+01
     -0.580  0.1385E+00  0.1808E+01
     -0.461  0.2069E+00  0.1833E+01
     -0.342  0.1790E+00  0.1854E+01
     -0.223  0.1818E+00  0.1876E+01
     -0.104  0.2239E+00  0.1902E+01
      0.015  0.1716E+00  0.1923E+01
      0.134  0.2502E+00  0.1953E+01
      0.253  0.2232E+00  0.1979E+01
      0.372  0.2141E+00  0.2005E+01
      0.491  0.2393E+00  0.2033E+01
      0.610  0.2871E+00  0.2067E+01
      0.729  0.3171E+00  0.2105E+01
      0.848  0.3142E+00  0.2142E+01
      0.967  0.2215E+00  0.2169E+01
      1.086  0.2148E+00  0.2194E+01
      1.205  0.2065E+00  0.2219E+01
      1.324  0.1274E+00  0.2234E+01
      1.443  0.3565E-01  0.2238E+01
      1.562  0.1257E-01  0.2240E+01
      1.682  0.1342E-02  0.2240E+01
      1.801  0.2081E-07  0.2240E+01
      1.920  0.0000E+00  0.2240E+01
      2.039  0.0000E+00  0.2240E+01
      2.158  0.0000E+00  0.2240E+01
      2.277  0.0000E+00  0.2240E+01
      2.396  0.0000E+00  0.2240E+01
      2.515  0.0000E+00  0.2240E+01
      2.634  0.0000E+00  0.2240E+01
      2.753  0.0000E+00  0.2240E+01
      2.872  0.0000E+00  0.2240E+01
      2.991  0.0000E+00  0.2240E+01
      3.110  0.0000E+00  0.2240E+01
      3.229  0.0000E+00  0.2240E+01
      3.348  0.0000E+00  0.2240E+01
      3.467  0.1214E-09  0.2240E+01
      3.586  0.1628E-03  0.2240E+01
      3.705  0.1193E-01  0.2241E+01
      3.824  0.1905E-02  0.2242E+01
      3.944  0.5595E-07  0.2242E+01
      4.063  0.3419E-16  0.2242E+01
      4.182  0.0000E+00  0.2242E+01
      4.301  0.0000E+00  0.2242E+01
      4.420  0.4785E-13  0.2242E+01
      4.539  0.4623E-05  0.2242E+01
      4.658  0.1307E-01  0.2243E+01
      4.777  0.4960E-01  0.2249E+01
      4.896  0.5882E-01  0.2256E+01
      5.015  0.2215E-01  0.2259E+01
      5.134  0.1116E+00  0.2272E+01
      5.253  0.1665E+00  0.2292E+01
      5.372  0.1553E+00  0.2310E+01
      5.491  0.1156E+00  0.2324E+01
      5.610  0.1999E+00  0.2348E+01
      5.729  0.1106E+00  0.2361E+01
      5.848  0.1642E+00  0.2381E+01
      5.967  0.1753E+00  0.2402E+01
      6.086  0.1624E+00  0.2421E+01
      6.206  0.1106E+00  0.2434E+01
      6.325  0.8327E-01  0.2444E+01
      6.444  0.1544E+00  0.2462E+01
      6.563  0.1241E+00  0.2477E+01
      6.682  0.1030E+00  0.2489E+01
      6.801  0.1452E+00  0.2507E+01
      6.920  0.1661E+00  0.2526E+01
      7.039  0.1064E+00  0.2539E+01
      7.158  0.8820E-01  0.2550E+01
      7.277  0.1442E+00  0.2567E+01
      7.396  0.1653E+00  0.2586E+01
      7.515  0.1492E+00  0.2604E+01
      7.634  0.1364E+00  0.2620E+01
      7.753  0.2053E+00  0.2645E+01
      7.872  0.2436E+00  0.2674E+01
      7.991  0.9662E-01  0.2685E+01
      8.110  0.1084E+00  0.2698E+01
      8.229  0.1638E+00  0.2718E+01
      8.348  0.2577E+00  0.2748E+01
      8.468  0.2293E+00  0.2776E+01
      8.587  0.2531E+00  0.2806E+01
      8.706  0.2618E+00  0.2837E+01
      8.825  0.2011E+00  0.2861E+01
      8.944  0.2136E+00  0.2886E+01
      9.063  0.1788E+00  0.2908E+01
      9.182  0.1808E+00  0.2929E+01
      9.301  0.1744E+00  0.2950E+01
      9.420  0.1662E+00  0.2970E+01
      9.539  0.2285E+00  0.2997E+01
      9.658  0.1102E+00  0.3010E+01
      9.777  0.1398E+00  0.3027E+01
      9.896  0.1801E+00  0.3048E+01
     10.015  0.1809E+00  0.3070E+01
     10.134  0.1416E+00  0.3087E+01
     10.253  0.1892E+00  0.3109E+01
     10.372  0.1896E+00  0.3132E+01
     10.491  0.1291E+00  0.3147E+01
     10.610  0.9545E-01  0.3158E+01
     10.730  0.1233E+00  0.3173E+01
     10.849  0.1293E+00  0.3188E+01
     10.968  0.6937E-01  0.3197E+01
     11.087  0.2693E-01  0.3200E+01
     11.206  0.4498E-03  0.3200E+01
     11.325  0.5019E-09  0.3200E+01
     11.444  0.0000E+00  0.3200E+01
     11.563  0.0000E+00  0.3200E+01
     11.682  0.0000E+00  0.3200E+01
     11.801  0.0000E+00  0.3200E+01
     11.920  0.0000E+00  0.3200E+01
     12.039  0.0000E+00  0.3200E+01
     12.158  0.0000E+00  0.3200E+01
     12.277  0.0000E+00  0.3200E+01
     12.396  0.0000E+00  0.3200E+01
     12.515  0.0000E+00  0.3200E+01
     12.634  0.0000E+00  0.3200E+01
