       N       E                     dE             d eps       ncg     rms          rms(c)
DAV:   1     0.182850814089E+04    0.18285E+04   -0.90884E+04  1920   0.137E+03
DAV:   2     0.122294159575E+03   -0.17062E+04   -0.16327E+04  1920   0.378E+02
DAV:   3    -0.932252359157E+02   -0.21552E+03   -0.21268E+03  2304   0.134E+02
DAV:   4    -0.101762053026E+03   -0.85368E+01   -0.85106E+01  2304   0.278E+01
DAV:   5    -0.101971269680E+03   -0.20922E+00   -0.20919E+00  2400   0.430E+00    0.208E+01
DAV:   6    -0.951098568913E+02    0.68614E+01   -0.11889E+01  3040   0.410E+01    0.171E+01
DAV:   7    -0.950753002313E+02    0.34557E-01   -0.96960E+00  2304   0.707E+00    0.937E+00
DAV:   8    -0.950663067674E+02    0.89935E-02   -0.31665E-01  2240   0.281E+00    0.274E+00
DAV:   9    -0.950773160602E+02   -0.11009E-01   -0.73181E-02  2432   0.255E+00    0.582E-01
DAV:  10    -0.950793963566E+02   -0.20803E-02   -0.12646E-02  2336   0.105E+00    0.359E-01
DAV:  11    -0.950818395823E+02   -0.24432E-02   -0.50915E-03  2304   0.269E-01    0.133E-01
DAV:  12    -0.950826686206E+02   -0.82904E-03   -0.13409E-03  2272   0.228E-01    0.445E-02
DAV:  13    -0.950827130735E+02   -0.44453E-04   -0.23320E-04  2464   0.193E-01    0.359E-02
DAV:  14    -0.950827376706E+02   -0.24597E-04   -0.97351E-05  2272   0.481E-02    0.743E-03
DAV:  15    -0.950827405788E+02   -0.29082E-05   -0.21879E-05  2112   0.151E-02
   1 F= -.95082741E+02 E0= -.95082741E+02  d E =-.950827E+02
       N       E                     dE             d eps       ncg     rms          rms(c)
DAV:   1    -0.967178816919E+02   -0.16351E+01   -0.26143E+01  2496   0.330E+01    0.908E+00
DAV:   2    -0.954048767260E+02    0.13130E+01   -0.42804E+00  2432   0.149E+01    0.392E+00
DAV:   3    -0.952158778830E+02    0.18900E+00   -0.33317E-01  2272   0.177E+00    0.183E+00
DAV:   4    -0.951677494174E+02    0.48128E-01   -0.33023E-02  2624   0.633E-01    0.898E-01
DAV:   5    -0.951601731511E+02    0.75763E-02   -0.51416E-03  2944   0.484E-01    0.223E-01
DAV:   6    -0.951600110934E+02    0.16206E-03   -0.40940E-03  2304   0.288E-01    0.908E-02
DAV:   7    -0.951600305819E+02   -0.19488E-04   -0.30490E-04  2464   0.122E-01    0.629E-02
DAV:   8    -0.951600410785E+02   -0.10497E-04   -0.66800E-05  2112   0.919E-02    0.177E-02
DAV:   9    -0.951600356063E+02    0.54722E-05   -0.33593E-05  1856   0.372E-02
   2 F= -.95160036E+02 E0= -.95160036E+02  d E =-.772950E-01
       N       E                     dE             d eps       ncg     rms          rms(c)
DAV:   1    -0.951767914246E+02   -0.16750E-01   -0.25640E-01  2496   0.314E+00    0.923E-01
DAV:   2    -0.951633922724E+02    0.13399E-01   -0.46500E-02  2368   0.172E+00    0.389E-01
DAV:   3    -0.951615598542E+02    0.18324E-02   -0.32368E-03  2272   0.186E-01    0.174E-01
DAV:   4    -0.951611267007E+02    0.43315E-03   -0.41738E-04  2688   0.936E-02    0.102E-01
DAV:   5    -0.951610638129E+02    0.62888E-04   -0.76500E-05  2496   0.405E-02    0.280E-02
DAV:   6    -0.951610607512E+02    0.30617E-05   -0.27359E-05  1952   0.293E-02
   3 F= -.95161061E+02 E0= -.95161061E+02  d E =-.783202E-01
       N       E                     dE             d eps       ncg     rms          rms(c)
DAV:   1    -0.951613184496E+02   -0.25464E-03   -0.42797E-03  2496   0.409E-01    0.119E-01
DAV:   2    -0.951610864659E+02    0.23198E-03   -0.78135E-04  2496   0.222E-01    0.488E-02
DAV:   3    -0.951610576261E+02    0.28840E-04   -0.54904E-05  2208   0.248E-02    0.230E-02
DAV:   4    -0.951610525791E+02    0.50470E-05   -0.61677E-06  1152   0.165E-02
   4 F= -.95161053E+02 E0= -.95161053E+02  d E =-.783120E-01
       N       E                     dE             d eps       ncg     rms          rms(c)
DAV:   1    -0.951611645987E+02   -0.10697E-03   -0.16906E-03  2496   0.258E-01    0.765E-02
DAV:   2    -0.951610800297E+02    0.84569E-04   -0.30795E-04  2368   0.138E-01    0.324E-02
DAV:   3    -0.951610666212E+02    0.13409E-04   -0.19597E-05  1280   0.182E-02    0.136E-02
DAV:   4    -0.951610621981E+02    0.44231E-05   -0.49585E-06   960   0.178E-02
   5 F= -.95161062E+02 E0= -.95161062E+02  d E =-.783216E-01
       N       E                     dE             d eps       ncg     rms          rms(c)
DAV:   1    -0.951610827146E+02   -0.16093E-04   -0.42718E-04  2592   0.129E-01    0.391E-02
DAV:   2    -0.951610597127E+02    0.23002E-04   -0.75024E-05  1472   0.688E-02    0.160E-02
DAV:   3    -0.951610574793E+02    0.22334E-05   -0.64401E-06  1120   0.102E-02
   6 F= -.95161057E+02 E0= -.95161057E+02  d E =-.783169E-01
       N       E                     dE             d eps       ncg     rms          rms(c)
DAV:   1    -0.951610623682E+02   -0.26555E-05   -0.69783E-05  1664   0.528E-02    0.153E-02
DAV:   2    -0.951610602144E+02    0.21538E-05   -0.11989E-05   960   0.280E-02
   7 F= -.95161060E+02 E0= -.95161060E+02  d E =-.783196E-01
       N       E                     dE             d eps       ncg     rms          rms(c)
DAV:   1    -0.951702376742E+02   -0.91753E-02   -0.47848E-01  2240   0.245E+00    0.696E-01
DAV:   2    -0.951660374153E+02    0.42003E-02   -0.43389E-02  2560   0.120E+00    0.266E-01
DAV:   3    -0.951652193027E+02    0.81811E-03   -0.29255E-03  2240   0.186E-01    0.143E-01
DAV:   4    -0.951648598262E+02    0.35948E-03   -0.45616E-04  2432   0.869E-02    0.580E-02
DAV:   5    -0.951648345623E+02    0.25264E-04   -0.96729E-05  2272   0.578E-02    0.289E-02
DAV:   6    -0.951648303270E+02    0.42353E-05   -0.22669E-05  1920   0.430E-02
   8 F= -.95164830E+02 E0= -.95164830E+02  d E =-.377011E-02
       N       E                     dE             d eps       ncg     rms          rms(c)
DAV:   1    -0.951697004948E+02   -0.48659E-02   -0.31071E-01  2240   0.197E+00    0.560E-01
DAV:   2    -0.951669895466E+02    0.27109E-02   -0.28010E-02  2560   0.964E-01    0.213E-01
DAV:   3    -0.951664602564E+02    0.52929E-03   -0.19052E-03  2240   0.151E-01    0.115E-01
DAV:   4    -0.951662263121E+02    0.23394E-03   -0.30291E-04  2464   0.753E-02    0.469E-02
DAV:   5    -0.951662091337E+02    0.17178E-04   -0.62518E-05  2240   0.518E-02    0.237E-02
DAV:   6    -0.951662058760E+02    0.32577E-05   -0.14314E-05  1600   0.342E-02
   9 F= -.95166206E+02 E0= -.95166206E+02  d E =-.514566E-02
