 vasp.6.3.2 27Jun22 (build Mar 25 2024 10:42:18) complex                         
 executed on             LinuxGNU date 2024.03.31  09:58:50
 running on   32 total cores
 distrk:  each k-point on   32 cores,    1 groups
 distr:  one band on NCORE=   1 cores,   32 groups


--------------------------------------------------------------------------------------------------------


 INCAR:
   ISTART = 0
   ICHARG = 2
   PREC = Accurate
   IBRION = -1
   EDIFF = 0.000000001
   EDIFFG = -0.0005
   NSW = 0
   NELM = 100
   ENCUT = 520
   ISMEAR = -5
   SIGMA = 0.05
   ISPIN = 2
   ISYM = 0
   LWAVE = False
   LCHARG = False
   LASPH = True
   LORBIT = 11
   ADDGRID = TRUE

 POTCAR:    PAW_PBE S 06Sep2000                   
 -----------------------------------------------------------------------------
|                                                                             |
|           W    W    AA    RRRRR   N    N  II  N    N   GGGG   !!!           |
|           W    W   A  A   R    R  NN   N  II  NN   N  G    G  !!!           |
|           W    W  A    A  R    R  N N  N  II  N N  N  G       !!!           |
|           W WW W  AAAAAA  RRRRR   N  N N  II  N  N N  G  GGG   !            |
|           WW  WW  A    A  R   R   N   NN  II  N   NN  G    G                |
|           W    W  A    A  R    R  N    N  II  N    N   GGGG   !!!           |
|                                                                             |
|     You use a magnetic or noncollinear calculation, but did not specify     |
|     the initial magnetic moment with the MAGMOM tag. Note that a            |
|     default of 1 will be used for all atoms. This ferromagnetic setup       |
|     may break the symmetry of the crystal, in particular it may rule        |
|     out finding an antiferromagnetic solution. Thence, we recommend         |
|     setting the initial magnetic moment manually or verifying carefully     |
|     that this magnetic setup is desired.                                    |
|                                                                             |
 -----------------------------------------------------------------------------

 -----------------------------------------------------------------------------
|                                                                             |
|           W    W    AA    RRRRR   N    N  II  N    N   GGGG   !!!           |
|           W    W   A  A   R    R  NN   N  II  NN   N  G    G  !!!           |
|           W    W  A    A  R    R  N N  N  II  N N  N  G       !!!           |
|           W WW W  AAAAAA  RRRRR   N  N N  II  N  N N  G  GGG   !            |
|           WW  WW  A    A  R   R   N   NN  II  N   NN  G    G                |
|           W    W  A    A  R    R  N    N  II  N    N   GGGG   !!!           |
|                                                                             |
|     For optimal performance we recommend to set                             |
|       NCORE = 2 up to number-of-cores-per-socket                            |
|     NCORE specifies how many cores store one orbital (NPAR=cpu/NCORE).      |
|     This setting can greatly improve the performance of VASP for DFT.       |
|     The default, NCORE=1 might be grossly inefficient on modern             |
|     multi-core architectures or massively parallel machines. Do your        |
|     own testing! More info at https://www.vasp.at/wiki/index.php/NCORE      |
|     Unfortunately you need to use the default for GW and RPA                |
|     calculations (for HF NCORE is supported but not extensively tested      |
|     yet).                                                                   |
|                                                                             |
 -----------------------------------------------------------------------------

 POTCAR:    PAW_PBE S 06Sep2000                   
   SHA256 =  0fc7481fb0695f01bdc6462160264c5c84044ae9ec85a907d398b887a2bc3132 S/POTCAR              
   COPYR  = (c) Copyright 06Sep2000 Georg Kresse                                                    
   COPYR  = This file is part of the software VASP. Any use, copying, and all other rights are regul
   COPYR  = If you do not have a valid VASP license, you may not use, copy or distribute this file. 
   VRHFIN =S : s2p4                                                                                 
   LEXCH  = PE                                                                                      
   EATOM  =   276.8230 eV,   20.3459 Ry                                                             
                                                                                                    
   TITEL  = PAW_PBE S 06Sep2000                                                                     
   LULTRA =        F    use ultrasoft PP ?                                                          
   IUNSCR =        1    unscreen: 0-lin 1-nonlin 2-no                                               
   RPACOR =    1.500    partial core radius                                                         
   POMASS =   32.066; ZVAL   =    6.000    mass and valenz                                          
   RCORE  =    1.900    outmost cutoff radius                                                       
   RWIGS  =    2.200; RWIGS  =    1.164    wigner-seitz radius (au A)                               
   ENMAX  =  258.689; ENMIN  =  194.016 eV                                                          
   ICORE  =        2    local potential                                                             
   LCOR   =        T    correct aug charges                                                         
   LPAW   =        T    paw PP                                                                      
   EAUG   =  335.092                                                                                
   DEXC   =    0.000                                                                                
   RMAX   =    1.942    core radius for proj-oper                                                   
   RAUG   =    1.300    factor for augmentation sphere                                              
   RDEP   =    1.954    radius for radial grids                                                     
   RDEPT  =    1.744    core radius for aug-charge                                                  
                                                                                                    
   Atomic configuration                                                                             
    6 entries                                                                                       
     n  l   j            E        occ.                                                              
     1  0  0.50     -2405.8406   2.0000                                                             
     2  0  0.50      -211.7007   2.0000                                                             
     2  1  1.50      -156.4958   6.0000                                                             
     3  0  0.50       -17.2562   2.0000                                                             
     3  1  0.50        -7.0085   4.0000                                                             
     3  2  1.50        -6.8029   0.0000                                                             
   Description                                                                                      
     l       E           TYP  RCUT    TYP  RCUT                                                     
     0    -17.2561641     23  1.900                                                                 
     0    -15.8743224     23  1.900                                                                 
     1     -7.0085400     23  1.900                                                                 
     1     -2.7779785     23  1.900                                                                 
     2     -6.8029130     23  1.900                                                                 
  local pseudopotential read in
  partial core-charges read in
  partial kinetic energy density read in
  atomic valenz-charges read in
  non local Contribution for L=           0  read in
    real space projection operators read in
  non local Contribution for L=           0  read in
    real space projection operators read in
  non local Contribution for L=           1  read in
    real space projection operators read in
  non local Contribution for L=           1  read in
    real space projection operators read in
    PAW grid and wavefunctions read in

   number of l-projection  operators is LMAX  =           4
   number of lm-projection operators is LMMAX =           8

 -----------------------------------------------------------------------------
|                                                                             |
|               ----> ADVICE to this user running VASP <----                  |
|                                                                             |
|     You have a (more or less) 'large supercell' and for larger cells it     |
|     might be more efficient to use real-space projection operators.         |
|     Therefore, try LREAL= Auto in the INCAR file.                           |
|     Mind: For very accurate calculation, you might also keep the            |
|     reciprocal projection scheme (i.e. LREAL=.FALSE.).                      |
|                                                                             |
 -----------------------------------------------------------------------------

  PAW_PBE S 06Sep2000                   :
 energy of atom  1       EATOM= -276.8230
 kinetic energy error for atom=    0.0016 (will be added to EATOM!!)


 POSCAR: generated by phonopy
  positions in direct lattice
  No initial velocities read in
 exchange correlation table for  LEXCH =        8
   RHO(1)=    0.500       N(1)  =     2000
   RHO(2)=  100.500       N(2)  =     4000



--------------------------------------------------------------------------------------------------------


 ion  position               nearest neighbor table
   1  0.886  0.466  0.678-  45 1.98  24 2.14
   2  0.886  0.967  0.678-  46 1.98  23 2.13
   3  0.330  0.189  0.551-  41 2.05  19 2.13
   4  0.330  0.689  0.551-  42 2.05  20 2.13
   5  0.913  0.105  0.912-  51 1.98  11 2.13
   6  0.913  0.605  0.912-  52 1.98  12 2.13
   7  0.240  0.301  0.777-  19 1.98  37 2.23
   8  0.240  0.801  0.777-  20 1.98  38 2.23
   9  0.144  0.306  0.224-  31 2.05  39 2.13
  10  0.144  0.806  0.224-  32 2.05  40 2.13
  11  0.856  0.194  0.776-  47 2.05   5 2.13
  12  0.856  0.694  0.776-  48 2.05   6 2.13
  13  0.760  0.199  0.223-  27 1.98  33 2.23
  14  0.760  0.699  0.223-  28 1.98  34 2.23
  15  0.170  0.439  0.449-  31 2.05  30 2.13
  16  0.170  0.939  0.449-  32 2.05  29 2.13
  17  0.413  0.145  0.912-  37 1.98  43 2.13
  18  0.413  0.645  0.912-  38 1.98  44 2.13
  19  0.386  0.283  0.678-   7 1.98   3 2.13
  20  0.386  0.783  0.678-   8 1.98   4 2.13
  21  0.644  0.444  0.224-  53 2.05  35 2.13
  22  0.644  0.944  0.224-  54 2.05  36 2.13
  23  0.830  0.061  0.551-  47 2.05   2 2.13
  24  0.830  0.561  0.551-  48 2.05   1 2.14
  25  0.260  0.051  0.223-  29 1.98  50 2.23
  26  0.260  0.551  0.223-  30 1.98  49 2.23
  27  0.614  0.217  0.322-  13 1.98  55 2.13
  28  0.614  0.717  0.322-  14 1.98  56 2.13
  29  0.114  0.033  0.322-  25 1.98  16 2.13
  30  0.114  0.533  0.322-  26 1.98  15 2.13
  31  0.060  0.345  0.374-   9 2.05  15 2.05
  32  0.060  0.845  0.374-  10 2.05  16 2.05
  33  0.743  0.289  0.071-  35 1.98  13 2.23
  34  0.743  0.789  0.071-  36 1.98  14 2.23
  35  0.587  0.355  0.088-  33 1.98  21 2.13
  36  0.587  0.855  0.088-  34 1.98  22 2.13
  37  0.257  0.211  0.929-  17 1.98   7 2.23
  38  0.257  0.711  0.929-  18 1.98   8 2.23
  39  0.087  0.395  0.088-  49 1.98   9 2.13
  40  0.087  0.895  0.088-  50 1.98  10 2.13
  41  0.440  0.095  0.626-  43 2.05   3 2.05
  42  0.440  0.595  0.626-  44 2.05   4 2.05
  43  0.356  0.056  0.776-  41 2.05  17 2.13
  44  0.356  0.556  0.776-  42 2.05  18 2.13
  45  0.740  0.449  0.777-   1 1.98  52 2.23
  46  0.740  0.949  0.777-   2 1.98  51 2.23
  47  0.940  0.155  0.626-  11 2.05  23 2.05
  48  0.940  0.655  0.626-  12 2.05  24 2.05
  49  0.243  0.461  0.071-  39 1.98  26 2.23
  50  0.243  0.961  0.071-  40 1.98  25 2.23
  51  0.757  0.039  0.929-   5 1.98  46 2.23
  52  0.757  0.539  0.929-   6 1.98  45 2.23
  53  0.560  0.405  0.374-  21 2.05  55 2.05
  54  0.560  0.905  0.374-  22 2.05  56 2.05
  55  0.670  0.311  0.449-  53 2.05  27 2.13
  56  0.670  0.811  0.449-  54 2.05  28 2.13


IMPORTANT INFORMATION: All symmetrisations will be switched off!
NOSYMM: (Re-)initialisation of all symmetry stuff for point group C_1.


----------------------------------------------------------------------------------------

                                     Primitive cell                                     

  volume of cell :    1863.6770

  direct lattice vectors                    reciprocal lattice vectors
     0.000000000 10.307367086 -0.372855731     0.000000000  0.096453423 -0.015606996
    16.788494411  0.000000000  0.000000000     0.059564603  0.000000000  0.000000000
     0.000000000 -1.732519801-10.707215182     0.000000000 -0.003358783 -0.092851486

  length of vectors
    10.314108670 16.788494411 10.846477853     0.097707938  0.059564603  0.092912216

  position of ions in fractional coordinates (direct lattice)
     0.886423141  0.466409105  0.678126386
     0.886423141  0.967004751  0.678126386
     0.329563264  0.188743823  0.550707721
     0.329563264  0.688743823  0.550707721
     0.912671285  0.105241885  0.911960471
     0.912671285  0.605241885  0.911960471
     0.239736405  0.300831047  0.776574189
     0.239736405  0.800831047  0.776574189
     0.144417516  0.305688762  0.224396680
     0.144417516  0.805688762  0.224396680
     0.855582484  0.194311238  0.775603320
     0.855582484  0.694311238  0.775603320
     0.760263595  0.199168953  0.223425811
     0.760263595  0.699168953  0.223425811
     0.170436736  0.438743823  0.449292279
     0.170436736  0.938743823  0.449292279
     0.412671285  0.144758115  0.911960471
     0.412671285  0.644758115  0.911960471
     0.386423141  0.282995249  0.678126386
     0.386423141  0.782995249  0.678126386
     0.644417516  0.444311238  0.224396680
     0.644417516  0.944311238  0.224396680
     0.829563264  0.061256177  0.550707721
     0.829563264  0.561256177  0.550707721
     0.260263595  0.050831047  0.223425811
     0.260263595  0.550831047  0.223425811
     0.613576859  0.217004751  0.321873614
     0.613576859  0.717004751  0.321873614
     0.113576859  0.032995249  0.321873614
     0.113576859  0.532995249  0.321873614
     0.059895700  0.345087734  0.374484367
     0.059895700  0.845087734  0.374484367
     0.743425210  0.289344343  0.071165234
     0.743425210  0.789344343  0.071165234
     0.587328715  0.355241885  0.088039529
     0.587328715  0.855241885  0.088039529
     0.256574790  0.210655657  0.928834766
     0.256574790  0.710655657  0.928834766
     0.087328715  0.394758115  0.088039529
     0.087328715  0.894758115  0.088039529
     0.440104300  0.095087734  0.625515633
     0.440104300  0.595087734  0.625515633
     0.355582484  0.055688762  0.775603320
     0.355582484  0.555688762  0.775603320
     0.739736405  0.449168953  0.776574189
     0.739736405  0.949168953  0.776574189
     0.940104300  0.154912266  0.625515633
     0.940104300  0.654912266  0.625515633
     0.243425210  0.460655657  0.071165234
     0.243425210  0.960655657  0.071165234
     0.756574790  0.039344343  0.928834766
     0.756574790  0.539344343  0.928834766
     0.559895700  0.404912266  0.374484367
     0.559895700  0.904912266  0.374484367
     0.670436736  0.311256177  0.449292279
     0.670436736  0.811256177  0.449292279

  ion indices of the primitive-cell ions
   primitive index   ion index
                 1           1
                 2           2
                 3           3
                 4           4
                 5           5
                 6           6
                 7           7
                 8           8
                 9           9
                10          10
                11          11
                12          12
                13          13
                14          14
                15          15
                16          16
                17          17
                18          18
                19          19
                20          20
                21          21
                22          22
                23          23
                24          24
                25          25
                26          26
                27          27
                28          28
                29          29
                30          30
                31          31
                32          32
                33          33
                34          34
                35          35
                36          36
                37          37
                38          38
                39          39
                40          40
                41          41
                42          42
                43          43
                44          44
                45          45
                46          46
                47          47
                48          48
                49          49
                50          50
                51          51
                52          52
                53          53
                54          54
                55          55
                56          56

----------------------------------------------------------------------------------------



 KPOINTS: pymatgen with grid density = 595 / numbe

Automatic generation of k-mesh.
 Grid dimensions read from file:
 generate k-points for:    2    2    2

 Generating k-lattice:

  Cartesian coordinates                     Fractional coordinates (reciprocal lattice)
     0.000000000  0.048226712 -0.007803498     0.500000000  0.000000000 -0.000000000
     0.029782301  0.000000000  0.000000000     0.000000000  0.500000000  0.000000000
     0.000000000 -0.001679391 -0.046425743    -0.000000000  0.000000000  0.500000000

  Length of vectors
     0.048853969  0.029782301  0.046456108

  Shift w.r.t. Gamma in fractional coordinates (k-lattice)
     0.000000000  0.000000000  0.000000000

 TETIRR: Found     24 inequivalent tetrahedra from       48
 
 Subroutine IBZKPT returns following result:
 ===========================================
 
 Found      8 irreducible k-points:
 
 Following reciprocal coordinates:
            Coordinates               Weight
  0.000000  0.000000  0.000000      1.000000
  0.500000  0.000000  0.000000      1.000000
  0.000000  0.500000  0.000000      1.000000
  0.500000  0.500000  0.000000      1.000000
  0.000000  0.000000  0.500000      1.000000
  0.500000  0.000000  0.500000      1.000000
  0.000000  0.500000  0.500000      1.000000
  0.500000  0.500000  0.500000      1.000000
 
 Following cartesian coordinates:
            Coordinates               Weight
  0.000000  0.000000 -0.000000      1.000000
  0.000000  0.048227 -0.007803      1.000000
  0.029782  0.000000 -0.000000      1.000000
  0.029782  0.048227 -0.007803      1.000000
  0.000000 -0.001679 -0.046426      1.000000
  0.000000  0.046547 -0.054229      1.000000
  0.029782 -0.001679 -0.046426      1.000000
  0.029782  0.046547 -0.054229      1.000000
 


--------------------------------------------------------------------------------------------------------




 Dimension of arrays:
   k-points           NKPTS =      8   k-points in BZ     NKDIM =      8   number of bands    NBANDS=    256
   number of dos      NEDOS =    301   number of ions     NIONS =     56
   non local maximal  LDIM  =      4   non local SUM 2l+1 LMDIM =      8
   total plane-waves  NPLWV = 846720
   max r-space proj   IRMAX =      1   max aug-charges    IRDMAX= 114695
   dimension x,y,z NGX =    80 NGY =  126 NGZ =   84
   dimension x,y,z NGXF=   160 NGYF=  252 NGZF=  168
   support grid    NGXF=   320 NGYF=  504 NGZF=  336
   ions per type =              56
   NGX,Y,Z   is equivalent  to a cutoff of  12.89, 12.48, 12.87 a.u.
   NGXF,Y,Z  is equivalent  to a cutoff of  25.79, 24.95, 25.75 a.u.

 SYSTEM =  unknown system                          
 POSCAR =  generated by phonopy                    

 Startparameter for this run:
   NWRITE =      2    write-flag & timer
   PREC   = accura    normal or accurate (medium, high low for compatibility)
   ISTART =      0    job   : 0-new  1-cont  2-samecut
   ICHARG =      2    charge: 1-file 2-atom 10-const
   ISPIN  =      2    spin polarized calculation?
   LNONCOLLINEAR =      F non collinear calculations
   LSORBIT =      F    spin-orbit coupling
   INIWAV =      1    electr: 0-lowe 1-rand  2-diag
   LASPH  =      T    aspherical Exc in radial PAW
 Electronic Relaxation 1
   ENCUT  =  520.0 eV  38.22 Ry    6.18 a.u.  19.18 31.22 20.17*2*pi/ulx,y,z
   ENINI  =  520.0     initial cutoff
   ENAUG  =  335.1 eV  augmentation charge cutoff
   NELM   =    100;   NELMIN=  2; NELMDL= -5     # of ELM steps 
   EDIFF  = 0.1E-08   stopping-criterion for ELM
   LREAL  =      F    real-space projection
   NLSPLINE    = F    spline interpolate recip. space projectors
   LCOMPAT=      F    compatible to vasp.4.4
   GGA_COMPAT  = T    GGA compatible to vasp.4.4-vasp.4.6
   LMAXPAW     = -100 max onsite density
   LMAXMIX     =    2 max onsite mixed and CHGCAR
   VOSKOWN=      0    Vosko Wilk Nusair interpolation
   ROPT   =    0.00000
 Ionic relaxation
   EDIFFG = -.5E-03   stopping-criterion for IOM
   NSW    =      0    number of steps for IOM
   NBLOCK =      1;   KBLOCK =      1    inner block; outer block 
   IBRION =     -1    ionic relax: 0-MD 1-quasi-New 2-CG
   NFREE  =      0    steps in history (QN), initial steepest desc. (CG)
   ISIF   =      2    stress and relaxation
   IWAVPR =     10    prediction:  0-non 1-charg 2-wave 3-comb
   ISYM   =      0    0-nonsym 1-usesym 2-fastsym
   LCORR  =      T    Harris-Foulkes like correction to forces

   POTIM  = 0.5000    time-step for ionic-motion
   TEIN   =    0.0    initial temperature
   TEBEG  =    0.0;   TEEND  =   0.0 temperature during run
   SMASS  =  -3.00    Nose mass-parameter (am)
   estimated Nose-frequenzy (Omega)   =  0.10E-29 period in steps = 0.13E+47 mass=  -0.243E-26a.u.
   SCALEE = 1.0000    scale energy and forces
   NPACO  =    256;   APACO  = 10.0  distance and # of slots for P.C.
   PSTRESS=    0.0 pullay stress

  Mass of Ions in am
   POMASS =  32.07
  Ionic Valenz
   ZVAL   =   6.00
  Atomic Wigner-Seitz radii
   RWIGS  =  -1.00
  virtual crystal weights 
   VCA    =   1.00
   NELECT =     336.0000    total number of electrons
   NUPDOWN=      -1.0000    fix difference up-down

 DOS related values:
   EMIN   =  10.00;   EMAX   =-10.00  energy-range for DOS
   EFERMI =   0.00
   ISMEAR =    -5;   SIGMA  =   0.05  broadening in eV -4-tet -1-fermi 0-gaus

 Electronic relaxation 2 (details)
   IALGO  =     38    algorithm
   LDIAG  =      T    sub-space diagonalisation (order eigenvalues)
   LSUBROT=      F    optimize rotation matrix (better conditioning)
   TURBO    =      0    0=normal 1=particle mesh
   IRESTART =      0    0=no restart 2=restart with 2 vectors
   NREBOOT  =      0    no. of reboots
   NMIN     =      0    reboot dimension
   EREF     =   0.00    reference energy to select bands
   IMIX   =      4    mixing-type and parameters
     AMIX     =   0.40;   BMIX     =  1.00
     AMIX_MAG =   1.60;   BMIX_MAG =  1.00
     AMIN     =   0.10
     WC   =   100.;   INIMIX=   1;  MIXPRE=   1;  MAXMIX= -45

 Intra band minimization:
   WEIMIN = 0.0000     energy-eigenvalue tresh-hold
   EBREAK =  0.98E-12  absolut break condition
   DEPER  =   0.30     relativ break condition  

   TIME   =   0.40     timestep for ELM

  volume/ion in A,a.u.               =      33.28       224.58
  Fermi-wavevector in a.u.,A,eV,Ry     =   0.924835  1.747685 11.637339  0.855320
  Thomas-Fermi vector in A             =   2.050624

 Write flags
   LWAVE        =      F    write WAVECAR
   LDOWNSAMPLE  =      F    k-point downsampling of WAVECAR
   LCHARG       =      F    write CHGCAR
   LVTOT        =      F    write LOCPOT, total local potential
   LVHAR        =      F    write LOCPOT, Hartree potential only
   LELF         =      F    write electronic localiz. function (ELF)
   LORBIT       =     11    0 simple, 1 ext, 2 COOP (PROOUT), +10 PAW based schemes


 Dipole corrections
   LMONO  =      F    monopole corrections only (constant potential shift)
   LDIPOL =      F    correct potential (dipole corrections)
   IDIPOL =      0    1-x, 2-y, 3-z, 4-all directions 
   EPSILON=  1.0000000 bulk dielectric constant

 Exchange correlation treatment:
   GGA     =    --    GGA type
   LEXCH   =     8    internal setting for exchange type
   LIBXC   =     F    Libxc                    
   VOSKOWN =     0    Vosko Wilk Nusair interpolation
   LHFCALC =     F    Hartree Fock is set to
   LHFONE  =     F    Hartree Fock one center treatment
   AEXX    =    0.0000 exact exchange contribution

 Linear response parameters
   LEPSILON=     F    determine dielectric tensor
   LRPA    =     F    only Hartree local field effects (RPA)
   LNABLA  =     F    use nabla operator in PAW spheres
   LVEL    =     F    velocity operator in full k-point grid
   CSHIFT  =0.1000    complex shift for real part using Kramers Kronig
   OMEGAMAX=  -1.0    maximum frequency
   DEG_THRESHOLD= 0.2000000E-02 threshold for treating states as degnerate
   RTIME   =   -0.100 relaxation time in fs
  (WPLASMAI=    0.000 imaginary part of plasma frequency in eV, 0.658/RTIME)
   DFIELD  = 0.0000000 0.0000000 0.0000000 field for delta impulse in time

  Optional k-point grid parameters
   LKPOINTS_OPT  =     F    use optional k-point grid
   KPOINTS_OPT_MODE=     1    mode for optional k-point grid

 Orbital magnetization related:
   ORBITALMAG=     F  switch on orbital magnetization
   LCHIMAG   =     F  perturbation theory with respect to B field
   DQ        =  0.001000  dq finite difference perturbation B field
   LLRAUG    =     F  two centre corrections for induced B field



--------------------------------------------------------------------------------------------------------


 Static calculation
 charge density and potential will be updated during run
 spin polarized calculation
 Variant of blocked Davidson
 Davidson routine will perform the subspace rotation
 perform sub-space diagonalisation
    after iterative eigenvector-optimisation
 modified Broyden-mixing scheme, WC =      100.0
 initial mixing is a Kerker type mixing with AMIX =  0.4000 and BMIX =      1.0000
 Hartree-type preconditioning will be used
 using additional bands           88
 reciprocal scheme for non local part
 use partial core corrections
 calculate Harris-corrections to forces   (improved forces if not selfconsistent)
 use gradient corrections 
 use of overlap-Matrix (Vanderbilt PP)
 Fermi weights with tetrahedron method with Bloechl corrections


--------------------------------------------------------------------------------------------------------


  energy-cutoff  :      520.00
  volume of cell :     1863.68
      direct lattice vectors                 reciprocal lattice vectors
     0.000000000 10.307367086 -0.372855731     0.000000000  0.096453423 -0.015606996
    16.788494411  0.000000000  0.000000000     0.059564603  0.000000000  0.000000000
     0.000000000 -1.732519801-10.707215182     0.000000000 -0.003358783 -0.092851486

  length of vectors
    10.314108670 16.788494411 10.846477853     0.097707938  0.059564603  0.092912216



 k-points in units of 2pi/SCALE and weight: pymatgen with grid density = 595 / numbe
   0.00000000  0.00000000 -0.00000000       0.125
   0.00000000  0.04822671 -0.00780350       0.125
   0.02978230  0.00000000 -0.00000000       0.125
   0.02978230  0.04822671 -0.00780350       0.125
   0.00000000 -0.00167939 -0.04642574       0.125
   0.00000000  0.04654732 -0.05422924       0.125
   0.02978230 -0.00167939 -0.04642574       0.125
   0.02978230  0.04654732 -0.05422924       0.125

 k-points in reciprocal lattice and weights: pymatgen with grid density = 595 / numbe
   0.00000000  0.00000000  0.00000000       0.125
   0.50000000  0.00000000  0.00000000       0.125
   0.00000000  0.50000000  0.00000000       0.125
   0.50000000  0.50000000  0.00000000       0.125
   0.00000000  0.00000000  0.50000000       0.125
   0.50000000  0.00000000  0.50000000       0.125
   0.00000000  0.50000000  0.50000000       0.125
   0.50000000  0.50000000  0.50000000       0.125

 position of ions in fractional coordinates (direct lattice) 
   0.88642314  0.46640911  0.67812639
   0.88642314  0.96700475  0.67812639
   0.32956326  0.18874382  0.55070772
   0.32956326  0.68874382  0.55070772
   0.91267129  0.10524188  0.91196047
   0.91267129  0.60524188  0.91196047
   0.23973640  0.30083105  0.77657419
   0.23973640  0.80083105  0.77657419
   0.14441752  0.30568876  0.22439668
   0.14441752  0.80568876  0.22439668
   0.85558248  0.19431124  0.77560332
   0.85558248  0.69431124  0.77560332
   0.76026360  0.19916895  0.22342581
   0.76026360  0.69916895  0.22342581
   0.17043674  0.43874382  0.44929228
   0.17043674  0.93874382  0.44929228
   0.41267129  0.14475812  0.91196047
   0.41267129  0.64475812  0.91196047
   0.38642314  0.28299525  0.67812639
   0.38642314  0.78299525  0.67812639
   0.64441752  0.44431124  0.22439668
   0.64441752  0.94431124  0.22439668
   0.82956326  0.06125618  0.55070772
   0.82956326  0.56125618  0.55070772
   0.26026360  0.05083105  0.22342581
   0.26026360  0.55083105  0.22342581
   0.61357686  0.21700475  0.32187361
   0.61357686  0.71700475  0.32187361
   0.11357686  0.03299525  0.32187361
   0.11357686  0.53299525  0.32187361
   0.05989570  0.34508773  0.37448437
   0.05989570  0.84508773  0.37448437
   0.74342521  0.28934434  0.07116523
   0.74342521  0.78934434  0.07116523
   0.58732871  0.35524188  0.08803953
   0.58732871  0.85524188  0.08803953
   0.25657479  0.21065566  0.92883477
   0.25657479  0.71065566  0.92883477
   0.08732871  0.39475812  0.08803953
   0.08732871  0.89475812  0.08803953
   0.44010430  0.09508773  0.62551563
   0.44010430  0.59508773  0.62551563
   0.35558248  0.05568876  0.77560332
   0.35558248  0.55568876  0.77560332
   0.73973640  0.44916895  0.77657419
   0.73973640  0.94916895  0.77657419
   0.94010430  0.15491227  0.62551563
   0.94010430  0.65491227  0.62551563
   0.24342521  0.46065566  0.07116523
   0.24342521  0.96065566  0.07116523
   0.75657479  0.03934434  0.92883477
   0.75657479  0.53934434  0.92883477
   0.55989570  0.40491227  0.37448437
   0.55989570  0.90491227  0.37448437
   0.67043674  0.31125618  0.44929228
   0.67043674  0.81125618  0.44929228

 position of ions in cartesian coordinates  (Angst):
   7.83030666  7.96182132 -7.59135308
  16.23455387  7.96182132 -7.59135308
   3.16872461  2.44281751 -6.01942562
  11.56297182  2.44281751 -6.01942562
   1.76685280  7.82724839-10.10485172
  10.16110000  7.82724839-10.10485172
   5.05050035  1.12562097 -8.40433404
  13.44474755  1.12562097 -8.40433404
   5.13205407  1.09979266 -2.45651044
  13.52630128  1.09979266 -2.45651044
   3.26219313  7.47505463 -8.62356047
  11.65644034  7.47505463 -8.62356047
   3.34374686  7.44922632 -2.67573688
  11.73799406  7.44922632 -2.67573688
   7.36584822  0.97834624 -4.87421742
  15.76009542  0.97834624 -4.87421742
   2.43027081  2.67356485 -9.91842386
  10.82451801  2.67356485 -9.91842386
   4.75106415  2.80813777 -7.40492521
  13.14531135  2.80813777 -7.40492521
   7.45931673  6.25347620 -2.64293831
  15.85356394  6.25347620 -2.64293831
   1.02839899  7.59650105 -6.20585349
   9.42264619  7.59650105 -6.20585349
   0.85337674  2.29554277 -2.48930901
   9.24762395  2.29554277 -2.48930901
   3.64318306  5.76670951 -3.67514570
  12.03743026  5.76670951 -3.67514570
   0.55394055  0.61302597 -3.48871783
   8.94818775  0.61302597 -3.48871783
   5.79350349 -0.03143461 -4.03201715
  14.18775070 -0.03143461 -4.03201715
   4.85765589  7.53946136 -1.03917182
  13.25190310  7.53946136 -1.03917182
   5.96397640  5.90128244 -1.16164705
  14.35822361  5.90128244 -1.16164705
   3.53659131  1.03538593-10.04089909
  11.93083852  1.03538593-10.04089909
   6.62739441  0.74759889 -0.97521919
  15.02164161  0.74759889 -0.97521919
   1.59637989  3.45259836 -6.86162589
   9.99062710  3.45259836 -6.86162589
   0.93493047  2.32137108 -8.43713261
   9.32917768  2.32137108 -8.43713261
   7.54087046  6.27930451 -8.59076190
  15.93511767  6.27930451 -8.59076190
   2.60074371  8.60628190 -7.04805376
  10.99499092  8.60628190 -7.04805376
   7.73371492  2.38577782 -0.85274396
  16.12796212  2.38577782 -0.85274396
   0.66053229  6.18906947-10.22732695
   9.05477950  6.18906947-10.22732695
   6.79786731  5.12224893 -4.21844502
  15.19211452  5.12224893 -4.21844502
   5.22552259  6.13202978 -5.06064529
  13.61976980  6.13202978 -5.06064529



--------------------------------------------------------------------------------------------------------


 k-point   1 :   0.0000 0.0000 0.0000  plane waves:   50179
 k-point   2 :   0.5000 0.0000 0.0000  plane waves:   50160
 k-point   3 :   0.0000 0.5000 0.0000  plane waves:   50162
 k-point   4 :   0.5000 0.5000 0.0000  plane waves:   50192
 k-point   5 :   0.0000 0.0000 0.5000  plane waves:   50190
 k-point   6 :   0.5000 0.0000 0.5000  plane waves:   50190
 k-point   7 :   0.0000 0.5000 0.5000  plane waves:   50172
 k-point   8 :   0.5000 0.5000 0.5000  plane waves:   50200

 maximum and minimum number of plane-waves per node :     50200    50160

 maximum number of plane-waves:     50200
 maximum index in each direction: 
   IXMAX=   19   IYMAX=   31   IZMAX=   20
   IXMIN=  -19   IYMIN=  -31   IZMIN=  -20


 serial   3D FFT for wavefunctions
 parallel 3D FFT for charge:
    minimum data exchange during FFTs selected (reduces bandwidth)


 total amount of memory used by VASP MPI-rank0   322725. kBytes
=======================================================================

   base      :      30000. kBytes
   nonl-proj :      70692. kBytes
   fftplans  :      34504. kBytes
   grid      :      83442. kBytes
   one-center:        344. kBytes
   wavefun   :     103743. kBytes

     INWAV:  cpu time      0.0000: real time      0.0002
 Broyden mixing: mesh for mixing (old mesh)
   NGX = 39   NGY = 63   NGZ = 41
  (NGX  =160   NGY  =252   NGZ  =168)
  gives a total of 100737 points

 initial charge density was supplied:
 charge density of overlapping atoms calculated
 number of electron     336.0000000 magnetization      56.0000000
 keeping initial charge density in first step


--------------------------------------------------------------------------------------------------------


 Maximum index for augmentation-charges         3947 (set IRDMAX)


--------------------------------------------------------------------------------------------------------


 First call to EWALD:  gamma=   0.144
 Maximum number of real-space cells 3x 2x 3
 Maximum number of reciprocal cells 2x 4x 2

    FEWALD:  cpu time      0.0024: real time      0.0024


--------------------------------------- Iteration      1(   1)  ---------------------------------------


    POTLOK:  cpu time      0.5113: real time      0.5218
    SETDIJ:  cpu time      6.9021: real time      6.9042
     EDDAV:  cpu time     56.2446: real time     56.2728
 BZINTS: Fermi energy:   10.166670;  336.000000 electrons
         Band energy: 0.225149E+03;  BLOECHL correction:   -0.008703
       DOS:  cpu time      0.0480: real time      0.0480
    --------------------------------------------
      LOOP:  cpu time     63.7060: real time     63.7469

 eigenvalue-minimisations  :  8192
 total energy-change (2. order) : 0.2106083E+04  (-0.1333790E+05)
 number of electron     336.0000000 magnetization      56.0000000
 augmentation part      336.0000000 magnetization      56.0000000

 Free energy of the ion-electron system (eV)
  ---------------------------------------------------
  alpha Z        PSCENC =       253.99581917
  Ewald energy   TEWEN  =     -9971.96889839
  -Hartree energ DENC   =     -4764.83982256
  -exchange      EXHF   =         0.00000000
  -V(xc)+E(xc)   XCENC  =       682.50012168
  PAW double counting   =     12174.71095765   -11995.46358648
  entropy T*S    EENTRO =         0.00000000
  eigenvalues    EBANDS =       225.14943113
  atomic energy  EATOM  =     15501.99929693
  Solvation  Ediel_sol  =         0.00000000
  ---------------------------------------------------
  free energy    TOTEN  =      2106.08331914 eV

  energy without entropy =     2106.08331914  energy(sigma->0) =     2106.08331914


--------------------------------------------------------------------------------------------------------




--------------------------------------- Iteration      1(   2)  ---------------------------------------


     EDDAV:  cpu time     61.9482: real time     62.1515
 BZINTS: Fermi energy:    1.451327;  336.000000 electrons
         Band energy:-0.187468E+04;  BLOECHL correction:    0.000000
       DOS:  cpu time      0.0297: real time      0.0298
    --------------------------------------------
      LOOP:  cpu time     61.9779: real time     62.1813

 eigenvalue-minimisations  : 10272
 total energy-change (2. order) :-0.2099829E+04  (-0.2021654E+04)
 number of electron     336.0000000 magnetization      56.0000000
 augmentation part      336.0000000 magnetization      56.0000000

 Free energy of the ion-electron system (eV)
  ---------------------------------------------------
  alpha Z        PSCENC =       253.99581917
  Ewald energy   TEWEN  =     -9971.96889839
  -Hartree energ DENC   =     -4764.83982256
  -exchange      EXHF   =         0.00000000
  -V(xc)+E(xc)   XCENC  =       682.50012168
  PAW double counting   =     12174.71095765   -11995.46358648
  entropy T*S    EENTRO =         0.00000000
  eigenvalues    EBANDS =     -1874.67911284
  atomic energy  EATOM  =     15501.99929693
  Solvation  Ediel_sol  =         0.00000000
  ---------------------------------------------------
  free energy    TOTEN  =         6.25477517 eV

  energy without entropy =        6.25477517  energy(sigma->0) =        6.25477517


--------------------------------------------------------------------------------------------------------




--------------------------------------- Iteration      1(   3)  ---------------------------------------


     EDDAV:  cpu time     64.4066: real time     64.4199
 BZINTS: Fermi energy:    0.219893;  336.000000 electrons
         Band energy:-0.209451E+04;  BLOECHL correction:    0.000000
       DOS:  cpu time      0.0273: real time      0.0274
    --------------------------------------------
      LOOP:  cpu time     64.4340: real time     64.4473

 eigenvalue-minimisations  : 10240
 total energy-change (2. order) :-0.2198342E+03  (-0.2171479E+03)
 number of electron     336.0000000 magnetization      56.0000000
 augmentation part      336.0000000 magnetization      56.0000000

 Free energy of the ion-electron system (eV)
  ---------------------------------------------------
  alpha Z        PSCENC =       253.99581917
  Ewald energy   TEWEN  =     -9971.96889839
  -Hartree energ DENC   =     -4764.83982256
  -exchange      EXHF   =         0.00000000
  -V(xc)+E(xc)   XCENC  =       682.50012168
  PAW double counting   =     12174.71095765   -11995.46358648
  entropy T*S    EENTRO =         0.00000000
  eigenvalues    EBANDS =     -2094.51333598
  atomic energy  EATOM  =     15501.99929693
  Solvation  Ediel_sol  =         0.00000000
  ---------------------------------------------------
  free energy    TOTEN  =      -213.57944797 eV

  energy without entropy =     -213.57944797  energy(sigma->0) =     -213.57944797


--------------------------------------------------------------------------------------------------------




--------------------------------------- Iteration      1(   4)  ---------------------------------------


     EDDAV:  cpu time     63.1598: real time     63.1889
 BZINTS: Fermi energy:    0.191630;  336.000000 electrons
         Band energy:-0.209942E+04;  BLOECHL correction:    0.000000
       DOS:  cpu time      0.0264: real time      0.0265
    --------------------------------------------
      LOOP:  cpu time     63.1862: real time     63.2154

 eigenvalue-minimisations  : 10400
 total energy-change (2. order) :-0.4902502E+01  (-0.4884167E+01)
 number of electron     336.0000000 magnetization      56.0000000
 augmentation part      336.0000000 magnetization      56.0000000

 Free energy of the ion-electron system (eV)
  ---------------------------------------------------
  alpha Z        PSCENC =       253.99581917
  Ewald energy   TEWEN  =     -9971.96889839
  -Hartree energ DENC   =     -4764.83982256
  -exchange      EXHF   =         0.00000000
  -V(xc)+E(xc)   XCENC  =       682.50012168
  PAW double counting   =     12174.71095765   -11995.46358648
  entropy T*S    EENTRO =         0.00000000
  eigenvalues    EBANDS =     -2099.41583776
  atomic energy  EATOM  =     15501.99929693
  Solvation  Ediel_sol  =         0.00000000
  ---------------------------------------------------
  free energy    TOTEN  =      -218.48194975 eV

  energy without entropy =     -218.48194975  energy(sigma->0) =     -218.48194975


--------------------------------------------------------------------------------------------------------




--------------------------------------- Iteration      1(   5)  ---------------------------------------


     EDDAV:  cpu time     67.2278: real time     67.2464
 BZINTS: Fermi energy:    0.191429;  336.000000 electrons
         Band energy:-0.209955E+04;  BLOECHL correction:    0.000000
       DOS:  cpu time      0.0283: real time      0.0284
    CHARGE:  cpu time      6.9972: real time      6.9995
    MIXING:  cpu time      0.0179: real time      0.0179
    --------------------------------------------
      LOOP:  cpu time     74.2712: real time     74.2923

 eigenvalue-minimisations  : 10112
 total energy-change (2. order) :-0.1308122E+00  (-0.1307462E+00)
 number of electron     335.9999997 magnetization      44.9918631
 augmentation part      -47.3234162 magnetization      44.8841839

 Broyden mixing:
  rms(total) = 0.82788E+01    rms(broyden)= 0.82788E+01
  rms(prec ) = 0.82988E+01
  weight for this iteration     100.00

 Free energy of the ion-electron system (eV)
  ---------------------------------------------------
  alpha Z        PSCENC =       253.99581917
  Ewald energy   TEWEN  =     -9971.96889839
  -Hartree energ DENC   =     -4764.83982256
  -exchange      EXHF   =         0.00000000
  -V(xc)+E(xc)   XCENC  =       682.50012168
  PAW double counting   =     12174.71095765   -11995.46358648
  entropy T*S    EENTRO =         0.00000000
  eigenvalues    EBANDS =     -2099.54664992
  atomic energy  EATOM  =     15501.99929693
  Solvation  Ediel_sol  =         0.00000000
  ---------------------------------------------------
  free energy    TOTEN  =      -218.61276191 eV

  energy without entropy =     -218.61276191  energy(sigma->0) =     -218.61276191


--------------------------------------------------------------------------------------------------------




--------------------------------------- Iteration      1(   6)  ---------------------------------------


    POTLOK:  cpu time      0.5005: real time      0.5029
    SETDIJ:  cpu time      3.3535: real time      3.3541
     EDDAV:  cpu time     63.0276: real time     63.0439
 BZINTS: Fermi energy:    0.408682;  336.000000 electrons
         Band energy:-0.201406E+04;  BLOECHL correction:    0.000000
       DOS:  cpu time      0.0270: real time      0.0271
    CHARGE:  cpu time      6.0575: real time      6.0587
    MIXING:  cpu time      0.0077: real time      0.0077
    --------------------------------------------
      LOOP:  cpu time     72.9739: real time     72.9944

 eigenvalue-minimisations  :  9632
 total energy-change (2. order) : 0.1022854E+03  (-0.2667985E+02)
 number of electron     335.9999996 magnetization      26.4870768
 augmentation part      -47.6493190 magnetization      27.5460240

 Broyden mixing:
  rms(total) = 0.49344E+01    rms(broyden)= 0.49344E+01
  rms(prec ) = 0.49567E+01
  weight for this iteration     100.00

 eigenvalues of (default mixing * dielectric matrix)
  average eigenvalue GAMMA=   1.6646
  1.6646

 Free energy of the ion-electron system (eV)
  ---------------------------------------------------
  alpha Z        PSCENC =       253.99581917
  Ewald energy   TEWEN  =     -9971.96889839
  -Hartree energ DENC   =     -4809.15463740
  -exchange      EXHF   =         0.00000000
  -V(xc)+E(xc)   XCENC  =       746.07872830
  PAW double counting   =     20719.94119508   -20543.16044597
  entropy T*S    EENTRO =         0.00000000
  eigenvalues    EBANDS =     -2014.05846296
  atomic energy  EATOM  =     15501.99929693
  Solvation  Ediel_sol  =         0.00000000
  ---------------------------------------------------
  free energy    TOTEN  =      -116.32740525 eV

  energy without entropy =     -116.32740525  energy(sigma->0) =     -116.32740525


--------------------------------------------------------------------------------------------------------




--------------------------------------- Iteration      1(   7)  ---------------------------------------


    POTLOK:  cpu time      0.5371: real time      0.5428
    SETDIJ:  cpu time      6.4821: real time      6.4838
     EDDAV:  cpu time     65.4948: real time     65.5110
 BZINTS: Fermi energy:    0.738247;  336.000000 electrons
         Band energy:-0.186766E+04;  BLOECHL correction:    0.000000
       DOS:  cpu time      0.0262: real time      0.0263
    CHARGE:  cpu time     10.9232: real time     10.9255
    MIXING:  cpu time      0.0064: real time      0.0064
    --------------------------------------------
      LOOP:  cpu time     83.4697: real time     83.4957

 eigenvalue-minimisations  : 10144
 total energy-change (2. order) :-0.1114664E+02  (-0.2696974E+01)
 number of electron     335.9999997 magnetization      19.6989944
 augmentation part      -47.3166064 magnetization      20.9047990

 Broyden mixing:
  rms(total) = 0.13984E+01    rms(broyden)= 0.13984E+01
  rms(prec ) = 0.14020E+01
  weight for this iteration     100.00

 eigenvalues of (default mixing * dielectric matrix)
  average eigenvalue GAMMA=   1.4871
  0.7915  2.1826

 Free energy of the ion-electron system (eV)
  ---------------------------------------------------
  alpha Z        PSCENC =       253.99581917
  Ewald energy   TEWEN  =     -9971.96889839
  -Hartree energ DENC   =     -4968.62635923
  -exchange      EXHF   =         0.00000000
  -V(xc)+E(xc)   XCENC  =       751.41501528
  PAW double counting   =     37015.72426160   -36842.35497070
  entropy T*S    EENTRO =         0.00000000
  eigenvalues    EBANDS =     -1867.65821202
  atomic energy  EATOM  =     15501.99929693
  Solvation  Ediel_sol  =         0.00000000
  ---------------------------------------------------
  free energy    TOTEN  =      -127.47404736 eV

  energy without entropy =     -127.47404736  energy(sigma->0) =     -127.47404736


--------------------------------------------------------------------------------------------------------




--------------------------------------- Iteration      1(   8)  ---------------------------------------


    POTLOK:  cpu time      0.5492: real time      0.5503
    SETDIJ:  cpu time      5.0787: real time      5.0815
     EDDAV:  cpu time     63.2264: real time     63.2430
 BZINTS: Fermi energy:    0.705813;  336.000000 electrons
         Band energy:-0.185510E+04;  BLOECHL correction:    0.000000
       DOS:  cpu time      0.0263: real time      0.0264
    CHARGE:  cpu time      8.2908: real time      8.2930
    MIXING:  cpu time      0.0094: real time      0.0094
    --------------------------------------------
      LOOP:  cpu time     77.1808: real time     77.2035

 eigenvalue-minimisations  :  9312
 total energy-change (2. order) :-0.4282414E+02  (-0.1987559E+01)
 number of electron     335.9999997 magnetization      16.0459229
 augmentation part      -47.0109673 magnetization      17.0901560

 Broyden mixing:
  rms(total) = 0.78248E+00    rms(broyden)= 0.78248E+00
  rms(prec ) = 0.78766E+00
  weight for this iteration     100.00

 eigenvalues of (default mixing * dielectric matrix)
  average eigenvalue GAMMA=   1.3393
  2.4924  0.9416  0.5840

 Free energy of the ion-electron system (eV)
  ---------------------------------------------------
  alpha Z        PSCENC =       253.99581917
  Ewald energy   TEWEN  =     -9971.96889839
  -Hartree energ DENC   =     -4998.30978736
  -exchange      EXHF   =         0.00000000
  -V(xc)+E(xc)   XCENC  =       726.48433211
  PAW double counting   =     40172.84311697   -40000.24100025
  entropy T*S    EENTRO =         0.00000000
  eigenvalues    EBANDS =     -1855.10106591
  atomic energy  EATOM  =     15501.99929693
  Solvation  Ediel_sol  =         0.00000000
  ---------------------------------------------------
  free energy    TOTEN  =      -170.29818671 eV

  energy without entropy =     -170.29818671  energy(sigma->0) =     -170.29818671


--------------------------------------------------------------------------------------------------------




--------------------------------------- Iteration      1(   9)  ---------------------------------------


    POTLOK:  cpu time      0.4995: real time      0.5006
    SETDIJ:  cpu time      4.8340: real time      4.8351
     EDDAV:  cpu time     65.9875: real time     66.0045
 BZINTS: Fermi energy:    0.627821;  336.000000 electrons
         Band energy:-0.186640E+04;  BLOECHL correction:    0.000000
       DOS:  cpu time      0.0289: real time      0.0290
    CHARGE:  cpu time      7.3836: real time      7.3851
    MIXING:  cpu time      0.0105: real time      0.0105
    --------------------------------------------
      LOOP:  cpu time     78.7441: real time     78.7648

 eigenvalue-minimisations  : 10240
 total energy-change (2. order) :-0.1670280E+02  (-0.6399010E+00)
 number of electron     335.9999997 magnetization      11.5179032
 augmentation part      -46.9149460 magnetization      12.3551177

 Broyden mixing:
  rms(total) = 0.43606E+00    rms(broyden)= 0.43606E+00
  rms(prec ) = 0.44819E+00
  weight for this iteration     100.00

 eigenvalues of (default mixing * dielectric matrix)
  average eigenvalue GAMMA=   1.3255
  2.5782  1.3009  0.7114  0.7114

 Free energy of the ion-electron system (eV)
  ---------------------------------------------------
  alpha Z        PSCENC =       253.99581917
  Ewald energy   TEWEN  =     -9971.96889839
  -Hartree energ DENC   =     -4994.43937610
  -exchange      EXHF   =         0.00000000
  -V(xc)+E(xc)   XCENC  =       717.19066759
  PAW double counting   =     40951.51557899   -40778.89564019
  entropy T*S    EENTRO =         0.00000000
  eigenvalues    EBANDS =     -1866.39843319
  atomic energy  EATOM  =     15501.99929693
  Solvation  Ediel_sol  =         0.00000000
  ---------------------------------------------------
  free energy    TOTEN  =      -187.00098519 eV

  energy without entropy =     -187.00098519  energy(sigma->0) =     -187.00098519


--------------------------------------------------------------------------------------------------------




--------------------------------------- Iteration      1(  10)  ---------------------------------------


    POTLOK:  cpu time      0.5136: real time      0.5145
    SETDIJ:  cpu time      4.6613: real time      4.6622
     EDDAV:  cpu time     66.4828: real time     66.5019
 BZINTS: Fermi energy:    0.474598;  336.000000 electrons
         Band energy:-0.190094E+04;  BLOECHL correction:   -0.000000
       DOS:  cpu time      0.0270: real time      0.0270
    CHARGE:  cpu time      7.2663: real time      7.2679
    MIXING:  cpu time      0.0130: real time      0.0130
    --------------------------------------------
      LOOP:  cpu time     78.9640: real time     78.9865

 eigenvalue-minimisations  :  9984
 total energy-change (2. order) :-0.2006331E+02  (-0.1303037E+01)
 number of electron     335.9999997 magnetization       5.3131632
 augmentation part      -46.8732954 magnetization       5.8472848

 Broyden mixing:
  rms(total) = 0.32422E+00    rms(broyden)= 0.32422E+00
  rms(prec ) = 0.33722E+00
  weight for this iteration     100.00

 eigenvalues of (default mixing * dielectric matrix)
  average eigenvalue GAMMA=   1.4484
  2.4854  2.4854  0.9420  0.7276  0.6018

 Free energy of the ion-electron system (eV)
  ---------------------------------------------------
  alpha Z        PSCENC =       253.99581917
  Ewald energy   TEWEN  =     -9971.96889839
  -Hartree energ DENC   =     -4969.03213689
  -exchange      EXHF   =         0.00000000
  -V(xc)+E(xc)   XCENC  =       705.61068524
  PAW double counting   =     40965.12658848   -40791.85148619
  entropy T*S    EENTRO =         0.00000000
  eigenvalues    EBANDS =     -1900.94416548
  atomic energy  EATOM  =     15501.99929693
  Solvation  Ediel_sol  =         0.00000000
  ---------------------------------------------------
  free energy    TOTEN  =      -207.06429712 eV

  energy without entropy =     -207.06429712  energy(sigma->0) =     -207.06429712


--------------------------------------------------------------------------------------------------------




--------------------------------------- Iteration      1(  11)  ---------------------------------------


    POTLOK:  cpu time      0.5133: real time      0.5141
    SETDIJ:  cpu time     11.3602: real time     11.3623
     EDDAV:  cpu time     64.8003: real time     64.8179
 BZINTS: Fermi energy:    0.257369;  336.000000 electrons
         Band energy:-0.195829E+04;  BLOECHL correction:    0.000000
       DOS:  cpu time      0.0263: real time      0.0263
    CHARGE:  cpu time      7.3765: real time      7.3780
    MIXING:  cpu time      0.0088: real time      0.0088
    --------------------------------------------
      LOOP:  cpu time     84.0854: real time     84.1074

 eigenvalue-minimisations  :  9952
 total energy-change (2. order) :-0.1780228E+02  (-0.2157660E+01)
 number of electron     335.9999997 magnetization       3.5806079
 augmentation part      -46.9052911 magnetization       3.7640933

 Broyden mixing:
  rms(total) = 0.18677E+00    rms(broyden)= 0.18676E+00
  rms(prec ) = 0.20045E+00
  weight for this iteration     100.00

 eigenvalues of (default mixing * dielectric matrix)
  average eigenvalue GAMMA=   1.4663
  2.7965  2.7965  1.0265  0.8896  0.6989  0.5897

 Free energy of the ion-electron system (eV)
  ---------------------------------------------------
  alpha Z        PSCENC =       253.99581917
  Ewald energy   TEWEN  =     -9971.96889839
  -Hartree energ DENC   =     -4919.46606577
  -exchange      EXHF   =         0.00000000
  -V(xc)+E(xc)   XCENC  =       694.52474273
  PAW double counting   =     40393.46697755   -40219.13340626
  entropy T*S    EENTRO =         0.00000000
  eigenvalues    EBANDS =     -1958.28504045
  atomic energy  EATOM  =     15501.99929693
  Solvation  Ediel_sol  =         0.00000000
  ---------------------------------------------------
  free energy    TOTEN  =      -224.86657449 eV

  energy without entropy =     -224.86657449  energy(sigma->0) =     -224.86657449


--------------------------------------------------------------------------------------------------------




--------------------------------------- Iteration      1(  12)  ---------------------------------------


    POTLOK:  cpu time      0.4762: real time      0.4772
    SETDIJ:  cpu time     11.5087: real time     11.5111
     EDDAV:  cpu time     64.5308: real time     64.5493
 BZINTS: Fermi energy:    0.183850;  336.000000 electrons
         Band energy:-0.197896E+04;  BLOECHL correction:    0.000000
       DOS:  cpu time      0.0286: real time      0.0287
    CHARGE:  cpu time      5.7584: real time      5.7597
    MIXING:  cpu time      0.0083: real time      0.0083
    --------------------------------------------
      LOOP:  cpu time     82.3110: real time     82.3344

 eigenvalue-minimisations  : 10048
 total energy-change (2. order) :-0.3391716E+01  (-0.3879667E+00)
 number of electron     335.9999997 magnetization       2.3975796
 augmentation part      -46.9154725 magnetization       2.4808687

 Broyden mixing:
  rms(total) = 0.15968E+00    rms(broyden)= 0.15968E+00
  rms(prec ) = 0.17221E+00
  weight for this iteration     100.00

 eigenvalues of (default mixing * dielectric matrix)
  average eigenvalue GAMMA=   1.4914
  3.1002  3.1002  1.0554  1.0554  0.7806  0.7806  0.5676

 Free energy of the ion-electron system (eV)
  ---------------------------------------------------
  alpha Z        PSCENC =       253.99581917
  Ewald energy   TEWEN  =     -9971.96889839
  -Hartree energ DENC   =     -4899.96025324
  -exchange      EXHF   =         0.00000000
  -V(xc)+E(xc)   XCENC  =       692.06753971
  PAW double counting   =     39958.00060605   -39783.42961674
  entropy T*S    EENTRO =         0.00000000
  eigenvalues    EBANDS =     -1978.96278436
  atomic energy  EATOM  =     15501.99929693
  Solvation  Ediel_sol  =         0.00000000
  ---------------------------------------------------
  free energy    TOTEN  =      -228.25829087 eV

  energy without entropy =     -228.25829087  energy(sigma->0) =     -228.25829087


--------------------------------------------------------------------------------------------------------




--------------------------------------- Iteration      1(  13)  ---------------------------------------


    POTLOK:  cpu time      0.5172: real time      0.5190
    SETDIJ:  cpu time      9.8174: real time      9.8194
     EDDAV:  cpu time     61.9073: real time     61.9227
 BZINTS: Fermi energy:    0.115800;  336.000000 electrons
         Band energy:-0.200142E+04;  BLOECHL correction:    0.000000
       DOS:  cpu time      0.0269: real time      0.0269
    CHARGE:  cpu time     15.0271: real time     15.0298
    MIXING:  cpu time      0.0090: real time      0.0090
    --------------------------------------------
      LOOP:  cpu time     87.3049: real time     87.3268

 eigenvalue-minimisations  :  9536
 total energy-change (2. order) :-0.1056099E+01  (-0.1339429E+00)
 number of electron     335.9999997 magnetization       0.8890651
 augmentation part      -46.9736557 magnetization       0.9151637

 Broyden mixing:
  rms(total) = 0.93139E-01    rms(broyden)= 0.93139E-01
  rms(prec ) = 0.99944E-01
  weight for this iteration     100.00

 eigenvalues of (default mixing * dielectric matrix)
  average eigenvalue GAMMA=   1.5513
  3.3217  3.3217  1.5848  1.2846  0.9268  0.6995  0.6995  0.5719

 Free energy of the ion-electron system (eV)
  ---------------------------------------------------
  alpha Z        PSCENC =       253.99581917
  Ewald energy   TEWEN  =     -9971.96889839
  -Hartree energ DENC   =     -4876.81745174
  -exchange      EXHF   =         0.00000000
  -V(xc)+E(xc)   XCENC  =       690.08272835
  PAW double counting   =     39137.33060271   -38962.52023710
  entropy T*S    EENTRO =         0.00000000
  eigenvalues    EBANDS =     -2001.41624973
  atomic energy  EATOM  =     15501.99929693
  Solvation  Ediel_sol  =         0.00000000
  ---------------------------------------------------
  free energy    TOTEN  =      -229.31438981 eV

  energy without entropy =     -229.31438981  energy(sigma->0) =     -229.31438981


--------------------------------------------------------------------------------------------------------




--------------------------------------- Iteration      1(  14)  ---------------------------------------


    POTLOK:  cpu time      0.5906: real time      0.5916
    SETDIJ:  cpu time      7.7429: real time      7.7447
     EDDAV:  cpu time     60.7518: real time     60.7874
 BZINTS: Fermi energy:    0.080141;  336.000000 electrons
         Band energy:-0.201190E+04;  BLOECHL correction:    0.000000
       DOS:  cpu time      0.0260: real time      0.0260
    CHARGE:  cpu time      5.6426: real time      5.6439
    MIXING:  cpu time      0.0168: real time      0.0168
    --------------------------------------------
      LOOP:  cpu time     74.7707: real time     74.8104

 eigenvalue-minimisations  :  8992
 total energy-change (2. order) :-0.6561237E-01  (-0.1632487E-01)
 number of electron     335.9999997 magnetization       0.4197448
 augmentation part      -47.0007838 magnetization       0.4267520

 Broyden mixing:
  rms(total) = 0.43642E-01    rms(broyden)= 0.43641E-01
  rms(prec ) = 0.46351E-01
  weight for this iteration     100.00

 eigenvalues of (default mixing * dielectric matrix)
  average eigenvalue GAMMA=   1.5784
  4.1281  2.5580  2.5580  1.0966  1.0966  0.7712  0.7712  0.5743  0.6514

 Free energy of the ion-electron system (eV)
  ---------------------------------------------------
  alpha Z        PSCENC =       253.99581917
  Ewald energy   TEWEN  =     -9971.96889839
  -Hartree energ DENC   =     -4865.44130502
  -exchange      EXHF   =         0.00000000
  -V(xc)+E(xc)   XCENC  =       689.16920830
  PAW double counting   =     39077.06744294   -38902.30211078
  entropy T*S    EENTRO =         0.00000000
  eigenvalues    EBANDS =     -2011.89945533
  atomic energy  EATOM  =     15501.99929693
  Solvation  Ediel_sol  =         0.00000000
  ---------------------------------------------------
  free energy    TOTEN  =      -229.38000218 eV

  energy without entropy =     -229.38000218  energy(sigma->0) =     -229.38000218


--------------------------------------------------------------------------------------------------------




--------------------------------------- Iteration      1(  15)  ---------------------------------------


    POTLOK:  cpu time      2.6355: real time      2.6370
    SETDIJ:  cpu time     10.4508: real time     10.4527
     EDDAV:  cpu time     63.3336: real time     63.3495
 BZINTS: Fermi energy:    0.078381;  336.000000 electrons
         Band energy:-0.201158E+04;  BLOECHL correction:   -0.000000
       DOS:  cpu time      0.0260: real time      0.0261
    CHARGE:  cpu time      9.4135: real time      9.4157
    MIXING:  cpu time      0.0161: real time      0.0161
    --------------------------------------------
      LOOP:  cpu time     85.8755: real time     85.8970

 eigenvalue-minimisations  :  9632
 total energy-change (2. order) : 0.1295370E-02  (-0.2077925E-02)
 number of electron     335.9999997 magnetization       0.1734059
 augmentation part      -46.9945867 magnetization       0.1777310

 Broyden mixing:
  rms(total) = 0.20223E-01    rms(broyden)= 0.20223E-01
  rms(prec ) = 0.21799E-01
  weight for this iteration     100.00

 eigenvalues of (default mixing * dielectric matrix)
  average eigenvalue GAMMA=   1.5645
  4.5508  2.5283  2.5283  1.3338  0.9973  0.9973  0.7584  0.7584  0.6240  0.5690

 Free energy of the ion-electron system (eV)
  ---------------------------------------------------
  alpha Z        PSCENC =       253.99581917
  Ewald energy   TEWEN  =     -9971.96889839
  -Hartree energ DENC   =     -4865.63556646
  -exchange      EXHF   =         0.00000000
  -V(xc)+E(xc)   XCENC  =       689.13249796
  PAW double counting   =     39162.86190893   -38988.18386789
  entropy T*S    EENTRO =         0.00000000
  eigenvalues    EBANDS =     -2011.57989706
  atomic energy  EATOM  =     15501.99929693
  Solvation  Ediel_sol  =         0.00000000
  ---------------------------------------------------
  free energy    TOTEN  =      -229.37870681 eV

  energy without entropy =     -229.37870681  energy(sigma->0) =     -229.37870681


--------------------------------------------------------------------------------------------------------




--------------------------------------- Iteration      1(  16)  ---------------------------------------


    POTLOK:  cpu time      0.5643: real time      0.5653
    SETDIJ:  cpu time      2.6059: real time      2.6090
     EDDAV:  cpu time     57.8632: real time     57.8777
 BZINTS: Fermi energy:    0.076522;  336.000000 electrons
         Band energy:-0.201205E+04;  BLOECHL correction:   -0.000000
       DOS:  cpu time      0.0267: real time      0.0268
    CHARGE:  cpu time      9.9562: real time      9.9582
    MIXING:  cpu time      0.0218: real time      0.0219
    --------------------------------------------
      LOOP:  cpu time     71.0381: real time     71.0589

 eigenvalue-minimisations  :  9088
 total energy-change (2. order) : 0.3083533E-02  (-0.5530605E-03)
 number of electron     335.9999997 magnetization       0.0703508
 augmentation part      -46.9934710 magnetization       0.0711658

 Broyden mixing:
  rms(total) = 0.12348E-01    rms(broyden)= 0.12348E-01
  rms(prec ) = 0.13360E-01
  weight for this iteration     100.00

 eigenvalues of (default mixing * dielectric matrix)
  average eigenvalue GAMMA=   1.5463
  4.7552  2.4275  2.4275  1.8415  0.9964  0.9964  0.9215  0.7282  0.7282  0.5803
  0.6068

 Free energy of the ion-electron system (eV)
  ---------------------------------------------------
  alpha Z        PSCENC =       253.99581917
  Ewald energy   TEWEN  =     -9971.96889839
  -Hartree energ DENC   =     -4865.06513821
  -exchange      EXHF   =         0.00000000
  -V(xc)+E(xc)   XCENC  =       689.06352620
  PAW double counting   =     39132.25620045   -38957.60184559
  entropy T*S    EENTRO =         0.00000000
  eigenvalues    EBANDS =     -2012.05458384
  atomic energy  EATOM  =     15501.99929693
  Solvation  Ediel_sol  =         0.00000000
  ---------------------------------------------------
  free energy    TOTEN  =      -229.37562328 eV

  energy without entropy =     -229.37562328  energy(sigma->0) =     -229.37562328


--------------------------------------------------------------------------------------------------------




--------------------------------------- Iteration      1(  17)  ---------------------------------------


    POTLOK:  cpu time      0.5284: real time      0.5293
    SETDIJ:  cpu time     11.0111: real time     11.0136
     EDDAV:  cpu time     60.8166: real time     60.8299
 BZINTS: Fermi energy:    0.078663;  336.000000 electrons
         Band energy:-0.201113E+04;  BLOECHL correction:    0.000000
       DOS:  cpu time      0.0259: real time      0.0259
    CHARGE:  cpu time      3.8966: real time      3.8973
    MIXING:  cpu time      0.0143: real time      0.0143
    --------------------------------------------
      LOOP:  cpu time     76.2929: real time     76.3102

 eigenvalue-minimisations  :  9536
 total energy-change (2. order) :-0.4973773E-03  (-0.1198222E-03)
 number of electron     335.9999997 magnetization       0.0180904
 augmentation part      -46.9884006 magnetization       0.0184966

 Broyden mixing:
  rms(total) = 0.49491E-02    rms(broyden)= 0.49491E-02
  rms(prec ) = 0.55472E-02
  weight for this iteration     100.00

 eigenvalues of (default mixing * dielectric matrix)
  average eigenvalue GAMMA=   1.5760
  4.9468  2.6014  2.6014  2.2038  1.1785  0.9954  0.9954  0.7616  0.7616  0.6806
  0.5866  0.5981

 Free energy of the ion-electron system (eV)
  ---------------------------------------------------
  alpha Z        PSCENC =       253.99581917
  Ewald energy   TEWEN  =     -9971.96889839
  -Hartree energ DENC   =     -4866.02848382
  -exchange      EXHF   =         0.00000000
  -V(xc)+E(xc)   XCENC  =       689.12358456
  PAW double counting   =     39173.23781656   -38998.60770045
  entropy T*S    EENTRO =         0.00000000
  eigenvalues    EBANDS =     -2011.12755521
  atomic energy  EATOM  =     15501.99929693
  Solvation  Ediel_sol  =         0.00000000
  ---------------------------------------------------
  free energy    TOTEN  =      -229.37612065 eV

  energy without entropy =     -229.37612065  energy(sigma->0) =     -229.37612065


--------------------------------------------------------------------------------------------------------




--------------------------------------- Iteration      1(  18)  ---------------------------------------


    POTLOK:  cpu time      0.4119: real time      0.4157
    SETDIJ:  cpu time      5.8848: real time      5.8859
     EDDAV:  cpu time     57.2598: real time     57.2716
 BZINTS: Fermi energy:    0.079527;  336.000000 electrons
         Band energy:-0.201060E+04;  BLOECHL correction:    0.000000
       DOS:  cpu time      0.0258: real time      0.0259
    CHARGE:  cpu time      8.0270: real time      8.0284
    MIXING:  cpu time      0.0231: real time      0.0232
    --------------------------------------------
      LOOP:  cpu time     71.6325: real time     71.6507

 eigenvalue-minimisations  :  9440
 total energy-change (2. order) :-0.1129397E-03  (-0.3979453E-04)
 number of electron     335.9999997 magnetization       0.0053812
 augmentation part      -46.9850564 magnetization       0.0059270

 Broyden mixing:
  rms(total) = 0.44841E-02    rms(broyden)= 0.44841E-02
  rms(prec ) = 0.47348E-02
  weight for this iteration     100.00

 eigenvalues of (default mixing * dielectric matrix)
  average eigenvalue GAMMA=   1.5444
  5.0007  2.6455  2.6455  2.2660  1.1296  1.1296  0.9911  0.9911  0.7248  0.7248
  0.5780  0.6443  0.6066

 Free energy of the ion-electron system (eV)
  ---------------------------------------------------
  alpha Z        PSCENC =       253.99581917
  Ewald energy   TEWEN  =     -9971.96889839
  -Hartree energ DENC   =     -4866.57587430
  -exchange      EXHF   =         0.00000000
  -V(xc)+E(xc)   XCENC  =       689.15919190
  PAW double counting   =     39202.14772394   -39027.53246232
  entropy T*S    EENTRO =         0.00000000
  eigenvalues    EBANDS =     -2010.60103052
  atomic energy  EATOM  =     15501.99929693
  Solvation  Ediel_sol  =         0.00000000
  ---------------------------------------------------
  free energy    TOTEN  =      -229.37623359 eV

  energy without entropy =     -229.37623359  energy(sigma->0) =     -229.37623359


--------------------------------------------------------------------------------------------------------




--------------------------------------- Iteration      1(  19)  ---------------------------------------


    POTLOK:  cpu time      0.5175: real time      0.5184
    SETDIJ:  cpu time      6.7070: real time      6.7080
     EDDAV:  cpu time     59.3461: real time     59.3582
 BZINTS: Fermi energy:    0.079096;  336.000000 electrons
         Band energy:-0.201086E+04;  BLOECHL correction:    0.000000
       DOS:  cpu time      0.0257: real time      0.0258
    CHARGE:  cpu time      1.9027: real time      1.9030
    MIXING:  cpu time      0.0195: real time      0.0195
    --------------------------------------------
      LOOP:  cpu time     68.5185: real time     68.5329

 eigenvalue-minimisations  :  9760
 total energy-change (2. order) :-0.6110233E-05  (-0.6218944E-05)
 number of electron     335.9999997 magnetization      -0.0004531
 augmentation part      -46.9858841 magnetization      -0.0002064

 Broyden mixing:
  rms(total) = 0.20393E-02    rms(broyden)= 0.20393E-02
  rms(prec ) = 0.22127E-02
  weight for this iteration     100.00

 eigenvalues of (default mixing * dielectric matrix)
  average eigenvalue GAMMA=   1.5458
  5.0444  2.7069  2.7069  2.1112  1.4103  1.4103  1.0326  1.0326  0.8586  0.7538
  0.7538  0.5794  0.6097  0.6304

 Free energy of the ion-electron system (eV)
  ---------------------------------------------------
  alpha Z        PSCENC =       253.99581917
  Ewald energy   TEWEN  =     -9971.96889839
  -Hartree energ DENC   =     -4866.30262804
  -exchange      EXHF   =         0.00000000
  -V(xc)+E(xc)   XCENC  =       689.14234754
  PAW double counting   =     39200.75270799   -39026.13432148
  entropy T*S    EENTRO =         0.00000000
  eigenvalues    EBANDS =     -2010.86056342
  atomic energy  EATOM  =     15501.99929693
  Solvation  Ediel_sol  =         0.00000000
  ---------------------------------------------------
  free energy    TOTEN  =      -229.37623970 eV

  energy without entropy =     -229.37623970  energy(sigma->0) =     -229.37623970


--------------------------------------------------------------------------------------------------------




--------------------------------------- Iteration      1(  20)  ---------------------------------------


    POTLOK:  cpu time      2.4056: real time      2.4131
    SETDIJ:  cpu time      8.5381: real time      8.5398
     EDDAV:  cpu time     62.2867: real time     62.2992
 BZINTS: Fermi energy:    0.078395;  336.000000 electrons
         Band energy:-0.201100E+04;  BLOECHL correction:    0.000000
       DOS:  cpu time      0.0291: real time      0.0292
    CHARGE:  cpu time     11.7389: real time     11.7409
    MIXING:  cpu time      0.0183: real time      0.0183
    --------------------------------------------
      LOOP:  cpu time     85.0167: real time     85.0404

 eigenvalue-minimisations  :  9152
 total energy-change (2. order) :-0.1036233E-04  (-0.3480060E-05)
 number of electron     335.9999997 magnetization      -0.0016103
 augmentation part      -46.9864187 magnetization      -0.0015308

 Broyden mixing:
  rms(total) = 0.95115E-03    rms(broyden)= 0.95103E-03
  rms(prec ) = 0.10097E-02
  weight for this iteration     100.00

 eigenvalues of (default mixing * dielectric matrix)
  average eigenvalue GAMMA=   1.5471
  5.0949  2.7083  2.7083  2.0984  2.0984  1.2321  1.2321  0.9894  0.9894  0.7798
  0.7328  0.7328  0.5775  0.6158  0.6158

 Free energy of the ion-electron system (eV)
  ---------------------------------------------------
  alpha Z        PSCENC =       253.99581917
  Ewald energy   TEWEN  =     -9971.96889839
  -Hartree energ DENC   =     -4866.15862259
  -exchange      EXHF   =         0.00000000
  -V(xc)+E(xc)   XCENC  =       689.13527423
  PAW double counting   =     39205.87860588   -39031.25827467
  entropy T*S    EENTRO =         0.00000000
  eigenvalues    EBANDS =     -2010.99945063
  atomic energy  EATOM  =     15501.99929693
  Solvation  Ediel_sol  =         0.00000000
  ---------------------------------------------------
  free energy    TOTEN  =      -229.37625007 eV

  energy without entropy =     -229.37625007  energy(sigma->0) =     -229.37625007


--------------------------------------------------------------------------------------------------------




--------------------------------------- Iteration      1(  21)  ---------------------------------------


    POTLOK:  cpu time      0.4709: real time      0.4720
    SETDIJ:  cpu time      4.8295: real time      4.8303
     EDDAV:  cpu time     58.9755: real time     58.9879
 BZINTS: Fermi energy:    0.078222;  336.000000 electrons
         Band energy:-0.201106E+04;  BLOECHL correction:   -0.000000
       DOS:  cpu time      0.0257: real time      0.0258
    CHARGE:  cpu time      5.4559: real time      5.4572
    MIXING:  cpu time      0.0129: real time      0.0129
    --------------------------------------------
      LOOP:  cpu time     69.7704: real time     69.7861

 eigenvalue-minimisations  :  9280
 total energy-change (2. order) : 0.1202752E-05  (-0.8845218E-06)
 number of electron     335.9999997 magnetization      -0.0013268
 augmentation part      -46.9866130 magnetization      -0.0013305

 Broyden mixing:
  rms(total) = 0.42842E-03    rms(broyden)= 0.42815E-03
  rms(prec ) = 0.45034E-03
  weight for this iteration     100.00

 eigenvalues of (default mixing * dielectric matrix)
  average eigenvalue GAMMA=   1.5117
  5.0966  2.6681  2.6681  2.5721  1.6143  1.3963  1.1546  1.1546  0.9288  0.9288
  0.7392  0.7392  0.7247  0.5772  0.6125  0.6125

 Free energy of the ion-electron system (eV)
  ---------------------------------------------------
  alpha Z        PSCENC =       253.99581917
  Ewald energy   TEWEN  =     -9971.96889839
  -Hartree energ DENC   =     -4866.10004935
  -exchange      EXHF   =         0.00000000
  -V(xc)+E(xc)   XCENC  =       689.13169860
  PAW double counting   =     39205.32767399   -39030.70652451
  entropy T*S    EENTRO =         0.00000000
  eigenvalues    EBANDS =     -2011.05526531
  atomic energy  EATOM  =     15501.99929693
  Solvation  Ediel_sol  =         0.00000000
  ---------------------------------------------------
  free energy    TOTEN  =      -229.37624886 eV

  energy without entropy =     -229.37624886  energy(sigma->0) =     -229.37624886


--------------------------------------------------------------------------------------------------------




--------------------------------------- Iteration      1(  22)  ---------------------------------------


    POTLOK:  cpu time      0.5437: real time      0.5479
    SETDIJ:  cpu time      5.9700: real time      5.9710
     EDDAV:  cpu time     60.1527: real time     60.1653
 BZINTS: Fermi energy:    0.078262;  336.000000 electrons
         Band energy:-0.201108E+04;  BLOECHL correction:    0.000000
       DOS:  cpu time      0.0266: real time      0.0266
    CHARGE:  cpu time      5.8766: real time      5.8777
    MIXING:  cpu time      0.0147: real time      0.0147
    --------------------------------------------
      LOOP:  cpu time     72.5843: real time     72.6032

 eigenvalue-minimisations  :  9760
 total energy-change (2. order) : 0.4471221E-06  (-0.1401938E-06)
 number of electron     335.9999997 magnetization      -0.0004709
 augmentation part      -46.9866803 magnetization      -0.0004918

 Broyden mixing:
  rms(total) = 0.23154E-03    rms(broyden)= 0.23105E-03
  rms(prec ) = 0.24578E-03
  weight for this iteration     100.00

 eigenvalues of (default mixing * dielectric matrix)
  average eigenvalue GAMMA=   1.5004
  5.0910  2.6574  2.6574  2.6244  1.6707  1.4368  1.4368  1.0843  1.0843  0.9008
  0.9008  0.7425  0.7425  0.6733  0.5783  0.6126  0.6126

 Free energy of the ion-electron system (eV)
  ---------------------------------------------------
  alpha Z        PSCENC =       253.99581917
  Ewald energy   TEWEN  =     -9971.96889839
  -Hartree energ DENC   =     -4866.07878032
  -exchange      EXHF   =         0.00000000
  -V(xc)+E(xc)   XCENC  =       689.13014187
  PAW double counting   =     39203.91807884   -39029.29662859
  entropy T*S    EENTRO =         0.00000000
  eigenvalues    EBANDS =     -2011.07527793
  atomic energy  EATOM  =     15501.99929693
  Solvation  Ediel_sol  =         0.00000000
  ---------------------------------------------------
  free energy    TOTEN  =      -229.37624842 eV

  energy without entropy =     -229.37624842  energy(sigma->0) =     -229.37624842


--------------------------------------------------------------------------------------------------------




--------------------------------------- Iteration      1(  23)  ---------------------------------------


    POTLOK:  cpu time      0.4225: real time      0.4235
    SETDIJ:  cpu time      7.3911: real time      7.3922
     EDDAV:  cpu time     56.9018: real time     56.9136
 BZINTS: Fermi energy:    0.078334;  336.000000 electrons
         Band energy:-0.201107E+04;  BLOECHL correction:    0.000000
       DOS:  cpu time      0.0266: real time      0.0266
    CHARGE:  cpu time      9.7276: real time      9.7291
    MIXING:  cpu time      0.0240: real time      0.0240
    --------------------------------------------
      LOOP:  cpu time     74.4936: real time     74.5090

 eigenvalue-minimisations  :  9216
 total energy-change (2. order) :-0.2252709E-06  (-0.5676082E-07)
 number of electron     335.9999997 magnetization      -0.0002624
 augmentation part      -46.9866541 magnetization      -0.0002586

 Broyden mixing:
[...]

  length of vectors
    10.314108670 16.788494411 10.846477853     0.097707938  0.059564603  0.092912216


 FORCES acting on ions
    electron-ion (+dipol)            ewald-force                    non-local-force                 convergence-correction
 -----------------------------------------------------------------------------------------------
   0.981E+02 -.105E+03 -.131E+02   -.103E+03 0.113E+03 0.118E+02   0.500E+01 -.881E+01 0.131E+01   -.103E-05 0.578E-06 -.214E-06
   0.987E+02 -.105E+03 -.125E+02   -.104E+03 0.113E+03 0.112E+02   0.495E+01 -.888E+01 0.132E+01   -.108E-05 0.570E-06 -.196E-06
   -.123E+02 0.420E+02 -.127E+03   0.126E+02 -.472E+02 0.134E+03   -.246E+00 0.519E+01 -.705E+01   -.136E-06 0.727E-07 0.905E-06
   -.123E+02 0.420E+02 -.127E+03   0.126E+02 -.472E+02 0.134E+03   -.246E+00 0.519E+01 -.705E+01   -.113E-06 0.796E-07 0.872E-06
   -.211E+02 -.902E+02 0.981E+02   0.197E+02 0.989E+02 -.103E+03   0.134E+01 -.874E+01 0.530E+01   -.375E-06 0.226E-06 -.810E-06
   -.211E+02 -.902E+02 0.979E+02   0.197E+02 0.989E+02 -.103E+03   0.134E+01 -.874E+01 0.530E+01   -.332E-06 0.240E-06 -.810E-06
   -.108E+03 0.950E+02 0.628E+01   0.114E+03 -.101E+03 -.416E+01   -.534E+01 0.592E+01 -.212E+01   0.126E-05 0.519E-07 0.117E-06
   -.108E+03 0.950E+02 0.625E+01   0.114E+03 -.101E+03 -.413E+01   -.534E+01 0.592E+01 -.212E+01   0.121E-05 0.810E-07 0.123E-06
   0.136E+03 -.540E+02 -.187E+02   -.143E+03 0.595E+02 0.193E+02   0.680E+01 -.552E+01 -.558E+00   -.119E-05 0.315E-06 -.172E-06
   0.136E+03 -.539E+02 -.187E+02   -.143E+03 0.595E+02 0.193E+02   0.680E+01 -.552E+01 -.558E+00   -.120E-05 0.326E-06 -.175E-06
   -.136E+03 0.540E+02 0.187E+02   0.143E+03 -.595E+02 -.193E+02   -.680E+01 0.552E+01 0.558E+00   0.118E-05 -.391E-06 0.199E-06
   -.136E+03 0.539E+02 0.186E+02   0.143E+03 -.594E+02 -.192E+02   -.679E+01 0.552E+01 0.548E+00   0.120E-05 -.400E-06 0.209E-06
   0.108E+03 -.950E+02 -.626E+01   -.114E+03 0.101E+03 0.415E+01   0.534E+01 -.592E+01 0.212E+01   -.130E-05 -.113E-06 -.961E-07
   0.108E+03 -.950E+02 -.624E+01   -.114E+03 0.101E+03 0.412E+01   0.534E+01 -.592E+01 0.212E+01   -.124E-05 -.131E-06 -.993E-07
   -.124E+02 -.420E+02 0.127E+03   0.127E+02 0.472E+02 -.134E+03   -.245E+00 -.519E+01 0.705E+01   -.760E-07 -.989E-07 -.962E-06
   -.123E+02 -.420E+02 0.127E+03   0.126E+02 0.472E+02 -.134E+03   -.246E+00 -.519E+01 0.705E+01   -.140E-06 -.922E-07 -.944E-06
   0.211E+02 -.902E+02 0.981E+02   -.198E+02 0.989E+02 -.103E+03   -.134E+01 -.874E+01 0.530E+01   0.304E-06 0.411E-06 -.886E-06
   0.211E+02 -.902E+02 0.981E+02   -.198E+02 0.989E+02 -.103E+03   -.134E+01 -.874E+01 0.530E+01   0.365E-06 0.390E-06 -.866E-06
   -.987E+02 -.105E+03 -.125E+02   0.104E+03 0.113E+03 0.112E+02   -.495E+01 -.888E+01 0.132E+01   0.110E-05 0.750E-06 -.198E-06
   -.986E+02 -.105E+03 -.125E+02   0.104E+03 0.113E+03 0.112E+02   -.495E+01 -.888E+01 0.132E+01   0.106E-05 0.726E-06 -.203E-06
   -.136E+03 -.539E+02 -.187E+02   0.143E+03 0.595E+02 0.193E+02   -.680E+01 -.552E+01 -.559E+00   0.126E-05 0.409E-06 -.194E-06
   -.136E+03 -.540E+02 -.187E+02   0.143E+03 0.595E+02 0.193E+02   -.680E+01 -.552E+01 -.558E+00   0.118E-05 0.404E-06 -.199E-06
   0.124E+02 0.420E+02 -.127E+03   -.127E+02 -.472E+02 0.134E+03   0.246E+00 0.519E+01 -.705E+01   0.812E-07 0.437E-08 0.874E-06
   0.127E+02 0.418E+02 -.126E+03   -.129E+02 -.470E+02 0.133E+03   0.221E+00 0.524E+01 -.705E+01   0.150E-06 0.128E-07 0.860E-06
   -.108E+03 -.950E+02 -.625E+01   0.114E+03 0.101E+03 0.414E+01   -.534E+01 -.592E+01 0.212E+01   0.120E-05 -.106E-06 -.109E-06
   -.108E+03 -.950E+02 -.625E+01   0.114E+03 0.101E+03 0.414E+01   -.534E+01 -.592E+01 0.212E+01   0.125E-05 -.124E-06 -.994E-07
   0.987E+02 0.105E+03 0.125E+02   -.104E+03 -.113E+03 -.112E+02   0.495E+01 0.888E+01 -.132E+01   -.111E-05 -.615E-06 0.139E-06
   0.987E+02 0.105E+03 0.126E+02   -.104E+03 -.113E+03 -.112E+02   0.495E+01 0.888E+01 -.132E+01   -.106E-05 -.597E-06 0.145E-06
   -.986E+02 0.105E+03 0.125E+02   0.104E+03 -.113E+03 -.112E+02   -.495E+01 0.888E+01 -.132E+01   0.105E-05 -.729E-06 0.176E-06
   -.987E+02 0.105E+03 0.126E+02   0.104E+03 -.113E+03 -.112E+02   -.495E+01 0.888E+01 -.132E+01   0.110E-05 -.723E-06 0.176E-06
   0.727E+02 0.961E+02 0.632E+02   -.755E+02 -.106E+03 -.653E+02   0.274E+01 0.971E+01 0.207E+01   -.358E-06 -.722E-06 -.794E-06
   0.728E+02 0.962E+02 0.633E+02   -.755E+02 -.106E+03 -.653E+02   0.274E+01 0.971E+01 0.207E+01   -.384E-06 -.740E-06 -.791E-06
   0.218E+02 -.938E+02 -.889E+02   -.205E+02 0.100E+03 0.940E+02   -.133E+01 -.628E+01 -.509E+01   -.128E-06 -.128E-06 0.929E-06
   0.218E+02 -.938E+02 -.889E+02   -.205E+02 0.100E+03 0.940E+02   -.133E+01 -.628E+01 -.509E+01   -.144E-06 -.156E-06 0.902E-06
   -.211E+02 0.902E+02 -.981E+02   0.198E+02 -.989E+02 0.103E+03   0.134E+01 0.874E+01 -.530E+01   -.298E-06 -.251E-06 0.922E-06
   -.211E+02 0.902E+02 -.981E+02   0.198E+02 -.989E+02 0.103E+03   0.134E+01 0.874E+01 -.530E+01   -.340E-06 -.251E-06 0.892E-06
   -.218E+02 0.938E+02 0.889E+02   0.205E+02 -.100E+03 -.940E+02   0.133E+01 0.628E+01 0.509E+01   0.113E-06 0.113E-06 -.819E-06
   -.218E+02 0.938E+02 0.889E+02   0.205E+02 -.100E+03 -.940E+02   0.133E+01 0.628E+01 0.509E+01   0.113E-06 0.151E-06 -.801E-06
   0.211E+02 0.902E+02 -.980E+02   -.197E+02 -.989E+02 0.103E+03   -.134E+01 0.874E+01 -.530E+01   0.384E-06 -.384E-06 0.960E-06
   0.211E+02 0.902E+02 -.981E+02   -.198E+02 -.989E+02 0.103E+03   -.134E+01 0.874E+01 -.530E+01   0.330E-06 -.397E-06 0.940E-06
   0.728E+02 -.961E+02 -.633E+02   -.755E+02 0.106E+03 0.653E+02   0.274E+01 -.971E+01 -.207E+01   -.421E-06 0.777E-06 0.743E-06
   0.727E+02 -.962E+02 -.632E+02   -.755E+02 0.106E+03 0.653E+02   0.274E+01 -.971E+01 -.207E+01   -.355E-06 0.742E-06 0.715E-06
   0.136E+03 0.540E+02 0.187E+02   -.143E+03 -.595E+02 -.193E+02   0.680E+01 0.552E+01 0.558E+00   -.124E-05 -.321E-06 0.184E-06
   0.136E+03 0.540E+02 0.187E+02   -.143E+03 -.595E+02 -.192E+02   0.680E+01 0.552E+01 0.558E+00   -.116E-05 -.323E-06 0.193E-06
   0.108E+03 0.952E+02 0.643E+01   -.113E+03 -.101E+03 -.429E+01   0.531E+01 0.597E+01 -.215E+01   -.120E-05 0.152E-06 0.122E-06
   0.108E+03 0.950E+02 0.625E+01   -.114E+03 -.101E+03 -.414E+01   0.534E+01 0.592E+01 -.212E+01   -.126E-05 0.146E-06 0.110E-06
   -.727E+02 -.962E+02 -.633E+02   0.754E+02 0.106E+03 0.653E+02   -.274E+01 -.971E+01 -.207E+01   0.345E-06 0.552E-06 0.721E-06
   -.725E+02 -.961E+02 -.632E+02   0.752E+02 0.106E+03 0.653E+02   -.277E+01 -.971E+01 -.208E+01   0.378E-06 0.563E-06 0.728E-06
   -.219E+02 -.938E+02 -.889E+02   0.205E+02 0.100E+03 0.940E+02   0.133E+01 -.628E+01 -.509E+01   0.163E-06 -.184E-06 0.893E-06
   -.218E+02 -.938E+02 -.889E+02   0.205E+02 0.100E+03 0.940E+02   0.133E+01 -.628E+01 -.509E+01   0.102E-06 -.156E-06 0.869E-06
   0.219E+02 0.938E+02 0.889E+02   -.205E+02 -.100E+03 -.940E+02   -.133E+01 0.628E+01 0.509E+01   -.156E-06 0.189E-06 -.810E-06
   0.217E+02 0.937E+02 0.888E+02   -.204E+02 -.100E+03 -.939E+02   -.132E+01 0.628E+01 0.508E+01   -.874E-07 0.181E-06 -.788E-06
   -.728E+02 0.962E+02 0.632E+02   0.756E+02 -.106E+03 -.653E+02   -.274E+01 0.971E+01 0.207E+01   0.420E-06 -.585E-06 -.818E-06
   -.727E+02 0.961E+02 0.633E+02   0.755E+02 -.106E+03 -.653E+02   -.274E+01 0.971E+01 0.207E+01   0.359E-06 -.566E-06 -.796E-06
   0.124E+02 -.419E+02 0.127E+03   -.126E+02 0.471E+02 -.134E+03   0.246E+00 -.519E+01 0.705E+01   0.132E-06 0.417E-09 -.101E-05
   0.124E+02 -.420E+02 0.127E+03   -.126E+02 0.472E+02 -.134E+03   0.246E+00 -.519E+01 0.705E+01   0.113E-06 -.877E-08 -.972E-06
 -----------------------------------------------------------------------------------------------
   0.132E-01 -.156E+00 0.566E-01   0.320E-12 0.000E+00 0.114E-12   -.132E-01 0.156E+00 -.566E-01   -.130E-07 -.769E-07 -.206E-07


 POSITION                                       TOTAL-FORCE (eV/Angst)
 -----------------------------------------------------------------------------------
      7.83031      7.96182     -7.59135         0.068010     -0.006429      0.023801
     16.23455      7.96182     -7.59135         0.002464     -0.001270      0.000909
      3.16872      2.44282     -6.01943         0.002171     -0.000881     -0.002533
     11.56297      2.44282     -6.01943         0.002130     -0.000978     -0.002502
      1.76685      7.82725    -10.10485        -0.000152     -0.000007     -0.000571
     10.16110      7.82725    -10.10485         0.002676      0.001898     -0.001664
      5.05050      1.12562     -8.40433         0.001630     -0.000590     -0.000758
     13.44475      1.12562     -8.40433         0.001561     -0.000639     -0.000692
      5.13205      1.09979     -2.45651        -0.000165      0.000415     -0.000276
     13.52630      1.09979     -2.45651        -0.000099      0.000445     -0.000278
      3.26219      7.47505     -8.62356         0.000106     -0.000564      0.000326
     11.65644      7.47505     -8.62356         0.000449     -0.001116     -0.002268
      3.34375      7.44923     -2.67574        -0.001564      0.000741      0.000661
     11.73799      7.44923     -2.67574        -0.001617      0.000698      0.000565
      7.36585      0.97835     -4.87422         0.001969      0.000936      0.002372
     15.76010      0.97835     -4.87422         0.002160      0.000896      0.002490
      2.43027      2.67356     -9.91842         0.000098     -0.000013     -0.000426
     10.82452      2.67356     -9.91842         0.000127     -0.000095     -0.000434
      4.75106      2.80814     -7.40493        -0.002526     -0.001250      0.001030
     13.14531      2.80814     -7.40493        -0.002532     -0.001201      0.000950
      7.45932      6.25348     -2.64294        -0.000050      0.000483     -0.000370
     15.85356      6.25348     -2.64294         0.000108      0.000422     -0.000262
      1.02840      7.59650     -6.20585        -0.002096     -0.000896     -0.002528
      9.42265      7.59650     -6.20585        -0.025699      0.019445     -0.029648
      0.85338      2.29554     -2.48931         0.001591      0.000643      0.000683
      9.24762      2.29554     -2.48931         0.001342      0.000594      0.000587
      3.64318      5.76671     -3.67515         0.002405      0.001038     -0.000882
     12.03743      5.76671     -3.67515         0.002405      0.001279     -0.000923
      0.55394      0.61303     -3.48872        -0.002477      0.001259     -0.000944
      8.94819      0.61303     -3.48872        -0.002112      0.000890     -0.000972
      5.79350     -0.03143     -4.03202        -0.001286      0.001880      0.000409
     14.18775     -0.03143     -4.03202        -0.001203      0.001768      0.000279
      4.85766      7.53946     -1.03917        -0.003908      0.002040     -0.000240
     13.25190      7.53946     -1.03917        -0.003987      0.002088     -0.000308
      5.96398      5.90128     -1.16165        -0.000040     -0.000153      0.000331
     14.35822      5.90128     -1.16165         0.000041     -0.000095      0.000518
      3.53659      1.03539    -10.04090         0.003877     -0.002070      0.000231
     11.93084      1.03539    -10.04090         0.003889     -0.002043      0.000246
      6.62739      0.74760     -0.97522         0.000117      0.000019      0.000464
     15.02164      0.74760     -0.97522         0.000040     -0.000022      0.000445
      1.59638      3.45260     -6.86163        -0.001199     -0.001774     -0.000242
      9.99063      3.45260     -6.86163        -0.000969     -0.001706     -0.000158
      0.93493      2.32137     -8.43713        -0.000097     -0.000458      0.000273
      9.32918      2.32137     -8.43713        -0.000171     -0.000605      0.000295
      7.54087      6.27930     -8.59076        -0.016093     -0.017723     -0.005095
     15.93512      6.27930     -8.59076        -0.001534     -0.000624     -0.000679
      2.60074      8.60628     -7.04805         0.001159     -0.001718     -0.000139
     10.99499      8.60628     -7.04805        -0.024012     -0.009692      0.006514
      7.73371      2.38578     -0.85274         0.003932      0.002137     -0.000274
     16.12796      2.38578     -0.85274         0.003927      0.002050     -0.000277
      0.66053      6.18907    -10.22733        -0.003900     -0.001988      0.000285
      9.05478      6.18907    -10.22733        -0.008813      0.007134      0.005908
      6.79787      5.12225     -4.21845         0.001186      0.001784      0.000240
     15.19211      5.12225     -4.21845         0.001232      0.001856      0.000207
      5.22552      6.13203     -5.06065        -0.002227      0.000932      0.002741
     13.61977      6.13203     -5.06065        -0.002271      0.000830      0.002583
 -----------------------------------------------------------------------------------
    total drift:                                0.000000      0.000001      0.000002


--------------------------------------------------------------------------------------------------------



  FREE ENERGIE OF THE ION-ELECTRON SYSTEM (eV)
  ---------------------------------------------------
  free  energy   TOTEN  =      -229.37624845 eV

  energy  without entropy=     -229.37624845  energy(sigma->0) =     -229.37624845



--------------------------------------------------------------------------------------------------------


    POTLOK:  cpu time      6.2558: real time      6.2613


--------------------------------------------------------------------------------------------------------


     LOOP+:  cpu time   2723.5829: real time   2725.1808
    4ORBIT:  cpu time      0.0000: real time      0.0000



 total charge

# of ion       s       p       d       tot
------------------------------------------
    1        1.376   2.246   0.000   3.622
    2        1.376   2.247   0.000   3.623
    3        1.376   2.258   0.000   3.635
    4        1.376   2.258   0.000   3.635
    5        1.376   2.247   0.000   3.623
    6        1.376   2.247   0.000   3.623
    7        1.375   2.262   0.000   3.638
    8        1.375   2.262   0.000   3.638
    9        1.377   2.257   0.000   3.634
   10        1.377   2.257   0.000   3.634
   11        1.377   2.257   0.000   3.634
   12        1.377   2.257   0.000   3.634
   13        1.375   2.262   0.000   3.638
   14        1.375   2.262   0.000   3.638
   15        1.376   2.258   0.000   3.635
   16        1.376   2.258   0.000   3.635
   17        1.376   2.247   0.000   3.622
   18        1.376   2.247   0.000   3.623
   19        1.376   2.247   0.000   3.623
   20        1.376   2.247   0.000   3.623
   21        1.377   2.257   0.000   3.634
   22        1.377   2.257   0.000   3.634
   23        1.376   2.258   0.000   3.635
   24        1.377   2.257   0.000   3.633
   25        1.375   2.262   0.000   3.638
   26        1.375   2.262   0.000   3.638
   27        1.376   2.247   0.000   3.623
   28        1.376   2.247   0.000   3.623
   29        1.376   2.247   0.000   3.623
   30        1.376   2.247   0.000   3.623
   31        1.376   2.254   0.000   3.630
   32        1.376   2.254   0.000   3.630
   33        1.375   2.263   0.000   3.638
   34        1.375   2.263   0.000   3.638
   35        1.376   2.247   0.000   3.623
   36        1.376   2.247   0.000   3.623
   37        1.375   2.263   0.000   3.638
   38        1.375   2.263   0.000   3.638
   39        1.376   2.247   0.000   3.623
   40        1.376   2.247   0.000   3.623
   41        1.376   2.254   0.000   3.630
   42        1.376   2.254   0.000   3.630
   43        1.377   2.257   0.000   3.634
   44        1.377   2.257   0.000   3.634
   45        1.375   2.263   0.000   3.638
   46        1.375   2.262   0.000   3.638
   47        1.376   2.254   0.000   3.630
   48        1.376   2.254   0.000   3.629
   49        1.375   2.263   0.000   3.638
   50        1.375   2.263   0.000   3.638
   51        1.375   2.263   0.000   3.638
   52        1.375   2.263   0.000   3.638
   53        1.376   2.254   0.000   3.630
   54        1.376   2.254   0.000   3.630
   55        1.376   2.258   0.000   3.635
   56        1.376   2.258   0.000   3.635
--------------------------------------------------
tot         77.050 126.309   0.000 203.359



 magnetization (x)

# of ion       s       p       d       tot
------------------------------------------
    1        0.000   0.000   0.000   0.000
    2        0.000   0.000   0.000   0.000
    3        0.000   0.000   0.000   0.000
    4        0.000   0.000   0.000   0.000
    5        0.000   0.000   0.000   0.000
    6        0.000   0.000   0.000   0.000
    7        0.000   0.000   0.000   0.000
    8        0.000   0.000   0.000   0.000
    9        0.000   0.000   0.000   0.000
   10        0.000   0.000   0.000   0.000
   11        0.000   0.000   0.000   0.000
   12        0.000   0.000   0.000   0.000
   13        0.000   0.000   0.000   0.000
   14        0.000   0.000   0.000   0.000
   15        0.000   0.000   0.000   0.000
   16        0.000   0.000   0.000   0.000
   17        0.000   0.000   0.000   0.000
   18        0.000   0.000   0.000   0.000
   19        0.000   0.000   0.000   0.000
   20        0.000   0.000   0.000   0.000
   21        0.000   0.000   0.000   0.000
   22        0.000   0.000   0.000   0.000
   23        0.000   0.000   0.000   0.000
   24        0.000   0.000   0.000   0.000
   25        0.000   0.000   0.000   0.000
   26        0.000   0.000   0.000   0.000
   27        0.000   0.000   0.000   0.000
   28        0.000   0.000   0.000   0.000
   29        0.000   0.000   0.000   0.000
   30        0.000   0.000   0.000   0.000
   31        0.000   0.000   0.000   0.000
   32        0.000   0.000   0.000   0.000
   33        0.000   0.000   0.000   0.000
   34        0.000   0.000   0.000   0.000
   35        0.000   0.000   0.000   0.000
   36        0.000   0.000   0.000   0.000
   37        0.000   0.000   0.000   0.000
   38        0.000   0.000   0.000   0.000
   39        0.000   0.000   0.000   0.000
   40        0.000   0.000   0.000   0.000
   41        0.000   0.000   0.000   0.000
   42        0.000   0.000   0.000   0.000
   43        0.000   0.000   0.000   0.000
   44        0.000   0.000   0.000   0.000
   45        0.000   0.000   0.000   0.000
   46        0.000   0.000   0.000   0.000
   47        0.000   0.000   0.000   0.000
   48        0.000   0.000   0.000   0.000
   49        0.000   0.000   0.000   0.000
   50        0.000   0.000   0.000   0.000
   51        0.000   0.000   0.000   0.000
   52        0.000   0.000   0.000   0.000
   53        0.000   0.000   0.000   0.000
   54        0.000   0.000   0.000   0.000
   55        0.000   0.000   0.000   0.000
   56        0.000   0.000   0.000   0.000
--------------------------------------------------
tot          0.000   0.000   0.000   0.000

 BZINTS: Fermi energy:    0.078156;  336.000000 electrons
         Band energy:-0.201108E+04;  BLOECHL correction:    0.000000

 total amount of memory used by VASP MPI-rank0   322725. kBytes
=======================================================================

   base      :      30000. kBytes
   nonl-proj :      70692. kBytes
   fftplans  :      34504. kBytes
   grid      :      83442. kBytes
   one-center:        344. kBytes
   wavefun   :     103743. kBytes

  
  
 General timing and accounting informations for this job:
 ========================================================
  
                  Total CPU time used (sec):     2768.571
                            User time (sec):     2766.805
                          System time (sec):        1.767
                         Elapsed time (sec):     2770.971
  
                   Maximum memory used (kb):      599544.
                   Average memory used (kb):          N/A
  
                          Minor page faults:       816874
                          Major page faults:          101
                 Voluntary context switches:         7427
