 vasp.6.3.2 27Jun22 (build Mar 25 2024 10:42:18) complex                         
 executed on             LinuxGNU date 2024.03.25  18:14:00
 running on   32 total cores
 distrk:  each k-point on   32 cores,    1 groups
 distr:  one band on NCORE=   1 cores,   32 groups


--------------------------------------------------------------------------------------------------------


 INCAR:
   ISTART = 0
   ICHARG = 2
   PREC = Accurate
   ISIF = 3
   IBRION = 2
   EDIFF = 0.000000001
   EDIFFG = -0.0005
   NSW = 200
   NELM = 200
   ENCUT = 520
   ISMEAR = -5
   SIGMA = 0.05
   ISPIN = 2
   ISYM = 1
   LWAVE = False
   LCHARG = False
   MAGMOM = 12*0.6
   LASPH = True
   LORBIT = 11
   LREAL = Auto

 POTCAR:    PAW_PBE Na_pv 19Sep2006               
 POTCAR:    PAW_PBE S 06Sep2000                   
 -----------------------------------------------------------------------------
|                                                                             |
|           W    W    AA    RRRRR   N    N  II  N    N   GGGG   !!!           |
|           W    W   A  A   R    R  NN   N  II  NN   N  G    G  !!!           |
|           W    W  A    A  R    R  N N  N  II  N N  N  G       !!!           |
|           W WW W  AAAAAA  RRRRR   N  N N  II  N  N N  G  GGG   !            |
|           WW  WW  A    A  R   R   N   NN  II  N   NN  G    G                |
|           W    W  A    A  R    R  N    N  II  N    N   GGGG   !!!           |
|                                                                             |
|     For optimal performance we recommend to set                             |
|       NCORE = 2 up to number-of-cores-per-socket                            |
|     NCORE specifies how many cores store one orbital (NPAR=cpu/NCORE).      |
|     This setting can greatly improve the performance of VASP for DFT.       |
|     The default, NCORE=1 might be grossly inefficient on modern             |
|     multi-core architectures or massively parallel machines. Do your        |
|     own testing! More info at https://www.vasp.at/wiki/index.php/NCORE      |
|     Unfortunately you need to use the default for GW and RPA                |
|     calculations (for HF NCORE is supported but not extensively tested      |
|     yet).                                                                   |
|                                                                             |
 -----------------------------------------------------------------------------

 POTCAR:    PAW_PBE Na_pv 19Sep2006               
   SHA256 =  6a2f546d9e11350984debacf3dc457d8cffc0868e817d445faca461816a32b94 Na_pv/POTCAR          
   COPYR  = (c) Copyright 19Sep2006 Georg Kresse                                                    
   COPYR  = This file is part of the software VASP. Any use, copying, and all other rights are regul
   COPYR  = If you do not have a valid VASP license, you may not use, copy or distribute this file. 
   VRHFIN =Na: p6s1                                                                                 
   LEXCH  = PE                                                                                      
   EATOM  =   766.0439 eV,   56.3026 Ry                                                             
                                                                                                    
   TITEL  = PAW_PBE Na_pv 19Sep2006                                                                 
   LULTRA =        F    use ultrasoft PP ?                                                          
   IUNSCR =        1    unscreen: 0-lin 1-nonlin 2-no                                               
   RPACOR =    1.800    partial core radius                                                         
   POMASS =   22.990; ZVAL   =    7.000    mass and valenz                                          
   RCORE  =    2.200    outmost cutoff radius                                                       
   RWIGS  =    2.200; RWIGS  =    1.164    wigner-seitz radius (au A)                               
   ENMAX  =  259.561; ENMIN  =  194.671 eV                                                          
   ICORE  =        2    local potential                                                             
   LCOR   =        T    correct aug charges                                                         
   LPAW   =        T    paw PP                                                                      
   EAUG   =  368.056                                                                                
   DEXC   =    0.000                                                                                
   RMAX   =    2.245    core radius for proj-oper                                                   
   RAUG   =    1.300    factor for augmentation sphere                                              
   RDEP   =    2.259    radius for radial grids                                                     
   RDEPT  =    1.738    core radius for aug-charge                                                  
                                                                                                    
   Atomic configuration                                                                             
    5 entries                                                                                       
     n  l   j            E        occ.                                                              
     1  0  0.50     -1033.6933   2.0000                                                             
     2  0  0.50       -56.7526   2.0000                                                             
     2  1  1.50       -28.6721   6.0000                                                             
     3  0  0.50        -2.7440   1.0000                                                             
     3  2  1.50        -1.3606   0.0000                                                             
   Description                                                                                      
     l       E           TYP  RCUT    TYP  RCUT                                                     
     1    -28.6720912     23  2.000                                                                 
     1      6.8029130     23  2.000                                                                 
     0     -2.7439560     23  2.200                                                                 
     0     34.0145650     23  2.200                                                                 
     2     -1.3605826     23  2.200                                                                 
  local pseudopotential read in
  partial core-charges read in
  partial kinetic energy density read in
  atomic valenz-charges read in
  non local Contribution for L=           1  read in
    real space projection operators read in
  non local Contribution for L=           1  read in
    real space projection operators read in
  non local Contribution for L=           0  read in
    real space projection operators read in
  non local Contribution for L=           0  read in
    real space projection operators read in
    PAW grid and wavefunctions read in

   number of l-projection  operators is LMAX  =           4
   number of lm-projection operators is LMMAX =           8

 POTCAR:    PAW_PBE S 06Sep2000                   
   SHA256 =  0fc7481fb0695f01bdc6462160264c5c84044ae9ec85a907d398b887a2bc3132 S/POTCAR              
   COPYR  = (c) Copyright 06Sep2000 Georg Kresse                                                    
   COPYR  = This file is part of the software VASP. Any use, copying, and all other rights are regul
   COPYR  = If you do not have a valid VASP license, you may not use, copy or distribute this file. 
   VRHFIN =S : s2p4                                                                                 
   LEXCH  = PE                                                                                      
   EATOM  =   276.8230 eV,   20.3459 Ry                                                             
                                                                                                    
   TITEL  = PAW_PBE S 06Sep2000                                                                     
   LULTRA =        F    use ultrasoft PP ?                                                          
   IUNSCR =        1    unscreen: 0-lin 1-nonlin 2-no                                               
   RPACOR =    1.500    partial core radius                                                         
   POMASS =   32.066; ZVAL   =    6.000    mass and valenz                                          
   RCORE  =    1.900    outmost cutoff radius                                                       
   RWIGS  =    2.200; RWIGS  =    1.164    wigner-seitz radius (au A)                               
   ENMAX  =  258.689; ENMIN  =  194.016 eV                                                          
   ICORE  =        2    local potential                                                             
   LCOR   =        T    correct aug charges                                                         
   LPAW   =        T    paw PP                                                                      
   EAUG   =  335.092                                                                                
   DEXC   =    0.000                                                                                
   RMAX   =    1.942    core radius for proj-oper                                                   
   RAUG   =    1.300    factor for augmentation sphere                                              
   RDEP   =    1.954    radius for radial grids                                                     
   RDEPT  =    1.744    core radius for aug-charge                                                  
                                                                                                    
   Atomic configuration                                                                             
    6 entries                                                                                       
     n  l   j            E        occ.                                                              
     1  0  0.50     -2405.8406   2.0000                                                             
     2  0  0.50      -211.7007   2.0000                                                             
     2  1  1.50      -156.4958   6.0000                                                             
     3  0  0.50       -17.2562   2.0000                                                             
     3  1  0.50        -7.0085   4.0000                                                             
     3  2  1.50        -6.8029   0.0000                                                             
   Description                                                                                      
     l       E           TYP  RCUT    TYP  RCUT                                                     
     0    -17.2561641     23  1.900                                                                 
     0    -15.8743224     23  1.900                                                                 
     1     -7.0085400     23  1.900                                                                 
     1     -2.7779785     23  1.900                                                                 
     2     -6.8029130     23  1.900                                                                 
  local pseudopotential read in
  partial core-charges read in
  partial kinetic energy density read in
  atomic valenz-charges read in
  non local Contribution for L=           0  read in
    real space projection operators read in
  non local Contribution for L=           0  read in
    real space projection operators read in
  non local Contribution for L=           1  read in
    real space projection operators read in
  non local Contribution for L=           1  read in
    real space projection operators read in
    PAW grid and wavefunctions read in

   number of l-projection  operators is LMAX  =           4
   number of lm-projection operators is LMMAX =           8

 -----------------------------------------------------------------------------
|                                                                             |
|               ----> ADVICE to this user running VASP <----                  |
|                                                                             |
|     You have a (more or less) 'small supercell' and for smaller cells       |
|     it is recommended to use the reciprocal-space projection scheme!        |
|     The real-space optimization is not efficient for small cells and it     |
|     is also less accurate ...                                               |
|     Therefore, set LREAL=.FALSE. in the INCAR file.                         |
|                                                                             |
 -----------------------------------------------------------------------------

 Optimization of the real space projectors (new method)

 maximal supplied QI-value         = 17.01
 optimisation between [QCUT,QGAM] = [ 11.57, 23.30] = [ 37.45,152.03] Ry 
 Optimized for a Real-space Cutoff    1.45 Angstroem

   l    n(q)    QCUT    max X(q) W(low)/X(q) W(high)/X(q)  e(spline) 
   1     10    11.565     4.940    0.87E-04    0.13E-03    0.13E-06
   1     10    11.565     6.253    0.13E-03    0.19E-03    0.20E-06
   0     10    11.565    37.438    0.53E-04    0.73E-05    0.79E-07
   0     10    11.565     9.606    0.27E-04    0.60E-05    0.56E-07
 Optimization of the real space projectors (new method)

 maximal supplied QI-value         = 19.84
 optimisation between [QCUT,QGAM] = [ 11.51, 23.22] = [ 37.09,150.92] Ry 
 Optimized for a Real-space Cutoff    1.21 Angstroem

   l    n(q)    QCUT    max X(q) W(low)/X(q) W(high)/X(q)  e(spline) 
   0      8    11.508   187.594    0.96E-04    0.18E-03    0.54E-07
   0      8    11.508   164.243    0.96E-04    0.18E-03    0.54E-07
   1      8    11.508    67.533    0.18E-03    0.65E-04    0.94E-07
   1      8    11.508    50.729    0.18E-03    0.63E-04    0.92E-07
  PAW_PBE Na_pv 19Sep2006               :
 energy of atom  1       EATOM= -766.0439
 kinetic energy error for atom=    0.0019 (will be added to EATOM!!)
  PAW_PBE S 06Sep2000                   :
 energy of atom  2       EATOM= -276.8230
 kinetic energy error for atom=    0.0016 (will be added to EATOM!!)


 POSCAR: Na4 S4
  positions in direct lattice
  No initial velocities read in
 exchange correlation table for  LEXCH =        8
   RHO(1)=    0.500       N(1)  =     2000
   RHO(2)=  100.500       N(2)  =     4000



--------------------------------------------------------------------------------------------------------


 ion  position               nearest neighbor table
   1  0.000  0.000  0.000-
   2  0.000  0.000  0.500-
   3  0.333  0.667  0.250-   6 2.79   7 2.79   6 2.79   7 2.79   6 2.79   7 2.79
   4  0.667  0.333  0.750-   5 2.79   8 2.79   5 2.79   8 2.79   5 2.79   8 2.79
   5  0.333  0.667  0.644-   8 2.15   4 2.79   4 2.79   4 2.79
   6  0.667  0.333  0.144-   7 2.15   3 2.79   3 2.79   3 2.79
   7  0.667  0.333  0.356-   6 2.15   3 2.79   3 2.79   3 2.79
   8  0.333  0.667  0.856-   5 2.15   4 2.79   4 2.79   4 2.79

  LATTYP: Found a hexagonal cell.
 ALAT       =     4.4515472190
 C/A-ratio  =     2.2859024693
  
  Lattice vectors:
  
 A1 = (   2.2257736095,  -3.8551529778,   0.0000000000)
 A2 = (   2.2257736095,   3.8551529778,   0.0000000000)
 A3 = (   0.0000000000,   0.0000000000,  10.1758027800)


Analysis of symmetry for initial positions (statically):
=====================================================================
 Subroutine PRICEL returns:
 Original cell was already a primitive cell.
 

 Routine SETGRP: Setting up the symmetry group for a 
 hexagonal supercell.


 Subroutine GETGRP returns: Found 24 space group operations
 (whereof 12 operations were pure point group operations)
 out of a pool of 24 trial point group operations.


The static configuration has the point symmetry D_3d.
 The point group associated with its full space group is D_6h.


Analysis of symmetry for dynamics (positions and initial velocities):
=====================================================================
 Subroutine PRICEL returns:
 Original cell was already a primitive cell.
 

 Routine SETGRP: Setting up the symmetry group for a 
 hexagonal supercell.


 Subroutine GETGRP returns: Found 24 space group operations
 (whereof 12 operations were pure point group operations)
 out of a pool of 24 trial point group operations.


The dynamic configuration has the point symmetry D_3d.
 The point group associated with its full space group is D_6h.


Analysis of structural, dynamic, and magnetic symmetry:
=====================================================================
 Subroutine PRICEL returns:
 Original cell was already a primitive cell.
 

 Routine SETGRP: Setting up the symmetry group for a 
 hexagonal supercell.


 Subroutine GETGRP returns: Found 24 space group operations
 (whereof 12 operations were pure point group operations)
 out of a pool of 24 trial point group operations.


The overall configuration has the point symmetry D_3d.
 The point group associated with its full space group is D_6h.


 Subroutine INISYM returns: Found 24 space group operations
 (whereof 12 operations are pure point group operations),
 and found     1 'primitive' translations


----------------------------------------------------------------------------------------

                                     Primitive cell                                     

  volume of cell :     174.6310

  direct lattice vectors                    reciprocal lattice vectors
     2.225773610 -3.855152978  0.000000000     0.224640996 -0.129696539  0.000000000
     2.225773610  3.855152978  0.000000000     0.224640996  0.129696539 -0.000000000
     0.000000000  0.000000000 10.175802780    -0.000000000  0.000000000  0.098272345

  length of vectors
     4.451547219  4.451547219 10.175802780     0.259393079  0.259393079  0.098272345

  position of ions in fractional coordinates (direct lattice)
     0.000000000  0.000000000  0.000000000
     0.000000000  0.000000000  0.500000000
     0.333333333  0.666666667  0.250000000
     0.666666667  0.333333333  0.750000000
     0.333333333  0.666666667  0.644189120
     0.666666667  0.333333333  0.144189120
     0.666666667  0.333333333  0.355810880
     0.333333333  0.666666667  0.855810880

  ion indices of the primitive-cell ions
   primitive index   ion index
                 1           1
                 2           2
                 3           3
                 4           4
                 5           5
                 6           6
                 7           7
                 8           8

----------------------------------------------------------------------------------------



 KPOINTS: pymatgen with grid density = 727 / numbe

Automatic generation of k-mesh.
 Grid dimensions read from file:
 generate k-points for:    5    5    2

 Generating k-lattice:

  Cartesian coordinates                     Fractional coordinates (reciprocal lattice)
     0.044928199 -0.025939308  0.000000000     0.200000000  0.000000000  0.000000000
     0.044928199  0.025939308 -0.000000000     0.000000000  0.200000000  0.000000000
    -0.000000000  0.000000000  0.049136172     0.000000000  0.000000000  0.500000000

  Length of vectors
     0.051878616  0.051878616  0.049136172

  Shift w.r.t. Gamma in fractional coordinates (k-lattice)
     0.000000000  0.000000000  0.000000000

 TETIRR: Found     55 inequivalent tetrahedra from      300
 
 Subroutine IBZKPT returns following result:
 ===========================================
 
 Found     10 irreducible k-points:
 
 Following reciprocal coordinates:
            Coordinates               Weight
  0.000000  0.000000  0.000000      1.000000
  0.200000  0.000000  0.000000      6.000000
  0.400000  0.000000  0.000000      6.000000
  0.200000  0.200000  0.000000      6.000000
  0.400000  0.200000  0.000000      6.000000
  0.000000  0.000000  0.500000      1.000000
  0.200000  0.000000  0.500000      6.000000
  0.400000  0.000000  0.500000      6.000000
  0.200000  0.200000  0.500000      6.000000
  0.400000  0.200000  0.500000      6.000000
 
 Following cartesian coordinates:
            Coordinates               Weight
  0.000000  0.000000  0.000000      1.000000
  0.044928 -0.025939  0.000000      6.000000
  0.089856 -0.051879  0.000000      6.000000
  0.089856 -0.000000  0.000000      6.000000
  0.134785 -0.025939  0.000000      6.000000
  0.000000  0.000000  0.049136      1.000000
  0.044928 -0.025939  0.049136      6.000000
  0.089856 -0.051879  0.049136      6.000000
  0.089856 -0.000000  0.049136      6.000000
  0.134785 -0.025939  0.049136      6.000000
 


--------------------------------------------------------------------------------------------------------




 Dimension of arrays:
   k-points           NKPTS =     10   k-points in BZ     NKDIM =     10   number of bands    NBANDS=     64
   number of dos      NEDOS =    301   number of ions     NIONS =      8
   non local maximal  LDIM  =      4   non local SUM 2l+1 LMDIM =      8
   total plane-waves  NPLWV = 103680
   max r-space proj   IRMAX =   7565   max aug-charges    IRDMAX=  18902
   dimension x,y,z NGX =    36 NGY =   36 NGZ =   80
   dimension x,y,z NGXF=    72 NGYF=   72 NGZF=  160
   support grid    NGXF=    72 NGYF=   72 NGZF=  160
   ions per type =               4   4
   NGX,Y,Z   is equivalent  to a cutoff of  13.44, 13.44, 13.07 a.u.
   NGXF,Y,Z  is equivalent  to a cutoff of  26.89, 26.89, 26.14 a.u.

 SYSTEM =  unknown system                          
 POSCAR =  Na4 S4                                  

 Startparameter for this run:
   NWRITE =      2    write-flag & timer
   PREC   = accura    normal or accurate (medium, high low for compatibility)
   ISTART =      0    job   : 0-new  1-cont  2-samecut
   ICHARG =      2    charge: 1-file 2-atom 10-const
   ISPIN  =      2    spin polarized calculation?
   LNONCOLLINEAR =      F non collinear calculations
   LSORBIT =      F    spin-orbit coupling
   INIWAV =      1    electr: 0-lowe 1-rand  2-diag
   LASPH  =      T    aspherical Exc in radial PAW
 Electronic Relaxation 1
   ENCUT  =  520.0 eV  38.22 Ry    6.18 a.u.   8.28  8.28 18.92*2*pi/ulx,y,z
   ENINI  =  520.0     initial cutoff
   ENAUG  =  368.1 eV  augmentation charge cutoff
   NELM   =    200;   NELMIN=  2; NELMDL= -5     # of ELM steps 
   EDIFF  = 0.1E-08   stopping-criterion for ELM
   LREAL  =      T    real-space projection
   NLSPLINE    = F    spline interpolate recip. space projectors
   LCOMPAT=      F    compatible to vasp.4.4
   GGA_COMPAT  = T    GGA compatible to vasp.4.4-vasp.4.6
   LMAXPAW     = -100 max onsite density
   LMAXMIX     =    2 max onsite mixed and CHGCAR
   VOSKOWN=      0    Vosko Wilk Nusair interpolation
   ROPT   =   -0.00025  -0.00025
 Ionic relaxation
   EDIFFG = -.5E-03   stopping-criterion for IOM
   NSW    =    200    number of steps for IOM
   NBLOCK =      1;   KBLOCK =    200    inner block; outer block 
   IBRION =      2    ionic relax: 0-MD 1-quasi-New 2-CG
   NFREE  =      1    steps in history (QN), initial steepest desc. (CG)
   ISIF   =      3    stress and relaxation
   IWAVPR =     11    prediction:  0-non 1-charg 2-wave 3-comb
   ISYM   =      1    0-nonsym 1-usesym 2-fastsym
   LCORR  =      T    Harris-Foulkes like correction to forces

   POTIM  = 0.5000    time-step for ionic-motion
   TEIN   =    0.0    initial temperature
   TEBEG  =    0.0;   TEEND  =   0.0 temperature during run
   SMASS  =  -3.00    Nose mass-parameter (am)
   estimated Nose-frequenzy (Omega)   =  0.10E-29 period in steps = 0.13E+47 mass=  -0.453E-27a.u.
   SCALEE = 1.0000    scale energy and forces
   NPACO  =    256;   APACO  = 10.0  distance and # of slots for P.C.
   PSTRESS=    0.0 pullay stress

  Mass of Ions in am
   POMASS =  22.99 32.07
  Ionic Valenz
   ZVAL   =   7.00  6.00
  Atomic Wigner-Seitz radii
   RWIGS  =  -1.00 -1.00
  virtual crystal weights 
   VCA    =   1.00  1.00
   NELECT =      52.0000    total number of electrons
   NUPDOWN=      -1.0000    fix difference up-down

 DOS related values:
   EMIN   =  10.00;   EMAX   =-10.00  energy-range for DOS
   EFERMI =   0.00
   ISMEAR =    -5;   SIGMA  =   0.05  broadening in eV -4-tet -1-fermi 0-gaus

 Electronic relaxation 2 (details)
   IALGO  =     38    algorithm
   LDIAG  =      T    sub-space diagonalisation (order eigenvalues)
   LSUBROT=      F    optimize rotation matrix (better conditioning)
   TURBO    =      0    0=normal 1=particle mesh
   IRESTART =      0    0=no restart 2=restart with 2 vectors
   NREBOOT  =      0    no. of reboots
   NMIN     =      0    reboot dimension
   EREF     =   0.00    reference energy to select bands
   IMIX   =      4    mixing-type and parameters
     AMIX     =   0.40;   BMIX     =  1.00
     AMIX_MAG =   1.60;   BMIX_MAG =  1.00
     AMIN     =   0.10
     WC   =   100.;   INIMIX=   1;  MIXPRE=   1;  MAXMIX= -45

 Intra band minimization:
   WEIMIN = 0.0010     energy-eigenvalue tresh-hold
   EBREAK =  0.39E-11  absolut break condition
   DEPER  =   0.30     relativ break condition  

   TIME   =   0.40     timestep for ELM

  volume/ion in A,a.u.               =      21.83       147.31
  Fermi-wavevector in a.u.,A,eV,Ry     =   1.093206  2.065861 16.260327  1.195100
  Thomas-Fermi vector in A             =   2.229487

 Write flags
   LWAVE        =      F    write WAVECAR
   LDOWNSAMPLE  =      F    k-point downsampling of WAVECAR
   LCHARG       =      F    write CHGCAR
   LVTOT        =      F    write LOCPOT, total local potential
   LVHAR        =      F    write LOCPOT, Hartree potential only
   LELF         =      F    write electronic localiz. function (ELF)
   LORBIT       =     11    0 simple, 1 ext, 2 COOP (PROOUT), +10 PAW based schemes


 Dipole corrections
   LMONO  =      F    monopole corrections only (constant potential shift)
   LDIPOL =      F    correct potential (dipole corrections)
   IDIPOL =      0    1-x, 2-y, 3-z, 4-all directions 
   EPSILON=  1.0000000 bulk dielectric constant

 Exchange correlation treatment:
   GGA     =    --    GGA type
   LEXCH   =     8    internal setting for exchange type
   LIBXC   =     F    Libxc                    
   VOSKOWN =     0    Vosko Wilk Nusair interpolation
   LHFCALC =     F    Hartree Fock is set to
   LHFONE  =     F    Hartree Fock one center treatment
   AEXX    =    0.0000 exact exchange contribution

 Linear response parameters
   LEPSILON=     F    determine dielectric tensor
   LRPA    =     F    only Hartree local field effects (RPA)
   LNABLA  =     F    use nabla operator in PAW spheres
   LVEL    =     F    velocity operator in full k-point grid
   CSHIFT  =0.1000    complex shift for real part using Kramers Kronig
   OMEGAMAX=  -1.0    maximum frequency
   DEG_THRESHOLD= 0.2000000E-02 threshold for treating states as degnerate
   RTIME   =   -0.100 relaxation time in fs
  (WPLASMAI=    0.000 imaginary part of plasma frequency in eV, 0.658/RTIME)
   DFIELD  = 0.0000000 0.0000000 0.0000000 field for delta impulse in time

  Optional k-point grid parameters
   LKPOINTS_OPT  =     F    use optional k-point grid
   KPOINTS_OPT_MODE=     1    mode for optional k-point grid

 Orbital magnetization related:
   ORBITALMAG=     F  switch on orbital magnetization
   LCHIMAG   =     F  perturbation theory with respect to B field
   DQ        =  0.001000  dq finite difference perturbation B field
   LLRAUG    =     F  two centre corrections for induced B field



--------------------------------------------------------------------------------------------------------


 conjugate gradient relaxation of ions
 charge density and potential will be updated during run
 spin polarized calculation
 Variant of blocked Davidson
 Davidson routine will perform the subspace rotation
 perform sub-space diagonalisation
    after iterative eigenvector-optimisation
 modified Broyden-mixing scheme, WC =      100.0
 initial mixing is a Kerker type mixing with AMIX =  0.4000 and BMIX =      1.0000
 Hartree-type preconditioning will be used
 using additional bands           38
 real space projection scheme for non local part
 use partial core corrections
 calculate Harris-corrections to forces   (improved forces if not selfconsistent)
 use gradient corrections 
 use of overlap-Matrix (Vanderbilt PP)
 Fermi weights with tetrahedron method with Bloechl corrections


--------------------------------------------------------------------------------------------------------


  energy-cutoff  :      520.00
  volume of cell :      174.63
      direct lattice vectors                 reciprocal lattice vectors
     2.225773610 -3.855152978  0.000000000     0.224640996 -0.129696539  0.000000000
     2.225773610  3.855152978  0.000000000     0.224640996  0.129696539 -0.000000000
     0.000000000  0.000000000 10.175802780    -0.000000000  0.000000000  0.098272345

  length of vectors
     4.451547219  4.451547219 10.175802780     0.259393079  0.259393079  0.098272345



 k-points in units of 2pi/SCALE and weight: pymatgen with grid density = 727 / numbe
   0.00000000 -0.00000000  0.00000000       0.020
   0.04492820 -0.02593931  0.00000000       0.120
   0.08985640 -0.05187862  0.00000000       0.120
   0.08985640  0.00000000  0.00000000       0.120
   0.13478460 -0.02593931  0.00000000       0.120
   0.00000000 -0.00000000  0.04913617       0.020
   0.04492820 -0.02593931  0.04913617       0.120
   0.08985640 -0.05187862  0.04913617       0.120
   0.08985640  0.00000000  0.04913617       0.120
   0.13478460 -0.02593931  0.04913617       0.120

 k-points in reciprocal lattice and weights: pymatgen with grid density = 727 / numbe
   0.00000000  0.00000000  0.00000000       0.020
   0.20000000  0.00000000  0.00000000       0.120
   0.40000000  0.00000000  0.00000000       0.120
   0.20000000  0.20000000  0.00000000       0.120
   0.40000000  0.20000000  0.00000000       0.120
   0.00000000  0.00000000  0.50000000       0.020
   0.20000000  0.00000000  0.50000000       0.120
   0.40000000  0.00000000  0.50000000       0.120
   0.20000000  0.20000000  0.50000000       0.120
   0.40000000  0.20000000  0.50000000       0.120

 position of ions in fractional coordinates (direct lattice) 
   0.00000000  0.00000000  0.00000000
   0.00000000  0.00000000  0.50000000
   0.33333333  0.66666667  0.25000000
   0.66666667  0.33333333  0.75000000
   0.33333333  0.66666667  0.64418912
   0.66666667  0.33333333  0.14418912
   0.66666667  0.33333333  0.35581088
   0.33333333  0.66666667  0.85581088

 position of ions in cartesian coordinates  (Angst):
   0.00000000  0.00000000  0.00000000
   0.00000000  0.00000000  5.08790139
   2.22577361  1.28505099  2.54395069
   2.22577361 -1.28505099  7.63185209
   2.22577361  1.28505099  6.55514144
   2.22577361 -1.28505099  1.46724005
   2.22577361 -1.28505099  3.62066134
   2.22577361  1.28505099  8.70856273



--------------------------------------------------------------------------------------------------------


 k-point   1 :   0.0000 0.0000 0.0000  plane waves:    4735
 k-point   2 :   0.2000 0.0000 0.0000  plane waves:    4714
 k-point   3 :   0.4000 0.0000 0.0000  plane waves:    4690
 k-point   4 :   0.2000 0.2000 0.0000  plane waves:    4702
 k-point   5 :   0.4000 0.2000 0.0000  plane waves:    4702
 k-point   6 :   0.0000 0.0000 0.5000  plane waves:    4730
 k-point   7 :   0.2000 0.0000 0.5000  plane waves:    4702
 k-point   8 :   0.4000 0.0000 0.5000  plane waves:    4704
 k-point   9 :   0.2000 0.2000 0.5000  plane waves:    4692
 k-point  10 :   0.4000 0.2000 0.5000  plane waves:    4682

 maximum and minimum number of plane-waves per node :      4735     4682

 maximum number of plane-waves:      4735
 maximum index in each direction: 
   IXMAX=    8   IYMAX=    8   IZMAX=   18
   IXMIN=   -8   IYMIN=   -8   IZMIN=  -19


 serial   3D FFT for wavefunctions
 parallel 3D FFT for charge:
    minimum data exchange during FFTs selected (reduces bandwidth)


 total amount of memory used by VASP MPI-rank0    50073. kBytes
=======================================================================

   base      :      30000. kBytes
   nonlr-proj:       4284. kBytes
   fftplans  :       1540. kBytes
   grid      :      11128. kBytes
   one-center:         49. kBytes
   wavefun   :       3072. kBytes

     INWAV:  cpu time      0.0000: real time      0.0002
 Broyden mixing: mesh for mixing (old mesh)
   NGX = 17   NGY = 17   NGZ = 37
  (NGX  = 72   NGY  = 72   NGZ  =160)
  gives a total of  10693 points

 initial charge density was supplied:
 charge density of overlapping atoms calculated
 number of electron      52.0000000 magnetization       4.8000000
 keeping initial charge density in first step


--------------------------------------------------------------------------------------------------------


 Maximum index for non-local projection operator         7301
 Maximum index for augmentation-charges         1216 (set IRDMAX)


--------------------------------------------------------------------------------------------------------


 First call to EWALD:  gamma=   0.317
 Maximum number of real-space cells 4x 4x 2
 Maximum number of reciprocal cells 2x 2x 5

    FEWALD:  cpu time      0.0007: real time      0.0007


--------------------------------------- Iteration      1(   1)  ---------------------------------------


    POTLOK:  cpu time      0.0742: real time      0.0742
    SETDIJ:  cpu time      0.4323: real time      0.4325
     EDDAV:  cpu time      1.3496: real time      1.3504
 BZINTS: Fermi energy:    9.822389;   52.000000 electrons
         Band energy:-0.224865E+03;  BLOECHL correction:   -0.108832
       DOS:  cpu time      0.0265: real time      0.0265
    --------------------------------------------
      LOOP:  cpu time      1.8826: real time      1.8836

 eigenvalue-minimisations  :  2560
 total energy-change (2. order) : 0.3446212E+03  (-0.2490453E+04)
 number of electron      52.0000000 magnetization       4.8000000
 augmentation part       52.0000000 magnetization       4.8000000

 Free energy of the ion-electron system (eV)
  ---------------------------------------------------
  alpha Z        PSCENC =        81.84507930
  Ewald energy   TEWEN  =     -2439.44046369
  -Hartree energ DENC   =     -1051.00564002
  -exchange      EXHF   =         0.00000000
  -V(xc)+E(xc)   XCENC  =       148.07043743
  PAW double counting   =      2878.99561334    -3220.43224995
  entropy T*S    EENTRO =         0.00000000
  eigenvalues    EBANDS =      -224.86530516
  atomic energy  EATOM  =      4171.45368150
  Solvation  Ediel_sol  =         0.00000000
  ---------------------------------------------------
  free energy    TOTEN  =       344.62115275 eV

  energy without entropy =      344.62115275  energy(sigma->0) =      344.62115275


--------------------------------------------------------------------------------------------------------




--------------------------------------- Iteration      1(   2)  ---------------------------------------


     EDDAV:  cpu time      1.6383: real time      1.6393
 BZINTS: Fermi energy:    2.185019;   52.000000 electrons
         Band energy:-0.574574E+03;  BLOECHL correction:    0.000000
       DOS:  cpu time      0.0155: real time      0.0156
    --------------------------------------------
      LOOP:  cpu time      1.6538: real time      1.6548

 eigenvalue-minimisations  :  3040
 total energy-change (2. order) :-0.3497084E+03  (-0.3272029E+03)
 number of electron      52.0000000 magnetization       4.8000000
 augmentation part       52.0000000 magnetization       4.8000000

 Free energy of the ion-electron system (eV)
  ---------------------------------------------------
  alpha Z        PSCENC =        81.84507930
  Ewald energy   TEWEN  =     -2439.44046369
  -Hartree energ DENC   =     -1051.00564002
  -exchange      EXHF   =         0.00000000
  -V(xc)+E(xc)   XCENC  =       148.07043743
  PAW double counting   =      2878.99561334    -3220.43224995
  entropy T*S    EENTRO =         0.00000000
  eigenvalues    EBANDS =      -574.57371258
  atomic energy  EATOM  =      4171.45368150
  Solvation  Ediel_sol  =         0.00000000
  ---------------------------------------------------
  free energy    TOTEN  =        -5.08725467 eV

  energy without entropy =       -5.08725467  energy(sigma->0) =       -5.08725467


--------------------------------------------------------------------------------------------------------




--------------------------------------- Iteration      1(   3)  ---------------------------------------


     EDDAV:  cpu time      2.1050: real time      2.1063
 BZINTS: Fermi energy:    1.418067;   52.000000 electrons
         Band energy:-0.597673E+03;  BLOECHL correction:   -0.000000
       DOS:  cpu time      0.0165: real time      0.0166
    --------------------------------------------
      LOOP:  cpu time      2.1215: real time      2.1228

 eigenvalue-minimisations  :  3680
 total energy-change (2. order) :-0.2309971E+02  (-0.2299790E+02)
 number of electron      52.0000000 magnetization       4.8000000
 augmentation part       52.0000000 magnetization       4.8000000

 Free energy of the ion-electron system (eV)
  ---------------------------------------------------
  alpha Z        PSCENC =        81.84507930
  Ewald energy   TEWEN  =     -2439.44046369
  -Hartree energ DENC   =     -1051.00564002
  -exchange      EXHF   =         0.00000000
  -V(xc)+E(xc)   XCENC  =       148.07043743
  PAW double counting   =      2878.99561334    -3220.43224995
  entropy T*S    EENTRO =         0.00000000
  eigenvalues    EBANDS =      -597.67341765
  atomic energy  EATOM  =      4171.45368150
  Solvation  Ediel_sol  =         0.00000000
  ---------------------------------------------------
  free energy    TOTEN  =       -28.18695974 eV

  energy without entropy =      -28.18695974  energy(sigma->0) =      -28.18695974


--------------------------------------------------------------------------------------------------------




--------------------------------------- Iteration      1(   4)  ---------------------------------------


     EDDAV:  cpu time      3.0312: real time      3.0324
 BZINTS: Fermi energy:    1.408495;   52.000000 electrons
         Band energy:-0.597980E+03;  BLOECHL correction:   -0.000000
       DOS:  cpu time      0.0155: real time      0.0156
    --------------------------------------------
      LOOP:  cpu time      3.0468: real time      3.0480

 eigenvalue-minimisations  :  2880
 total energy-change (2. order) :-0.3069025E+00  (-0.3068712E+00)
 number of electron      52.0000000 magnetization       4.8000000
 augmentation part       52.0000000 magnetization       4.8000000

 Free energy of the ion-electron system (eV)
  ---------------------------------------------------
  alpha Z        PSCENC =        81.84507930
  Ewald energy   TEWEN  =     -2439.44046369
  -Hartree energ DENC   =     -1051.00564002
  -exchange      EXHF   =         0.00000000
  -V(xc)+E(xc)   XCENC  =       148.07043743
  PAW double counting   =      2878.99561334    -3220.43224995
  entropy T*S    EENTRO =         0.00000000
  eigenvalues    EBANDS =      -597.98032010
  atomic energy  EATOM  =      4171.45368150
  Solvation  Ediel_sol  =         0.00000000
  ---------------------------------------------------
  free energy    TOTEN  =       -28.49386219 eV

  energy without entropy =      -28.49386219  energy(sigma->0) =      -28.49386219


--------------------------------------------------------------------------------------------------------




--------------------------------------- Iteration      1(   5)  ---------------------------------------


     EDDAV:  cpu time      2.1831: real time      2.1843
 BZINTS: Fermi energy:    1.408261;   52.000000 electrons
         Band energy:-0.597986E+03;  BLOECHL correction:   -0.000000
       DOS:  cpu time      0.0165: real time      0.0165
    CHARGE:  cpu time      0.5174: real time      0.5175
    MIXING:  cpu time      0.0070: real time      0.0071
    --------------------------------------------
      LOOP:  cpu time      2.7240: real time      2.7255

 eigenvalue-minimisations  :  3776
 total energy-change (2. order) :-0.5931201E-02  (-0.5931093E-02)
 number of electron      52.0000008 magnetization       2.6801367
 augmentation part       14.4473213 magnetization       2.7348085

 Broyden mixing:
  rms(total) = 0.15311E+01    rms(broyden)= 0.15311E+01
  rms(prec ) = 0.16139E+01
  weight for this iteration     100.00

 Free energy of the ion-electron system (eV)
  ---------------------------------------------------
  alpha Z        PSCENC =        81.84507930
  Ewald energy   TEWEN  =     -2439.44046369
  -Hartree energ DENC   =     -1051.00564002
  -exchange      EXHF   =         0.00000000
  -V(xc)+E(xc)   XCENC  =       148.07043743
  PAW double counting   =      2878.99561334    -3220.43224995
  entropy T*S    EENTRO =         0.00000000
  eigenvalues    EBANDS =      -597.98625130
  atomic energy  EATOM  =      4171.45368150
  Solvation  Ediel_sol  =         0.00000000
  ---------------------------------------------------
  free energy    TOTEN  =       -28.49979339 eV

  energy without entropy =      -28.49979339  energy(sigma->0) =      -28.49979339


--------------------------------------------------------------------------------------------------------




--------------------------------------- Iteration      1(   6)  ---------------------------------------


    POTLOK:  cpu time      0.0676: real time      0.0678
    SETDIJ:  cpu time      0.4279: real time      0.4282
     EDDAV:  cpu time      1.8404: real time      1.8409
 BZINTS: Fermi energy:    1.784240;   52.000000 electrons
         Band energy:-0.592803E+03;  BLOECHL correction:   -0.000000
       DOS:  cpu time      0.0159: real time      0.0160
    CHARGE:  cpu time      0.5100: real time      0.5102
    MIXING:  cpu time      0.0075: real time      0.0076
    --------------------------------------------
      LOOP:  cpu time      2.8694: real time      2.8707

 eigenvalue-minimisations  :  3360
 total energy-change (2. order) : 0.5697007E+00  (-0.1464549E+00)
 number of electron      52.0000008 magnetization       1.5025364
 augmentation part       14.5576336 magnetization       1.4852847

 Broyden mixing:
  rms(total) = 0.86673E+00    rms(broyden)= 0.86673E+00
  rms(prec ) = 0.89886E+00
  weight for this iteration     100.00

 eigenvalues of (default mixing * dielectric matrix)
  average eigenvalue GAMMA=   0.7909
  0.7909

 Free energy of the ion-electron system (eV)
  ---------------------------------------------------
  alpha Z        PSCENC =        81.84507930
  Ewald energy   TEWEN  =     -2439.44046369
  -Hartree energ DENC   =     -1056.92359308
  -exchange      EXHF   =         0.00000000
  -V(xc)+E(xc)   XCENC  =       149.25600616
  PAW double counting   =      3242.04936840    -3583.36672659
  entropy T*S    EENTRO =         0.00000000
  eigenvalues    EBANDS =      -592.80344474
  atomic energy  EATOM  =      4171.45368150
  Solvation  Ediel_sol  =         0.00000000
  ---------------------------------------------------
  free energy    TOTEN  =       -27.93009273 eV

  energy without entropy =      -27.93009273  energy(sigma->0) =      -27.93009273


--------------------------------------------------------------------------------------------------------




--------------------------------------- Iteration      1(   7)  ---------------------------------------


    POTLOK:  cpu time      0.0742: real time      0.0743
    SETDIJ:  cpu time      0.4280: real time      0.4282
     EDDAV:  cpu time      1.8084: real time      1.8092
 BZINTS: Fermi energy:    1.943778;   52.000000 electrons
         Band energy:-0.591023E+03;  BLOECHL correction:   -0.000000
       DOS:  cpu time      0.0164: real time      0.0164
    CHARGE:  cpu time      0.5103: real time      0.5106
    MIXING:  cpu time      0.0080: real time      0.0080
    --------------------------------------------
      LOOP:  cpu time      2.8453: real time      2.8467

 eigenvalue-minimisations  :  3296
 total energy-change (2. order) :-0.3430297E+00  (-0.3337560E-01)
 number of electron      52.0000008 magnetization      -0.0975860
 augmentation part       14.5948871 magnetization      -0.0658293

 Broyden mixing:
  rms(total) = 0.54145E+00    rms(broyden)= 0.54145E+00
  rms(prec ) = 0.55778E+00
  weight for this iteration     100.00

 eigenvalues of (default mixing * dielectric matrix)
  average eigenvalue GAMMA=   1.4693
  0.7149  2.2237

 Free energy of the ion-electron system (eV)
  ---------------------------------------------------
  alpha Z        PSCENC =        81.84507930
  Ewald energy   TEWEN  =     -2439.44046369
  -Hartree energ DENC   =     -1058.64125311
  -exchange      EXHF   =         0.00000000
  -V(xc)+E(xc)   XCENC  =       149.33087355
  PAW double counting   =      3544.20891798    -3886.00701534
  entropy T*S    EENTRO =         0.00000000
  eigenvalues    EBANDS =      -591.02294259
  atomic energy  EATOM  =      4171.45368150
  Solvation  Ediel_sol  =         0.00000000
  ---------------------------------------------------
  free energy    TOTEN  =       -28.27312241 eV

  energy without entropy =      -28.27312241  energy(sigma->0) =      -28.27312241


--------------------------------------------------------------------------------------------------------




--------------------------------------- Iteration      1(   8)  ---------------------------------------


    POTLOK:  cpu time      0.0715: real time      0.0716
    SETDIJ:  cpu time      0.4306: real time      0.4307
     EDDAV:  cpu time      1.5583: real time      1.5590
 BZINTS: Fermi energy:    2.167566;   52.000000 electrons
         Band energy:-0.589370E+03;  BLOECHL correction:   -0.000000
       DOS:  cpu time      0.0163: real time      0.0164
    CHARGE:  cpu time      0.5080: real time      0.5081
    MIXING:  cpu time      0.0073: real time      0.0073
    --------------------------------------------
      LOOP:  cpu time      2.5920: real time      2.5931

 eigenvalue-minimisations  :  2976
 total energy-change (2. order) :-0.1464725E+00  (-0.3045327E-01)
 number of electron      52.0000008 magnetization      -0.1035573
 augmentation part       14.6255539 magnetization      -0.1025464

 Broyden mixing:
  rms(total) = 0.10174E+00    rms(broyden)= 0.10174E+00
  rms(prec ) = 0.10930E+00
  weight for this iteration     100.00

 eigenvalues of (default mixing * dielectric matrix)
  average eigenvalue GAMMA=   1.3736
  2.5510  0.8692  0.7005

 Free energy of the ion-electron system (eV)
  ---------------------------------------------------
  alpha Z        PSCENC =        81.84507930
  Ewald energy   TEWEN  =     -2439.44046369
  -Hartree energ DENC   =     -1060.15059473
  -exchange      EXHF   =         0.00000000
  -V(xc)+E(xc)   XCENC  =       149.91143660
  PAW double counting   =      4116.71251211    -4459.38134381
  entropy T*S    EENTRO =         0.00000000
  eigenvalues    EBANDS =      -589.36990220
  atomic energy  EATOM  =      4171.45368150
  Solvation  Ediel_sol  =         0.00000000
  ---------------------------------------------------
  free energy    TOTEN  =       -28.41959492 eV

  energy without entropy =      -28.41959492  energy(sigma->0) =      -28.41959492


--------------------------------------------------------------------------------------------------------




--------------------------------------- Iteration      1(   9)  ---------------------------------------


    POTLOK:  cpu time      0.0651: real time      0.0652
    SETDIJ:  cpu time      0.4284: real time      0.4292
     EDDAV:  cpu time      4.9445: real time      4.9463
 BZINTS: Fermi energy:    2.119966;   52.000000 electrons
         Band energy:-0.589991E+03;  BLOECHL correction:   -0.000000
       DOS:  cpu time      0.0164: real time      0.0165
    CHARGE:  cpu time      0.5102: real time      0.5102
    MIXING:  cpu time      0.0072: real time      0.0072
    --------------------------------------------
      LOOP:  cpu time      5.9718: real time      5.9746

 eigenvalue-minimisations  :  3424
 total energy-change (2. order) :-0.7173690E-02  (-0.2358794E-02)
 number of electron      52.0000008 magnetization      -0.0356403
 augmentation part       14.6184754 magnetization      -0.0376657

 Broyden mixing:
  rms(total) = 0.40867E-01    rms(broyden)= 0.40867E-01
  rms(prec ) = 0.44943E-01
  weight for this iteration     100.00

 eigenvalues of (default mixing * dielectric matrix)
  average eigenvalue GAMMA=   1.2926
  2.4979  1.2306  0.7542  0.6877

 Free energy of the ion-electron system (eV)
  ---------------------------------------------------
  alpha Z        PSCENC =        81.84507930
  Ewald energy   TEWEN  =     -2439.44046369
  -Hartree energ DENC   =     -1059.29449621
  -exchange      EXHF   =         0.00000000
  -V(xc)+E(xc)   XCENC  =       149.88510833
  PAW double counting   =      4173.33672863    -4516.22188154
  entropy T*S    EENTRO =         0.00000000
  eigenvalues    EBANDS =      -589.99052492
  atomic energy  EATOM  =      4171.45368150
  Solvation  Ediel_sol  =         0.00000000
  ---------------------------------------------------
  free energy    TOTEN  =       -28.42676861 eV

  energy without entropy =      -28.42676861  energy(sigma->0) =      -28.42676861


--------------------------------------------------------------------------------------------------------




--------------------------------------- Iteration      1(  10)  ---------------------------------------


    POTLOK:  cpu time      0.0656: real time      0.0659
    SETDIJ:  cpu time      0.4084: real time      0.4200
     EDDAV:  cpu time      1.7699: real time      1.7706
 BZINTS: Fermi energy:    2.097813;   52.000000 electrons
         Band energy:-0.590367E+03;  BLOECHL correction:    0.000000
       DOS:  cpu time      0.0154: real time      0.0155
    CHARGE:  cpu time      0.5099: real time      0.5121
    MIXING:  cpu time      0.0070: real time      0.0070
    --------------------------------------------
      LOOP:  cpu time      2.7762: real time      2.7912

 eigenvalue-minimisations  :  3296
 total energy-change (2. order) :-0.2085622E-02  (-0.3973718E-03)
 number of electron      52.0000008 magnetization      -0.0001842
 augmentation part       14.6129365 magnetization       0.0003435

 Broyden mixing:
  rms(total) = 0.15286E-01    rms(broyden)= 0.15286E-01
  rms(prec ) = 0.17613E-01
  weight for this iteration     100.00

 eigenvalues of (default mixing * dielectric matrix)
  average eigenvalue GAMMA=   1.2650
  2.2730  1.6827  0.9637  0.7422  0.6632

 Free energy of the ion-electron system (eV)
  ---------------------------------------------------
  alpha Z        PSCENC =        81.84507930
  Ewald energy   TEWEN  =     -2439.44046369
  -Hartree energ DENC   =     -1058.85920536
  -exchange      EXHF   =         0.00000000
  -V(xc)+E(xc)   XCENC  =       149.85627832
  PAW double counting   =      4178.07292589    -4520.98996859
  entropy T*S    EENTRO =         0.00000000
  eigenvalues    EBANDS =      -590.36718161
  atomic energy  EATOM  =      4171.45368150
  Solvation  Ediel_sol  =         0.00000000
  ---------------------------------------------------
  free energy    TOTEN  =       -28.42885423 eV

  energy without entropy =      -28.42885423  energy(sigma->0) =      -28.42885423


--------------------------------------------------------------------------------------------------------




--------------------------------------- Iteration      1(  11)  ---------------------------------------


    POTLOK:  cpu time      0.0634: real time      0.0635
    SETDIJ:  cpu time      0.4173: real time      0.4176
     EDDAV:  cpu time      4.0357: real time      4.0372
 BZINTS: Fermi energy:    2.095986;   52.000000 electrons
         Band energy:-0.590456E+03;  BLOECHL correction:    0.000000
       DOS:  cpu time      0.0154: real time      0.0155
    CHARGE:  cpu time      0.5135: real time      0.5171
    MIXING:  cpu time      0.0075: real time      0.0075
    --------------------------------------------
      LOOP:  cpu time      5.0529: real time      5.0585

 eigenvalue-minimisations  :  3488
 total energy-change (2. order) :-0.8737105E-03  (-0.6376295E-04)
 number of electron      52.0000008 magnetization       0.0057475
 augmentation part       14.6124781 magnetization       0.0051714

 Broyden mixing:
  rms(total) = 0.90644E-02    rms(broyden)= 0.90644E-02
  rms(prec ) = 0.10874E-01
  weight for this iteration     100.00

 eigenvalues of (default mixing * dielectric matrix)
  average eigenvalue GAMMA=   1.2362
  2.0433  2.0433  0.9838  0.9838  0.7340  0.6292

 Free energy of the ion-electron system (eV)
  ---------------------------------------------------
  alpha Z        PSCENC =        81.84507930
  Ewald energy   TEWEN  =     -2439.44046369
  -Hartree energ DENC   =     -1058.78158780
  -exchange      EXHF   =         0.00000000
  -V(xc)+E(xc)   XCENC  =       149.85512980
  PAW double counting   =      4169.87279144    -4512.77858464
  entropy T*S    EENTRO =         0.00000000
  eigenvalues    EBANDS =      -590.45577385
  atomic energy  EATOM  =      4171.45368150
  Solvation  Ediel_sol  =         0.00000000
  ---------------------------------------------------
  free energy    TOTEN  =       -28.42972794 eV

  energy without entropy =      -28.42972794  energy(sigma->0) =      -28.42972794


--------------------------------------------------------------------------------------------------------




--------------------------------------- Iteration      1(  12)  ---------------------------------------


    POTLOK:  cpu time      0.0683: real time      0.0684
    SETDIJ:  cpu time      0.4035: real time      0.4038
     EDDAV:  cpu time      1.6700: real time      1.6704
 BZINTS: Fermi energy:    2.099555;   52.000000 electrons
         Band energy:-0.590439E+03;  BLOECHL correction:   -0.000000
       DOS:  cpu time      0.0160: real time      0.0161
    CHARGE:  cpu time      0.5086: real time      0.5089
    MIXING:  cpu time      0.0079: real time      0.0079
    --------------------------------------------
      LOOP:  cpu time      2.6741: real time      2.6754

 eigenvalue-minimisations  :  3136
 total energy-change (2. order) :-0.3965707E-03  (-0.2588404E-04)
 number of electron      52.0000008 magnetization       0.0052575
 augmentation part       14.6129516 magnetization       0.0055967

 Broyden mixing:
  rms(total) = 0.50535E-02    rms(broyden)= 0.50535E-02
  rms(prec ) = 0.61549E-02
  weight for this iteration     100.00

 eigenvalues of (default mixing * dielectric matrix)
  average eigenvalue GAMMA=   1.3292
  2.3684  2.3684  1.4173  0.8995  0.8995  0.7311  0.6205

 Free energy of the ion-electron system (eV)
  ---------------------------------------------------
  alpha Z        PSCENC =        81.84507930
  Ewald energy   TEWEN  =     -2439.44046369
  -Hartree energ DENC   =     -1058.80250666
  -exchange      EXHF   =         0.00000000
  -V(xc)+E(xc)   XCENC  =       149.86533876
  PAW double counting   =      4164.40236233    -4507.31509654
  entropy T*S    EENTRO =         0.00000000
  eigenvalues    EBANDS =      -590.43851951
  atomic energy  EATOM  =      4171.45368150
  Solvation  Ediel_sol  =         0.00000000
  ---------------------------------------------------
  free energy    TOTEN  =       -28.43012451 eV

  energy without entropy =      -28.43012451  energy(sigma->0) =      -28.43012451


--------------------------------------------------------------------------------------------------------




--------------------------------------- Iteration      1(  13)  ---------------------------------------


    POTLOK:  cpu time      0.0668: real time      0.0669
    SETDIJ:  cpu time      0.4006: real time      0.4006
     EDDAV:  cpu time      1.7722: real time      1.7731
 BZINTS: Fermi energy:    2.102528;   52.000000 electrons
         Band energy:-0.590420E+03;  BLOECHL correction:   -0.000000
       DOS:  cpu time      0.0159: real time      0.0160
    CHARGE:  cpu time      0.5085: real time      0.5088
    MIXING:  cpu time      0.0077: real time      0.0077
    --------------------------------------------
      LOOP:  cpu time      2.7717: real time      2.7730

 eigenvalue-minimisations  :  3296
 total energy-change (2. order) :-0.2296644E-03  (-0.2393990E-04)
 number of electron      52.0000008 magnetization       0.0011676
 augmentation part       14.6131977 magnetization       0.0012295

 Broyden mixing:
  rms(total) = 0.16455E-02    rms(broyden)= 0.16454E-02
  rms(prec ) = 0.18465E-02
  weight for this iteration     100.00

 eigenvalues of (default mixing * dielectric matrix)
  average eigenvalue GAMMA=   1.3984
  3.0046  2.3822  1.7222  1.0702  0.9259  0.7581  0.7069  0.6168

 Free energy of the ion-electron system (eV)
  ---------------------------------------------------
  alpha Z        PSCENC =        81.84507930
  Ewald energy   TEWEN  =     -2439.44046369
  -Hartree energ DENC   =     -1058.81318963
  -exchange      EXHF   =         0.00000000
  -V(xc)+E(xc)   XCENC  =       149.87691661
  PAW double counting   =      4161.56587772    -4504.49807118
  entropy T*S    EENTRO =         0.00000000
  eigenvalues    EBANDS =      -590.42018481
  atomic energy  EATOM  =      4171.45368150
  Solvation  Ediel_sol  =         0.00000000
  ---------------------------------------------------
  free energy    TOTEN  =       -28.43035417 eV

  energy without entropy =      -28.43035417  energy(sigma->0) =      -28.43035417


--------------------------------------------------------------------------------------------------------




--------------------------------------- Iteration      1(  14)  ---------------------------------------


    POTLOK:  cpu time      0.0626: real time      0.0628
    SETDIJ:  cpu time      0.4002: real time      0.4002
     EDDAV:  cpu time      1.9580: real time      1.9587
 BZINTS: Fermi energy:    2.103040;   52.000000 electrons
         Band energy:-0.590407E+03;  BLOECHL correction:    0.000000
       DOS:  cpu time      0.0154: real time      0.0155
    CHARGE:  cpu time      0.5100: real time      0.5103
    MIXING:  cpu time      0.0078: real time      0.0078
    --------------------------------------------
      LOOP:  cpu time      2.9539: real time      2.9553

 eigenvalue-minimisations  :  3488
 total energy-change (2. order) :-0.2480278E-04  (-0.2323973E-05)
 number of electron      52.0000008 magnetization       0.0002086
 augmentation part       14.6131268 magnetization       0.0001495

 Broyden mixing:
  rms(total) = 0.87912E-03    rms(broyden)= 0.87911E-03
  rms(prec ) = 0.92915E-03
  weight for this iteration     100.00

 eigenvalues of (default mixing * dielectric matrix)
  average eigenvalue GAMMA=   1.3334
  3.1276  2.2703  1.8669  1.1260  0.8616  0.7411  0.7411  0.6199  0.6462

 Free energy of the ion-electron system (eV)
  ---------------------------------------------------
  alpha Z        PSCENC =        81.84507930
  Ewald energy   TEWEN  =     -2439.44046369
  -Hartree energ DENC   =     -1058.82001126
  -exchange      EXHF   =         0.00000000
  -V(xc)+E(xc)   XCENC  =       149.87978707
  PAW double counting   =      4161.92275512    -4504.86410740
  entropy T*S    EENTRO =         0.00000000
  eigenvalues    EBANDS =      -590.40709963
  atomic energy  EATOM  =      4171.45368150
  Solvation  Ediel_sol  =         0.00000000
  ---------------------------------------------------
  free energy    TOTEN  =       -28.43037898 eV

  energy without entropy =      -28.43037898  energy(sigma->0) =      -28.43037898


--------------------------------------------------------------------------------------------------------




--------------------------------------- Iteration      1(  15)  ---------------------------------------


    POTLOK:  cpu time      0.0637: real time      0.0638
    SETDIJ:  cpu time      0.3977: real time      0.3978
     EDDAV:  cpu time      1.7207: real time      1.7234
 BZINTS: Fermi energy:    2.103162;   52.000000 electrons
         Band energy:-0.590401E+03;  BLOECHL correction:    0.000000
       DOS:  cpu time      0.0154: real time      0.0154
    CHARGE:  cpu time      0.5078: real time      0.5079
    MIXING:  cpu time      0.0079: real time      0.0079
    --------------------------------------------
      LOOP:  cpu time      2.7131: real time      2.7162

 eigenvalue-minimisations  :  3200
 total energy-change (2. order) :-0.2491935E-05  (-0.1419961E-06)
 number of electron      52.0000008 magnetization      -0.0002352
 augmentation part       14.6131092 magnetization      -0.0002302

 Broyden mixing:
  rms(total) = 0.50740E-03    rms(broyden)= 0.50740E-03
  rms(prec ) = 0.55201E-03
  weight for this iteration     100.00

 eigenvalues of (default mixing * dielectric matrix)
  average eigenvalue GAMMA=   1.4029
  3.1517  2.3627  2.3627  1.4902  1.0637  0.7944  0.7944  0.7526  0.6228  0.6343

 Free energy of the ion-electron system (eV)
  ---------------------------------------------------
  alpha Z        PSCENC =        81.84507930
  Ewald energy   TEWEN  =     -2439.44046369
  -Hartree energ DENC   =     -1058.82504611
  -exchange      EXHF   =         0.00000000
  -V(xc)+E(xc)   XCENC  =       149.87995419
  PAW double counting   =      4161.68789340    -4504.63024747
  entropy T*S    EENTRO =         0.00000000
  eigenvalues    EBANDS =      -590.40123259
  atomic energy  EATOM  =      4171.45368150
  Solvation  Ediel_sol  =         0.00000000
  ---------------------------------------------------
  free energy    TOTEN  =       -28.43038147 eV

  energy without entropy =      -28.43038147  energy(sigma->0) =      -28.43038147


--------------------------------------------------------------------------------------------------------




--------------------------------------- Iteration      1(  16)  ---------------------------------------


    POTLOK:  cpu time      0.0624: real time      0.0626
    SETDIJ:  cpu time      0.3980: real time      0.3982
     EDDAV:  cpu time      1.8013: real time      1.8022
 BZINTS: Fermi energy:    2.102956;   52.000000 electrons
         Band energy:-0.590394E+03;  BLOECHL correction:   -0.000000
       DOS:  cpu time      0.0159: real time      0.0160
    CHARGE:  cpu time      0.5083: real time      0.5084
    MIXING:  cpu time      0.0069: real time      0.0069
    --------------------------------------------
      LOOP:  cpu time      2.7928: real time      2.7942

 eigenvalue-minimisations  :  3328
 total energy-change (2. order) :-0.1382901E-05  (-0.1185590E-06)
 number of electron      52.0000008 magnetization      -0.0000398
 augmentation part       14.6130899 magnetization      -0.0000519

 Broyden mixing:
  rms(total) = 0.11662E-03    rms(broyden)= 0.11662E-03
  rms(prec ) = 0.14240E-03
  weight for this iteration     100.00

 eigenvalues of (default mixing * dielectric matrix)
  average eigenvalue GAMMA=   1.3740
  3.1362  2.3374  2.3374  1.5932  1.1254  0.9303  0.9303  0.7425  0.7425  0.6192
  0.6192

 Free energy of the ion-electron system (eV)
  ---------------------------------------------------
  alpha Z        PSCENC =        81.84507930
  Ewald energy   TEWEN  =     -2439.44046369
  -Hartree energ DENC   =     -1058.83230353
  -exchange      EXHF   =         0.00000000
  -V(xc)+E(xc)   XCENC  =       149.87980546
  PAW double counting   =      4160.99836722    -4503.94071239
  entropy T*S    EENTRO =         0.00000000
  eigenvalues    EBANDS =      -590.39383672
  atomic energy  EATOM  =      4171.45368150
  Solvation  Ediel_sol  =         0.00000000
  ---------------------------------------------------
  free energy    TOTEN  =       -28.43038285 eV

  energy without entropy =      -28.43038285  energy(sigma->0) =      -28.43038285


--------------------------------------------------------------------------------------------------------




--------------------------------------- Iteration      1(  17)  ---------------------------------------


    POTLOK:  cpu time      0.0662: real time      0.0663
    SETDIJ:  cpu time      0.3972: real time      0.3974
     EDDAV:  cpu time      1.9020: real time      1.9076
 BZINTS: Fermi energy:    2.102976;   52.000000 electrons
         Band energy:-0.590394E+03;  BLOECHL correction:    0.000000
       DOS:  cpu time      0.0159: real time      0.0160
    CHARGE:  cpu time      0.5064: real time      0.5065
    MIXING:  cpu time      0.0067: real time      0.0067
    --------------------------------------------
      LOOP:  cpu time      2.8944: real time      2.9006

 eigenvalue-minimisations  :  3456
 total energy-change (2. order) :-0.9508403E-07  (-0.1158522E-07)
 number of electron      52.0000008 magnetization      -0.0000590
 augmentation part       14.6130911 magnetization      -0.0000627

 Broyden mixing:
  rms(total) = 0.56947E-04    rms(broyden)= 0.56947E-04
  rms(prec ) = 0.73867E-04
  weight for this iteration     100.00

 eigenvalues of (default mixing * dielectric matrix)
  average eigenvalue GAMMA=   1.3499
  3.1139  2.3768  2.3768  1.7262  1.2877  1.0069  0.8009  0.8009  0.7620  0.7088
  0.6190  0.6190

 Free energy of the ion-electron system (eV)
  ---------------------------------------------------
  alpha Z        PSCENC =        81.84507930
  Ewald energy   TEWEN  =     -2439.44046369
  -Hartree energ DENC   =     -1058.83311616
  -exchange      EXHF   =         0.00000000
  -V(xc)+E(xc)   XCENC  =       149.87966822
  PAW double counting   =      4160.97422964    -4503.91566893
  entropy T*S    EENTRO =         0.00000000
  eigenvalues    EBANDS =      -590.39379282
  atomic energy  EATOM  =      4171.45368150
  Solvation  Ediel_sol  =         0.00000000
  ---------------------------------------------------
  free energy    TOTEN  =       -28.43038295 eV

  energy without entropy =      -28.43038295  energy(sigma->0) =      -28.43038295


--------------------------------------------------------------------------------------------------------




--------------------------------------- Iteration      1(  18)  ---------------------------------------


    POTLOK:  cpu time      0.0625: real time      0.0626
    SETDIJ:  cpu time      0.3984: real time      0.3984
     EDDAV:  cpu time      1.7706: real time      1.7713
 BZINTS: Fermi energy:    2.103010;   52.000000 electrons
         Band energy:-0.590393E+03;  BLOECHL correction:    0.000000
       DOS:  cpu time      0.0159: real time      0.0159
    CHARGE:  cpu time      0.5073: real time      0.5075
    MIXING:  cpu time      0.0069: real time      0.0069
    --------------------------------------------
      LOOP:  cpu time      2.7615: real time      2.7627

 eigenvalue-minimisations  :  3296
 total energy-change (2. order) :-0.5966831E-07  (-0.3366960E-08)
 number of electron      52.0000008 magnetization      -0.0000608
 augmentation part       14.6130928 magnetization      -0.0000585

 Broyden mixing:
  rms(total) = 0.37893E-04    rms(broyden)= 0.37893E-04
  rms(prec ) = 0.46857E-04
  weight for this iteration     100.00

 eigenvalues of (default mixing * dielectric matrix)
  average eigenvalue GAMMA=   1.3876
  3.1352  2.5753  2.5753  1.8701  1.5274  1.0653  1.0653  0.8242  0.7585  0.7585
  0.6486  0.6174  0.6174

 Free energy of the ion-electron system (eV)
  ---------------------------------------------------
  alpha Z        PSCENC =        81.84507930
  Ewald energy   TEWEN  =     -2439.44046369
  -Hartree energ DENC   =     -1058.83437358
  -exchange      EXHF   =         0.00000000
  -V(xc)+E(xc)   XCENC  =       149.87967457
  PAW double counting   =      4160.99204580    -4503.93315326
  entropy T*S    EENTRO =         0.00000000
  eigenvalues    EBANDS =      -590.39287365
  atomic energy  EATOM  =      4171.45368150
  Solvation  Ediel_sol  =         0.00000000
  ---------------------------------------------------
  free energy    TOTEN  =       -28.43038301 eV

  energy without entropy =      -28.43038301  energy(sigma->0) =      -28.43038301


--------------------------------------------------------------------------------------------------------




--------------------------------------- Iteration      1(  19)  ---------------------------------------


    POTLOK:  cpu time      0.0638: real time      0.0639
    SETDIJ:  cpu time      0.3998: real time      0.3999
     EDDAV:  cpu time      1.7601: real time      1.7609
 BZINTS: Fermi energy:    2.103044;   52.000000 electrons
         Band energy:-0.590392E+03;  BLOECHL correction:    0.000000
       DOS:  cpu time      0.0159: real time      0.0160
    CHARGE:  cpu time      0.5120: real time      0.5123
    MIXING:  cpu time      0.0078: real time      0.0078
    --------------------------------------------
      LOOP:  cpu time      2.7594: real time      2.7608

 eigenvalue-minimisations  :  3232
 total energy-change (2. order) :-0.3262721E-07  (-0.3255497E-08)
 number of electron      52.0000008 magnetization      -0.0000153
 augmentation part       14.6130949 magnetization      -0.0000168

 Broyden mixing:
  rms(total) = 0.19060E-04    rms(broyden)= 0.19060E-04
  rms(prec ) = 0.19738E-04
  weight for this iteration     100.00

 eigenvalues of (default mixing * dielectric matrix)
  average eigenvalue GAMMA=   1.3981
  3.3546  2.9448  2.4779  2.0548  1.5619  1.2438  1.0219  0.8138  0.8138  0.7355
  0.7355  0.6323  0.6054  0.5778

 Free energy of the ion-electron system (eV)
  ---------------------------------------------------
  alpha Z        PSCENC =        81.84507930
  Ewald energy   TEWEN  =     -2439.44046369
  -Hartree energ DENC   =     -1058.83583282
  -exchange      EXHF   =         0.00000000
  -V(xc)+E(xc)   XCENC  =       149.87971702
  PAW double counting   =      4161.03558302    -4503.97643640
  entropy T*S    EENTRO =         0.00000000
  eigenvalues    EBANDS =      -590.39171097
  atomic energy  EATOM  =      4171.45368150
  Solvation  Ediel_sol  =         0.00000000
  ---------------------------------------------------
  free energy    TOTEN  =       -28.43038304 eV

  energy without entropy =      -28.43038304  energy(sigma->0) =      -28.43038304


--------------------------------------------------------------------------------------------------------




--------------------------------------- Iteration      1(  20)  ---------------------------------------


    POTLOK:  cpu time      0.0634: real time      0.0635
    SETDIJ:  cpu time      0.3984: real time      0.3984
     EDDAV:  cpu time      5.4757: real time      5.4776
 BZINTS: Fermi energy:    2.103046;   52.000000 electrons
         Band energy:-0.590392E+03;  BLOECHL correction:    0.000000
       DOS:  cpu time      0.0159: real time      0.0162
    CHARGE:  cpu time      0.5076: real time      0.5076
    MIXING:  cpu time      0.0065: real time      0.0065
    --------------------------------------------
      LOOP:  cpu time      6.4674: real time      6.4698

 eigenvalue-minimisations  :  3488
 total energy-change (2. order) :-0.3223249E-08  (-0.1463940E-09)
 number of electron      52.0000008 magnetization       0.0000001
 augmentation part       14.6130949 magnetization      -0.0000001

 Broyden mixing:
  rms(total) = 0.71267E-05    rms(broyden)= 0.71267E-05
  rms(prec ) = 0.74065E-05
  weight for this iteration     100.00

 eigenvalues of (default mixing * dielectric matrix)
  average eigenvalue GAMMA=   1.3981
  3.5230  2.8915  2.5082  2.2703  1.6235  1.2689  1.0189  0.9003  0.8078  0.8078
  0.7398  0.7398  0.6087  0.6314  0.6314

 Free energy of the ion-electron system (eV)
  ---------------------------------------------------
  alpha Z        PSCENC =        81.84507930
  Ewald energy   TEWEN  =     -2439.44046369
  -Hartree energ DENC   =     -1058.83601496
  -exchange      EXHF   =         0.00000000
  -V(xc)+E(xc)   XCENC  =       149.87972677
  PAW double counting   =      4161.02686459    -4503.96774086
  entropy T*S    EENTRO =         0.00000000
  eigenvalues    EBANDS =      -590.39151568
  atomic energy  EATOM  =      4171.45368150
  Solvation  Ediel_sol  =         0.00000000
  ---------------------------------------------------
  free energy    TOTEN  =       -28.43038304 eV

  energy without entropy =      -28.43038304  energy(sigma->0) =      -28.43038304


--------------------------------------------------------------------------------------------------------




--------------------------------------- Iteration      1(  21)  ---------------------------------------


    POTLOK:  cpu time      0.0661: real time      0.0662
    SETDIJ:  cpu time      0.3975: real time      0.3976
     EDDAV:  cpu time      3.5934: real time      3.6044
 BZINTS: Fermi energy:    2.103047;   52.000000 electrons
         Band energy:-0.590391E+03;  BLOECHL correction:    0.000000
       DOS:  cpu time      0.0159: real time      0.0160
    --------------------------------------------
      LOOP:  cpu time      4.0729: real time      4.0842

 eigenvalue-minimisations  :  3008
 total energy-change (2. order) :-0.6257324E-09  (-0.1144881E-10)
 number of electron      52.0000008 magnetization       0.0000001
 augmentation part       14.6130949 magnetization      -0.0000001

 Free energy of the ion-electron system (eV)
  ---------------------------------------------------
  alpha Z        PSCENC =        81.84507930
  Ewald energy   TEWEN  =     -2439.44046369
  -Hartree energ DENC   =     -1058.83604154
  -exchange      EXHF   =         0.00000000
  -V(xc)+E(xc)   XCENC  =       149.87973035
  PAW double counting   =      4161.02762364    -4503.96852200
  entropy T*S    EENTRO =         0.00000000
  eigenvalues    EBANDS =      -590.39147060
  atomic energy  EATOM  =      4171.45368150
  Solvation  Ediel_sol  =         0.00000000
  ---------------------------------------------------
  free energy    TOTEN  =       -28.43038304 eV

  energy without entropy =      -28.43038304  energy(sigma->0) =      -28.43038304


--------------------------------------------------------------------------------------------------------




 average (electrostatic) potential at core
  the test charge radii are     0.9254  0.9698
  (the norm of the test charge is              1.0000)
       1 -46.8940       2 -46.8940       3 -46.8110       4 -46.8110       5 -88.8803
       6 -88.8803       7 -88.8803       8 -88.8803



 E-fermi :   2.1030     XC(G=0):  -8.3479     alpha+bet : -8.6838

 Fermi energy:         2.1030466614

 spin component 1

 k-point     1 :       0.0000    0.0000    0.0000
  band No.  band energies     occupation 
      1     -21.1002      1.00000
      2     -21.0969      1.00000
      3     -21.0824      1.00000
      4     -21.0824      1.00000
      5     -21.0818      1.00000
      6     -21.0818      1.00000
      7     -21.0126      1.00000
      8     -21.0126      1.00000
      9     -21.0119      1.00000
     10     -21.0119      1.00000
     11     -21.0094      1.00000
     12     -21.0045      1.00000
     13     -11.8765      1.00000
     14     -11.7235      1.00000
     15      -8.4930      1.00000
     16      -7.9257      1.00000
     17      -2.7634      1.00000
     18      -1.3594      1.00000
     19      -0.6113      1.00000
     20      -0.6113      1.00000
     21      -0.4219      1.00000
     22      -0.4219      1.00000
     23       1.6674      1.00000
     24       1.6674      1.00000
     25       2.1030      1.00000
     26       2.1030      1.00000
     27       3.3936      0.00000
     28       4.7044      0.00000
     29       4.7496      0.00000
     30       5.2373      0.00000
     31       7.5697      0.00000
     32       8.3529      0.00000
     33       8.3529      0.00000
     34       8.6015      0.00000
     35       8.6015      0.00000
     36       8.8374      0.00000
     37       9.5983      0.00000
     38      10.2353      0.00000
     39      10.2353      0.00000
     40      10.5554      0.00000
     41      10.5554      0.00000
     42      11.0830      0.00000
     43      11.0830      0.00000
     44      11.5038      0.00000
     45      12.0707      0.00000
     46      12.0707      0.00000
     47      12.7105      0.00000
     48      14.2707      0.00000
     49      15.0435      0.00000
     50      15.0435      0.00000
     51      15.1195      0.00000
     52      15.3274      0.00000
     53      16.3088      0.00000
     54      16.4268      0.00000
     55      16.8137      0.00000
     56      16.8137      0.00000
     57      17.9295      0.00000
     58      17.9295      0.00000
     59      18.3600      0.00000
     60      18.3600      0.00000
     61      18.6830      0.00000
     62      21.0655      0.00000
     63      21.0655      0.00000
     64      21.3147      0.00000

 k-point     2 :       0.2000    0.0000    0.0000
  band No.  band energies     occupation 
      1     -21.0985      1.00000
      2     -21.0976      1.00000
      3     -21.0852      1.00000
      4     -21.0847      1.00000
      5     -21.0833      1.00000
      6     -21.0822      1.00000
      7     -21.0166      1.00000
      8     -21.0152      1.00000
      9     -21.0132      1.00000
     10     -21.0122      1.00000
     11     -21.0076      1.00000
     12     -21.0052      1.00000
     13     -11.8094      1.00000
     14     -11.6851      1.00000
     15      -8.3980      1.00000
     16      -7.9313      1.00000
     17      -2.6586      1.00000
     18      -1.4990      1.00000
     19      -1.0254      1.00000
     20      -0.8598      1.00000
     21      -0.7130      1.00000
     22      -0.4792      1.00000
     23       1.1957      1.00000
     24       1.5179      1.00000
     25       1.5408      1.00000
     26       2.0657      1.00000
     27       3.8316      0.00000
     28       5.2828      0.00000
     29       5.5336      0.00000
     30       5.6486      0.00000
     31       7.7375      0.00000
     32       7.9186      0.00000
     33       8.0877      0.00000
     34       8.9167      0.00000
     35       8.9894      0.00000
     36       9.2192      0.00000
     37       9.2292      0.00000
     38      10.0123      0.00000
     39      10.0620      0.00000
     40      10.4203      0.00000
     41      10.7083      0.00000
     42      10.8766      0.00000
     43      11.7246      0.00000
     44      12.3740      0.00000
     45      12.6232      0.00000
     46      13.2531      0.00000
     47      14.3741      0.00000
     48      14.3884      0.00000
     49      14.8357      0.00000
     50      15.3826      0.00000
     51      15.7781      0.00000
     52      16.4064      0.00000
     53      16.6563      0.00000
     54      16.7887      0.00000
     55      16.8073      0.00000
     56      17.1026      0.00000
     57      17.1753      0.00000
     58      17.6704      0.00000
     59      17.7556      0.00000
     60      18.2894      0.00000
     61      18.5174      0.00000
     62      18.5631      0.00000
     63      18.6608      0.00000
     64      19.9965      0.00000

 k-point     3 :       0.4000    0.0000    0.0000
  band No.  band energies     occupation 
      1     -21.0991      1.00000
      2     -21.0957      1.00000
      3     -21.0903      1.00000
      4     -21.0884      1.00000
      5     -21.0847      1.00000
      6     -21.0830      1.00000
      7     -21.0238      1.00000
      8     -21.0195      1.00000
      9     -21.0143      1.00000
[...]
     48      13.9786      0.00000
     49      14.5323      0.00000
     50      14.5323      0.00000
     51      14.9252      0.00000
     52      14.9252      0.00000
     53      15.0622      0.00000
     54      15.0622      0.00000
     55      16.8520      0.00000
     56      16.8520      0.00000
     57      17.3897      0.00000
     58      17.3897      0.00000
     59      17.5426      0.00000
     60      17.5426      0.00000
     61      18.5522      0.00000
     62      18.5522      0.00000
     63      19.0489      0.00000
     64      19.0489      0.00000

 k-point     8 :       0.4000    0.0000    0.5000
  band No.  band energies     occupation 
      1     -21.4084      1.00000
      2     -21.4084      1.00000
      3     -21.3999      1.00000
      4     -21.3999      1.00000
      5     -21.3956      1.00000
      6     -21.3956      1.00000
      7     -21.2971      1.00000
      8     -21.2971      1.00000
      9     -21.2901      1.00000
     10     -21.2901      1.00000
     11     -21.2874      1.00000
     12     -21.2874      1.00000
     13     -11.7745      1.00000
     14     -11.7745      1.00000
     15      -8.3070      1.00000
     16      -8.3070      1.00000
     17      -2.1870      1.00000
     18      -2.1870      1.00000
     19      -1.7763      1.00000
     20      -1.7763      1.00000
     21      -0.8995      1.00000
     22      -0.8995      1.00000
     23       0.7700      1.00000
     24       0.7700      1.00000
     25       1.4328      1.00000
     26       1.4328      1.00000
     27       4.1178      0.00000
     28       4.1178      0.00000
     29       6.0003      0.00000
     30       6.0003      0.00000
     31       7.8242      0.00000
     32       7.8242      0.00000
     33       8.6174      0.00000
     34       8.6174      0.00000
     35       8.9666      0.00000
     36       8.9666      0.00000
     37       9.8369      0.00000
     38       9.8369      0.00000
     39      10.6697      0.00000
     40      10.6697      0.00000
     41      11.0118      0.00000
     42      11.0118      0.00000
     43      12.7805      0.00000
     44      12.7805      0.00000
     45      13.1098      0.00000
     46      13.1098      0.00000
     47      13.3884      0.00000
     48      13.3884      0.00000
     49      13.9193      0.00000
     50      13.9193      0.00000
     51      15.3571      0.00000
     52      15.3571      0.00000
     53      15.7151      0.00000
     54      15.7151      0.00000
     55      16.0034      0.00000
     56      16.0034      0.00000
     57      16.9896      0.00000
     58      16.9896      0.00000
     59      17.3063      0.00000
     60      17.3063      0.00000
     61      17.7540      0.00000
     62      17.7540      0.00000
     63      18.6660      0.00000
     64      18.6660      0.00000

 k-point     9 :       0.2000    0.2000    0.5000
  band No.  band energies     occupation 
      1     -21.4085      1.00000
      2     -21.4085      1.00000
      3     -21.3988      1.00000
      4     -21.3988      1.00000
      5     -21.3960      1.00000
      6     -21.3960      1.00000
      7     -21.2956      1.00000
      8     -21.2956      1.00000
      9     -21.2906      1.00000
     10     -21.2906      1.00000
     11     -21.2873      1.00000
     12     -21.2873      1.00000
     13     -11.7900      1.00000
     14     -11.7900      1.00000
     15      -8.3211      1.00000
     16      -8.3211      1.00000
     17      -2.1974      1.00000
     18      -2.1974      1.00000
     19      -1.5626      1.00000
     20      -1.5626      1.00000
     21      -1.0230      1.00000
     22      -1.0230      1.00000
     23       0.9376      1.00000
     24       0.9376      1.00000
     25       1.3483      1.00000
     26       1.3483      1.00000
     27       4.1523      0.00000
     28       4.1523      0.00000
     29       6.4950      0.00000
     30       6.4950      0.00000
     31       7.4552      0.00000
     32       7.4552      0.00000
     33       8.2146      0.00000
     34       8.2146      0.00000
     35       8.7610      0.00000
     36       8.7610      0.00000
     37       9.6917      0.00000
     38       9.6917      0.00000
     39      10.4518      0.00000
     40      10.4518      0.00000
     41      10.7318      0.00000
     42      10.7318      0.00000
     43      12.4868      0.00000
     44      12.4868      0.00000
     45      12.9781      0.00000
     46      12.9781      0.00000
     47      13.5845      0.00000
     48      13.5845      0.00000
     49      14.8430      0.00000
     50      14.8430      0.00000
     51      15.7179      0.00000
     52      15.7179      0.00000
     53      16.0230      0.00000
     54      16.0230      0.00000
     55      16.3563      0.00000
     56      16.3563      0.00000
     57      16.6706      0.00000
     58      16.6706      0.00000
     59      17.1038      0.00000
     60      17.1038      0.00000
     61      18.4688      0.00000
     62      18.4688      0.00000
     63      18.7265      0.00000
     64      18.7265      0.00000

 k-point    10 :       0.4000    0.2000    0.5000
  band No.  band energies     occupation 
      1     -21.4080      1.00000
      2     -21.4080      1.00000
      3     -21.4000      1.00000
      4     -21.4000      1.00000
      5     -21.3969      1.00000
      6     -21.3969      1.00000
      7     -21.2976      1.00000
      8     -21.2976      1.00000
      9     -21.2913      1.00000
     10     -21.2913      1.00000
     11     -21.2871      1.00000
     12     -21.2871      1.00000
     13     -11.7499      1.00000
     14     -11.7499      1.00000
     15      -8.2840      1.00000
     16      -8.2840      1.00000
     17      -2.1526      1.00000
     18      -2.1526      1.00000
     19      -1.7440      1.00000
     20      -1.7440      1.00000
     21      -1.2284      1.00000
     22      -1.2284      1.00000
     23       0.7808      1.00000
     24       0.7808      1.00000
     25       1.1841      1.00000
     26       1.1841      1.00000
     27       4.1813      0.00000
     28       4.1813      0.00000
     29       6.7096      0.00000
     30       6.7096      0.00000
     31       8.1856      0.00000
     32       8.1856      0.00000
     33       8.6862      0.00000
     34       8.6862      0.00000
     35       8.9845      0.00000
     36       8.9845      0.00000
     37       9.5244      0.00000
     38       9.5244      0.00000
     39      10.4513      0.00000
     40      10.4513      0.00000
     41      10.8046      0.00000
     42      10.8046      0.00000
     43      12.9039      0.00000
     44      12.9039      0.00000
     45      13.0254      0.00000
     46      13.0254      0.00000
     47      13.4842      0.00000
     48      13.4842      0.00000
     49      14.1535      0.00000
     50      14.1535      0.00000
     51      15.4047      0.00000
     52      15.4047      0.00000
     53      15.9877      0.00000
     54      15.9877      0.00000
     55      16.2056      0.00000
     56      16.2056      0.00000
     57      17.0863      0.00000
     58      17.0863      0.00000
     59      17.3945      0.00000
     60      17.3945      0.00000
     61      18.2826      0.00000
     62      18.2826      0.00000
     63      18.8538      0.00000
     64      18.8538      0.00000


--------------------------------------------------------------------------------------------------------


 soft charge-density along one line, spin component           1
         0         1         2         3         4         5         6         7         8         9
 total charge-density along one line

 soft charge-density along one line, spin component           2
         0         1         2         3         4         5         6         7         8         9
 total charge-density along one line

 pseudopotential strength for first ion, spin component:           1
-25.459   0.000  -0.000   2.615  -0.000   0.000  -0.000  -0.000
  0.000 -25.465  -0.000  -0.000   2.618   0.000  -0.000  -0.000
 -0.000  -0.000 -25.459   0.000   0.000   2.615  -0.000  -0.000
  2.615  -0.000   0.000   6.551  -0.000  -0.000  -0.000  -0.000
 -0.000   2.618   0.000  -0.000   6.551   0.000  -0.000  -0.000
  0.000   0.000   2.615  -0.000   0.000   6.551   0.000  -0.000
 -0.000  -0.000  -0.000  -0.000  -0.000   0.000   1.431   7.010
 -0.000  -0.000  -0.000  -0.000  -0.000  -0.000   7.010  34.080
 pseudopotential strength for first ion, spin component:           2
-25.459   0.000  -0.000   2.615  -0.000   0.000  -0.000  -0.000
  0.000 -25.465  -0.000  -0.000   2.618   0.000  -0.000  -0.000
 -0.000  -0.000 -25.459   0.000   0.000   2.615  -0.000  -0.000
  2.615  -0.000   0.000   6.551  -0.000  -0.000   0.000  -0.000
 -0.000   2.618   0.000  -0.000   6.551  -0.000  -0.000  -0.000
  0.000   0.000   2.615  -0.000  -0.000   6.551   0.000  -0.000
 -0.000  -0.000  -0.000   0.000  -0.000   0.000   1.431   7.010
 -0.000  -0.000  -0.000  -0.000  -0.000  -0.000   7.010  34.080
 total augmentation occupancy for first ion, spin component:           1
  2.001  -0.000  -0.000  -0.003   0.000  -0.000   0.000   0.000
 -0.000   2.001   0.000   0.000  -0.002   0.000   0.000   0.000
  0.000   0.000   2.001  -0.000  -0.000  -0.003   0.000   0.000
 -0.003   0.000  -0.000   0.017  -0.000  -0.000   0.000   0.000
  0.000  -0.002  -0.000  -0.000   0.015   0.000   0.000   0.000
 -0.000   0.000  -0.003   0.000   0.000   0.017   0.000   0.000
  0.000   0.000   0.000   0.000   0.000   0.000   0.436  -0.001
  0.000   0.000   0.000   0.000   0.000   0.000  -0.001   0.000
 total augmentation occupancy for first ion, spin component:           2
 -0.000  -0.000  -0.000  -0.000   0.000  -0.000   0.000   0.000
 -0.000   0.000   0.000  -0.000   0.000   0.000   0.000   0.000
 -0.000   0.000  -0.000   0.000  -0.000  -0.000   0.000   0.000
 -0.000  -0.000   0.000   0.000   0.000  -0.000   0.000   0.000
 -0.000   0.000  -0.000   0.000  -0.000  -0.000   0.000   0.000
  0.000   0.000  -0.000  -0.000  -0.000   0.000   0.000   0.000
  0.000   0.000   0.000   0.000   0.000   0.000  -0.000   0.000
  0.000   0.000   0.000   0.000   0.000   0.000   0.000  -0.000


------------------------ aborting loop because EDIFF is reached ----------------------------------------





 total charge

# of ion       s       p       d       tot
------------------------------------------
    1        0.049   5.976   0.000   6.025
    2        0.049   5.976   0.000   6.025
    3        0.050   5.989   0.000   6.039
    4        0.050   5.989   0.000   6.039
    5        1.337   2.353   0.000   3.690
    6        1.337   2.353   0.000   3.690
    7        1.337   2.353   0.000   3.690
    8        1.337   2.353   0.000   3.690
--------------------------------------------------
tot          5.546  33.341   0.000  38.887



 magnetization (x)

# of ion       s       p       d       tot
------------------------------------------
    1        0.000  -0.000   0.000   0.000
    2        0.000  -0.000   0.000   0.000
    3       -0.000   0.000   0.000   0.000
    4       -0.000   0.000   0.000   0.000
    5       -0.000   0.000   0.000   0.000
    6       -0.000   0.000   0.000   0.000
    7       -0.000   0.000   0.000   0.000
    8       -0.000   0.000   0.000   0.000
--------------------------------------------------
tot          0.000   0.000   0.000   0.000

    CHARGE:  cpu time      0.5109: real time      0.5113
    FORLOC:  cpu time      0.0080: real time      0.0080
    FORNL :  cpu time      0.3017: real time      0.3017
    STRESS:  cpu time      0.8987: real time      0.8991
    FORCOR:  cpu time      0.0559: real time      0.0559
    FORHAR:  cpu time      0.0068: real time      0.0068
    MIXING:  cpu time      0.0008: real time      0.0008
    OFIELD:  cpu time      0.0000: real time      0.0000

  FORCE on cell =-STRESS in cart. coord.  units (eV):
  Direction    XX          YY          ZZ          XY          YZ          ZX
  --------------------------------------------------------------------------------------
  Alpha Z    78.79307    78.79307    78.79307
  Ewald    -812.48926  -812.48926  -782.48560     0.00000     0.00000    -0.00000
  Hartree   374.85947   374.85947   326.16910     0.00000    -0.00000    -0.00000
  E(xc)    -237.17514  -237.17504  -235.96817    -0.00000     0.00000    -0.00000
  Local    -245.00193  -245.00208  -161.61011    -0.00000    -0.00000    -0.00000
  n-local   202.86144   209.00949   189.47400     3.31860     0.00000     0.00000
  augment    96.19542    96.19550   102.80927    -0.00000    -0.00000     0.00000
  Kinetic   531.58549   546.18311   482.81781     8.20397     0.00000    -0.00000
  Fock        0.00000     0.00000     0.00000     0.00000     0.00000     0.00000
  -------------------------------------------------------------------------------------
  Total       0.00141     0.00141    -0.00062     0.00000     0.00000    -0.00000
  in kB       0.01245     0.01245    -0.00550     0.00000     0.00000    -0.00000
  external pressure =        0.01 kB  Pullay stress =        0.00 kB


 VOLUME and BASIS-vectors are now :
 -----------------------------------------------------------------------------
  energy-cutoff  :      520.00
  volume of cell :      181.40
      direct lattice vectors                 reciprocal lattice vectors
     2.255564733 -3.906752717  0.000000000     0.221673975 -0.127983529 -0.000000000
     2.255564733  3.906752717  0.000000000     0.221673975  0.127983529 -0.000000000
     0.000000000  0.000000000 10.292588334    -0.000000000 -0.000000000  0.097157291

  length of vectors
     4.511129466  4.511129466 10.292588334     0.255967058  0.255967058  0.097157291


 FORCES acting on ions
    electron-ion (+dipol)            ewald-force                    non-local-force                 convergence-correction
 -----------------------------------------------------------------------------------------------
   0.875E-15 -.236E-15 0.468E-13   0.641E-14 0.153E-14 0.142E-13   0.946E-28 -.441E-27 -.978E-27   0.262E-13 -.308E-14 0.251E-12
   0.104E-14 -.180E-15 0.340E-12   0.659E-14 -.171E-14 0.142E-13   0.667E-26 0.535E-26 0.113E-26   0.356E-13 -.293E-14 -.229E-12
   -.104E-11 -.120E-05 -.229E-11   0.356E-14 0.457E-11 -.355E-13   0.135E-18 -.107E-16 0.521E-27   0.364E-13 0.262E-10 -.307E-13
   0.366E-12 0.120E-05 -.142E-10   0.166E-14 -.457E-11 0.568E-13   -.774E-17 -.368E-18 0.548E-27   -.511E-13 -.262E-10 0.142E-13
   -.192E-07 0.450E-08 0.637E+02   0.498E-15 0.412E-11 -.712E+02   0.344E-17 0.142E-16 0.742E+01   0.191E-13 0.625E-11 0.385E-04
   -.192E-07 -.451E-08 0.637E+02   -.543E-14 -.413E-11 -.712E+02   0.571E-17 -.437E-17 0.742E+01   0.673E-14 -.623E-11 0.385E-04
   0.192E-07 -.450E-08 -.637E+02   -.637E-14 -.412E-11 0.712E+02   -.601E-17 -.133E-16 -.742E+01   -.219E-13 -.626E-11 -.385E-04
   0.192E-07 0.450E-08 -.637E+02   -.409E-15 0.413E-11 0.712E+02   -.151E-17 0.940E-17 -.742E+01   -.116E-13 0.623E-11 -.385E-04
 -----------------------------------------------------------------------------------------------
   -.482E-11 -.465E-11 -.190E-10   0.651E-14 -.327E-14 0.142E-13   -.597E-17 -.509E-17 0.178E-14   0.393E-13 0.178E-13 0.410E-14


 POSITION                                       TOTAL-FORCE (eV/Angst)
 -----------------------------------------------------------------------------------
     -0.00000     -0.00000     -0.00000        -0.000000      0.000000      0.000000
     -0.00000      0.00000      5.14629        -0.000000      0.000000      0.000000
      2.25556      1.30225      2.57315         0.000000      0.000000      0.000000
      2.25556     -1.30225      7.71944         0.000000     -0.000000      0.000000
      2.25556      1.30225      6.63476        -0.000000      0.000000     -0.000395
      2.25556     -1.30225      1.48846        -0.000000      0.000000     -0.000395
      2.25556     -1.30225      3.65783        -0.000000      0.000000      0.000395
      2.25556      1.30225      8.80413        -0.000000      0.000000      0.000395
 -----------------------------------------------------------------------------------
    total drift:                               -0.000000     -0.000000     -0.000000


--------------------------------------------------------------------------------------------------------



  FREE ENERGIE OF THE ION-ELECTRON SYSTEM (eV)
  ---------------------------------------------------
  free  energy   TOTEN  =       -28.45520087 eV

  energy  without entropy=      -28.45520087  energy(sigma->0) =      -28.45520087

 d Force = 0.4338679E-07[ 0.421E-07, 0.447E-07]  d Energy = 0.1215512E-05-0.117E-05
 d Force = 0.7586767E-02[ 0.759E-02, 0.759E-02]  d Ewald  =-0.1306511E+00 0.138E+00


--------------------------------------------------------------------------------------------------------


    POTLOK:  cpu time      0.4590: real time      0.4594


--------------------------------------------------------------------------------------------------------


 Conjugate gradient step on ions:
 trial-energy change:   -0.000001  1 .order   -0.000001   -0.000002   -0.000000
  (g-gl).g =-0.139E-05      g.g   = 0.129E-05  gl.gl    = 0.489E-04
 g(Force)  = 0.339E-07   g(Stress)= 0.126E-05 ortho     =-0.912E-08
 gamma     =  -0.02838
 trial     =   1.57358
 opt step  =   1.84584  (harmonic =   1.88363) maximal distance =0.00003126
 next E    =   -28.455201   (d E  =  -0.00000)


--------------------------------------------------------------------------------------------------------


  
 reached required accuracy - stopping structural energy minimisation
     LOOP+:  cpu time     27.8439: real time     27.8611
    4ORBIT:  cpu time      0.0000: real time      0.0000



 total charge

# of ion       s       p       d       tot
------------------------------------------
    1        0.049   5.976   0.000   6.025
    2        0.049   5.976   0.000   6.025
    3        0.050   5.989   0.000   6.039
    4        0.050   5.989   0.000   6.039
    5        1.337   2.353   0.000   3.690
    6        1.337   2.353   0.000   3.690
    7        1.337   2.353   0.000   3.690
    8        1.337   2.353   0.000   3.690
--------------------------------------------------
tot          5.546  33.341   0.000  38.887



 magnetization (x)

# of ion       s       p       d       tot
------------------------------------------
    1        0.000  -0.000   0.000   0.000
    2        0.000  -0.000   0.000   0.000
    3       -0.000   0.000   0.000   0.000
    4       -0.000   0.000   0.000   0.000
    5       -0.000   0.000   0.000   0.000
    6       -0.000   0.000   0.000   0.000
    7       -0.000   0.000   0.000   0.000
    8       -0.000   0.000   0.000   0.000
--------------------------------------------------
tot          0.000   0.000   0.000   0.000

 BZINTS: Fermi energy:    1.851805;   52.000000 electrons
         Band energy:-0.602249E+03;  BLOECHL correction:    0.000000

 total amount of memory used by VASP MPI-rank0    50073. kBytes
=======================================================================

   base      :      30000. kBytes
   nonlr-proj:       4284. kBytes
   fftplans  :       1540. kBytes
   grid      :      11128. kBytes
   one-center:         49. kBytes
   wavefun   :       3072. kBytes

  
  
 General timing and accounting informations for this job:
 ========================================================
  
                  Total CPU time used (sec):      527.166
                            User time (sec):      524.515
                          System time (sec):        2.651
                         Elapsed time (sec):      528.384
  
                   Maximum memory used (kb):      312516.
                   Average memory used (kb):          N/A
  
                          Minor page faults:       703440
                          Major page faults:           98
                 Voluntary context switches:         3140
