  79  79   0   0
  0.2352942E+02  0.1210264E-08  0.7093817E-09  0.2165102E-08  0.0000000E+00
   1.0000000000000000E-004
  CAR 
 NEB_refined                             
      8.96810130    -23.89906431  301      0.87454512      1.00000000
    -23.899  0.0000E+00  0.0000E+00
    -23.790  0.0000E+00  0.0000E+00
    -23.680  0.0000E+00  0.0000E+00
    -23.570 -0.9785E-31 -0.1072E-31
    -23.461 -0.6876E-27 -0.7534E-28
    -23.351 -0.2580E-23 -0.2827E-24
    -23.242 -0.5309E-20 -0.5819E-21
    -23.132 -0.5993E-17 -0.6571E-18
    -23.023 -0.3595E-14 -0.3945E-15
    -22.913 -0.1210E-11 -0.1330E-12
    -22.803 -0.2224E-09 -0.2450E-10
    -22.694 -0.2223E-07 -0.2460E-08
    -22.584 -0.1202E-05 -0.1342E-06
    -22.475 -0.3482E-04 -0.3949E-05
    -22.365 -0.5305E-03 -0.6207E-04
    -22.256 -0.4093E-02 -0.5105E-03
    -22.146 -0.1446E-01 -0.2094E-02
    -22.037 -0.1246E-01 -0.3459E-02
    -21.927  0.6761E-01  0.3948E-02
    -21.817  0.3194E+00  0.3894E-01
    -21.708  0.8084E+00  0.1275E+00
    -21.598  0.1237E+01  0.2630E+00
    -21.489  0.1118E+01  0.3856E+00
    -21.379  0.6116E+00  0.4526E+00
    -21.270  0.1797E+00  0.4722E+00
    -21.160 -0.5108E-02  0.4717E+00
    -21.051 -0.2436E-01  0.4690E+00
    -20.941 -0.8015E-02  0.4681E+00
    -20.831 -0.1186E-02  0.4680E+00
    -20.722 -0.9037E-04  0.4680E+00
    -20.612 -0.3688E-05  0.4680E+00
    -20.503 -0.8173E-07  0.4680E+00
    -20.393 -0.9887E-09  0.4680E+00
    -20.284 -0.6544E-11  0.4680E+00
    -20.174 -0.2370E-13  0.4680E+00
    -20.065 -0.4864E-16  0.4680E+00
    -19.955  0.0000E+00  0.4680E+00
    -19.845  0.0000E+00  0.4680E+00
    -19.736  0.0000E+00  0.4680E+00
    -19.626  0.0000E+00  0.4680E+00
    -19.517  0.0000E+00  0.4680E+00
    -19.407  0.0000E+00  0.4680E+00
    -19.298  0.0000E+00  0.4680E+00
    -19.188  0.0000E+00  0.4680E+00
    -19.079  0.0000E+00  0.4680E+00
    -18.969  0.0000E+00  0.4680E+00
    -18.859  0.0000E+00  0.4680E+00
    -18.750  0.0000E+00  0.4680E+00
    -18.640  0.0000E+00  0.4680E+00
    -18.531  0.0000E+00  0.4680E+00
    -18.421  0.0000E+00  0.4680E+00
    -18.312  0.0000E+00  0.4680E+00
    -18.202  0.0000E+00  0.4680E+00
    -18.093  0.0000E+00  0.4680E+00
    -17.983  0.0000E+00  0.4680E+00
    -17.873  0.0000E+00  0.4680E+00
    -17.764  0.0000E+00  0.4680E+00
    -17.654  0.0000E+00  0.4680E+00
    -17.545  0.0000E+00  0.4680E+00
    -17.435  0.0000E+00  0.4680E+00
    -17.326  0.0000E+00  0.4680E+00
    -17.216  0.0000E+00  0.4680E+00
    -17.107  0.0000E+00  0.4680E+00
    -16.997  0.0000E+00  0.4680E+00
    -16.887  0.0000E+00  0.4680E+00
    -16.778  0.0000E+00  0.4680E+00
    -16.668  0.0000E+00  0.4680E+00
    -16.559  0.0000E+00  0.4680E+00
    -16.449  0.0000E+00  0.4680E+00
    -16.340  0.0000E+00  0.4680E+00
    -16.230  0.0000E+00  0.4680E+00
    -16.121  0.0000E+00  0.4680E+00
    -16.011  0.0000E+00  0.4680E+00
    -15.901  0.0000E+00  0.4680E+00
    -15.792  0.0000E+00  0.4680E+00
    -15.682  0.0000E+00  0.4680E+00
    -15.573  0.0000E+00  0.4680E+00
    -15.463  0.0000E+00  0.4680E+00
    -15.354  0.0000E+00  0.4680E+00
    -15.244  0.0000E+00  0.4680E+00
    -15.134  0.0000E+00  0.4680E+00
    -15.025  0.0000E+00  0.4680E+00
    -14.915  0.0000E+00  0.4680E+00
    -14.806  0.0000E+00  0.4680E+00
    -14.696  0.0000E+00  0.4680E+00
    -14.587  0.0000E+00  0.4680E+00
    -14.477  0.0000E+00  0.4680E+00
    -14.368  0.0000E+00  0.4680E+00
    -14.258  0.0000E+00  0.4680E+00
    -14.148  0.0000E+00  0.4680E+00
    -14.039  0.0000E+00  0.4680E+00
    -13.929  0.0000E+00  0.4680E+00
    -13.820  0.0000E+00  0.4680E+00
    -13.710  0.0000E+00  0.4680E+00
    -13.601  0.0000E+00  0.4680E+00
    -13.491  0.0000E+00  0.4680E+00
    -13.382  0.0000E+00  0.4680E+00
    -13.272  0.0000E+00  0.4680E+00
    -13.162  0.0000E+00  0.4680E+00
    -13.053  0.0000E+00  0.4680E+00
    -12.943  0.0000E+00  0.4680E+00
    -12.834  0.0000E+00  0.4680E+00
    -12.724  0.0000E+00  0.4680E+00
    -12.615  0.0000E+00  0.4680E+00
    -12.505  0.0000E+00  0.4680E+00
    -12.396  0.0000E+00  0.4680E+00
    -12.286  0.0000E+00  0.4680E+00
    -12.176 -0.4986E-29  0.4680E+00
    -12.067 -0.2378E-25  0.4680E+00
    -11.957 -0.6209E-22  0.4680E+00
    -11.848 -0.8869E-19  0.4680E+00
    -11.738 -0.6731E-16  0.4680E+00
    -11.629 -0.2865E-13  0.4680E+00
    -11.519 -0.6653E-11  0.4680E+00
    -11.410 -0.8427E-09  0.4680E+00
    -11.300 -0.5804E-07  0.4680E+00
    -11.190 -0.2162E-05  0.4680E+00
    -11.081 -0.4299E-04  0.4680E+00
    -10.971 -0.4430E-03  0.4679E+00
    -10.862 -0.2168E-02  0.4677E+00
    -10.752 -0.3160E-02  0.4674E+00
    -10.643  0.1159E-01  0.4686E+00
    -10.533  0.5505E-01  0.4747E+00
    -10.424  0.9643E-01  0.4852E+00
    -10.314  0.8938E-01  0.4950E+00
    -10.204  0.4157E-01  0.4996E+00
    -10.095 -0.5727E-03  0.4995E+00
     -9.985 -0.5235E-02  0.4989E+00
     -9.876  0.5382E-01  0.5048E+00
     -9.766  0.1821E+00  0.5248E+00
     -9.657  0.2909E+00  0.5567E+00
     -9.547  0.2558E+00  0.5847E+00
     -9.438  0.1101E+00  0.5967E+00
     -9.328  0.8305E-02  0.5977E+00
     -9.218 -0.1052E-01  0.5965E+00
     -9.109 -0.3956E-02  0.5961E+00
     -8.999 -0.6016E-03  0.5960E+00
     -8.890 -0.4597E-04  0.5960E+00
     -8.780 -0.1867E-05  0.5960E+00
     -8.671 -0.4112E-07  0.5960E+00
     -8.561 -0.4950E-09  0.5960E+00
     -8.451 -0.3267E-11  0.5960E+00
     -8.342 -0.1183E-13  0.5960E+00
     -8.232 -0.2432E-16  0.5960E+00
     -8.123  0.0000E+00  0.5960E+00
     -8.013  0.0000E+00  0.5960E+00
     -7.904  0.0000E+00  0.5960E+00
     -7.794  0.0000E+00  0.5960E+00
     -7.685  0.0000E+00  0.5960E+00
     -7.575  0.0000E+00  0.5960E+00
     -7.465  0.0000E+00  0.5960E+00
     -7.356  0.0000E+00  0.5960E+00
     -7.246  0.0000E+00  0.5960E+00
     -7.137  0.0000E+00  0.5960E+00
     -7.027  0.0000E+00  0.5960E+00
     -6.918  0.0000E+00  0.5960E+00
     -6.808  0.0000E+00  0.5960E+00
     -6.699  0.0000E+00  0.5960E+00
     -6.589  0.0000E+00  0.5960E+00
     -6.479  0.0000E+00  0.5960E+00
     -6.370  0.0000E+00  0.5960E+00
     -6.260  0.0000E+00  0.5960E+00
     -6.151  0.0000E+00  0.5960E+00
     -6.041  0.0000E+00  0.5960E+00
     -5.932  0.0000E+00  0.5960E+00
     -5.822  0.0000E+00  0.5960E+00
     -5.713  0.0000E+00  0.5960E+00
     -5.603  0.0000E+00  0.5960E+00
     -5.493  0.0000E+00  0.5960E+00
     -5.384  0.0000E+00  0.5960E+00
     -5.274  0.0000E+00  0.5960E+00
     -5.165  0.0000E+00  0.5960E+00
     -5.055  0.0000E+00  0.5960E+00
     -4.946 -0.4291E-31  0.5960E+00
     -4.836 -0.2809E-27  0.5960E+00
     -4.727 -0.1002E-23  0.5960E+00
     -4.617 -0.1954E-20  0.5960E+00
     -4.507 -0.2078E-17  0.5960E+00
     -4.398 -0.1169E-14  0.5960E+00
     -4.288 -0.3671E-12  0.5960E+00
     -4.179 -0.6268E-10  0.5960E+00
     -4.069 -0.5807E-08  0.5960E+00
     -3.960 -0.2910E-06  0.5960E+00
     -3.850 -0.7844E-05  0.5960E+00
     -3.741 -0.1122E-03  0.5960E+00
     -3.631 -0.8211E-03  0.5959E+00
     -3.521 -0.2668E-02  0.5956E+00
     -3.412 -0.3748E-03  0.5956E+00
     -3.302  0.2212E-01  0.5980E+00
     -3.193  0.6616E-01  0.6052E+00
     -3.083  0.9369E-01  0.6155E+00
     -2.974  0.7647E-01  0.6239E+00
     -2.864  0.3591E-01  0.6278E+00
     -2.755  0.6070E-02  0.6285E+00
     -2.645 -0.2548E-02  0.6282E+00
     -2.535 -0.1483E-02  0.6280E+00
     -2.426 -0.2882E-03  0.6280E+00
     -2.316 -0.3218E-04  0.6280E+00
     -2.207 -0.9967E-04  0.6280E+00
     -2.097 -0.9046E-03  0.6279E+00
     -1.988 -0.3955E-02  0.6275E+00
     -1.878 -0.4566E-02  0.6270E+00
     -1.769  0.2296E-01  0.6295E+00
     -1.659  0.9533E-01  0.6399E+00
     -1.549  0.1628E+00  0.6578E+00
     -1.440  0.1784E+00  0.6773E+00
     -1.330  0.1696E+00  0.6959E+00
     -1.221  0.1475E+00  0.7120E+00
     -1.111  0.8960E-01  0.7219E+00
     -1.002  0.2339E-01  0.7244E+00
     -0.892 -0.8228E-02  0.7235E+00
     -0.782  0.8087E-02  0.7244E+00
     -0.673  0.7503E-01  0.7326E+00
     -0.563  0.1415E+00  0.7481E+00
     -0.454  0.1497E+00  0.7645E+00
     -0.344  0.1321E+00  0.7790E+00
     -0.235  0.1306E+00  0.7933E+00
     -0.125  0.1456E+00  0.8093E+00
     -0.016  0.1538E+00  0.8261E+00
      0.094  0.1468E+00  0.8422E+00
      0.204  0.1535E+00  0.8590E+00
      0.313  0.1756E+00  0.8782E+00
      0.423  0.2038E+00  0.9006E+00
      0.532  0.2304E+00  0.9258E+00
      0.642  0.2176E+00  0.9496E+00
      0.751  0.1615E+00  0.9673E+00
      0.861  0.9075E-01  0.9773E+00
      0.970  0.3003E-01  0.9806E+00
      1.080  0.1934E-03  0.9806E+00
      1.190 -0.3820E-02  0.9802E+00
      1.299 -0.1345E-02  0.9800E+00
      1.409 -0.2076E-03  0.9800E+00
      1.518 -0.1633E-04  0.9800E+00
      1.628 -0.6810E-06  0.9800E+00
      1.737 -0.1528E-07  0.9800E+00
      1.847 -0.1855E-09  0.9800E+00
      1.956 -0.1224E-11  0.9800E+00
      2.066 -0.4394E-14  0.9800E+00
      2.176 -0.8107E-17  0.9800E+00
      2.285 -0.2495E-18  0.9800E+00
      2.395 -0.1678E-15  0.9800E+00
      2.504 -0.6353E-13  0.9800E+00
      2.614 -0.1293E-10  0.9800E+00
      2.723 -0.1416E-08  0.9800E+00
      2.833 -0.8279E-07  0.9800E+00
      2.942 -0.2545E-05  0.9800E+00
      3.052 -0.3997E-04  0.9800E+00
      3.162 -0.2988E-03  0.9800E+00
      3.271 -0.8150E-03  0.9799E+00
      3.381  0.1054E-02  0.9800E+00
      3.490  0.9346E-02  0.9810E+00
      3.600  0.1621E-01  0.9828E+00
      3.709  0.1058E-01  0.9839E+00
      3.819  0.1687E-02  0.9841E+00
      3.928 -0.1054E-02  0.9840E+00
      4.038 -0.1510E-02  0.9839E+00
      4.148 -0.1132E-02  0.9837E+00
      4.257  0.8737E-02  0.9847E+00
      4.367  0.2780E-01  0.9877E+00
      4.476  0.2978E-01  0.9910E+00
      4.586  0.1117E-01  0.9922E+00
      4.695 -0.1598E-02  0.9920E+00
      4.805 -0.3218E-02  0.9917E+00
      4.914  0.5163E-02  0.9923E+00
      5.024  0.2642E-01  0.9951E+00
      5.134  0.4150E-01  0.9997E+00
      5.243  0.4339E-01  0.1004E+01
      5.353  0.5593E-01  0.1011E+01
      5.462  0.7774E-01  0.1019E+01
      5.572  0.9881E-01  0.1030E+01
      5.681  0.1194E+00  0.1043E+01
      5.791  0.1277E+00  0.1057E+01
      5.900  0.1089E+00  0.1069E+01
      6.010  0.7711E-01  0.1077E+01
      6.120  0.7162E-01  0.1085E+01
      6.229  0.8793E-01  0.1095E+01
      6.339  0.9110E-01  0.1105E+01
      6.448  0.8658E-01  0.1114E+01
      6.558  0.9999E-01  0.1125E+01
      6.667  0.1169E+00  0.1138E+01
      6.777  0.1145E+00  0.1151E+01
      6.887  0.1083E+00  0.1162E+01
      6.996  0.8804E-01  0.1172E+01
      7.106  0.3885E-01  0.1176E+01
      7.215  0.2194E-02  0.1177E+01
      7.325 -0.4137E-02  0.1176E+01
      7.434 -0.1404E-02  0.1176E+01
      7.544 -0.1913E-03  0.1176E+01
      7.653 -0.1287E-04  0.1176E+01
      7.763 -0.4529E-06  0.1176E+01
      7.873 -0.8533E-08  0.1176E+01
      7.982 -0.8706E-10  0.1176E+01
      8.092 -0.4836E-12  0.1176E+01
      8.201 -0.1459E-14  0.1176E+01
      8.311  0.0000E+00  0.1176E+01
      8.420  0.0000E+00  0.1176E+01
      8.530  0.0000E+00  0.1176E+01
      8.639  0.0000E+00  0.1176E+01
      8.749  0.0000E+00  0.1176E+01
      8.859  0.0000E+00  0.1176E+01
      8.968  0.0000E+00  0.1176E+01
