       N       E                     dE             d eps       ncg     rms          rms(c)
DAV:   1     0.256393973290E+03    0.25639E+03   -0.17727E+04    96   0.529E+02
DAV:   2    -0.501580483792E+02   -0.30655E+03   -0.30167E+03   144   0.151E+02
DAV:   3    -0.682728706736E+02   -0.18115E+02   -0.18089E+02   144   0.455E+01
DAV:   4    -0.684590754764E+02   -0.18620E+00   -0.18619E+00   144   0.522E+00
DAV:   5    -0.684623110722E+02   -0.32356E-02   -0.32356E-02   144   0.598E-01    0.814E+00
RMM:   6    -0.662039371819E+02    0.22584E+01   -0.42825E+00    96   0.494E+00    0.399E+00
RMM:   7    -0.659928781188E+02    0.21106E+00   -0.12974E+00    96   0.289E+00    0.169E+00
RMM:   8    -0.660095317636E+02   -0.16654E-01   -0.15517E-01    96   0.124E+00    0.457E-01
RMM:   9    -0.660190106696E+02   -0.94789E-02   -0.19071E-02    96   0.476E-01    0.138E-01
RMM:  10    -0.660206019710E+02   -0.15913E-02   -0.30001E-03    96   0.168E-01    0.541E-02
RMM:  11    -0.660210323258E+02   -0.43035E-03   -0.83751E-04    96   0.907E-02    0.159E-02
RMM:  12    -0.660210829396E+02   -0.50614E-04   -0.10717E-04    89   0.295E-02    0.923E-03
RMM:  13    -0.660210852836E+02   -0.23441E-05   -0.31559E-05    76   0.154E-02
    1 T=  1254. E= -.67286449E+02 F= -.66021085E+02 E0= -.66021085E+02  EK= 0.24305E+01 SP= -.37E+01 SK= 0.23E-01
       N       E                     dE             d eps       ncg     rms          rms(c)
DAV:   1    -0.660630962253E+02   -0.42013E-01   -0.86583E-01   144   0.294E+00    0.209E-01
RMM:   2    -0.660655069967E+02   -0.24108E-02   -0.34865E-02    96   0.641E-01    0.978E-02
RMM:   3    -0.660652728045E+02    0.23419E-03   -0.13137E-03    96   0.118E-01    0.470E-02
RMM:   4    -0.660652672542E+02    0.55503E-05   -0.37084E-04    96   0.532E-02    0.132E-02
RMM:   5    -0.660652665464E+02    0.70774E-06   -0.23379E-05    68   0.159E-02
    2 T=  1303. E= -.67287136E+02 F= -.66065267E+02 E0= -.66065267E+02  EK= 0.25258E+01 SP= -.38E+01 SK= 0.12E-01
       N       E                     dE             d eps       ncg     rms          rms(c)
DAV:   1    -0.661098363055E+02   -0.44569E-01   -0.34041E-02   144   0.121E+00    0.254E-02
RMM:   2    -0.661101204378E+02   -0.28413E-03   -0.30561E-03    96   0.178E-01    0.181E-02
RMM:   3    -0.661101152889E+02    0.51489E-05   -0.59928E-05    88   0.272E-02    0.140E-02
RMM:   4    -0.661101089228E+02    0.63662E-05   -0.43235E-05    82   0.167E-02
    3 T=  1343. E= -.67287728E+02 F= -.66110109E+02 E0= -.66110109E+02  EK= 0.26045E+01 SP= -.38E+01 SK= 0.34E-02
       N       E                     dE             d eps       ncg     rms          rms(c)
DAV:   1    -0.661546095859E+02   -0.44494E-01   -0.30685E-02   192   0.118E+00    0.105E-02
RMM:   2    -0.661546217711E+02   -0.12185E-04   -0.18898E-04    96   0.488E-02    0.651E-03
RMM:   3    -0.661546206012E+02    0.11699E-05   -0.64291E-06    59   0.887E-03    0.404E-03
RMM:   4    -0.661546210224E+02   -0.42116E-06   -0.45527E-06    54   0.633E-03
    4 T=  1373. E= -.67288270E+02 F= -.66154621E+02 E0= -.66154621E+02  EK= 0.26616E+01 SP= -.38E+01 SK= 0.79E-05
       N       E                     dE             d eps       ncg     rms          rms(c)
DAV:   1    -0.661975182089E+02   -0.42898E-01   -0.29888E-02   192   0.121E+00    0.102E-02
RMM:   2    -0.661975210053E+02   -0.27964E-05   -0.97693E-05    94   0.359E-02    0.484E-03
RMM:   3    -0.661975203292E+02    0.67609E-06   -0.48024E-06    55   0.680E-03    0.239E-03
RMM:   4    -0.661975204226E+02   -0.93360E-07   -0.19403E-06    51   0.445E-03
    5 T=  1389. E= -.67288564E+02 F= -.66197520E+02 E0= -.66197520E+02  EK= 0.26931E+01 SP= -.38E+01 SK= 0.32E-02
       N       E                     dE             d eps       ncg     rms          rms(c)
DAV:   1    -0.662381254539E+02   -0.40605E-01   -0.28941E-02   120   0.119E+00    0.381E-03
RMM:   2    -0.662381317614E+02   -0.63075E-05   -0.72295E-05    86   0.303E-02    0.248E-03
RMM:   3    -0.662381316292E+02    0.13224E-06   -0.21328E-06    54   0.574E-03    0.164E-03
RMM:   4    -0.662381315852E+02    0.43983E-07   -0.46147E-07    35   0.319E-03
    6 T=  1391. E= -.67288782E+02 F= -.66238132E+02 E0= -.66238132E+02  EK= 0.26964E+01 SP= -.38E+01 SK= 0.14E-01
       N       E                     dE             d eps       ncg     rms          rms(c)
DAV:   1    -0.662756650831E+02   -0.37533E-01   -0.28167E-02   120   0.119E+00    0.310E-03
RMM:   2    -0.662756703015E+02   -0.52184E-05   -0.52751E-05    85   0.271E-02    0.144E-03
RMM:   3    -0.662756705948E+02   -0.29326E-06   -0.19803E-06    52   0.541E-03    0.913E-04
RMM:   4    -0.662756707691E+02   -0.17432E-06   -0.25797E-07    28   0.288E-03
    7 T=  1378. E= -.67288719E+02 F= -.66275671E+02 E0= -.66275671E+02  EK= 0.26713E+01 SP= -.37E+01 SK= 0.31E-01
       N       E                     dE             d eps       ncg     rms          rms(c)
DAV:   1    -0.663100092004E+02   -0.34339E-01   -0.27274E-02   120   0.118E+00    0.261E-03
RMM:   2    -0.663100162986E+02   -0.70982E-05   -0.72151E-05    87   0.291E-02    0.147E-03
RMM:   3    -0.663100163198E+02   -0.21185E-07   -0.20249E-06    51   0.568E-03    0.117E-03
RMM:   4    -0.663100162515E+02    0.68293E-07   -0.28111E-07    27   0.285E-03
    8 T=  1351. E= -.67288524E+02 F= -.66310016E+02 E0= -.66310016E+02  EK= 0.26195E+01 SP= -.37E+01 SK= 0.54E-01
       N       E                     dE             d eps       ncg     rms          rms(c)
DAV:   1    -0.663411365196E+02   -0.31120E-01   -0.26391E-02   120   0.116E+00    0.329E-03
RMM:   2    -0.663411423279E+02   -0.58083E-05   -0.58178E-05    85   0.268E-02    0.233E-03
RMM:   3    -0.663411424382E+02   -0.11033E-06   -0.22720E-06    51   0.569E-03    0.144E-03
RMM:   4    -0.663411424949E+02   -0.56702E-07   -0.46600E-07    31   0.323E-03
    9 T=  1312. E= -.67288191E+02 F= -.66341142E+02 E0= -.66341142E+02  EK= 0.25443E+01 SP= -.36E+01 SK= 0.80E-01
       N       E                     dE             d eps       ncg     rms          rms(c)
DAV:   1    -0.663693892371E+02   -0.28247E-01   -0.25566E-02   120   0.114E+00    0.318E-03
RMM:   2    -0.663693967629E+02   -0.75258E-05   -0.77384E-05    87   0.286E-02    0.173E-03
RMM:   3    -0.663693969375E+02   -0.17457E-06   -0.25741E-06    51   0.628E-03    0.158E-03
RMM:   4    -0.663693967533E+02    0.18417E-06   -0.75642E-07    40   0.351E-03
   10 T=  1264. E= -.67287746E+02 F= -.66369397E+02 E0= -.66369397E+02  EK= 0.24507E+01 SP= -.35E+01 SK= 0.11E+00
       N       E                     dE             d eps       ncg     rms          rms(c)
DAV:   1    -0.663954238980E+02   -0.26027E-01   -0.24924E-02   120   0.111E+00    0.232E-03
RMM:   2    -0.663954302280E+02   -0.63299E-05   -0.64518E-05    86   0.268E-02    0.174E-03
RMM:   3    -0.663954302752E+02   -0.47221E-07   -0.19570E-06    53   0.546E-03    0.102E-03
RMM:   4    -0.663954302731E+02    0.21032E-08   -0.26157E-07    24   0.291E-03
   11 T=  1209. E= -.67287255E+02 F= -.66395430E+02 E0= -.66395430E+02  EK= 0.23443E+01 SP= -.34E+01 SK= 0.13E+00
       N       E                     dE             d eps       ncg     rms          rms(c)
DAV:   1    -0.664201048434E+02   -0.24675E-01   -0.24759E-02   120   0.109E+00    0.361E-03
RMM:   2    -0.664201109050E+02   -0.60616E-05   -0.65331E-05    86   0.269E-02    0.117E-03
RMM:   3    -0.664201112105E+02   -0.30550E-06   -0.26328E-06    53   0.599E-03    0.827E-04
RMM:   4    -0.664201112186E+02   -0.80613E-08   -0.32550E-07    26   0.293E-03
   12 T=  1151. E= -.67286738E+02 F= -.66420111E+02 E0= -.66420111E+02  EK= 0.22308E+01 SP= -.33E+01 SK= 0.15E+00
       N       E                     dE             d eps       ncg     rms          rms(c)
DAV:   1    -0.664442522251E+02   -0.24141E-01   -0.24520E-02   120   0.106E+00    0.261E-03
RMM:   2    -0.664442582385E+02   -0.60135E-05   -0.60186E-05    85   0.263E-02    0.120E-03
RMM:   3    -0.664442583987E+02   -0.16014E-06   -0.23060E-06    51   0.592E-03    0.816E-04
RMM:   4    -0.664442584767E+02   -0.78013E-07   -0.27991E-07    21   0.287E-03
   13 T=  1091. E= -.67286025E+02 F= -.66444258E+02 E0= -.66444258E+02  EK= 0.21159E+01 SP= -.31E+01 SK= 0.17E+00
       N       E                     dE             d eps       ncg     rms          rms(c)
DAV:   1    -0.664692655568E+02   -0.25007E-01   -0.23989E-02   120   0.103E+00    0.302E-03
RMM:   2    -0.664692710403E+02   -0.54835E-05   -0.59431E-05    86   0.250E-02    0.144E-03
RMM:   3    -0.664692711110E+02   -0.70740E-07   -0.23850E-06    51   0.575E-03    0.842E-04
RMM:   4    -0.664692710329E+02    0.78130E-07   -0.28317E-07    20   0.286E-03
   14 T=  1034. E= -.67285501E+02 F= -.66469271E+02 E0= -.66469271E+02  EK= 0.20042E+01 SP= -.30E+01 SK= 0.18E+00
       N       E                     dE             d eps       ncg     rms          rms(c)
DAV:   1    -0.664959176669E+02   -0.26647E-01   -0.23371E-02    72   0.101E+00    0.366E-03
RMM:   2    -0.664959240822E+02   -0.64153E-05   -0.68467E-05    86   0.255E-02    0.125E-03
RMM:   3    -0.664959245017E+02   -0.41955E-06   -0.33414E-06    53   0.650E-03    0.928E-04
RMM:   4    -0.664959244883E+02    0.13413E-07   -0.54552E-07    28   0.336E-03
   15 T=   980. E= -.67284934E+02 F= -.66495924E+02 E0= -.66495924E+02  EK= 0.18998E+01 SP= -.29E+01 SK= 0.18E+00
       N       E                     dE             d eps       ncg     rms          rms(c)
DAV:   1    -0.665251488148E+02   -0.29224E-01   -0.22766E-02   120   0.990E-01    0.242E-03
RMM:   2    -0.665251546077E+02   -0.57929E-05   -0.58965E-05    86   0.242E-02    0.860E-04
RMM:   3    -0.665251548861E+02   -0.27840E-06   -0.24431E-06    50   0.587E-03    0.683E-04
RMM:   4    -0.665251550160E+02   -0.12991E-06   -0.35982E-07    25   0.292E-03
   16 T=   931. E= -.67284408E+02 F= -.66525155E+02 E0= -.66525155E+02  EK= 0.18055E+01 SP= -.27E+01 SK= 0.17E+00
       N       E                     dE             d eps       ncg     rms          rms(c)
DAV:   1    -0.665574962111E+02   -0.32341E-01   -0.22353E-02   120   0.975E-01    0.310E-03
RMM:   2    -0.665575003398E+02   -0.41287E-05   -0.43054E-05    80   0.216E-02    0.129E-03
RMM:   3    -0.665575004552E+02   -0.11534E-06   -0.22657E-06    51   0.567E-03    0.589E-04
RMM:   4    -0.665575004305E+02    0.24626E-07   -0.24654E-07    23   0.293E-03
   17 T=   889. E= -.67283856E+02 F= -.66557500E+02 E0= -.66557500E+02  EK= 0.17233E+01 SP= -.26E+01 SK= 0.16E+00
       N       E                     dE             d eps       ncg     rms          rms(c)
DAV:   1    -0.665933849142E+02   -0.35884E-01   -0.22059E-02   120   0.959E-01    0.233E-03
RMM:   2    -0.665933894932E+02   -0.45790E-05   -0.46043E-05    85   0.221E-02    0.946E-04
RMM:   3    -0.665933896004E+02   -0.10726E-06   -0.16272E-06    47   0.512E-03    0.695E-04
RMM:   4    -0.665933895144E+02    0.86012E-07   -0.11755E-07    14   0.253E-03
   18 T=   853. E= -.67283388E+02 F= -.66593390E+02 E0= -.66593390E+02  EK= 0.16540E+01 SP= -.25E+01 SK= 0.14E+00
       N       E                     dE             d eps       ncg     rms          rms(c)
DAV:   1    -0.666329077060E+02   -0.39518E-01   -0.21965E-02   120   0.951E-01    0.239E-03
RMM:   2    -0.666329103178E+02   -0.26118E-05   -0.27660E-05    68   0.191E-02    0.125E-03
RMM:   3    -0.666329105084E+02   -0.19063E-06   -0.24391E-06    51   0.613E-03    0.703E-04
RMM:   4    -0.666329104784E+02    0.29977E-07   -0.28201E-07    23   0.279E-03
   19 T=   824. E= -.67283006E+02 F= -.66632910E+02 E0= -.66632910E+02  EK= 0.15981E+01 SP= -.24E+01 SK= 0.13E+00
       N       E                     dE             d eps       ncg     rms          rms(c)
DAV:   1    -0.666757678158E+02   -0.42857E-01   -0.22029E-02   120   0.944E-01    0.322E-03
RMM:   2    -0.666757716708E+02   -0.38550E-05   -0.39050E-05    78   0.206E-02    0.112E-03
RMM:   3    -0.666757718881E+02   -0.21731E-06   -0.27429E-06    50   0.629E-03    0.559E-04
RMM:   4    -0.666757719444E+02   -0.56290E-07   -0.35451E-07    24   0.309E-03
   20 T=   802. E= -.67282640E+02 F= -.66675772E+02 E0= -.66675772E+02  EK= 0.15552E+01 SP= -.23E+01 SK= 0.11E+00
       N       E                     dE             d eps       ncg     rms          rms(c)
DAV:   1    -0.667215253004E+02   -0.45753E-01   -0.22183E-02   120   0.940E-01    0.159E-03
RMM:   2    -0.667215278942E+02   -0.25937E-05   -0.25338E-05    67   0.183E-02    0.751E-04
RMM:   3    -0.667215281474E+02   -0.25324E-06   -0.21894E-06    47   0.592E-03    0.471E-04
RMM:   4    -0.667215282207E+02   -0.73290E-07   -0.27241E-07    21   0.283E-03
   21 T=   786. E= -.67282373E+02 F= -.66721528E+02 E0= -.66721528E+02  EK= 0.15247E+01 SP= -.22E+01 SK= 0.87E-01
       N       E                     dE             d eps       ncg     rms          rms(c)
DAV:   1    -0.667694159413E+02   -0.47888E-01   -0.22490E-02   120   0.935E-01    0.227E-03
RMM:   2    -0.667694187554E+02   -0.28141E-05   -0.29005E-05    72   0.188E-02    0.714E-04
RMM:   3    -0.667694189545E+02   -0.19907E-06   -0.23046E-06    50   0.593E-03    0.410E-04
RMM:   4    -0.667694189601E+02   -0.56311E-08   -0.27454E-07    23   0.279E-03
   22 T=   776. E= -.67282204E+02 F= -.66769419E+02 E0= -.66769419E+02  EK= 0.15054E+01 SP= -.21E+01 SK= 0.68E-01
       N       E                     dE             d eps       ncg     rms          rms(c)
DAV:   1    -0.668185066102E+02   -0.49088E-01   -0.22876E-02   120   0.933E-01    0.254E-03
RMM:   2    -0.668185095155E+02   -0.29053E-05   -0.25965E-05    68   0.183E-02    0.163E-03
RMM:   3    -0.668185096883E+02   -0.17282E-06   -0.27525E-06    51   0.630E-03    0.631E-04
RMM:   4    -0.668185097496E+02   -0.61340E-07   -0.54162E-07    31   0.326E-03
   23 T=   772. E= -.67282078E+02 F= -.66818510E+02 E0= -.66818510E+02  EK= 0.14962E+01 SP= -.20E+01 SK= 0.51E-01
       N       E                     dE             d eps       ncg     rms          rms(c)
DAV:   1    -0.668678628798E+02   -0.49353E-01   -0.23281E-02   120   0.931E-01    0.192E-03
RMM:   2    -0.668678660638E+02   -0.31840E-05   -0.30479E-05    72   0.194E-02    0.479E-04
RMM:   3    -0.668678662918E+02   -0.22800E-06   -0.22239E-06    48   0.598E-03    0.439E-04
RMM:   4    -0.668678662983E+02   -0.65652E-08   -0.24081E-07    20   0.282E-03
   24 T=   772. E= -.67281994E+02 F= -.66867866E+02 E0= -.66867866E+02  EK= 0.14959E+01 SP= -.19E+01 SK= 0.36E-01
       N       E                     dE             d eps       ncg     rms          rms(c)
DAV:   1    -0.669165332248E+02   -0.48667E-01   -0.23826E-02   120   0.933E-01    0.191E-03
RMM:   2    -0.669165359719E+02   -0.27471E-05   -0.26082E-05    70   0.187E-02    0.736E-04
RMM:   3    -0.669165361619E+02   -0.19002E-06   -0.24027E-06    47   0.605E-03    0.402E-04
RMM:   4    -0.669165361839E+02   -0.21947E-07   -0.29336E-07    20   0.292E-03
   25 T=   775. E= -.67281963E+02 F= -.66916536E+02 E0= -.66916536E+02  EK= 0.15032E+01 SP= -.19E+01 SK= 0.24E-01
       N       E                     dE             d eps       ncg     rms          rms(c)
DAV:   1    -0.669635957236E+02   -0.47060E-01   -0.24376E-02   120   0.935E-01    0.219E-03
RMM:   2    -0.669635989271E+02   -0.32035E-05   -0.30541E-05    73   0.194E-02    0.663E-04
RMM:   3    -0.669635991441E+02   -0.21702E-06   -0.22717E-06    49   0.602E-03    0.293E-04
RMM:   4    -0.669635991792E+02   -0.35122E-07   -0.28979E-07    23   0.284E-03
   26 T=   782. E= -.67281942E+02 F= -.66963599E+02 E0= -.66963599E+02  EK= 0.15169E+01 SP= -.18E+01 SK= 0.15E-01
       N       E                     dE             d eps       ncg     rms          rms(c)
DAV:   1    -0.670083178443E+02   -0.44719E-01   -0.24979E-02   120   0.937E-01    0.221E-03
RMM:   2    -0.670083207699E+02   -0.29256E-05   -0.29677E-05    72   0.192E-02    0.646E-04
RMM:   3    -0.670083209659E+02   -0.19600E-06   -0.20020E-06    46   0.572E-03    0.428E-04
RMM:   4    -0.670083210153E+02   -0.49475E-07   -0.26393E-07    19   0.282E-03
   27 T=   792. E= -.67281985E+02 F= -.67008321E+02 E0= -.67008321E+02  EK= 0.15361E+01 SP= -.18E+01 SK= 0.78E-02
       N       E                     dE             d eps       ncg     rms          rms(c)
DAV:   1    -0.670499654372E+02   -0.41644E-01   -0.25559E-02   120   0.942E-01    0.186E-03
RMM:   2    -0.670499684808E+02   -0.30436E-05   -0.29255E-05    74   0.194E-02    0.603E-04
RMM:   3    -0.670499687349E+02   -0.25403E-06   -0.22642E-06    51   0.599E-03    0.423E-04
RMM:   4    -0.670499687953E+02   -0.60459E-07   -0.27159E-07    22   0.278E-03
   28 T=   805. E= -.67282005E+02 F= -.67049969E+02 E0= -.67049969E+02  EK= 0.15599E+01 SP= -.18E+01 SK= 0.33E-02
       N       E                     dE             d eps       ncg     rms          rms(c)
DAV:   1    -0.670881490017E+02   -0.38180E-01   -0.26086E-02   120   0.950E-01    0.220E-03
RMM:   2    -0.670881516654E+02   -0.26636E-05   -0.27116E-05    68   0.186E-02    0.713E-04
RMM:   3    -0.670881518634E+02   -0.19806E-06   -0.23459E-06    48   0.596E-03    0.367E-04
RMM:   4    -0.670881519301E+02   -0.66684E-07   -0.29473E-07    21   0.279E-03
   29 T=   819. E= -.67282097E+02 F= -.67088152E+02 E0= -.67088152E+02  EK= 0.15874E+01 SP= -.18E+01 SK= 0.79E-03
       N       E                     dE             d eps       ncg     rms          rms(c)
DAV:   1    -0.671223262741E+02   -0.34174E-01   -0.26589E-02   120   0.962E-01    0.216E-03
RMM:   2    -0.671223293089E+02   -0.30348E-05   -0.28903E-05    71   0.195E-02    0.707E-04
RMM:   3    -0.671223295547E+02   -0.24584E-06   -0.24343E-06    48   0.619E-03    0.426E-04
RMM:   4    -0.671223296151E+02   -0.60454E-07   -0.31670E-07    22   0.292E-03
   30 T=   834. E= -.67282126E+02 F= -.67122330E+02 E0= -.67122330E+02  EK= 0.16180E+01 SP= -.18E+01 SK= 0.18E-05
       N       E                     dE             d eps       ncg     rms          rms(c)
DAV:   1    -0.671522779886E+02   -0.29948E-01   -0.27177E-02   120   0.971E-01    0.199E-03
RMM:   2    -0.671522809087E+02   -0.29201E-05   -0.28286E-05    70   0.192E-02    0.677E-04
RMM:   3    -0.671522810601E+02   -0.15139E-06   -0.22074E-06    48   0.584E-03    0.476E-04
RMM:   4    -0.671522810153E+02    0.44760E-07   -0.25139E-07    22   0.283E-03
   31 T=   851. E= -.67282231E+02 F= -.67152281E+02 E0= -.67152281E+02  EK= 0.16508E+01 SP= -.18E+01 SK= 0.53E-03
       N       E                     dE             d eps       ncg     rms          rms(c)
DAV:   1    -0.671776532539E+02   -0.25372E-01   -0.27880E-02   120   0.983E-01    0.199E-03
RMM:   2    -0.671776565450E+02   -0.32911E-05   -0.32567E-05    74   0.194E-02    0.533E-04
RMM:   3    -0.671776567862E+02   -0.24129E-06   -0.25012E-06    49   0.607E-03    0.618E-04
RMM:   4    -0.671776568360E+02   -0.49711E-07   -0.35066E-07    23   0.293E-03
   32 T=   869. E= -.67282395E+02 F= -.67177657E+02 E0= -.67177657E+02  EK= 0.16852E+01 SP= -.18E+01 SK= 0.20E-02
       N       E                     dE             d eps       ncg     rms          rms(c)
DAV:   1    -0.671981286400E+02   -0.20472E-01   -0.28622E-02   120   0.100E+00    0.181E-03
RMM:   2    -0.671981319726E+02   -0.33326E-05   -0.32739E-05    72   0.194E-02    0.788E-04
RMM:   3    -0.671981322277E+02   -0.25507E-06   -0.23086E-06    49   0.588E-03    0.789E-04
RMM:   4    -0.671981323257E+02   -0.98013E-07   -0.18542E-07    18   0.286E-03
   33 T=   887. E= -.67282544E+02 F= -.67198132E+02 E0= -.67198132E+02  EK= 0.17204E+01 SP= -.18E+01 SK= 0.40E-02
       N       E                     dE             d eps       ncg     rms          rms(c)
DAV:   1    -0.672136357880E+02   -0.15504E-01   -0.29437E-02   120   0.101E+00    0.280E-03
RMM:   2    -0.672136394650E+02   -0.36770E-05   -0.38303E-05    76   0.201E-02    0.118E-03
RMM:   3    -0.672136396829E+02   -0.21798E-06   -0.25540E-06    50   0.615E-03    0.826E-04
RMM:   4    -0.672136396943E+02   -0.11349E-07   -0.37339E-07    26   0.299E-03
   34 T=   906. E= -.67282776E+02 F= -.67213640E+02 E0= -.67213640E+02  EK= 0.17557E+01 SP= -.18E+01 SK= 0.63E-02
       N       E                     dE             d eps       ncg     rms          rms(c)
DAV:   1    -0.672239453194E+02   -0.10306E-01   -0.30271E-02   120   0.103E+00    0.390E-03
RMM:   2    -0.672239515987E+02   -0.62793E-05   -0.62045E-05    81   0.224E-02    0.168E-03
RMM:   3    -0.672239519940E+02   -0.39539E-06   -0.32300E-06    50   0.643E-03    0.845E-04
RMM:   4    -0.672239521525E+02   -0.15843E-06   -0.68407E-07    32   0.338E-03
   35 T=   923. E= -.67282934E+02 F= -.67223952E+02 E0= -.67223952E+02  EK= 0.17904E+01 SP= -.19E+01 SK= 0.86E-02
       N       E                     dE             d eps       ncg     rms          rms(c)
DAV:   1    -0.672292689792E+02   -0.53170E-02   -0.31245E-02   192   0.104E+00    0.226E-03
RMM:   2    -0.672292799107E+02   -0.10931E-04   -0.10995E-04    80   0.260E-02    0.123E-03
RMM:   3    -0.672292801609E+02   -0.25027E-06   -0.36288E-06    51   0.628E-03    0.107E-03
RMM:   4    -0.672292801672E+02   -0.63096E-08   -0.69376E-07    23   0.296E-03
   36 T=   941. E= -.67283144E+02 F= -.67229280E+02 E0= -.67229280E+02  EK= 0.18240E+01 SP= -.19E+01 SK= 0.11E-01
       N       E                     dE             d eps       ncg     rms          rms(c)
DAV:   1    -0.672295651793E+02   -0.28502E-03   -0.32862E-02   168   0.106E+00    0.313E-03
RMM:   2    -0.672295966375E+02   -0.31458E-04   -0.31487E-04    90   0.422E-02    0.153E-03
RMM:   3    -0.672295975085E+02   -0.87096E-06   -0.79923E-06    55   0.771E-03    0.110E-03
RMM:   4    -0.672295976242E+02   -0.11569E-06   -0.83316E-07    29   0.326E-03
   37 T=   957. E= -.67283216E+02 F= -.67229598E+02 E0= -.67229598E+02  EK= 0.18559E+01 SP= -.19E+01 SK= 0.12E-01
       N       E                     dE             d eps       ncg     rms          rms(c)
DAV:   1    -0.672252112167E+02    0.43863E-02   -0.36239E-02   144   0.107E+00    0.506E-03
RMM:   2    -0.672252685376E+02   -0.57321E-04   -0.57852E-04    91   0.584E-02    0.288E-03
RMM:   3    -0.672252694116E+02   -0.87399E-06   -0.14700E-05    56   0.104E-02    0.192E-03
RMM:   4    -0.672252696270E+02   -0.21540E-06   -0.17135E-06    39   0.441E-03
   38 T=   973. E= -.67283318E+02 F= -.67225270E+02 E0= -.67225270E+02  EK= 0.18856E+01 SP= -.20E+01 SK= 0.14E-01
       N       E                     dE             d eps       ncg     rms          rms(c)
DAV:   1    -0.672165198010E+02    0.87496E-02   -0.36121E-02   192   0.109E+00    0.395E-03
RMM:   2    -0.672165681044E+02   -0.48303E-04   -0.48704E-04    90   0.465E-02    0.353E-03
RMM:   3    -0.672165694310E+02   -0.13266E-05   -0.14312E-05    57   0.971E-03    0.242E-03
RMM:   4    -0.672165694259E+02    0.50813E-08   -0.16942E-06    37   0.415E-03
   39 T=   986. E= -.67283470E+02 F= -.67216569E+02 E0= -.67216569E+02  EK= 0.19127E+01 SP= -.20E+01 SK= 0.14E-01
       N       E                     dE             d eps       ncg     rms          rms(c)
DAV:   1    -0.672036368132E+02    0.12933E-01   -0.37858E-02   168   0.110E+00    0.418E-03
RMM:   2    -0.672036733299E+02   -0.36517E-04   -0.36747E-04    89   0.493E-02    0.147E-03
RMM:   3    -0.672036741339E+02   -0.80407E-06   -0.80481E-06    56   0.828E-03    0.121E-03
RMM:   4    -0.672036742765E+02   -0.14260E-06   -0.10422E-06    36   0.361E-03
   40 T=   999. E= -.67283528E+02 F= -.67203674E+02 E0= -.67203674E+02  EK= 0.19368E+01 SP= -.20E+01 SK= 0.15E-01
       N       E                     dE             d eps       ncg     rms          rms(c)
DAV:   1    -0.671870594691E+02    0.16615E-01   -0.37069E-02   168   0.110E+00    0.403E-03
RMM:   2    -0.671870955547E+02   -0.36086E-04   -0.36461E-04    88   0.478E-02    0.179E-03
RMM:   3    -0.671870966324E+02   -0.10777E-05   -0.13925E-05    58   0.948E-03    0.135E-03
RMM:   4    -0.671870967461E+02   -0.11376E-06   -0.12499E-06    29   0.375E-03
   41 T=  1010. E= -.67283598E+02 F= -.67187097E+02 E0= -.67187097E+02  EK= 0.19577E+01 SP= -.21E+01 SK= 0.14E-01
       N       E                     dE             d eps       ncg     rms          rms(c)
DAV:   1    -0.671672517332E+02    0.19845E-01   -0.36403E-02   192   0.111E+00    0.251E-03
RMM:   2    -0.671672629768E+02   -0.11244E-04   -0.11240E-04    79   0.300E-02    0.184E-03
RMM:   3    -0.671672632986E+02   -0.32178E-06   -0.33933E-06    53   0.668E-03    0.134E-03
RMM:   4    -0.671672633029E+02   -0.42410E-08   -0.62918E-07    27   0.326E-03
   42 T=  1019. E= -.67283674E+02 F= -.67167263E+02 E0= -.67167263E+02  EK= 0.19752E+01 SP= -.21E+01 SK= 0.14E-01
       N       E                     dE             d eps       ncg     rms          rms(c)
DAV:   1    -0.671443416820E+02    0.22922E-01   -0.36763E-02   192   0.111E+00    0.215E-03
RMM:   2    -0.671443506207E+02   -0.89388E-05   -0.88077E-05    82   0.305E-02    0.126E-03
RMM:   3    -0.671443509837E+02   -0.36296E-06   -0.29766E-06    53   0.647E-03    0.877E-04
RMM:   4    -0.671443511321E+02   -0.14836E-06   -0.53586E-07    27   0.316E-03
   43 T=  1026. E= -.67283544E+02 F= -.67144351E+02 E0= -.67144351E+02  EK= 0.19893E+01 SP= -.21E+01 SK= 0.13E-01
       N       E                     dE             d eps       ncg     rms          rms(c)
DAV:   1    -0.671190051026E+02    0.25346E-01   -0.37067E-02   120   0.112E+00    0.288E-03
RMM:   2    -0.671190127285E+02   -0.76258E-05   -0.82012E-05    82   0.238E-02    0.165E-03
RMM:   3    -0.671190129473E+02   -0.21879E-06   -0.30768E-06    51   0.620E-03    0.893E-04
RMM:   4    -0.671190129196E+02    0.27686E-07   -0.53352E-07    25   0.304E-03
   44 T=  1031. E= -.67283530E+02 F= -.67119013E+02 E0= -.67119013E+02  EK= 0.19998E+01 SP= -.22E+01 SK= 0.12E-01
       N       E                     dE             d eps       ncg     rms          rms(c)
DAV:   1    -0.670914392643E+02    0.27574E-01   -0.37464E-02   192   0.113E+00    0.223E-03
RMM:   2    -0.670914458527E+02   -0.65884E-05   -0.63304E-05    80   0.266E-02    0.124E-03
RMM:   3    -0.670914461521E+02   -0.29937E-06   -0.21954E-06    51   0.576E-03    0.103E-03
RMM:   4    -0.670914461750E+02   -0.22944E-07   -0.33486E-07    25   0.298E-03
   45 T=  1035. E= -.67283459E+02 F= -.67091446E+02 E0= -.67091446E+02  EK= 0.20067E+01 SP= -.22E+01 SK= 0.11E-01
       N       E                     dE             d eps       ncg     rms          rms(c)
DAV:   1    -0.670622378018E+02    0.29208E-01   -0.37739E-02   120   0.114E+00    0.259E-03
RMM:   2    -0.670622431470E+02   -0.53452E-05   -0.54962E-05    86   0.239E-02    0.143E-03
RMM:   3    -0.670622431824E+02   -0.35368E-07   -0.20626E-06    50   0.554E-03    0.873E-04
RMM:   4    -0.670622432272E+02   -0.44844E-07   -0.20355E-07    20   0.270E-03
   46 T=  1037. E= -.67283485E+02 F= -.67062243E+02 E0= -.67062243E+02  EK= 0.20102E+01 SP= -.22E+01 SK= 0.99E-02
       N       E                     dE             d eps       ncg     rms          rms(c)
DAV:   1    -0.670317089313E+02    0.30534E-01   -0.38108E-02   120   0.114E+00    0.259E-03
RMM:   2    -0.670317142356E+02   -0.53043E-05   -0.52114E-05    81   0.232E-02    0.162E-03
RMM:   3    -0.670317144170E+02   -0.18138E-06   -0.27663E-06    51   0.621E-03    0.828E-04
RMM:   4    -0.670317145045E+02   -0.87568E-07   -0.57556E-07    28   0.335E-03
   47 T=  1037. E= -.67283464E+02 F= -.67031715E+02 E0= -.67031715E+02  EK= 0.20106E+01 SP= -.23E+01 SK= 0.88E-02
       N       E                     dE             d eps       ncg     rms          rms(c)
DAV:   1    -0.670002832249E+02    0.31431E-01   -0.38570E-02   120   0.115E+00    0.250E-03
RMM:   2    -0.670002889869E+02   -0.57619E-05   -0.55531E-05    85   0.242E-02    0.125E-03
RMM:   3    -0.670002891285E+02   -0.14162E-06   -0.21258E-06    50   0.574E-03    0.683E-04
RMM:   4    -0.670002892191E+02   -0.90575E-07   -0.25418E-07    20   0.291E-03
   48 T=  1036. E= -.67283377E+02 F= -.67000289E+02 E0= -.67000289E+02  EK= 0.20084E+01 SP= -.23E+01 SK= 0.78E-02
       N       E                     dE             d eps       ncg     rms          rms(c)
DAV:   1    -0.669684478609E+02    0.31841E-01   -0.38949E-02   120   0.116E+00    0.261E-03
RMM:   2    -0.669684521189E+02   -0.42581E-05   -0.43382E-05    80   0.226E-02    0.122E-03
RMM:   3    -0.669684522593E+02   -0.14033E-06   -0.22981E-06    51   0.596E-03    0.770E-04
RMM:   4    -0.669684522724E+02   -0.13140E-07   -0.36023E-07    26   0.303E-03
   49 T=  1034. E= -.67283312E+02 F= -.66968452E+02 E0= -.66968452E+02  EK= 0.20039E+01 SP= -.23E+01 SK= 0.68E-02
       N       E                     dE             d eps       ncg     rms          rms(c)
DAV:   1    -0.669365302448E+02    0.31922E-01   -0.39433E-02   120   0.116E+00    0.269E-03
RMM:   2    -0.669365356670E+02   -0.54222E-05   -0.52675E-05    83   0.235E-02    0.117E-03
RMM:   3    -0.669365359749E+02   -0.30785E-06   -0.26180E-06    50   0.617E-03    0.793E-04
RMM:   4    -0.669365359966E+02   -0.21727E-07   -0.46892E-07    27   0.323E-03
   50 T=  1030. E= -.67283241E+02 F= -.66936536E+02 E0= -.66936536E+02  EK= 0.19976E+01 SP= -.24E+01 SK= 0.60E-02
       N       E                     dE             d eps       ncg     rms          rms(c)
DAV:   1    -0.669047262613E+02    0.31810E-01   -0.39836E-02   120   0.117E+00    0.285E-03
RMM:   2    -0.669047312774E+02   -0.50161E-05   -0.50892E-05    81   0.237E-02    0.112E-03
RMM:   3    -0.669047314606E+02   -0.18321E-06   -0.26374E-06    51   0.627E-03    0.558E-04
RMM:   4    -0.669047315365E+02   -0.75841E-07   -0.36877E-07    25   0.309E-03
   51 T=  1026. E= -.67283121E+02 F= -.66904732E+02 E0= -.66904732E+02  EK= 0.19899E+01 SP= -.24E+01 SK= 0.54E-02
       N       E                     dE             d eps       ncg     rms          rms(c)
DAV:   1    -0.668732380909E+02    0.31493E-01   -0.40241E-02   120   0.117E+00    0.287E-03
RMM:   2    -0.668732431505E+02   -0.50596E-05   -0.50692E-05    84   0.237E-02    0.993E-04
RMM:   3    -0.668732433878E+02   -0.23731E-06   -0.25048E-06    52   0.601E-03    0.646E-04
RMM:   4    -0.668732434376E+02   -0.49754E-07   -0.30280E-07    21   0.305E-03
   52 T=  1022. E= -.67283024E+02 F= -.66873243E+02 E0= -.66873243E+02  EK= 0.19812E+01 SP= -.24E+01 SK= 0.49E-02
       N       E                     dE             d eps       ncg     rms          rms(c)
DAV:   1    -0.668421308482E+02    0.31113E-01   -0.40545E-02   120   0.118E+00    0.297E-03
RMM:   2    -0.668421351914E+02   -0.43432E-05   -0.42907E-05    80   0.235E-02    0.152E-03
RMM:   3    -0.668421353474E+02   -0.15601E-06   -0.24221E-06    49   0.622E-03    0.850E-04
RMM:   4    -0.668421353383E+02    0.91081E-08   -0.30396E-07    20   0.314E-03
   53 T=  1017. E= -.67282915E+02 F= -.66842135E+02 E0= -.66842135E+02  EK= 0.19716E+01 SP= -.24E+01 SK= 0.44E-02
       N       E                     dE             d eps       ncg     rms          rms(c)
DAV:   1    -0.668115038178E+02    0.30632E-01   -0.40623E-02   120   0.118E+00    0.307E-03
RMM:   2    -0.668115092401E+02   -0.54222E-05   -0.54007E-05    85   0.251E-02    0.132E-03
RMM:   3    -0.668115093864E+02   -0.14632E-06   -0.24007E-06    51   0.610E-03    0.823E-04
RMM:   4    -0.668115093553E+02    0.31130E-07   -0.36831E-07    27   0.313E-03
   54 T=  1012. E= -.67282837E+02 F= -.66811509E+02 E0= -.66811509E+02  EK= 0.19615E+01 SP= -.24E+01 SK= 0.42E-02
       N       E                     dE             d eps       ncg     rms          rms(c)
DAV:   1    -0.667814051970E+02    0.30104E-01   -0.40606E-02   120   0.118E+00    0.262E-03
RMM:   2    -0.667814105355E+02   -0.53386E-05   -0.52498E-05    82   0.247E-02    0.823E-04
RMM:   3    -0.667814108176E+02   -0.28202E-06   -0.25830E-06    51   0.630E-03    0.717E-04
RMM:   4    -0.667814108621E+02   -0.44537E-07   -0.22153E-07    19   0.301E-03
   55 T=  1006. E= -.67282734E+02 F= -.66781411E+02 E0= -.66781411E+02  EK= 0.19514E+01 SP= -.25E+01 SK= 0.40E-02
       N       E                     dE             d eps       ncg     rms          rms(c)
DAV:   1    -0.667521291390E+02    0.29282E-01   -0.40367E-02   120   0.118E+00    0.424E-03
RMM:   2    -0.667521386657E+02   -0.95267E-05   -0.96706E-05    88   0.277E-02    0.189E-03
RMM:   3    -0.667521388494E+02   -0.18367E-06   -0.37189E-06    52   0.683E-03    0.977E-04
RMM:   4    -0.667521388868E+02   -0.37379E-07   -0.76469E-07    33   0.356E-03
   56 T=  1001. E= -.67282672E+02 F= -.66752139E+02 E0= -.66752139E+02  EK= 0.19416E+01 SP= -.25E+01 SK= 0.39E-02
       N       E                     dE             d eps       ncg     rms          rms(c)
DAV:   1    -0.667239273778E+02    0.28211E-01   -0.40008E-02   192   0.118E+00    0.296E-03
RMM:   2    -0.667239376468E+02   -0.10269E-04   -0.99383E-05    87   0.305E-02    0.152E-03
RMM:   3    -0.667239378802E+02   -0.23344E-06   -0.31900E-06    51   0.658E-03    0.858E-04
RMM:   4    -0.667239379214E+02   -0.41130E-07   -0.64000E-07    32   0.339E-03
   57 T=   997. E= -.67282525E+02 F= -.66723938E+02 E0= -.66723938E+02  EK= 0.19328E+01 SP= -.25E+01 SK= 0.39E-02
       N       E                     dE             d eps       ncg     rms          rms(c)
DAV:   1    -0.666975253489E+02    0.26413E-01   -0.39430E-02   192   0.118E+00    0.245E-03
RMM:   2    -0.666975390717E+02   -0.13723E-04   -0.13795E-04    90   0.343E-02    0.130E-03
RMM:   3    -0.666975392591E+02   -0.18745E-06   -0.32337E-06    49   0.652E-03    0.834E-04
RMM:   4    -0.666975392652E+02   -0.61204E-08   -0.62113E-07    29   0.315E-03
   58 T=   993. E= -.67282438E+02 F= -.66697539E+02 E0= -.66697539E+02  EK= 0.19258E+01 SP= -.25E+01 SK= 0.40E-02
       N       E                     dE             d eps       ncg     rms          rms(c)
DAV:   1    -0.666737030371E+02    0.23836E-01   -0.38790E-02   192   0.117E+00    0.368E-03
RMM:   2    -0.666737181385E+02   -0.15101E-04   -0.15308E-04    90   0.366E-02    0.166E-03
RMM:   3    -0.666737183930E+02   -0.25459E-06   -0.38914E-06    51   0.707E-03    0.108E-03
RMM:   4    -0.666737184678E+02   -0.74729E-07   -0.78748E-07    33   0.354E-03
   59 T=   991. E= -.67282282E+02 F= -.66673718E+02 E0= -.66673718E+02  EK= 0.19218E+01 SP= -.25E+01 SK= 0.42E-02
       N       E                     dE             d eps       ncg     rms          rms(c)
DAV:   1    -0.666535661185E+02    0.20152E-01   -0.38140E-02   192   0.117E+00    0.308E-03
RMM:   2    -0.666535886318E+02   -0.22513E-04   -0.22741E-04    92   0.432E-02    0.208E-03
RMM:   3    -0.666535889947E+02   -0.36287E-06   -0.71330E-06    51   0.889E-03    0.137E-03
RMM:   4    -0.666535891410E+02   -0.14635E-06   -0.14673E-06    34   0.432E-03
   60 T=   991. E= -.67282072E+02 F= -.66653589E+02 E0= -.66653589E+02  EK= 0.19218E+01 SP= -.26E+01 SK= 0.43E-02
       N       E                     dE             d eps       ncg     rms          rms(c)
DAV:   1    -0.666385359036E+02    0.15053E-01   -0.37231E-02   192   0.116E+00    0.289E-03
RMM:   2    -0.666385545488E+02   -0.18645E-04   -0.18994E-04    90   0.386E-02    0.157E-03
RMM:   3    -0.666385548884E+02   -0.33952E-06   -0.49745E-06    51   0.735E-03    0.122E-03
RMM:   4    -0.666385549058E+02   -0.17468E-07   -0.98561E-07    32   0.361E-03
   61 T=   994. E= -.67281963E+02 F= -.66638555E+02 E0= -.66638555E+02  EK= 0.19274E+01 SP= -.26E+01 SK= 0.45E-02
       N       E                     dE             d eps       ncg     rms          rms(c)
DAV:   1    -0.666299089558E+02    0.86459E-02   -0.35940E-02   192   0.115E+00    0.277E-03
RMM:   2    -0.666299219843E+02   -0.13029E-04   -0.13162E-04    92   0.381E-02    0.128E-03
RMM:   3    -0.666299222067E+02   -0.22237E-06   -0.31934E-06    52   0.659E-03    0.873E-04
RMM:   4    -0.666299222667E+02   -0.60013E-07   -0.56068E-07    27   0.324E-03
   62 T=  1000. E= -.67281976E+02 F= -.66629922E+02 E0= -.66629922E+02  EK= 0.19396E+01 SP= -.26E+01 SK= 0.46E-02
       N       E                     dE             d eps       ncg     rms          rms(c)
DAV:   1    -0.666286649501E+02    0.12573E-02   -0.34535E-02   192   0.115E+00    0.266E-03
RMM:   2    -0.666286730084E+02   -0.80583E-05   -0.83410E-05    87   0.317E-02    0.110E-03
RMM:   3    -0.666286732208E+02   -0.21233E-06   -0.28000E-06    51   0.642E-03    0.809E-04
RMM:   4    -0.666286733492E+02   -0.12841E-06   -0.50665E-07    27   0.318E-03
   63 T=  1011. E= -.67281979E+02 F= -.66628673E+02 E0= -.66628673E+02  EK= 0.19593E+01 SP= -.26E+01 SK= 0.44E-02
       N       E                     dE             d eps       ncg     rms          rms(c)
DAV:   1    -0.666358442234E+02   -0.71710E-02   -0.33852E-02   120   0.114E+00    0.269E-03
RMM:   2    -0.666358495453E+02   -0.53219E-05   -0.58032E-05    86   0.239E-02    0.128E-03
RMM:   3    -0.666358496516E+02   -0.10628E-06   -0.22087E-06    52   0.557E-03    0.884E-04
RMM:   4    -0.666358496759E+02   -0.24317E-07   -0.32046E-07    24   0.276E-03
   64 T=  1025. E= -.67282200E+02 F= -.66635850E+02 E0= -.66635850E+02  EK= 0.19870E+01 SP= -.26E+01 SK= 0.41E-02
       N       E                     dE             d eps       ncg     rms          rms(c)
DAV:   1    -0.666515895072E+02   -0.15740E-01   -0.33782E-02   120   0.114E+00    0.264E-03
RMM:   2    -0.666515942625E+02   -0.47553E-05   -0.49691E-05    81   0.235E-02    0.153E-03
RMM:   3    -0.666515944823E+02   -0.21977E-06   -0.25898E-06    52   0.617E-03    0.978E-04
RMM:   4    -0.666515945784E+02   -0.96107E-07   -0.45886E-07    30   0.316E-03
   65 T=  1043. E= -.67282446E+02 F= -.66651595E+02 E0= -.66651595E+02  EK= 0.20223E+01 SP= -.27E+01 SK= 0.34E-02
       N       E                     dE             d eps       ncg     rms          rms(c)
DAV:   1    -0.666757389389E+02   -0.24144E-01   -0.33989E-02   120   0.114E+00    0.267E-03
RMM:   2    -0.666757448623E+02   -0.59234E-05   -0.61252E-05    85   0.246E-02    0.172E-03
RMM:   3    -0.666757449280E+02   -0.65655E-07   -0.24234E-06    49   0.594E-03    0.111E-03
RMM:   4    -0.666757449613E+02   -0.33289E-07   -0.49106E-07    26   0.317E-03
   66 T=  1065. E= -.67282758E+02 F= -.66675745E+02 E0= -.66675745E+02  EK= 0.20642E+01 SP= -.27E+01 SK= 0.25E-02
       N       E                     dE             d eps       ncg     rms          rms(c)
DAV:   1    -0.667074902161E+02   -0.31745E-01   -0.34367E-02   120   0.115E+00    0.228E-03
RMM:   2    -0.667074958569E+02   -0.56407E-05   -0.58908E-05    83   0.244E-02    0.131E-03
RMM:   3    -0.667074960807E+02   -0.22384E-06   -0.27182E-06    51   0.622E-03    0.879E-04
RMM:   4    -0.667074961243E+02   -0.43570E-07   -0.51467E-07    32   0.318E-03
   67 T=  1089. E= -.67283185E+02 F= -.66707496E+02 E0= -.66707496E+02  EK= 0.21106E+01 SP= -.27E+01 SK= 0.15E-02
       N       E                     dE             d eps       ncg     rms          rms(c)
DAV:   1    -0.667452865551E+02   -0.37790E-01   -0.34972E-02   120   0.117E+00    0.310E-03
RMM:   2    -0.667452919177E+02   -0.53626E-05   -0.53601E-05    86   0.249E-02    0.181E-03
RMM:   3    -0.667452921126E+02   -0.19481E-06   -0.23697E-06    51   0.579E-03    0.112E-03
RMM:   4    -0.667452921493E+02   -0.36751E-07   -0.36009E-07    23   0.304E-03
   68 T=  1113. E= -.67283596E+02 F= -.66745292E+02 E0= -.66745292E+02  EK= 0.21587E+01 SP= -.27E+01 SK= 0.53E-03
       N       E                     dE             d eps       ncg     rms          rms(c)
DAV:   1    -0.667873273775E+02   -0.42035E-01   -0.35902E-02   120   0.118E+00    0.311E-03
RMM:   2    -0.667873331028E+02   -0.57253E-05   -0.57634E-05    86   0.262E-02    0.186E-03
RMM:   3    -0.667873332309E+02   -0.12810E-06   -0.23469E-06    51   0.599E-03    0.114E-03
RMM:   4    -0.667873332845E+02   -0.53635E-07   -0.48855E-07    28   0.329E-03
   69 T=  1137. E= -.67284018E+02 F= -.66787333E+02 E0= -.66787333E+02  EK= 0.22052E+01 SP= -.27E+01 SK= 0.13E-04
       N       E                     dE             d eps       ncg     rms          rms(c)
DAV:   1    -0.668315879225E+02   -0.44255E-01   -0.37149E-02   120   0.120E+00    0.250E-03
RMM:   2    -0.668315935214E+02   -0.55990E-05   -0.56757E-05    87   0.265E-02    0.119E-03
RMM:   3    -0.668315937145E+02   -0.19310E-06   -0.21591E-06    50   0.579E-03    0.892E-04
RMM:   4    -0.668315937202E+02   -0.56611E-08   -0.35478E-07    26   0.308E-03
   70 T=  1159. E= -.67284544E+02 F= -.66831594E+02 E0= -.66831594E+02  EK= 0.22464E+01 SP= -.27E+01 SK= 0.37E-03
       N       E                     dE             d eps       ncg     rms          rms(c)
DAV:   1    -0.668755554795E+02   -0.43962E-01   -0.38482E-02   120   0.121E+00    0.310E-03
RMM:   2    -0.668755611578E+02   -0.56783E-05   -0.55065E-05    86   0.263E-02    0.199E-03
RMM:   3    -0.668755613492E+02   -0.19138E-06   -0.27759E-06    53   0.617E-03    0.115E-03
RMM:   4    -0.668755614181E+02   -0.68922E-07   -0.48601E-07    30   0.323E-03
   71 T=  1175. E= -.67284872E+02 F= -.66875561E+02 E0= -.66875561E+02  EK= 0.22786E+01 SP= -.27E+01 SK= 0.20E-02
       N       E                     dE             d eps       ncg     rms          rms(c)
DAV:   1    -0.669173355725E+02   -0.41774E-01   -0.39875E-02   120   0.122E+00    0.314E-03
RMM:   2    -0.669173424965E+02   -0.69241E-05   -0.68846E-05    89   0.276E-02    0.131E-03
RMM:   3    -0.669173425967E+02   -0.10014E-06   -0.24974E-06    52   0.613E-03    0.101E-03
RMM:   4    -0.669173426171E+02   -0.20397E-07   -0.33570E-07    26   0.299E-03
   72 T=  1185. E= -.67285256E+02 F= -.66917343E+02 E0= -.66917343E+02  EK= 0.22986E+01 SP= -.27E+01 SK= 0.53E-02
       N       E                     dE             d eps       ncg     rms          rms(c)
DAV:   1    -0.669547144047E+02   -0.37372E-01   -0.41191E-02   120   0.123E+00    0.299E-03
RMM:   2    -0.669547205982E+02   -0.61935E-05   -0.60041E-05    87   0.262E-02    0.110E-03
RMM:   3    -0.669547208890E+02   -0.29073E-06   -0.24814E-06    51   0.600E-03    0.658E-04
RMM:   4    -0.669547209482E+02   -0.59226E-07   -0.35271E-07    28   0.307E-03
   73 T=  1188. E= -.67285436E+02 F= -.66954721E+02 E0= -.66954721E+02  EK= 0.23037E+01 SP= -.26E+01 SK= 0.10E-01
       N       E                     dE             d eps       ncg     rms          rms(c)
DAV:   1    -0.669862966043E+02   -0.31576E-01   -0.42497E-02   192   0.123E+00    0.240E-03
RMM:   2    -0.669863010053E+02   -0.44010E-05   -0.41932E-05    83   0.245E-02    0.114E-03
RMM:   3    -0.669863011727E+02   -0.16742E-06   -0.17808E-06    51   0.536E-03    0.627E-04
RMM:   4    -0.669863011987E+02   -0.25958E-07   -0.20961E-07    25   0.272E-03
   74 T=  1182. E= -.67285578E+02 F= -.66986301E+02 E0= -.66986301E+02  EK= 0.22924E+01 SP= -.26E+01 SK= 0.17E-01
       N       E                     dE             d eps       ncg     rms          rms(c)
DAV:   1    -0.670108858437E+02   -0.24585E-01   -0.43647E-02   120   0.122E+00    0.289E-03
RMM:   2    -0.670108918290E+02   -0.59853E-05   -0.57625E-05    87   0.251E-02    0.107E-03
RMM:   3    -0.670108919891E+02   -0.16016E-06   -0.21752E-06    52   0.576E-03    0.617E-04
RMM:   4    -0.670108919765E+02    0.12674E-07   -0.29134E-07    27   0.285E-03
   75 T=  1168. E= -.67285595E+02 F= -.67010892E+02 E0= -.67010892E+02  EK= 0.22645E+01 SP= -.26E+01 SK= 0.25E-01
       N       E                     dE             d eps       ncg     rms          rms(c)
DAV:   1    -0.670278285746E+02   -0.16937E-01   -0.44507E-02   120   0.121E+00    0.261E-03
RMM:   2    -0.670278344859E+02   -0.59113E-05   -0.54983E-05    86   0.244E-02    0.166E-03
RMM:   3    -0.670278345726E+02   -0.86702E-07   -0.25634E-06    51   0.614E-03    0.985E-04
RMM:   4    -0.670278345589E+02    0.13703E-07   -0.46807E-07    29   0.319E-03
   76 T=  1145. E= -.67285489E+02 F= -.67027835E+02 E0= -.67027835E+02  EK= 0.22205E+01 SP= -.25E+01 SK= 0.33E-01
       N       E                     dE             d eps       ncg     rms          rms(c)
DAV:   1    -0.670368887288E+02   -0.90542E-02   -0.44993E-02   120   0.119E+00    0.283E-03
RMM:   2    -0.670368934438E+02   -0.47150E-05   -0.44589E-05    85   0.225E-02    0.121E-03
RMM:   3    -0.670368935996E+02   -0.15581E-06   -0.21169E-06    50   0.567E-03    0.608E-04
RMM:   4    -0.670368936392E+02   -0.39599E-07   -0.35357E-07    24   0.306E-03
   77 T=  1115. E= -.67285233E+02 F= -.67036894E+02 E0= -.67036894E+02  EK= 0.21624E+01 SP= -.25E+01 SK= 0.41E-01
       N       E                     dE             d eps       ncg     rms          rms(c)
DAV:   1    -0.670383271389E+02   -0.14335E-02   -0.45025E-02   120   0.117E+00    0.283E-03
RMM:   2    -0.670383333164E+02   -0.61774E-05   -0.58072E-05    87   0.240E-02    0.979E-04
RMM:   3    -0.670383335304E+02   -0.21407E-06   -0.22401E-06    50   0.580E-03    0.678E-04
RMM:   4    -0.670383335708E+02   -0.40342E-07   -0.35130E-07    24   0.300E-03
   78 T=  1079. E= -.67284858E+02 F= -.67038334E+02 E0= -.67038334E+02  EK= 0.20927E+01 SP= -.24E+01 SK= 0.47E-01
       N       E                     dE             d eps       ncg     rms          rms(c)
DAV:   1    -0.670327883742E+02    0.55452E-02   -0.44786E-02   120   0.115E+00    0.242E-03
RMM:   2    -0.670327958758E+02   -0.75017E-05   -0.72964E-05    85   0.244E-02    0.120E-03
RMM:   3    -0.670327961343E+02   -0.25847E-06   -0.30354E-06    51   0.640E-03    0.590E-04
RMM:   4    -0.670327961665E+02   -0.32232E-07   -0.47747E-07    23   0.308E-03
   79 T=  1039. E= -.67284415E+02 F= -.67032796E+02 E0= -.67032796E+02  EK= 0.20146E+01 SP= -.23E+01 SK= 0.51E-01
       N       E                     dE             d eps       ncg     rms          rms(c)
DAV:   1    -0.670211041958E+02    0.11692E-01   -0.44451E-02   192   0.113E+00    0.292E-03
RMM:   2    -0.670211202079E+02   -0.16012E-04   -0.15877E-04    90   0.309E-02    0.157E-03
RMM:   3    -0.670211204898E+02   -0.28192E-06   -0.49391E-06    52   0.719E-03    0.715E-04
RMM:   4    -0.670211205575E+02   -0.67675E-07   -0.11751E-06    35   0.368E-03
   80 T=   996. E= -.67283913E+02 F= -.67021121E+02 E0= -.67021121E+02  EK= 0.19313E+01 SP= -.22E+01 SK= 0.52E-01
       N       E                     dE             d eps       ncg     rms          rms(c)
DAV:   1    -0.670043863873E+02    0.16734E-01   -0.44387E-02   192   0.110E+00    0.379E-03
RMM:   2    -0.670044450122E+02   -0.58625E-04   -0.58994E-04    94   0.507E-02    0.226E-03
RMM:   3    -0.670044463660E+02   -0.13538E-05   -0.16217E-05    57   0.103E-02    0.151E-03
RMM:   4    -0.670044464869E+02   -0.12082E-06   -0.19068E-06    39   0.436E-03
   81 T=   952. E= -.67283453E+02 F= -.67004446E+02 E0= -.67004446E+02  EK= 0.18462E+01 SP= -.22E+01 SK= 0.51E-01
       N       E                     dE             d eps       ncg     rms          rms(c)
DAV:   1    -0.669838093029E+02    0.20637E-01   -0.43235E-02   120   0.108E+00    0.346E-03
RMM:   2    -0.669838313508E+02   -0.22048E-04   -0.22273E-04    91   0.433E-02    0.241E-03
RMM:   3    -0.669838320273E+02   -0.67643E-06   -0.71695E-06    60   0.826E-03    0.217E-03
RMM:   4    -0.669838321386E+02   -0.11135E-06   -0.14850E-06    46   0.404E-03
   82 T=   909. E= -.67282938E+02 F= -.66983832E+02 E0= -.66983832E+02  EK= 0.17625E+01 SP= -.21E+01 SK= 0.46E-01
       N       E                     dE             d eps       ncg     rms          rms(c)
DAV:   1    -0.669604466379E+02    0.23385E-01   -0.41337E-02   144   0.105E+00    0.372E-03
RMM:   2    -0.669604893851E+02   -0.42747E-04   -0.42799E-04    95   0.569E-02    0.188E-03
RMM:   3    -0.669604902769E+02   -0.89180E-06   -0.11004E-05    53   0.102E-02    0.127E-03
RMM:   4    -0.669604903675E+02   -0.90545E-07   -0.19602E-06    38   0.473E-03
   83 T=   868. E= -.67282422E+02 F= -.66960490E+02 E0= -.66960490E+02  EK= 0.16827E+01 SP= -.20E+01 SK= 0.39E-01
       N       E                     dE             d eps       ncg     rms          rms(c)
DAV:   1    -0.669354927194E+02    0.24998E-01   -0.38245E-02   144   0.102E+00    0.420E-03
RMM:   2    -0.669355236234E+02   -0.30904E-04   -0.31065E-04    93   0.501E-02    0.219E-03
RMM:   3    -0.669355240949E+02   -0.47154E-06   -0.65233E-06    52   0.870E-03    0.206E-03
RMM:   4    -0.669355241743E+02   -0.79396E-07   -0.12724E-06    33   0.401E-03
   84 T=   830. E= -.67281962E+02 F= -.66935524E+02 E0= -.66935524E+02  EK= 0.16091E+01 SP= -.20E+01 SK= 0.30E-01
       N       E                     dE             d eps       ncg     rms          rms(c)
DAV:   1    -0.669098234312E+02    0.25701E-01   -0.36520E-02   168   0.994E-01    0.344E-03
RMM:   2    -0.669098528511E+02   -0.29420E-04   -0.29750E-04    93   0.454E-02    0.287E-03
RMM:   3    -0.669098534586E+02   -0.60753E-06   -0.96616E-06    55   0.939E-03    0.233E-03
RMM:   4    -0.669098535466E+02   -0.87913E-07   -0.19963E-06    45   0.461E-03
   85 T=   796. E= -.67281528E+02 F= -.66909854E+02 E0= -.66909854E+02  EK= 0.15435E+01 SP= -.19E+01 SK= 0.21E-01
       N       E                     dE             d eps       ncg     rms          rms(c)
DAV:   1    -0.668842353090E+02    0.25618E-01   -0.35518E-02   192   0.974E-01    0.359E-03
RMM:   2    -0.668842610195E+02   -0.25710E-04   -0.26125E-04    86   0.358E-02    0.244E-03
RMM:   3    -0.668842615722E+02   -0.55272E-06   -0.71076E-06    52   0.808E-03    0.212E-03
RMM:   4    -0.668842616649E+02   -0.92668E-07   -0.12693E-06    32   0.376E-03
   86 T=   767. E= -.67281036E+02 F= -.66884262E+02 E0= -.66884262E+02  EK= 0.14872E+01 SP= -.19E+01 SK= 0.12E-01
       N       E                     dE             d eps       ncg     rms          rms(c)
DAV:   1    -0.668597073499E+02    0.24554E-01   -0.34830E-02   144   0.950E-01    0.454E-03
RMM:   2    -0.668597331300E+02   -0.25780E-04   -0.26027E-04    91   0.477E-02    0.286E-03
RMM:   3    -0.668597333282E+02   -0.19825E-06   -0.55561E-06    51   0.838E-03    0.208E-03
RMM:   4    -0.668597334115E+02   -0.83332E-07   -0.10072E-06    34   0.384E-03
   87 T=   743. E= -.67280718E+02 F= -.66859733E+02 E0= -.66859733E+02  EK= 0.14413E+01 SP= -.19E+01 SK= 0.53E-02
       N       E                     dE             d eps       ncg     rms          rms(c)
DAV:   1    -0.668367567954E+02    0.22977E-01   -0.32806E-02   192   0.935E-01    0.207E-03
RMM:   2    -0.668367661951E+02   -0.93997E-05   -0.95898E-05    80   0.286E-02    0.962E-04
RMM:   3    -0.668367665810E+02   -0.38584E-06   -0.40543E-06    51   0.692E-03    0.890E-04
RMM:   4    -0.668367666907E+02   -0.10974E-06   -0.80099E-07    29   0.347E-03
   88 T=   725. E= -.67280447E+02 F= -.66836767E+02 E0= -.66836767E+02  EK= 0.14065E+01 SP= -.19E+01 SK= 0.10E-02
       N       E                     dE             d eps       ncg     rms          rms(c)
DAV:   1    -0.668160390636E+02    0.20728E-01   -0.32340E-02   192   0.927E-01    0.322E-03
RMM:   2    -0.668160443419E+02   -0.52783E-05   -0.57004E-05    80   0.225E-02    0.244E-03
RMM:   3    -0.668160444665E+02   -0.12460E-06   -0.23870E-06    52   0.576E-03    0.209E-03
RMM:   4    -0.668160443825E+02    0.84010E-07   -0.38846E-07    27   0.296E-03
   89 T=   714. E= -.67280359E+02 F= -.66816044E+02 E0= -.66816044E+02  EK= 0.13835E+01 SP= -.18E+01 SK= 0.14E-03
       N       E                     dE             d eps       ncg     rms          rms(c)
DAV:   1    -0.667979800820E+02    0.18064E-01   -0.31981E-02   192   0.922E-01    0.379E-03
RMM:   2    -0.667979900020E+02   -0.99200E-05   -0.10166E-04    79   0.274E-02    0.203E-03
RMM:   3    -0.667979902015E+02   -0.19950E-06   -0.35996E-06    51   0.639E-03    0.124E-03
RMM:   4    -0.667979902231E+02   -0.21577E-07   -0.76433E-07    34   0.327E-03
   90 T=   708. E= -.67280327E+02 F= -.66797990E+02 E0= -.66797990E+02  EK= 0.13729E+01 SP= -.19E+01 SK= 0.32E-02
       N       E                     dE             d eps       ncg     rms          rms(c)
DAV:   1    -0.667831219460E+02    0.14868E-01   -0.31874E-02   168   0.922E-01    0.233E-03
RMM:   2    -0.667831347367E+02   -0.12791E-04   -0.12783E-04    88   0.366E-02    0.162E-03
RMM:   3    -0.667831349155E+02   -0.17872E-06   -0.29879E-06    51   0.658E-03    0.112E-03
RMM:   4    -0.667831349325E+02   -0.16995E-07   -0.46116E-07    26   0.314E-03
   91 T=   709. E= -.67280374E+02 F= -.66783135E+02 E0= -.66783135E+02  EK= 0.13753E+01 SP= -.19E+01 SK= 0.10E-01
       N       E                     dE             d eps       ncg     rms          rms(c)
DAV:   1    -0.667719851770E+02    0.11150E-01   -0.31458E-02   192   0.926E-01    0.238E-03
RMM:   2    -0.667719924997E+02   -0.73227E-05   -0.76044E-05    81   0.290E-02    0.152E-03
RMM:   3    -0.667719926910E+02   -0.19131E-06   -0.27265E-06    52   0.629E-03    0.713E-04
RMM:   4    -0.667719927337E+02   -0.42650E-07   -0.46356E-07    30   0.310E-03
   92 T=   718. E= -.67280528E+02 F= -.66771993E+02 E0= -.66771993E+02  EK= 0.13915E+01 SP= -.19E+01 SK= 0.21E-01
       N       E                     dE             d eps       ncg     rms          rms(c)
DAV:   1    -0.667649645132E+02    0.70282E-02   -0.31856E-02   192   0.935E-01    0.182E-03
RMM:   2    -0.667649715155E+02   -0.70024E-05   -0.70701E-05    86   0.276E-02    0.871E-04
RMM:   3    -0.667649717133E+02   -0.19773E-06   -0.22183E-06    51   0.570E-03    0.677E-04
RMM:   4    -0.667649717222E+02   -0.89694E-08   -0.27822E-07    26   0.271E-03
   93 T=   733. E= -.67280738E+02 F= -.66764972E+02 E0= -.66764972E+02  EK= 0.14220E+01 SP= -.20E+01 SK= 0.35E-01
       N       E                     dE             d eps       ncg     rms          rms(c)
DAV:   1    -0.667624938598E+02    0.24779E-02   -0.32874E-02   144   0.950E-01    0.252E-03
RMM:   2    -0.667625018048E+02   -0.79449E-05   -0.82572E-05    86   0.260E-02    0.112E-03
RMM:   3    -0.667625021004E+02   -0.29563E-06   -0.30811E-06    52   0.634E-03    0.630E-04
RMM:   4    -0.667625021445E+02   -0.44097E-07   -0.54066E-07    32   0.316E-03
   94 T=   757. E= -.67281025E+02 F= -.66762502E+02 E0= -.66762502E+02  EK= 0.14675E+01 SP= -.20E+01 SK= 0.52E-01
       N       E                     dE             d eps       ncg     rms          rms(c)
DAV:   1    -0.667649635975E+02   -0.24615E-02   -0.34278E-02   192   0.969E-01    0.180E-03
RMM:   2    -0.667649700881E+02   -0.64905E-05   -0.65510E-05    87   0.266E-02    0.665E-04
RMM:   3    -0.667649702372E+02   -0.14912E-06   -0.19907E-06    51   0.529E-03    0.465E-04
RMM:   4    -0.667649702412E+02   -0.39840E-08   -0.25129E-07    26   0.263E-03
   95 T=   788. E= -.67281506E+02 F= -.66764970E+02 E0= -.66764970E+02  EK= 0.15286E+01 SP= -.21E+01 SK= 0.69E-01
       N       E                     dE             d eps       ncg     rms          rms(c)
DAV:   1    -0.667722295494E+02   -0.72593E-02   -0.35768E-02   192   0.992E-01    0.171E-03
RMM:   2    -0.667722364121E+02   -0.68627E-05   -0.68194E-05    85   0.281E-02    0.852E-04
RMM:   3    -0.667722366433E+02   -0.23115E-06   -0.21064E-06    51   0.570E-03    0.572E-04
RMM:   4    -0.667722366919E+02   -0.48667E-07   -0.18403E-07    23   0.269E-03
   96 T=   828. E= -.67282009E+02 F= -.66772237E+02 E0= -.66772237E+02  EK= 0.16053E+01 SP= -.22E+01 SK= 0.86E-01
       N       E                     dE             d eps       ncg     rms          rms(c)
DAV:   1    -0.667840942565E+02   -0.11858E-01   -0.37498E-02   192   0.102E+00    0.201E-03
RMM:   2    -0.667841003188E+02   -0.60624E-05   -0.61004E-05    84   0.275E-02    0.958E-04
RMM:   3    -0.667841004777E+02   -0.15885E-06   -0.24976E-06    51   0.608E-03    0.543E-04
RMM:   4    -0.667841005248E+02   -0.47066E-07   -0.35291E-07    27   0.300E-03
   97 T=   875. E= -.67282565E+02 F= -.66784101E+02 E0= -.66784101E+02  EK= 0.16973E+01 SP= -.23E+01 SK= 0.10E+00
       N       E                     dE             d eps       ncg     rms          rms(c)
DAV:   1    -0.667999284368E+02   -0.15828E-01   -0.39521E-02   192   0.106E+00    0.169E-03
RMM:   2    -0.667999330887E+02   -0.46519E-05   -0.46039E-05    84   0.251E-02    0.781E-04
RMM:   3    -0.667999333064E+02   -0.21768E-06   -0.19353E-06    51   0.549E-03    0.508E-04
RMM:   4    -0.667999333263E+02   -0.19884E-07   -0.25342E-07    22   0.271E-03
   98 T=   930. E= -.67283244E+02 F= -.66799933E+02 E0= -.66799933E+02  EK= 0.18033E+01 SP= -.24E+01 SK= 0.11E+00
       N       E                     dE             d eps       ncg     rms          rms(c)
DAV:   1    -0.668184017231E+02   -0.18468E-01   -0.41963E-02   120   0.110E+00    0.204E-03
RMM:   2    -0.668184075329E+02   -0.58098E-05   -0.58250E-05    84   0.229E-02    0.894E-04
RMM:   3    -0.668184078102E+02   -0.27734E-06   -0.25397E-06    51   0.581E-03    0.669E-04
RMM:   4    -0.668184078664E+02   -0.56146E-07   -0.35623E-07    19   0.286E-03
   99 T=   991. E= -.67283965E+02 F= -.66818408E+02 E0= -.66818408E+02  EK= 0.19208E+01 SP= -.25E+01 SK= 0.11E+00
       N       E                     dE             d eps       ncg     rms          rms(c)
DAV:   1    -0.668377053686E+02   -0.19298E-01   -0.44889E-02   192   0.114E+00    0.240E-03
RMM:   2    -0.668377169903E+02   -0.11622E-04   -0.11474E-04    90   0.320E-02    0.117E-03
RMM:   3    -0.668377173734E+02   -0.38312E-06   -0.35152E-06    50   0.647E-03    0.731E-04
RMM:   4    -0.668377174936E+02   -0.12015E-06   -0.75103E-07    30   0.328E-03
  100 T=  1055. E= -.67284687E+02 F= -.66837717E+02 E0= -.66837717E+02  EK= 0.20462E+01 SP= -.26E+01 SK= 0.11E+00
       N       E                     dE             d eps       ncg     rms          rms(c)
DAV:   1    -0.668557108428E+02   -0.17993E-01   -0.48204E-02   192   0.119E+00    0.233E-03
RMM:   2    -0.668557252619E+02   -0.14419E-04   -0.14335E-04    91   0.388E-02    0.996E-04
RMM:   3    -0.668557256012E+02   -0.33932E-06   -0.39549E-06    52   0.730E-03    0.780E-04
RMM:   4    -0.668557256662E+02   -0.64990E-07   -0.80414E-07    31   0.353E-03
  101 T=  1121. E= -.67285578E+02 F= -.66855726E+02 E0= -.66855726E+02  EK= 0.21739E+01 SP= -.27E+01 SK= 0.10E+00
       N       E                     dE             d eps       ncg     rms          rms(c)
DAV:   1    -0.668694717033E+02   -0.13746E-01   -0.51310E-02   192   0.124E+00    0.284E-03
RMM:   2    -0.668694872340E+02   -0.15531E-04   -0.15388E-04    91   0.365E-02    0.149E-03
RMM:   3    -0.668694878823E+02   -0.64832E-06   -0.57203E-06    48   0.785E-03    0.107E-03
RMM:   4    -0.668694880560E+02   -0.17363E-06   -0.13595E-06    34   0.400E-03
  102 T=  1185. E= -.67286414E+02 F= -.66869488E+02 E0= -.66869488E+02  EK= 0.22974E+01 SP= -.28E+01 SK= 0.88E-01
       N       E                     dE             d eps       ncg     rms          rms(c)
DAV:   1    -0.668758937482E+02   -0.64059E-02   -0.54023E-02   192   0.129E+00    0.280E-03
RMM:   2    -0.668759110294E+02   -0.17281E-04   -0.17030E-04    92   0.410E-02    0.177E-03
RMM:   3    -0.668759113091E+02   -0.27968E-06   -0.36168E-06    51   0.681E-03    0.125E-03
RMM:   4    -0.668759113918E+02   -0.82730E-07   -0.66984E-07    28   0.329E-03
  103 T=  1242. E= -.67287163E+02 F= -.66875911E+02 E0= -.66875911E+02  EK= 0.24087E+01 SP= -.29E+01 SK= 0.69E-01
       N       E                     dE             d eps       ncg     rms          rms(c)
DAV:   1    -0.668718240527E+02    0.40873E-02   -0.54610E-02   192   0.132E+00    0.292E-03
RMM:   2    -0.668718430123E+02   -0.18960E-04   -0.18503E-04    94   0.445E-02    0.158E-03
RMM:   3    -0.668718435228E+02   -0.51048E-06   -0.56588E-06    52   0.794E-03    0.123E-03
RMM:   4    -0.668718436639E+02   -0.14108E-06   -0.13598E-06    39   0.413E-03
  104 T=  1289. E= -.67287747E+02 F= -.66871844E+02 E0= -.66871844E+02  EK= 0.24996E+01 SP= -.30E+01 SK= 0.49E-01
       N       E                     dE             d eps       ncg     rms          rms(c)
DAV:   1    -0.668545171717E+02    0.17326E-01   -0.54524E-02   192   0.135E+00    0.272E-03
RMM:   2    -0.668545261637E+02   -0.89920E-05   -0.88297E-05    89   0.294E-02    0.164E-03
RMM:   3    -0.668545263318E+02   -0.16810E-06   -0.30245E-06    51   0.616E-03    0.135E-03
RMM:   4    -0.668545263828E+02   -0.51026E-07   -0.58482E-07    29   0.318E-03
  105 T=  1322. E= -.67288191E+02 F= -.66854526E+02 E0= -.66854526E+02  EK= 0.25623E+01 SP= -.30E+01 SK= 0.31E-01
       N       E                     dE             d eps       ncg     rms          rms(c)
DAV:   1    -0.668215897204E+02    0.32937E-01   -0.54030E-02   192   0.136E+00    0.351E-03
RMM:   2    -0.668216056590E+02   -0.15939E-04   -0.15585E-04    93   0.377E-02    0.191E-03
RMM:   3    -0.668216061321E+02   -0.47311E-06   -0.48148E-06    53   0.717E-03    0.149E-03
RMM:   4    -0.668216062605E+02   -0.12834E-06   -0.11724E-06    35   0.377E-03
  106 T=  1336. E= -.67288307E+02 F= -.66821606E+02 E0= -.66821606E+02  EK= 0.25909E+01 SP= -.31E+01 SK= 0.15E-01
       N       E                     dE             d eps       ncg     rms          rms(c)
DAV:   1    -0.667719107957E+02    0.49695E-01   -0.52078E-02   192   0.135E+00    0.316E-03
RMM:   2    -0.667719275696E+02   -0.16774E-04   -0.16876E-04    91   0.410E-02    0.184E-03
RMM:   3    -0.667719278583E+02   -0.28869E-06   -0.49155E-06    55   0.789E-03    0.120E-03
RMM:   4    -0.667719278731E+02   -0.14775E-07   -0.10160E-06    39   0.382E-03
  107 T=  1332. E= -.67288127E+02 F= -.66771928E+02 E0= -.66771928E+02  EK= 0.25819E+01 SP= -.31E+01 SK= 0.53E-02
       N       E                     dE             d eps       ncg     rms          rms(c)
DAV:   1    -0.667055617293E+02    0.66366E-01   -0.49016E-02   192   0.134E+00    0.365E-03
RMM:   2    -0.667055711946E+02   -0.94653E-05   -0.95767E-05    90   0.318E-02    0.202E-03
RMM:   3    -0.667055715016E+02   -0.30707E-06   -0.30396E-06    51   0.618E-03    0.127E-03
RMM:   4    -0.667055715116E+02   -0.99158E-08   -0.59718E-07    28   0.329E-03
  108 T=  1308. E= -.67287564E+02 F= -.66705572E+02 E0= -.66705572E+02  EK= 0.25353E+01 SP= -.31E+01 SK= 0.53E-03
       N       E                     dE             d eps       ncg     rms          rms(c)
DAV:   1    -0.666243807086E+02    0.81191E-01   -0.45519E-02   192   0.131E+00    0.318E-03
RMM:   2    -0.666243964440E+02   -0.15735E-04   -0.15906E-04    91   0.411E-02    0.176E-03
RMM:   3    -0.666243967792E+02   -0.33514E-06   -0.39354E-06    53   0.728E-03    0.122E-03
RMM:   4    -0.666243967685E+02    0.10682E-07   -0.77315E-07    35   0.357E-03
  109 T=  1266. E= -.67286685E+02 F= -.66624397E+02 E0= -.66624397E+02  EK= 0.24548E+01 SP= -.31E+01 SK= 0.46E-03
       N       E                     dE             d eps       ncg     rms          rms(c)
DAV:   1    -0.665319039243E+02    0.92493E-01   -0.41533E-02   192   0.126E+00    0.318E-03
RMM:   2    -0.665319156276E+02   -0.11703E-04   -0.12060E-04    91   0.391E-02    0.158E-03
RMM:   3    -0.665319158856E+02   -0.25806E-06   -0.32545E-06    52   0.654E-03    0.106E-03
RMM:   4    -0.665319158596E+02    0.26034E-07   -0.63388E-07    33   0.344E-03
  110 T=  1211. E= -.67285588E+02 F= -.66531916E+02 E0= -.66531916E+02  EK= 0.23475E+01 SP= -.31E+01 SK= 0.34E-02
       N       E                     dE             d eps       ncg     rms          rms(c)
DAV:   1    -0.664331766502E+02    0.98739E-01   -0.37512E-02   192   0.120E+00    0.332E-03
RMM:   2    -0.664331875650E+02   -0.10915E-04   -0.11647E-04    91   0.370E-02    0.197E-03
RMM:   3    -0.664331876961E+02   -0.13109E-06   -0.29425E-06    51   0.631E-03    0.108E-03
RMM:   4    -0.664331877256E+02   -0.29493E-07   -0.50832E-07    30   0.326E-03
  111 T=  1146. E= -.67284510E+02 F= -.66433188E+02 E0= -.66433188E+02  EK= 0.22229E+01 SP= -.31E+01 SK= 0.74E-02
       N       E                     dE             d eps       ncg     rms          rms(c)
DAV:   1    -0.663337972397E+02    0.99390E-01   -0.33784E-02   192   0.113E+00    0.301E-03
RMM:   2    -0.663338076826E+02   -0.10443E-04   -0.11326E-04    92   0.375E-02    0.153E-03
RMM:   3    -0.663338081074E+02   -0.42477E-06   -0.28712E-06    52   0.609E-03    0.905E-04
RMM:   4    -0.663338082881E+02   -0.18070E-06   -0.47528E-07    28   0.311E-03
  112 T=  1079. E= -.67283294E+02 F= -.66333808E+02 E0= -.66333808E+02  EK= 0.20914E+01 SP= -.31E+01 SK= 0.11E-01
       N       E                     dE             d eps       ncg     rms          rms(c)
DAV:   1    -0.662402216165E+02    0.93586E-01   -0.30402E-02   192   0.106E+00    0.323E-03
RMM:   2    -0.662402300031E+02   -0.83866E-05   -0.92063E-05    90   0.352E-02    0.146E-03
RMM:   3    -0.662402300706E+02   -0.67545E-07   -0.23256E-06    51   0.581E-03    0.860E-04
RMM:   4    -0.662402301168E+02   -0.46168E-07   -0.28569E-07    25   0.296E-03
  113 T=  1013. E= -.67282136E+02 F= -.66240230E+02 E0= -.66240230E+02  EK= 0.19637E+01 SP= -.30E+01 SK= 0.12E-01
       N       E                     dE             d eps       ncg     rms          rms(c)
DAV:   1    -0.661584993575E+02    0.81731E-01   -0.27656E-02   192   0.996E-01    0.258E-03
RMM:   2    -0.661585062854E+02   -0.69279E-05   -0.76100E-05    90   0.316E-02    0.121E-03
RMM:   3    -0.661585064372E+02   -0.15181E-06   -0.18980E-06    51   0.525E-03    0.795E-04
RMM:   4    -0.661585063183E+02    0.11897E-06   -0.27271E-07    22   0.272E-03
  114 T=   954. E= -.67281110E+02 F= -.66158506E+02 E0= -.66158506E+02  EK= 0.18491E+01 SP= -.30E+01 SK= 0.12E-01
       N       E                     dE             d eps       ncg     rms          rms(c)
DAV:   1    -0.660935674289E+02    0.64939E-01   -0.25703E-02   192   0.939E-01    0.235E-03
RMM:   2    -0.660935732498E+02   -0.58209E-05   -0.64039E-05    89   0.293E-02    0.940E-04
RMM:   3    -0.660935734361E+02   -0.18625E-06   -0.16101E-06    51   0.490E-03    0.725E-04
RMM:   4    -0.660935734884E+02   -0.52297E-07   -0.17895E-07    21   0.248E-03
  115 T=   905. E= -.67280250E+02 F= -.66093573E+02 E0= -.66093573E+02  EK= 0.17551E+01 SP= -.30E+01 SK= 0.94E-02
       N       E                     dE             d eps       ncg     rms          rms(c)
DAV:   1    -0.660489299911E+02    0.44643E-01   -0.24389E-02   120   0.896E-01    0.247E-03
RMM:   2    -0.660489343757E+02   -0.43845E-05   -0.51399E-05    84   0.255E-02    0.130E-03
RMM:   3    -0.660489344526E+02   -0.76953E-07   -0.19198E-06    46   0.553E-03    0.907E-04
RMM:   4    -0.660489344915E+02   -0.38923E-07   -0.27392E-07    20   0.284E-03
  116 T=   870. E= -.67279688E+02 F= -.66048934E+02 E0= -.66048934E+02  EK= 0.16864E+01 SP= -.29E+01 SK= 0.63E-02
       N       E                     dE             d eps       ncg     rms          rms(c)
DAV:   1    -0.660260079628E+02    0.22926E-01   -0.23914E-02   120   0.875E-01    0.247E-03
RMM:   2    -0.660260134292E+02   -0.54664E-05   -0.57058E-05    85   0.247E-02    0.161E-03
RMM:   3    -0.660260136626E+02   -0.23336E-06   -0.23548E-06    51   0.579E-03    0.913E-04
RMM:   4    -0.660260137199E+02   -0.57311E-07   -0.38562E-07    22   0.296E-03
  117 T=   849. E= -.67279378E+02 F= -.66026014E+02 E0= -.66026014E+02  EK= 0.16454E+01 SP= -.29E+01 SK= 0.33E-02
       N       E                     dE             d eps       ncg     rms          rms(c)
DAV:   1    -0.660244208433E+02    0.15928E-02   -0.24161E-02   144   0.876E-01    0.203E-03
RMM:   2    -0.660244250443E+02   -0.42010E-05   -0.43607E-05    80   0.237E-02    0.129E-03
RMM:   3    -0.660244251985E+02   -0.15425E-06   -0.21682E-06    50   0.585E-03    0.787E-04
RMM:   4    -0.660244251231E+02    0.75408E-07   -0.26820E-07    18   0.296E-03
  118 T=   842. E= -.67279415E+02 F= -.66024425E+02 E0= -.66024425E+02  EK= 0.16317E+01 SP= -.29E+01 SK= 0.11E-02
       N       E                     dE             d eps       ncg     rms          rms(c)
DAV:   1    -0.660418433489E+02   -0.17418E-01   -0.25061E-02   120   0.896E-01    0.238E-03
RMM:   2    -0.660418487448E+02   -0.53958E-05   -0.51832E-05    89   0.250E-02    0.166E-03
RMM:   3    -0.660418489492E+02   -0.20446E-06   -0.18404E-06    51   0.524E-03    0.121E-03
RMM:   4    -0.660418489287E+02    0.20542E-07   -0.21083E-07    21   0.258E-03
  119 T=   848. E= -.67279684E+02 F= -.66041849E+02 E0= -.66041849E+02  EK= 0.16433E+01 SP= -.29E+01 SK= 0.91E-04
       N       E                     dE             d eps       ncg     rms          rms(c)
DAV:   1    -0.660747471851E+02   -0.32898E-01   -0.26570E-02   120   0.932E-01    0.319E-03
RMM:   2    -0.660747528471E+02   -0.56620E-05   -0.53051E-05    83   0.253E-02    0.245E-03
RMM:   3    -0.660747527118E+02    0.13526E-06   -0.27124E-06    51   0.606E-03    0.106E-03
RMM:   4    -0.660747527269E+02   -0.15082E-07   -0.59082E-07    32   0.335E-03
  120 T=   865. E= -.67280180E+02 F= -.66074753E+02 E0= -.66074753E+02  EK= 0.16764E+01 SP= -.29E+01 SK= 0.16E-03
       N       E                     dE             d eps       ncg     rms          rms(c)
DAV:   1    -0.661186395903E+02   -0.43887E-01   -0.28536E-02   120   0.976E-01    0.293E-03
RMM:   2    -0.661186481182E+02   -0.85280E-05   -0.77873E-05    90   0.302E-02    0.152E-03
RMM:   3    -0.661186483717E+02   -0.25351E-06   -0.20975E-06    52   0.572E-03    0.101E-03
RMM:   4    -0.661186483912E+02   -0.19485E-07   -0.23190E-07    20   0.280E-03
  121 T=   890. E= -.67280745E+02 F= -.66118648E+02 E0= -.66118648E+02  EK= 0.17260E+01 SP= -.29E+01 SK= 0.10E-02
       N       E                     dE             d eps       ncg     rms          rms(c)
DAV:   1    -0.661689812275E+02   -0.50333E-01   -0.30950E-02   144   0.103E+00    0.308E-03
RMM:   2    -0.661689876128E+02   -0.63853E-05   -0.57755E-05    85   0.284E-02    0.111E-03
RMM:   3    -0.661689878064E+02   -0.19360E-06   -0.19780E-06    50   0.560E-03    0.684E-04
RMM:   4    -0.661689878283E+02   -0.21972E-07   -0.25364E-07    19   0.286E-03
  122 T=   922. E= -.67281351E+02 F= -.66168988E+02 E0= -.66168988E+02  EK= 0.17871E+01 SP= -.29E+01 SK= 0.21E-02
       N       E                     dE             d eps       ncg     rms          rms(c)
DAV:   1    -0.662214094407E+02   -0.52422E-01   -0.33633E-02   144   0.108E+00    0.300E-03
RMM:   2    -0.662214182376E+02   -0.87969E-05   -0.76312E-05    90   0.315E-02    0.118E-03
RMM:   3    -0.662214184040E+02   -0.16640E-06   -0.21108E-06    52   0.576E-03    0.734E-04
RMM:   4    -0.662214183122E+02    0.91839E-07   -0.23819E-07    21   0.299E-03
  123 T=   956. E= -.67281912E+02 F= -.66221418E+02 E0= -.66221418E+02  EK= 0.18542E+01 SP= -.29E+01 SK= 0.31E-02
       N       E                     dE             d eps       ncg     rms          rms(c)
DAV:   1    -0.662722422876E+02   -0.50824E-01   -0.36414E-02   144   0.113E+00    0.344E-03
RMM:   2    -0.662722503370E+02   -0.80494E-05   -0.72991E-05    90   0.306E-02    0.136E-03
RMM:   3    -0.662722504535E+02   -0.11650E-06   -0.19612E-06    50   0.559E-03    0.880E-04
RMM:   4    -0.662722503348E+02    0.11878E-06   -0.20229E-07    22   0.274E-03
  124 T=   991. E= -.67282488E+02 F= -.66272250E+02 E0= -.66272250E+02  EK= 0.19222E+01 SP= -.29E+01 SK= 0.36E-02
       N       E                     dE             d eps       ncg     rms          rms(c)
DAV:   1    -0.663184994615E+02   -0.46249E-01   -0.39194E-02   144   0.118E+00    0.389E-03
RMM:   2    -0.663185075111E+02   -0.80496E-05   -0.71688E-05    89   0.302E-02    0.152E-03
RMM:   3    -0.663185077875E+02   -0.27639E-06   -0.24053E-06    51   0.604E-03    0.985E-04
RMM:   4    -0.663185078223E+02   -0.34891E-07   -0.55790E-07    34   0.330E-03
  125 T=  1025. E= -.67283022E+02 F= -.66318508E+02 E0= -.66318508E+02  EK= 0.19868E+01 SP= -.30E+01 SK= 0.34E-02
       N       E                     dE             d eps       ncg     rms          rms(c)
DAV:   1    -0.663580165376E+02   -0.39509E-01   -0.41735E-02   144   0.122E+00    0.304E-03
RMM:   2    -0.663580246630E+02   -0.81254E-05   -0.74947E-05    89   0.303E-02    0.110E-03
RMM:   3    -0.663580248320E+02   -0.16904E-06   -0.20470E-06    51   0.570E-03    0.815E-04
RMM:   4    -0.663580249294E+02   -0.97356E-07   -0.25449E-07    22   0.279E-03
  126 T=  1054. E= -.67283348E+02 F= -.66358025E+02 E0= -.66358025E+02  EK= 0.20441E+01 SP= -.30E+01 SK= 0.27E-02
       N       E                     dE             d eps       ncg     rms          rms(c)
DAV:   1    -0.663897831198E+02   -0.31758E-01   -0.44090E-02   144   0.126E+00    0.391E-03
RMM:   2    -0.663897889076E+02   -0.57878E-05   -0.57717E-05    87   0.276E-02    0.137E-03
RMM:   3    -0.663897890898E+02   -0.18223E-06   -0.22874E-06    51   0.583E-03    0.782E-04
RMM:   4    -0.663897890309E+02    0.58868E-07   -0.42393E-07    28   0.314E-03
  127 T=  1079. E= -.67283600E+02 F= -.66389789E+02 E0= -.66389789E+02  EK= 0.20915E+01 SP= -.30E+01 SK= 0.18E-02
       N       E                     dE             d eps       ncg     rms          rms(c)
DAV:   1    -0.664132767910E+02   -0.23488E-01   -0.46023E-02   144   0.129E+00    0.272E-03
RMM:   2    -0.664132844612E+02   -0.76701E-05   -0.71754E-05    91   0.290E-02    0.174E-03
RMM:   3    -0.664132844228E+02    0.38323E-07   -0.18638E-06    51   0.542E-03    0.789E-04
RMM:   4    -0.664132843924E+02    0.30450E-07   -0.14600E-07    22   0.260E-03
  128 T=  1097. E= -.67283698E+02 F= -.66413284E+02 E0= -.66413284E+02  EK= 0.21270E+01 SP= -.30E+01 SK= 0.81E-03
       N       E                     dE             d eps       ncg     rms          rms(c)
DAV:   1    -0.664287406482E+02   -0.15456E-01   -0.47590E-02   120   0.130E+00    0.382E-03
RMM:   2    -0.664287464461E+02   -0.57979E-05   -0.61691E-05    88   0.270E-02    0.160E-03
RMM:   3    -0.664287464459E+02    0.18599E-09   -0.21754E-06    52   0.568E-03    0.835E-04
RMM:   4    -0.664287464589E+02   -0.12997E-07   -0.21652E-07    21   0.284E-03
  129 T=  1109. E= -.67283810E+02 F= -.66428746E+02 E0= -.66428746E+02  EK= 0.21495E+01 SP= -.30E+01 SK= 0.16E-03
       N       E                     dE             d eps       ncg     rms          rms(c)
DAV:   1    -0.664366086864E+02   -0.78622E-02   -0.48729E-02   120   0.132E+00    0.303E-03
RMM:   2    -0.664366158745E+02   -0.71882E-05   -0.68062E-05    90   0.276E-02    0.121E-03
RMM:   3    -0.664366161179E+02   -0.24337E-06   -0.24199E-06    51   0.590E-03    0.872E-04
RMM:   4    -0.664366162705E+02   -0.15256E-06   -0.32181E-07    27   0.307E-03
  130 T=  1113. E= -.67283842E+02 F= -.66436616E+02 E0= -.66436616E+02  EK= 0.21588E+01 SP= -.30E+01 SK= 0.21E-04
       N       E                     dE             d eps       ncg     rms          rms(c)
DAV:   1    -0.664375996623E+02   -0.98354E-03   -0.49367E-02   120   0.133E+00    0.286E-03
RMM:   2    -0.664376052598E+02   -0.55975E-05   -0.58185E-05    86   0.266E-02    0.912E-04
RMM:   3    -0.664376055662E+02   -0.30638E-06   -0.23137E-06    52   0.604E-03    0.664E-04
RMM:   4    -0.664376056384E+02   -0.72199E-07   -0.25264E-07    20   0.297E-03
  131 T=  1112. E= -.67283728E+02 F= -.66437606E+02 E0= -.66437606E+02  EK= 0.21554E+01 SP= -.30E+01 SK= 0.48E-03
       N       E                     dE             d eps       ncg     rms          rms(c)
DAV:   1    -0.664325921380E+02    0.50134E-02   -0.49696E-02   120   0.133E+00    0.305E-03
RMM:   2    -0.664325969413E+02   -0.48033E-05   -0.49522E-05    82   0.254E-02    0.115E-03
RMM:   3    -0.664325972236E+02   -0.28228E-06   -0.27865E-06    52   0.646E-03    0.556E-04
RMM:   4    -0.664325972552E+02   -0.31600E-07   -0.49990E-07    28   0.334E-03
  132 T=  1104. E= -.67283511E+02 F= -.66432597E+02 E0= -.66432597E+02  EK= 0.21401E+01 SP= -.30E+01 SK= 0.15E-02
       N       E                     dE             d eps       ncg     rms          rms(c)
DAV:   1    -0.664224283027E+02    0.10169E-01   -0.49607E-02   192   0.132E+00    0.242E-03
RMM:   2    -0.664224326603E+02   -0.43576E-05   -0.44346E-05    84   0.250E-02    0.898E-04
RMM:   3    -0.664224327811E+02   -0.12088E-06   -0.19350E-06    51   0.560E-03    0.462E-04
RMM:   4    -0.664224328188E+02   -0.37704E-07   -0.25635E-07    25   0.280E-03
  133 T=  1091. E= -.67283256E+02 F= -.66422433E+02 E0= -.66422433E+02  EK= 0.21144E+01 SP= -.30E+01 SK= 0.29E-02
       N       E                     dE             d eps       ncg     rms          rms(c)
DAV:   1    -0.664077500311E+02    0.14683E-01   -0.49151E-02   120   0.131E+00    0.279E-03
RMM:   2    -0.664077546987E+02   -0.46676E-05   -0.48601E-05    80   0.246E-02    0.108E-03
RMM:   3    -0.664077549691E+02   -0.27047E-06   -0.26053E-06    50   0.644E-03    0.652E-04
RMM:   4    -0.664077549961E+02   -0.26938E-07   -0.44934E-07    27   0.327E-03
  134 T=  1073. E= -.67282992E+02 F= -.66407755E+02 E0= -.66407755E+02  EK= 0.20797E+01 SP= -.30E+01 SK= 0.44E-02
       N       E                     dE             d eps       ncg     rms          rms(c)
DAV:   1    -0.663889712641E+02    0.18784E-01   -0.48442E-02   192   0.130E+00    0.221E-03
RMM:   2    -0.663889753969E+02   -0.41328E-05   -0.42118E-05    81   0.243E-02    0.700E-04
RMM:   3    -0.663889756584E+02   -0.26153E-06   -0.21999E-06    52   0.599E-03    0.513E-04
RMM:   4    -0.663889757401E+02   -0.81672E-07   -0.29973E-07    23   0.292E-03
  135 T=  1051. E= -.67282653E+02 F= -.66388976E+02 E0= -.66388976E+02  EK= 0.20377E+01 SP= -.29E+01 SK= 0.57E-02
       N       E                     dE             d eps       ncg     rms          rms(c)
DAV:   1    -0.663665763143E+02    0.22399E-01   -0.47472E-02   192   0.129E+00    0.248E-03
RMM:   2    -0.663665798559E+02   -0.35416E-05   -0.38401E-05    75   0.235E-02    0.101E-03
RMM:   3    -0.663665799866E+02   -0.13073E-06   -0.25210E-06    51   0.637E-03    0.484E-04
RMM:   4    -0.663665800075E+02   -0.20876E-07   -0.37666E-07    28   0.312E-03
  136 T=  1026. E= -.67282324E+02 F= -.66366580E+02 E0= -.66366580E+02  EK= 0.19900E+01 SP= -.29E+01 SK= 0.67E-02
       N       E                     dE             d eps       ncg     rms          rms(c)
DAV:   1    -0.663407891511E+02    0.25791E-01   -0.46295E-02   120   0.126E+00    0.279E-03
RMM:   2    -0.663407939427E+02   -0.47916E-05   -0.49971E-05    85   0.241E-02    0.996E-04
RMM:   3    -0.663407942224E+02   -0.27970E-06   -0.22916E-06    52   0.600E-03    0.611E-04
RMM:   4    -0.663407942594E+02   -0.36926E-07   -0.31777E-07    22   0.296E-03
  137 T=  1000. E= -.67281917E+02 F= -.66340794E+02 E0= -.66340794E+02  EK= 0.19384E+01 SP= -.29E+01 SK= 0.70E-02
       N       E                     dE             d eps       ncg     rms          rms(c)
DAV:   1    -0.663118930823E+02    0.28901E-01   -0.45055E-02   192   0.124E+00    0.207E-03
RMM:   2    -0.663118970051E+02   -0.39228E-05   -0.40724E-05    76   0.233E-02    0.784E-04
RMM:   3    -0.663118972198E+02   -0.21474E-06   -0.25103E-06    51   0.637E-03    0.593E-04
RMM:   4    -0.663118972468E+02   -0.26925E-07   -0.36563E-07    24   0.306E-03
  138 T=   972. E= -.67281488E+02 F= -.66311897E+02 E0= -.66311897E+02  EK= 0.18844E+01 SP= -.29E+01 SK= 0.67E-02
       N       E                     dE             d eps       ncg     rms          rms(c)
DAV:   1    -0.662803279503E+02    0.31569E-01   -0.43730E-02   192   0.122E+00    0.262E-03
RMM:   2    -0.662803318908E+02   -0.39405E-05   -0.40483E-05    80   0.231E-02    0.828E-04
RMM:   3    -0.662803321075E+02   -0.21664E-06   -0.22690E-06    48   0.596E-03    0.471E-04
RMM:   4    -0.662803321285E+02   -0.21016E-07   -0.37977E-07    26   0.301E-03
  139 T=   944. E= -.67281120E+02 F= -.66280332E+02 E0= -.66280332E+02  EK= 0.18297E+01 SP= -.28E+01 SK= 0.56E-02
       N       E                     dE             d eps       ncg     rms          rms(c)
DAV:   1    -0.662465771604E+02    0.33755E-01   -0.42377E-02   144   0.119E+00    0.275E-03
RMM:   2    -0.662465818921E+02   -0.47317E-05   -0.48138E-05    79   0.236E-02    0.932E-04
RMM:   3    -0.662465821482E+02   -0.25605E-06   -0.27361E-06    50   0.655E-03    0.554E-04
RMM:   4    -0.662465821873E+02   -0.39131E-07   -0.44576E-07    26   0.322E-03
  140 T=   916. E= -.67280713E+02 F= -.66246582E+02 E0= -.66246582E+02  EK= 0.17760E+01 SP= -.28E+01 SK= 0.41E-02
[...]
RMM:   4    -0.671465673947E+02    0.31683E-07   -0.14185E-07    17   0.260E-03
 2465 T=   863. E= -.67249331E+02 F= -.67146567E+02 E0= -.67146567E+02  EK= 0.16739E+01 SP= -.20E+01 SK= 0.18E+00
       N       E                     dE             d eps       ncg     rms          rms(c)
DAV:   1    -0.671901977095E+02   -0.43630E-01   -0.38425E-02   120   0.101E+00    0.248E-03
RMM:   2    -0.671902008344E+02   -0.31249E-05   -0.29296E-05    72   0.200E-02    0.126E-03
RMM:   3    -0.671902009896E+02   -0.15514E-06   -0.19230E-06    50   0.553E-03    0.110E-03
RMM:   4    -0.671902008994E+02    0.90198E-07   -0.10623E-07    18   0.252E-03
 2466 T=   948. E= -.67250284E+02 F= -.67190201E+02 E0= -.67190201E+02  EK= 0.18378E+01 SP= -.21E+01 SK= 0.19E+00
       N       E                     dE             d eps       ncg     rms          rms(c)
DAV:   1    -0.672334297267E+02   -0.43229E-01   -0.40927E-02   120   0.107E+00    0.229E-03
RMM:   2    -0.672334325313E+02   -0.28045E-05   -0.28542E-05    74   0.207E-02    0.139E-03
RMM:   3    -0.672334326452E+02   -0.11394E-06   -0.16766E-06    46   0.526E-03    0.109E-03
RMM:   4    -0.672334325998E+02    0.45442E-07   -0.13565E-07    18   0.259E-03
 2467 T=  1039. E= -.67251339E+02 F= -.67233433E+02 E0= -.67233433E+02  EK= 0.20153E+01 SP= -.22E+01 SK= 0.19E+00
       N       E                     dE             d eps       ncg     rms          rms(c)
DAV:   1    -0.672738654735E+02   -0.40433E-01   -0.44293E-02   120   0.113E+00    0.398E-03
RMM:   2    -0.672738693162E+02   -0.38428E-05   -0.38789E-05    82   0.232E-02    0.145E-03
RMM:   3    -0.672738694874E+02   -0.17120E-06   -0.17568E-06    47   0.519E-03    0.776E-04
RMM:   4    -0.672738694972E+02   -0.97880E-08   -0.25247E-07    20   0.287E-03
 2468 T=  1135. E= -.67252431E+02 F= -.67273869E+02 E0= -.67273869E+02  EK= 0.22006E+01 SP= -.24E+01 SK= 0.18E+00
       N       E                     dE             d eps       ncg     rms          rms(c)
DAV:   1    -0.673088740459E+02   -0.35005E-01   -0.48407E-02   120   0.119E+00    0.261E-03
RMM:   2    -0.673088795050E+02   -0.54591E-05   -0.53264E-05    89   0.256E-02    0.121E-03
RMM:   3    -0.673088796206E+02   -0.11557E-06   -0.16753E-06    46   0.510E-03    0.825E-04
RMM:   4    -0.673088796066E+02    0.14023E-07   -0.15052E-07    17   0.258E-03
 2469 T=  1230. E= -.67253477E+02 F= -.67308880E+02 E0= -.67308880E+02  EK= 0.23857E+01 SP= -.25E+01 SK= 0.16E+00
       N       E                     dE             d eps       ncg     rms          rms(c)
DAV:   1    -0.673358265640E+02   -0.26947E-01   -0.52427E-02   120   0.125E+00    0.311E-03
RMM:   2    -0.673358395444E+02   -0.12980E-04   -0.12816E-04    87   0.296E-02    0.197E-03
RMM:   3    -0.673358398359E+02   -0.29158E-06   -0.44863E-06    51   0.691E-03    0.853E-04
RMM:   4    -0.673358398910E+02   -0.55088E-07   -0.86545E-07    24   0.350E-03
 2470 T=  1321. E= -.67254532E+02 F= -.67335840E+02 E0= -.67335840E+02  EK= 0.25605E+01 SP= -.26E+01 SK= 0.13E+00
       N       E                     dE             d eps       ncg     rms          rms(c)
DAV:   1    -0.673519788518E+02   -0.16139E-01   -0.56480E-02   192   0.131E+00    0.702E-03
RMM:   2    -0.673521130996E+02   -0.13425E-03   -0.13524E-03    94   0.598E-02    0.402E-03
RMM:   3    -0.673521149956E+02   -0.18960E-05   -0.35316E-05    61   0.140E-02    0.221E-03
RMM:   4    -0.673521150600E+02   -0.64405E-07   -0.29645E-06    45   0.530E-03
 2471 T=  1400. E= -.67255532E+02 F= -.67352115E+02 E0= -.67352115E+02  EK= 0.27138E+01 SP= -.27E+01 SK= 0.89E-01
       N       E                     dE             d eps       ncg     rms          rms(c)
DAV:   1    -0.673553777916E+02   -0.32628E-02   -0.62547E-02   144   0.136E+00    0.532E-03
RMM:   2    -0.673554816507E+02   -0.10386E-03   -0.10434E-03    95   0.734E-02    0.405E-03
RMM:   3    -0.673554846173E+02   -0.29666E-05   -0.34312E-05    63   0.157E-02    0.355E-03
RMM:   4    -0.673554847432E+02   -0.12589E-06   -0.31073E-06    49   0.575E-03
 2472 T=  1462. E= -.67256404E+02 F= -.67355485E+02 E0= -.67355485E+02  EK= 0.28343E+01 SP= -.28E+01 SK= 0.54E-01
       N       E                     dE             d eps       ncg     rms          rms(c)
DAV:   1    -0.673439909204E+02    0.11494E-01   -0.63172E-02   144   0.139E+00    0.664E-03
RMM:   2    -0.673440504084E+02   -0.59488E-04   -0.59543E-04    96   0.649E-02    0.342E-03
RMM:   3    -0.673440509465E+02   -0.53811E-06   -0.15598E-05    60   0.113E-02    0.258E-03
RMM:   4    -0.673440510370E+02   -0.90517E-07   -0.26412E-06    49   0.519E-03
 2473 T=  1502. E= -.67256782E+02 F= -.67344051E+02 E0= -.67344051E+02  EK= 0.29121E+01 SP= -.28E+01 SK= 0.25E-01
       N       E                     dE             d eps       ncg     rms          rms(c)
DAV:   1    -0.673171186408E+02    0.26932E-01   -0.58465E-02   192   0.140E+00    0.438E-03
RMM:   2    -0.673171371564E+02   -0.18516E-04   -0.19261E-04    91   0.403E-02    0.416E-03
RMM:   3    -0.673171373296E+02   -0.17319E-06   -0.48931E-06    54   0.780E-03    0.353E-03
RMM:   4    -0.673171372003E+02    0.12932E-06   -0.10173E-06    41   0.382E-03
 2474 T=  1516. E= -.67256824E+02 F= -.67317137E+02 E0= -.67317137E+02  EK= 0.29404E+01 SP= -.29E+01 SK= 0.62E-02
       N       E                     dE             d eps       ncg     rms          rms(c)
DAV:   1    -0.672747799359E+02    0.42357E-01   -0.58669E-02   168   0.140E+00    0.630E-03
RMM:   2    -0.672747986600E+02   -0.18724E-04   -0.19374E-04    95   0.441E-02    0.508E-03
RMM:   3    -0.672747989759E+02   -0.31592E-06   -0.52916E-06    53   0.788E-03    0.438E-03
RMM:   4    -0.672747987173E+02    0.25854E-06   -0.10682E-06    37   0.400E-03
 2475 T=  1504. E= -.67256648E+02 F= -.67274799E+02 E0= -.67274799E+02  EK= 0.29163E+01 SP= -.29E+01 SK= 0.21E-06
       N       E                     dE             d eps       ncg     rms          rms(c)
DAV:   1    -0.672176378015E+02    0.57161E-01   -0.57340E-02   192   0.138E+00    0.366E-03
RMM:   2    -0.672176468835E+02   -0.90820E-05   -0.89583E-05    90   0.324E-02    0.323E-03
RMM:   3    -0.672176469030E+02   -0.19421E-07   -0.33212E-06    53   0.646E-03    0.203E-03
RMM:   4    -0.672176469548E+02   -0.51849E-07   -0.81544E-07    40   0.358E-03
 2476 T=  1466. E= -.67255973E+02 F= -.67217647E+02 E0= -.67217647E+02  EK= 0.28419E+01 SP= -.29E+01 SK= 0.57E-02
       N       E                     dE             d eps       ncg     rms          rms(c)
DAV:   1    -0.671475996681E+02    0.70047E-01   -0.56054E-02   120   0.136E+00    0.571E-03
RMM:   2    -0.671476133673E+02   -0.13699E-04   -0.15623E-04    94   0.362E-02    0.586E-03
RMM:   3    -0.671476118606E+02    0.15066E-05   -0.35612E-06    52   0.699E-03    0.333E-03
RMM:   4    -0.671476114538E+02    0.40689E-06   -0.22797E-06    50   0.448E-03
 2477 T=  1405. E= -.67254987E+02 F= -.67147611E+02 E0= -.67147611E+02  EK= 0.27237E+01 SP= -.29E+01 SK= 0.20E-01
       N       E                     dE             d eps       ncg     rms          rms(c)
DAV:   1    -0.670671715261E+02    0.80440E-01   -0.53572E-02   192   0.132E+00    0.427E-03
RMM:   2    -0.670671790454E+02   -0.75193E-05   -0.77988E-05    90   0.314E-02    0.179E-03
RMM:   3    -0.670671790146E+02    0.30798E-07   -0.19203E-06    48   0.531E-03    0.113E-03
RMM:   4    -0.670671789225E+02    0.92081E-07   -0.29894E-07    29   0.294E-03
 2478 T=  1326. E= -.67253778E+02 F= -.67067179E+02 E0= -.67067179E+02  EK= 0.25714E+01 SP= -.28E+01 SK= 0.40E-01
       N       E                     dE             d eps       ncg     rms          rms(c)
DAV:   1    -0.669793485318E+02    0.87830E-01   -0.50418E-02   192   0.127E+00    0.374E-03
RMM:   2    -0.669793562658E+02   -0.77340E-05   -0.77128E-05    91   0.320E-02    0.178E-03
RMM:   3    -0.669793563514E+02   -0.85618E-07   -0.17916E-06    52   0.527E-03    0.119E-03
RMM:   4    -0.669793562362E+02    0.11522E-06   -0.17346E-07    24   0.263E-03
 2479 T=  1236. E= -.67252421E+02 F= -.66979356E+02 E0= -.66979356E+02  EK= 0.23963E+01 SP= -.27E+01 SK= 0.59E-01
       N       E                     dE             d eps       ncg     rms          rms(c)
DAV:   1    -0.668875033539E+02    0.91853E-01   -0.47000E-02   120   0.121E+00    0.346E-03
RMM:   2    -0.668875111175E+02   -0.77637E-05   -0.83923E-05    94   0.308E-02    0.150E-03
RMM:   3    -0.668875111694E+02   -0.51896E-07   -0.22046E-06    51   0.533E-03    0.106E-03
RMM:   4    -0.668875110810E+02    0.88424E-07   -0.32745E-07    27   0.273E-03
 2480 T=  1140. E= -.67251102E+02 F= -.66887511E+02 E0= -.66887511E+02  EK= 0.22103E+01 SP= -.26E+01 SK= 0.74E-01
       N       E                     dE             d eps       ncg     rms          rms(c)
DAV:   1    -0.667950965745E+02    0.92415E-01   -0.43715E-02   192   0.115E+00    0.331E-03
RMM:   2    -0.667951024417E+02   -0.58672E-05   -0.59412E-05    88   0.293E-02    0.201E-03
RMM:   3    -0.667951025482E+02   -0.10653E-06   -0.21452E-06    53   0.544E-03    0.959E-04
RMM:   4    -0.667951025021E+02    0.46139E-07   -0.29177E-07    30   0.293E-03
 2481 T=  1044. E= -.67249911E+02 F= -.66795103E+02 E0= -.66795103E+02  EK= 0.20239E+01 SP= -.26E+01 SK= 0.82E-01
       N       E                     dE             d eps       ncg     rms          rms(c)
DAV:   1    -0.667052057844E+02    0.89897E-01   -0.40477E-02   120   0.109E+00    0.294E-03
RMM:   2    -0.667052125085E+02   -0.67241E-05   -0.68647E-05    90   0.295E-02    0.113E-03
RMM:   3    -0.667052127269E+02   -0.21844E-06   -0.20451E-06    51   0.553E-03    0.824E-04
RMM:   4    -0.667052127659E+02   -0.39000E-07   -0.19985E-07    20   0.276E-03
 2482 T=   952. E= -.67248691E+02 F= -.66705213E+02 E0= -.66705213E+02  EK= 0.18461E+01 SP= -.25E+01 SK= 0.81E-01
       N       E                     dE             d eps       ncg     rms          rms(c)
DAV:   1    -0.666209203359E+02    0.84292E-01   -0.37367E-02   120   0.103E+00    0.284E-03
RMM:   2    -0.666209257514E+02   -0.54155E-05   -0.57715E-05    88   0.267E-02    0.137E-03
RMM:   3    -0.666209257892E+02   -0.37861E-07   -0.25486E-06    50   0.575E-03    0.726E-04
RMM:   4    -0.666209258423E+02   -0.53127E-07   -0.40933E-07    25   0.298E-03
 2483 T=   868. E= -.67247661E+02 F= -.66620926E+02 E0= -.66620926E+02  EK= 0.16835E+01 SP= -.24E+01 SK= 0.74E-01
       N       E                     dE             d eps       ncg     rms          rms(c)
DAV:   1    -0.665446425184E+02    0.76283E-01   -0.34453E-02   120   0.964E-01    0.281E-03
RMM:   2    -0.665446476626E+02   -0.51442E-05   -0.52549E-05    87   0.254E-02    0.822E-04
RMM:   3    -0.665446478534E+02   -0.19084E-06   -0.21463E-06    52   0.547E-03    0.485E-04
RMM:   4    -0.665446478587E+02   -0.52460E-08   -0.26889E-07    19   0.268E-03
 2484 T=   795. E= -.67246733E+02 F= -.66544648E+02 E0= -.66544648E+02  EK= 0.15408E+01 SP= -.23E+01 SK= 0.60E-01
       N       E                     dE             d eps       ncg     rms          rms(c)
DAV:   1    -0.664785329488E+02    0.66115E-01   -0.31880E-02   120   0.908E-01    0.220E-03
RMM:   2    -0.664785359832E+02   -0.30344E-05   -0.32370E-05    75   0.220E-02    0.818E-04
RMM:   3    -0.664785361586E+02   -0.17542E-06   -0.22007E-06    50   0.597E-03    0.464E-04
RMM:   4    -0.664785361919E+02   -0.33250E-07   -0.23224E-07    20   0.282E-03
 2485 T=   733. E= -.67245991E+02 F= -.66478536E+02 E0= -.66478536E+02  EK= 0.14210E+01 SP= -.22E+01 SK= 0.43E-01
       N       E                     dE             d eps       ncg     rms          rms(c)
DAV:   1    -0.664240005167E+02    0.54536E-01   -0.29783E-02   120   0.860E-01    0.208E-03
RMM:   2    -0.664240037803E+02   -0.32636E-05   -0.32524E-05    73   0.213E-02    0.830E-04
RMM:   3    -0.664240040444E+02   -0.26405E-06   -0.27428E-06    49   0.646E-03    0.462E-04
RMM:   4    -0.664240041394E+02   -0.95026E-07   -0.40165E-07    24   0.313E-03
 2486 T=   684. E= -.67245257E+02 F= -.66424004E+02 E0= -.66424004E+02  EK= 0.13258E+01 SP= -.22E+01 SK= 0.27E-01
       N       E                     dE             d eps       ncg     rms          rms(c)
DAV:   1    -0.663823124277E+02    0.41692E-01   -0.28131E-02   120   0.820E-01    0.171E-03
RMM:   2    -0.663823142555E+02   -0.18278E-05   -0.19869E-05    63   0.177E-02    0.823E-04
RMM:   3    -0.663823144294E+02   -0.17389E-06   -0.22285E-06    51   0.602E-03    0.420E-04
RMM:   4    -0.663823144388E+02   -0.94765E-08   -0.28724E-07    22   0.283E-03
 2487 T=   648. E= -.67244726E+02 F= -.66382314E+02 E0= -.66382314E+02  EK= 0.12558E+01 SP= -.21E+01 SK= 0.12E-01
       N       E                     dE             d eps       ncg     rms          rms(c)
DAV:   1    -0.663541872825E+02    0.28127E-01   -0.26916E-02   120   0.792E-01    0.174E-03
RMM:   2    -0.663541895401E+02   -0.22575E-05   -0.23492E-05    63   0.177E-02    0.813E-04
RMM:   3    -0.663541897702E+02   -0.23013E-06   -0.20781E-06    49   0.579E-03    0.533E-04
RMM:   4    -0.663541897729E+02   -0.27517E-08   -0.15400E-07    17   0.271E-03
 2488 T=   625. E= -.67244488E+02 F= -.66354190E+02 E0= -.66354190E+02  EK= 0.12111E+01 SP= -.21E+01 SK= 0.31E-02
       N       E                     dE             d eps       ncg     rms          rms(c)
DAV:   1    -0.663395870576E+02    0.14603E-01   -0.26066E-02   120   0.775E-01    0.157E-03
RMM:   2    -0.663395890686E+02   -0.20109E-05   -0.20593E-05    59   0.162E-02    0.610E-04
RMM:   3    -0.663395893777E+02   -0.30917E-06   -0.24835E-06    50   0.609E-03    0.467E-04
RMM:   4    -0.663395894527E+02   -0.74976E-07   -0.35740E-07    23   0.283E-03
 2489 T=   615. E= -.67244302E+02 F= -.66339589E+02 E0= -.66339589E+02  EK= 0.11916E+01 SP= -.21E+01 SK= 0.11E-04
       N       E                     dE             d eps       ncg     rms          rms(c)
DAV:   1    -0.663384958141E+02    0.10936E-02   -0.25649E-02   120   0.772E-01    0.124E-03
RMM:   2    -0.663384972645E+02   -0.14504E-05   -0.14558E-05    54   0.148E-02    0.642E-04
RMM:   3    -0.663384974479E+02   -0.18342E-06   -0.15840E-06    51   0.511E-03    0.482E-04
RMM:   4    -0.663384974733E+02   -0.25458E-07   -0.37919E-08    12   0.220E-03
 2490 T=   617. E= -.67244336E+02 F= -.66338497E+02 E0= -.66338497E+02  EK= 0.11968E+01 SP= -.21E+01 SK= 0.39E-02
       N       E                     dE             d eps       ncg     rms          rms(c)
DAV:   1    -0.663503230313E+02   -0.11826E-01   -0.25598E-02   120   0.782E-01    0.258E-03
RMM:   2    -0.663503245578E+02   -0.15265E-05   -0.16120E-05    59   0.150E-02    0.139E-03
RMM:   3    -0.663503246915E+02   -0.13374E-06   -0.16685E-06    50   0.514E-03    0.816E-04
RMM:   4    -0.663503246105E+02    0.81011E-07   -0.11175E-07    15   0.243E-03
 2491 T=   632. E= -.67244558E+02 F= -.66350325E+02 E0= -.66350325E+02  EK= 0.12263E+01 SP= -.21E+01 SK= 0.15E-01
       N       E                     dE             d eps       ncg     rms          rms(c)
DAV:   1    -0.663742523300E+02   -0.23928E-01   -0.25986E-02   120   0.804E-01    0.180E-03
RMM:   2    -0.663742541708E+02   -0.18408E-05   -0.17257E-05    59   0.154E-02    0.105E-03
RMM:   3    -0.663742543099E+02   -0.13916E-06   -0.16954E-06    48   0.537E-03    0.720E-04
RMM:   4    -0.663742542777E+02    0.32202E-07   -0.93901E-08    15   0.236E-03
 2492 T=   660. E= -.67245036E+02 F= -.66374254E+02 E0= -.66374254E+02  EK= 0.12798E+01 SP= -.22E+01 SK= 0.31E-01
       N       E                     dE             d eps       ncg     rms          rms(c)
DAV:   1    -0.664089940882E+02   -0.34740E-01   -0.26720E-02   120   0.835E-01    0.212E-03
RMM:   2    -0.664089965346E+02   -0.24464E-05   -0.22325E-05    63   0.168E-02    0.864E-04
RMM:   3    -0.664089967297E+02   -0.19512E-06   -0.17981E-06    50   0.541E-03    0.575E-04
RMM:   4    -0.664089966841E+02    0.45593E-07   -0.43054E-08    14   0.235E-03
 2493 T=   700. E= -.67245642E+02 F= -.66408997E+02 E0= -.66408997E+02  EK= 0.13566E+01 SP= -.22E+01 SK= 0.51E-01
       N       E                     dE             d eps       ncg     rms          rms(c)
DAV:   1    -0.664531452516E+02   -0.44149E-01   -0.27867E-02   120   0.876E-01    0.161E-03
RMM:   2    -0.664531477190E+02   -0.24674E-05   -0.23263E-05    63   0.178E-02    0.793E-04
RMM:   3    -0.664531479426E+02   -0.22356E-06   -0.19969E-06    47   0.582E-03    0.514E-04
RMM:   4    -0.664531479604E+02   -0.17893E-07   -0.16012E-07    19   0.266E-03
 2494 T=   751. E= -.67246394E+02 F= -.66453148E+02 E0= -.66453148E+02  EK= 0.14559E+01 SP= -.23E+01 SK= 0.71E-01
       N       E                     dE             d eps       ncg     rms          rms(c)
DAV:   1    -0.665049916396E+02   -0.51844E-01   -0.29346E-02   120   0.922E-01    0.214E-03
RMM:   2    -0.665049947430E+02   -0.31033E-05   -0.28026E-05    68   0.192E-02    0.844E-04
RMM:   3    -0.665049949943E+02   -0.25134E-06   -0.20236E-06    47   0.574E-03    0.404E-04
RMM:   4    -0.665049950114E+02   -0.17115E-07   -0.22863E-07    21   0.282E-03
 2495 T=   813. E= -.67247195E+02 F= -.66504995E+02 E0= -.66504995E+02  EK= 0.15765E+01 SP= -.24E+01 SK= 0.91E-01
       N       E                     dE             d eps       ncg     rms          rms(c)
DAV:   1    -0.665626649182E+02   -0.57670E-01   -0.31162E-02   120   0.973E-01    0.193E-03
RMM:   2    -0.665626684728E+02   -0.35546E-05   -0.32047E-05    73   0.209E-02    0.742E-04
RMM:   3    -0.665626686291E+02   -0.15628E-06   -0.18482E-06    45   0.558E-03    0.425E-04
RMM:   4    -0.665626686153E+02    0.13756E-07   -0.13986E-07    15   0.277E-03
 2496 T=   885. E= -.67248037E+02 F= -.66562669E+02 E0= -.66562669E+02  EK= 0.17163E+01 SP= -.25E+01 SK= 0.11E+00
       N       E                     dE             d eps       ncg     rms          rms(c)
DAV:   1    -0.666242338588E+02   -0.61565E-01   -0.33264E-02   120   0.103E+00    0.239E-03
RMM:   2    -0.666242381377E+02   -0.42789E-05   -0.40155E-05    80   0.226E-02    0.680E-04
RMM:   3    -0.666242382693E+02   -0.13159E-06   -0.16604E-06    47   0.519E-03    0.463E-04
RMM:   4    -0.666242382009E+02    0.68402E-07   -0.18577E-07    19   0.267E-03
 2497 T=   966. E= -.67249037E+02 F= -.66624238E+02 E0= -.66624238E+02  EK= 0.18724E+01 SP= -.26E+01 SK= 0.11E+00
       N       E                     dE             d eps       ncg     rms          rms(c)
DAV:   1    -0.666873916653E+02   -0.63153E-01   -0.35615E-02   120   0.108E+00    0.234E-03
RMM:   2    -0.666873961166E+02   -0.44513E-05   -0.40173E-05    79   0.236E-02    0.966E-04
RMM:   3    -0.666873963158E+02   -0.19927E-06   -0.17963E-06    47   0.536E-03    0.581E-04
RMM:   4    -0.666873963401E+02   -0.24259E-07   -0.18357E-07    19   0.276E-03
 2498 T=  1052. E= -.67250055E+02 F= -.66687396E+02 E0= -.66687396E+02  EK= 0.20402E+01 SP= -.27E+01 SK= 0.11E+00
       N       E                     dE             d eps       ncg     rms          rms(c)
DAV:   1    -0.667499185245E+02   -0.62522E-01   -0.38136E-02   120   0.113E+00    0.268E-03
RMM:   2    -0.667499245104E+02   -0.59858E-05   -0.57923E-05    88   0.267E-02    0.867E-04
RMM:   3    -0.667499246450E+02   -0.13458E-06   -0.15881E-06    44   0.507E-03    0.603E-04
RMM:   4    -0.667499246642E+02   -0.19268E-07   -0.15676E-07    17   0.271E-03
 2499 T=  1142. E= -.67251149E+02 F= -.66749925E+02 E0= -.66749925E+02  EK= 0.22137E+01 SP= -.28E+01 SK= 0.10E+00
       N       E                     dE             d eps       ncg     rms          rms(c)
DAV:   1    -0.668093571707E+02   -0.59433E-01   -0.40677E-02   120   0.118E+00    0.257E-03
RMM:   2    -0.668093623704E+02   -0.51997E-05   -0.47767E-05    84   0.261E-02    0.116E-03
RMM:   3    -0.668093626021E+02   -0.23177E-06   -0.19126E-06    47   0.536E-03    0.561E-04
RMM:   4    -0.668093626444E+02   -0.42289E-07   -0.27944E-07    23   0.287E-03
 2500 T=  1230. E= -.67252098E+02 F= -.66809363E+02 E0= -.66809363E+02  EK= 0.23853E+01 SP= -.29E+01 SK= 0.85E-01
