unknown system                          
           1
     7.786711    0.000000    0.000000
     0.000000    6.617013    0.000000
     0.000000    0.000000    6.218819
   Li   P    S 
   6   2   8
Direct configuration=     1
   0.75024282  0.07624929  0.14121534
   0.26535964  0.14645427  0.98043289
   0.18831769  0.92233660  0.57349961
   0.46603432  0.60864738  0.20755216
   0.72554877  0.77726116  0.64302055
   0.10824255  0.42080810  0.76355579
   0.01774510  0.76694051  0.99965381
   0.49148265  0.22326098  0.50833709
   0.99381337  0.03829515  0.80976445
   0.99918628  0.82359477  0.34694827
   0.25075799  0.71888782  0.86433175
   0.23515961  0.29688788  0.42142942
   0.50236751  0.29351528  0.83354610
   0.50227813  0.91538350  0.42770988
   0.69121045  0.37674639  0.36946693
   0.81549428  0.55670055  0.93452140
Direct configuration=     2
   0.75208387  0.07585742  0.14410727
   0.26380199  0.14557138  0.97943852
   0.18859268  0.92322414  0.57294444
   0.46951103  0.60412224  0.20679020
   0.72632529  0.77965380  0.63983852
   0.10758118  0.42154522  0.76090906
   0.01736023  0.76619912  0.00028397
   0.49257570  0.22361620  0.50783520
   0.99320236  0.03969821  0.81069253
   0.99983147  0.82251685  0.34740318
   0.25085905  0.71815929  0.86434023
   0.23479385  0.29788876  0.42049121
   0.50134537  0.29305902  0.83444871
   0.50256169  0.91657675  0.42731206
   0.69079071  0.37683402  0.36861062
   0.81529177  0.55604115  0.93544309
Direct configuration=     3
   0.75396249  0.07551291  0.14703721
   0.26219779  0.14457286  0.97858386
   0.18903601  0.92422159  0.57232716
   0.47299768  0.59951833  0.20597242
   0.72718770  0.78202456  0.63659999
   0.10686107  0.42227480  0.75812940
   0.01692443  0.76547316  0.00101221
   0.49363070  0.22397981  0.50737293
   0.99252852  0.04115659  0.81167840
   0.00045075  0.82138931  0.34769686
   0.25101490  0.71735926  0.86441299
   0.23447226  0.29890304  0.41952159
   0.50031346  0.29255884  0.83531734
   0.50284478  0.91781204  0.42692739
   0.69036752  0.37690818  0.36773834
   0.81513574  0.55544105  0.93636750
Direct configuration=     4
   0.75587092  0.07521351  0.14998891
   0.26055707  0.14346752  0.97787364
   0.18964417  0.92532791  0.57166230
   0.47647289  0.59486644  0.20509534
   0.72813856  0.78435916  0.63333163
   0.10608715  0.42299460  0.75523144
   0.01644394  0.76476765  0.00183072
   0.49463364  0.22435010  0.50695983
   0.99179584  0.04265712  0.81271795
   0.00104032  0.82021746  0.34782932
   0.25121975  0.71649384  0.86455035
   0.23420044  0.29992502  0.41852478
   0.49927705  0.29201658  0.83614297
   0.50312578  0.91908107  0.42655552
   0.68994860  0.37697113  0.36685432
   0.81502559  0.55490435  0.93728870
Direct configuration=     5
   0.75780014  0.07495676  0.15294430
   0.25889167  0.14226614  0.97731142
   0.19041028  0.92653958  0.57096425
   0.47991238  0.59020096  0.20415449
   0.72917877  0.78664332  0.63006074
   0.10526534  0.42370240  0.75223257
   0.01592615  0.76408748  0.00272976
   0.49557103  0.22472519  0.50660507
   0.99100940  0.04418529  0.81380589
   0.00159679  0.81900790  0.34780319
   0.25146658  0.71557047  0.86475190
   0.23398310  0.30094855  0.41750567
   0.49824191  0.29143475  0.83691691
   0.50340300  0.92037447  0.42619628
   0.68954214  0.37702510  0.36596372
   0.81496034  0.55443447  0.93820038
Direct configuration=     6
   0.75974032  0.07473992  0.15588426
   0.25721478  0.14098105  0.97689939
   0.19132441  0.92785075  0.57024683
   0.48328958  0.58555875  0.20314453
   0.73030758  0.78886325  0.62681463
   0.10440228  0.42439622  0.74915247
   0.01537916  0.76343739  0.00369820
   0.49643027  0.22510298  0.50631711
   0.99017489  0.04572607  0.81493598
   0.00211720  0.81776812  0.34762311
   0.25174774  0.71459743  0.86501668
   0.23382408  0.30196718  0.41646949
   0.49721402  0.29081642  0.83763118
   0.50367475  0.92168232  0.42584950
   0.68915664  0.37707196  0.36507213
   0.81493854  0.55403410  0.93909649
Direct configuration=     7
   0.76168118  0.07456001  0.15878937
   0.25554037  0.13962577  0.97663822
   0.19237375  0.92925341  0.56952281
   0.48657654  0.58097759  0.20205917
   0.73152265  0.79100615  0.62361966
   0.10350506  0.42507444  0.74601229
   0.01481159  0.76282160  0.00472374
   0.49720024  0.22548144  0.50610329
   0.98929860  0.04726415  0.81610124
   0.00259943  0.81650634  0.34729626
   0.25205505  0.71358364  0.86534307
   0.23372610  0.30297445  0.41542169
   0.49619936  0.29016520  0.83827890
   0.50393947  0.92299441  0.42551516
   0.68880035  0.37711335  0.36418558
   0.81495829  0.55370504  0.93997111
Direct configuration=     8
   0.76361255  0.07441387  0.16164089
   0.25388264  0.13821443  0.97652698
   0.19354322  0.93073774  0.56880347
   0.48974513  0.57649476  0.20089115
   0.73282016  0.79306081  0.62050021
   0.10258098  0.42573588  0.74283376
   0.01423219  0.76224361  0.00579333
   0.49787171  0.22585875  0.50596952
   0.98838692  0.04878490  0.81729433
   0.00304211  0.81523105  0.34683185
   0.25238024  0.71253826  0.86572882
   0.23369077  0.30396425  0.41436761
   0.49520354  0.28948501  0.83885445
   0.50419583  0.92430076  0.42519306
   0.68848117  0.37715035  0.36331043
   0.81501733  0.55344807  0.94081885
Direct configuration=     9
   0.76552480  0.07429826  0.16442154
   0.25225538  0.13676118  0.97656323
   0.19481612  0.93229255  0.56809841
   0.49276813  0.57214572  0.19963216
   0.73419506  0.79501813  0.61747800
   0.10163724  0.42637990  0.73963832
   0.01364958  0.76170623  0.00689355
   0.49843763  0.22623349  0.50592022
   0.98744624  0.05027459  0.81850801
   0.00344469  0.81395072  0.34624114
   0.25271508  0.71147032  0.86617110
   0.23371872  0.30493096  0.41331226
   0.49423156  0.28877980  0.83935356
   0.50444276  0.92559196  0.42488302
   0.68820627  0.37718361  0.36245301
   0.81511300  0.55326291  0.94163499
Direct configuration=    10
   0.76740931  0.07421001  0.16711621
   0.25067142  0.13527964  0.97674330
   0.19617486  0.93390582  0.56741543
   0.49562024  0.56796267  0.19827275
   0.73564134  0.79687148  0.61457134
   0.10068064  0.42700641  0.73644620
   0.01307187  0.76121141  0.00801092
   0.49889328  0.22660469  0.50595814
   0.98648267  0.05172114  0.81973527
   0.00380750  0.81267332  0.34553684
   0.25305175  0.71038847  0.86666675
   0.23380964  0.30586978  0.41226010
   0.49328766  0.28805352  0.83977356
   0.50467951  0.92685939  0.42458467
   0.68798185  0.37721317  0.36161960
   0.81524237  0.55314835  0.94241564
Direct configuration=    11
   0.76925878  0.07414623  0.16971252
   0.24914222  0.13378242  0.97706251
   0.19760175  0.93556536  0.56676052
   0.49827892  0.56397369  0.19680243
   0.73715233  0.79861693  0.61179497
   0.09971739  0.42761601  0.73327569
   0.01250632  0.76076021  0.00913233
   0.49923609  0.22697199  0.50608444
   0.98550188  0.05311410  0.82096980
   0.00413164  0.81140616  0.34473272
   0.25338305  0.70930042  0.86721248
   0.23396245  0.30677672  0.41121492
   0.49237509  0.28730977  0.84011308
   0.50490555  0.92809558  0.42429757
   0.68781309  0.37723863  0.36081619
   0.81540243  0.55310244  0.94315775
Direct configuration=    12
   0.77106749  0.07410431  0.17220113
   0.24767754  0.13228069  0.97751554
   0.19907961  0.93725913  0.56613811
   0.50072496  0.56020198  0.19520995
   0.73872100  0.80025299  0.60915986
   0.09875282  0.42820981  0.73014250
   0.01195940  0.76035304  0.01024509
   0.49946570  0.22733567  0.50629873
   0.98450884  0.05444514  0.82220612
   0.00441881  0.81015552  0.34384328
   0.25370259  0.70821304  0.86780492
   0.23417541  0.30764886  0.41017961
   0.49149624  0.28655185  0.84037220
   0.50512073  0.92929419  0.42402106
   0.68770390  0.37725901  0.36004843
   0.81559009  0.55312248  0.94385917
Direct configuration=    13
   0.77283140  0.07408193  0.17457577
   0.24628529  0.13078402  0.97809674
   0.20059244  0.93897593  0.56555114
   0.50294288  0.55666579  0.19348378
   0.74034034  0.80178039  0.60667339
   0.09779129  0.42878942  0.72705955
   0.01143648  0.75998944  0.01133736
   0.49958362  0.22769660  0.50659924
   0.98350767  0.05570785  0.82343981
   0.00467129  0.80892674  0.34288300
   0.25400482  0.70713195  0.86844081
   0.23444640  0.30848418  0.40915625
   0.49065255  0.28578251  0.84055208
   0.50532518  0.93045026  0.42375448
   0.68765693  0.37727302  0.35932146
   0.81580233  0.55320535  0.94451859
Direct configuration=    14
   0.77454807  0.07407720  0.17683305
   0.24497151  0.12930024  0.97880038
   0.20212576  0.94070559  0.56500137
   0.50492106  0.55337843  0.19161265
   0.74200375  0.80320163  0.60433943
   0.09683612  0.42935684  0.72403679
   0.01094196  0.75966835  0.01239810
   0.49959292  0.22805616  0.50698304
   0.98250170  0.05689768  0.82466745
   0.00489174  0.80772413  0.34186635
   0.25428505  0.70606168  0.86911711
   0.23477302  0.30928165  0.40814601
   0.48984455  0.28500399  0.84065481
   0.50551930  0.93156001  0.42349704
   0.68767367  0.37727910  0.35863994
   0.81603626  0.55334766  0.94513541
Direct configuration=    15
   0.77621653  0.07408848  0.17897211
   0.24374046  0.12783545  0.97962092
   0.20366688  0.94243930  0.56448957
   0.50665161  0.55034832  0.18958604
   0.74370528  0.80452057  0.60215883
   0.09588961  0.42991426  0.72108140
   0.01047934  0.75938829  0.01341698
   0.49949790  0.22841621  0.50744620
   0.98149344  0.05801172  0.82588687
   0.00508314  0.80655106  0.34080744
   0.25453943  0.70500562  0.86983109
   0.23515281  0.31004099  0.40714928
   0.48907208  0.28421788  0.84068320
   0.50570368  0.93262092  0.42324790
   0.68775434  0.37727556  0.35800788
   0.81628913  0.55354585  0.94570959
Direct configuration=    16
   0.77783705  0.07411450  0.18099414
   0.24259485  0.12639416  0.98055325
   0.20520491  0.94416963  0.56401585
   0.50813031  0.54757921  0.18739461
   0.74543984  0.80574200  0.60013000
   0.09495308  0.43046400  0.71819807
   0.01005125  0.75914739  0.01438444
   0.49930375  0.22877892  0.50798404
   0.98048456  0.05904848  0.82709679
   0.00524861  0.80540999  0.33971984
   0.25476484  0.70396625  0.87058034
   0.23558333  0.31076260  0.40616578
   0.48833427  0.28342530  0.84064060
   0.50587910  0.93363144  0.42300628
   0.68789819  0.37726079  0.35742865
   0.81655844  0.55379637  0.94624157
Direct configuration=    17
   0.77941079  0.07415435  0.18290186
   0.24153600  0.12497949  0.98159282
   0.20673077  0.94589049  0.56357978
   0.50935628  0.54507045  0.18503046
   0.74720306  0.80687132  0.59824954
   0.09402699  0.43100843  0.71538936
   0.00965965  0.75894363  0.01529150
   0.49901629  0.22914658  0.50859110
   0.97947610  0.06000757  0.82829686
   0.00539134  0.80430266  0.33861650
   0.25495884  0.70294502  0.87136296
   0.23606225  0.31144756  0.40519461
   0.48762974  0.28262689  0.84053089
   0.50604648  0.93459093  0.42277132
   0.68810340  0.37723338  0.35690501
   0.81684195  0.55409580  0.94673212
Direct configuration=    18
   0.78093956  0.07420742  0.18469901
   0.24056412  0.12359332  0.98273567
   0.20823700  0.94759706  0.56318058
   0.51033184  0.54281733  0.18248731
   0.74899123  0.80791424  0.59651292
   0.09311106  0.43154994  0.71265601
   0.00930596  0.75877495  0.01612959
   0.49864166  0.22952171  0.50926166
   0.97846854  0.06088930  0.82948737
   0.00551447  0.80323020  0.33750981
   0.25511955  0.70194268  0.87217741
   0.23658738  0.31209730  0.40423448
   0.48695684  0.28182284  0.84035818
   0.50620686  0.93549945  0.42254229
   0.68836736  0.37719219  0.35643902
   0.81713766  0.55444096  0.94718213
Direct configuration=    19
   0.78242555  0.07427344  0.18639007
   0.23967852  0.12223651  0.98397861
   0.20971754  0.94928556  0.56281729
   0.51106220  0.54081158  0.17976071
   0.75080110  0.80887660  0.59491505
   0.09220443  0.43209094  0.70999742
   0.00899116  0.75863933  0.01689054
   0.49818618  0.22990687  0.50998964
   0.97746194  0.06169451  0.83066929
   0.00562110  0.80219327  0.33641151
   0.25524547  0.70095941  0.87302253
   0.23715678  0.31271355  0.40328377
   0.48631364  0.28101306  0.84012679
   0.50636136  0.93635766  0.42231847
   0.68868664  0.37713643  0.35603212
   0.81744373  0.55482887  0.94759257
Direct configuration=    20
   0.78387113  0.07435235  0.18797991
   0.23887779  0.12090909  0.98531916
   0.21116755  0.95095304  0.56248882
   0.51155522  0.53904191  0.17684808
   0.75262978  0.80976415  0.59345064
   0.09130574  0.43263386  0.70741184
   0.00871590  0.75853485  0.01756652
   0.49765620  0.23030445  0.51076862
   0.97645603  0.06242447  0.83184415
   0.00571417  0.80119217  0.33533262
   0.25533554  0.69999489  0.87389749
   0.23776861  0.31329833  0.40234055
   0.48569813  0.28019707  0.83984120
   0.50651109  0.93716667  0.42209928
   0.68905726  0.37706578  0.35568523
   0.81775861  0.55525682  0.94796443
Direct configuration=    21
   0.78527871  0.07444434  0.18947362
   0.23816000  0.11961039  0.98675555
   0.21258312  0.95259715  0.56219406
   0.51182097  0.53749473  0.17374897
   0.75447457  0.81058247  0.59211454
   0.09041325  0.43318110  0.70489678
   0.00848056  0.75845985  0.01815002
   0.49705799  0.23071668  0.51159181
   0.97545036  0.06308050  0.83301370
   0.00579645  0.80022698  0.33428354
   0.25538893  0.69904845  0.87480180
   0.23842133  0.31385373  0.40140278
   0.48510819  0.27937430  0.83950608
   0.50665716  0.93792790  0.42188429
   0.68947476  0.37698030  0.35539869
   0.81808090  0.55572239  0.94829856
Direct configuration=    22
   0.78665060  0.07454973  0.19087633
   0.23752284  0.11833925  0.98828671
   0.21396109  0.95421594  0.56193194
   0.51187143  0.53615488  0.17046513
   0.75633292  0.81133687  0.59090184
   0.08952496  0.43373504  0.70244910
   0.00828540  0.75841288  0.01863378
   0.49639780  0.23114550  0.51245193
   0.97444425  0.06366400  0.83418004
   0.00587052  0.79929759  0.33327407
   0.25540511  0.69811920  0.87573521
   0.23911351  0.31438195  0.40046835
   0.48454169  0.27854390  0.83912634
   0.50680070  0.93864303  0.42167315
   0.68993420  0.37688050  0.35517245
   0.81840935  0.55622337  0.94859573
Direct configuration=    23
   0.78798893  0.07466899  0.19219319
   0.23696374  0.11709415  0.98991217
   0.21529878  0.95580772  0.56170145
   0.51171998  0.53500627  0.16700053
   0.75820225  0.81203234  0.58980810
   0.08863858  0.43429802  0.70006524
   0.00813061  0.75839285  0.01901088
   0.49568175  0.23159247  0.51334132
   0.97343715  0.06417626  0.83534531
   0.00593882  0.79840376  0.33231327
   0.25538364  0.69720623  0.87669762
   0.23984387  0.31488514  0.39953515
   0.48399651  0.27770492  0.83870719
   0.50694273  0.93931392  0.42146569
   0.69043041  0.37676725  0.35500603
   0.81874284  0.55675780  0.94885653
Direct configuration=    24
   0.78929563  0.07480258  0.19342927
   0.23648004  0.11587329  0.99163198
   0.21659395  0.95737086  0.56150167
   0.51138104  0.53403236  0.16336111
   0.76007998  0.81267350  0.58882924
   0.08775169  0.43487223  0.69774135
   0.00801628  0.75839898  0.01927481
   0.49491592  0.23205883  0.51425180
   0.97242837  0.06461845  0.83651182
   0.00600368  0.79754522  0.33140950
   0.25532421  0.69630849  0.87768909
   0.24061121  0.31536554  0.39860107
   0.48347056  0.27685634  0.83825414
   0.50708426  0.93994249  0.42126188
   0.69095802  0.37664170  0.35489866
   0.81908027  0.55732382  0.94908134
Direct configuration=    25
   0.79057234  0.07495103  0.19458954
   0.23606900  0.11467478  0.99344662
   0.21784455  0.95890373  0.56133175
   0.51086954  0.53321665  0.15955456
   0.76196347  0.81326466  0.58796159
   0.08686175  0.43545978  0.69547337
   0.00794248  0.75843088  0.01941963
   0.49410633  0.23254541  0.51517473
   0.97141731  0.06499152  0.83768189
   0.00606731  0.79672171  0.33057037
   0.25522661  0.69542491  0.87870968
   0.24141422  0.31582537  0.39766410
   0.48296193  0.27599709  0.83777309
   0.50722627  0.94053070  0.42106182
   0.69151163  0.37650528  0.35484934
   0.81942059  0.55791974  0.94927025
Direct configuration=    26
   0.79182040  0.07511484  0.19567883
   0.23572794  0.11349669  0.99535691
   0.21904870  0.96040463  0.56119094
   0.51020061  0.53254306  0.15559012
   0.76384997  0.81380976  0.58720178
   0.08596618  0.43606258  0.69325710
   0.00790917  0.75848853  0.01944020
   0.49325901  0.23305262  0.51610087
   0.97040355  0.06529614  0.83885785
   0.00613172  0.79593305  0.32980264
   0.25509073  0.69455439  0.87975954
   0.24225167  0.31626680  0.39672218
   0.48246875  0.27512623  0.83727045
   0.50736962  0.94108052  0.42086576
   0.69208580  0.37635958  0.35485688
   0.81976274  0.55854393  0.94942308
Direct configuration=    27
   0.79304082  0.07529446  0.19670186
   0.23545429  0.11233715  0.99736393
   0.22020464  0.96187172  0.56107856
   0.50938917  0.53199608  0.15147819
   0.76573664  0.81431243  0.58654675
   0.08506234  0.43668240  0.69108827
   0.00791632  0.75857232  0.01933229
   0.49238004  0.23358044  0.51702052
   0.96938668  0.06553271  0.84004200
   0.00619891  0.79517905  0.32911207
   0.25491659  0.69369597  0.88083867
   0.24312214  0.31669196  0.39577343
   0.48198933  0.27424275  0.83675302
   0.50751515  0.94159398  0.42067412
   0.69267519  0.37620635  0.35491999
   0.82010558  0.55919477  0.94953942
Direct configuration=    28
   0.79423430  0.07549030  0.19766326
   0.23524560  0.11119435  0.99946894
   0.22131063  0.96330298  0.56099397
   0.50844974  0.53156101  0.14722989
   0.76762051  0.81477602  0.58599368
   0.08414765  0.43732081  0.68896255
   0.00796380  0.75868307  0.01909278
   0.49147562  0.23412836  0.51792332
   0.96836658  0.06570147  0.84123663
   0.00627079  0.79445956  0.32850325
   0.25470431  0.69284867  0.88194701
   0.24402396  0.31710294  0.39481592
   0.48152211  0.27334583  0.83622823
   0.50766359  0.94207314  0.42048742
   0.69327457  0.37604740  0.35503733
   0.82044786  0.55987062  0.94961871
Direct configuration=    29
   0.79540120  0.07570265  0.19856758
   0.23509954  0.11006663  0.00167330
   0.22236496  0.96469621  0.56093656
   0.50739619  0.53122399  0.14285650
   0.76949839  0.81520355  0.58554004
   0.08321952  0.43797925  0.68687561
   0.00805138  0.75882198  0.01871990
   0.49055205  0.23469540  0.51879835
   0.96734330  0.06580238  0.84244394
   0.00634918  0.79377447  0.32797965
   0.25445412  0.69201156  0.88308435
   0.24495531  0.31750193  0.39384775
   0.48106556  0.27243468  0.83570400
   0.50781561  0.94252001  0.42030635
   0.69387890  0.37588465  0.35520766
   0.82078833  0.56056985  0.94966017
Direct configuration=    30
   0.79654154  0.07593170  0.19941931
   0.23501395  0.10895243  0.00397847
   0.22336592  0.96604902  0.56090569
   0.50624172  0.53097228  0.13836931
   0.77136687  0.81559784  0.58518358
   0.08227544  0.43865899  0.68482308
   0.00817867  0.75899066  0.01821331
   0.48961591  0.23528014  0.51963439
   0.96631719  0.06583524  0.84366607
   0.00643584  0.79312371  0.32754339
   0.25416639  0.69118385  0.88425025
   0.24591403  0.31789114  0.39286717
   0.48061825  0.27150848  0.83518857
   0.50797176  0.94293655  0.42013172
   0.69448343  0.37572001  0.35542984
   0.82112561  0.56129080  0.94966282
Direct configuration=    31
   0.79765501  0.07617754  0.20022297
   0.23498675  0.10785032  0.00638592
   0.22431173  0.96735876  0.56090072
   0.50499894  0.53079437  0.13377986
   0.77322218  0.81596145  0.58492232
   0.08131296  0.43936121  0.68280061
   0.00834505  0.75919114  0.01757429
   0.48867388  0.23588071  0.52041997
   0.96528883  0.06579970  0.84490495
   0.00653244  0.79250726  0.32719531
   0.25384173  0.69036481  0.88544395
   0.24689770  0.31827287  0.39187241
   0.48017889  0.27056639  0.83469051
   0.50813251  0.94332463  0.41996446
   0.69508361  0.37555531  0.35570281
   0.82145831  0.56203177  0.94962552
Direct configuration=    32
   0.79874099  0.07644005  0.20098305
   0.23501598  0.10675897  0.00889710
   0.22520060  0.96862251  0.56092093
   0.50367997  0.53068025  0.12910029
   0.77506020  0.81629674  0.58475451
   0.08032974  0.44008692  0.68080381
   0.00854969  0.75942574  0.01680580
   0.48773293  0.23649475  0.52114330
   0.96425903  0.06569527  0.84616252
   0.00664055  0.79192517  0.32693485
   0.25348093  0.68955384  0.88666436
   0.24790361  0.31864947  0.39086175
   0.47974620  0.26960760  0.83421863
   0.50829824  0.94368618  0.41980553
   0.69567521  0.37539243  0.35602560
   0.82178484  0.56279098  0.94954695
Direct configuration=    33
   0.79979856  0.07671892  0.20170410
   0.23509982  0.10567714  0.01151327
   0.22603069  0.96983706  0.56096551
   0.50229652  0.53062128  0.12434335
   0.77687637  0.81660584  0.58467863
   0.07932359  0.44083702  0.67882835
   0.00879142  0.75969700  0.01591243
   0.48680031  0.23711956  0.52179256
   0.96322881  0.06552139  0.84744056
   0.00676170  0.79137754  0.32676010
   0.25308509  0.68875040  0.88790990
   0.24892863  0.31902334  0.38983357
   0.47931908  0.26863138  0.83378187
   0.50846919  0.94402302  0.41965600
   0.69625421  0.37523308  0.35639734
   0.82210361  0.56356659  0.94942574
Direct configuration=    34
   0.80082649  0.07701365  0.20239071
   0.23523653  0.10460369  0.01423545
   0.22680015  0.97099893  0.56103358
   0.50085988  0.53061019  0.11952232
   0.77866573  0.81689068  0.58469334
   0.07829247  0.44161231  0.67686989
   0.00906870  0.76000768  0.01490048
   0.48588357  0.23775203  0.52235628
   0.96219949  0.06527745  0.84874055
   0.00689737  0.79086454  0.32666787
   0.25265553  0.68795416  0.88917856
   0.24996926  0.31939696  0.38878623
   0.47889648  0.26763696  0.83338905
   0.50864555  0.94433689  0.41951695
   0.69681691  0.37507903  0.35681725
   0.82241292  0.56435661  0.94926035
Direct configuration=    35
   0.80182327  0.07732349  0.20304751
   0.23542449  0.10353760  0.01706422
   0.22750713  0.97210442  0.56112413
   0.49938090  0.53064094  0.11465087
   0.78042291  0.81715296  0.58479740
   0.07723455  0.44241344  0.67492416
   0.00937946  0.76036057  0.01377809
   0.48499050  0.23838880  0.52282358
   0.96117269  0.06496300  0.85006374
   0.00704891  0.79038636  0.32665378
   0.25219386  0.68716487  0.89046776
   0.25102152  0.31977280  0.38771822
   0.47847751  0.26662363  0.83304856
   0.50882740  0.94462948  0.41938949
   0.69735992  0.37493190  0.35728457
   0.82271107  0.56515905  0.94904925
Direct configuration=    36
   0.80278715  0.07764746  0.20367929
   0.23566227  0.10247796  0.01999961
   0.22814987  0.97314965  0.56123611
   0.49787011  0.53070850  0.10974305
   0.78214218  0.81739420  0.58498969
   0.07614823  0.44324097  0.67298704
   0.00972115  0.76075853  0.01255469
   0.48412920  0.23902623  0.52318452
   0.96015036  0.06457766  0.85141107
   0.00721762  0.78994325  0.32671233
   0.25170205  0.68638240  0.89177445
   0.25208089  0.32015348  0.38662809
   0.47806135  0.26559061  0.83276829
   0.50901475  0.94490235  0.41927481
   0.69788013  0.37479333  0.35779855
   0.82299634  0.56597180  0.94879091
Direct configuration=    37
   0.80371607  0.07798431  0.20429087
   0.23594856  0.10142403  0.02304098
   0.22872670  0.97413064  0.56136841
   0.49633789  0.53080870  0.10481310
   0.78381747  0.81761572  0.58526909
   0.07503208  0.44409534  0.67105449
   0.01009061  0.76120429  0.01124131
   0.48330791  0.23966049  0.52343031
   0.95913471  0.06412119  0.85278318
   0.00740473  0.78953545  0.32683709
   0.25118242  0.68560669  0.89309511
   0.25314252  0.32054171  0.38551433
   0.47764723  0.26453722  0.83255527
   0.50920750  0.94515696  0.41917404
   0.69837476  0.37466490  0.35835855
   0.82326703  0.56679273  0.94848381
Direct configuration=    38
   0.80460777  0.07833264  0.20488721
   0.23628228  0.10037522  0.02618699
   0.22923615  0.97504344  0.56151984
   0.49479475  0.53093798  0.09987537
   0.78544244  0.81781867  0.58563441
   0.07388498  0.44497687  0.66912261
   0.01048409  0.76170038  0.00985002
   0.48253507  0.24028764  0.52355385
   0.95812818  0.06359376  0.85418043
   0.00761136  0.78916326  0.32702089
   0.25063768  0.68483781  0.89442569
   0.25420104  0.32094025  0.38437573
   0.47723445  0.26346268  0.83241516
   0.50940541  0.94539460  0.41908820
   0.69884141  0.37454813  0.35896403
   0.82352143  0.56761959  0.94812651
Direct configuration=    39
   0.80545978  0.07869073  0.20547337
   0.23666257  0.09933100  0.02943556
   0.22967699  0.97588419  0.56168921
   0.49325155  0.53109317  0.09494462
   0.78701060  0.81800402  0.58608438
   0.07270606  0.44588573  0.66718774
   0.01089706  0.76224905  0.00839393
   0.48181917  0.24090361  0.52354982
   0.95713345  0.06299581  0.85560278
   0.00783851  0.78882707  0.32725611
   0.25007095  0.68407580  0.89576161
   0.25525067  0.32135196  0.38321116
   0.47682237  0.26236624  0.83235211
   0.50960817  0.94561646  0.41901832
   0.69927796  0.37444450  0.35961445
   0.82375800  0.56845034  0.94771771
Direct configuration=    40
   0.80626942  0.07905671  0.20605449
   0.23708880  0.09829088  0.03278395
   0.23004829  0.97664923  0.56187530
   0.49171945  0.53127153  0.09003599
   0.78851531  0.81817258  0.58661751
   0.07149470  0.44682195  0.66524641
   0.01132425  0.76285205  0.00688699
   0.48116864  0.24150435  0.52341503
   0.95615331  0.06232830  0.85704987
   0.00808705  0.78852731  0.32753473
   0.24948581  0.68332068  0.89709776
   0.25628537  0.32177974  0.38201950
   0.47641044  0.26124702  0.83236859
   0.50981539  0.94582362  0.41896536
   0.69968258  0.37435543  0.36030924
   0.82397533  0.56928295  0.94725623
Direct configuration=    41
   0.80703391  0.07942846  0.20663581
   0.23756059  0.09725430  0.03622878
   0.23034950  0.97733515  0.56207695
   0.49020973  0.53147062  0.08516483
   0.78994994  0.81832497  0.58723213
   0.07025055  0.44778540  0.66329546
   0.01175978  0.76351071  0.00534359
   0.48059184  0.24208581  0.52314859
   0.95519065  0.06159269  0.85852086
   0.00835775  0.78826441  0.32784868
   0.24888613  0.68257254  0.89842866
   0.25729889  0.32222657  0.38079977
   0.47599815  0.26010422  0.83246535
   0.51002660  0.94601698  0.41893016
   0.70005375  0.37428225  0.36104777
   0.82417211  0.57011545  0.94674101
Direct configuration=    42
   0.80775033  0.07980374  0.20722262
   0.23807774  0.09622058  0.03976610
   0.23058052  0.97793897  0.56229307
   0.48873372  0.53168851  0.08034621
   0.79130792  0.81846170  0.58792629
   0.06897350  0.44877583  0.66133201
   0.01219704  0.76422567  0.00377830
   0.48009681  0.24264396  0.52275198
   0.95424833  0.06079109  0.86001461
   0.00865123  0.78803879  0.32818993
   0.24827621  0.68183147  0.89974850
   0.25828492  0.32269527  0.37955120
   0.47558512  0.25893708  0.83264113
   0.51024128  0.94619732  0.41891343
   0.70039028  0.37422626  0.36182938
   0.82434725  0.57094594  0.94617123
Direct configuration=    43
   0.80841573  0.08018015  0.20782024
   0.23864019  0.09518880  0.04339150
   0.23074167  0.97845813  0.56252261
   0.48730288  0.53192363  0.07559488
   0.79258293  0.81858313  0.58869772
   0.06766363  0.44979286  0.65935346
   0.01262900  0.76499684  0.00220592
   0.47969122  0.24317481  0.52222903
   0.95332914  0.05992637  0.86152949
   0.00896798  0.78785093  0.32855070
   0.24766052  0.68109751  0.90105109
   0.25923724  0.32318874  0.37827322
   0.47517102  0.25774488  0.83289285
   0.51045882  0.94636522  0.41891575
   0.70069135  0.37418872  0.36265339
   0.82449986  0.57177269  0.94554608
Direct configuration=    44
   0.80902716  0.08055511  0.20843392
   0.23924806  0.09415783  0.04710017
   0.23083381  0.97889057  0.56276464
   0.48592893  0.53217484  0.07092533
   0.79376890  0.81868950  0.58954381
   0.06632126  0.45083599  0.65735746
   0.01304821  0.76582327  0.00064120
   0.47938214  0.24367449  0.52158569
   0.95243581  0.05900219  0.86306341
   0.00930827  0.78770125  0.32892351
   0.24704371  0.68037061  0.90233007
   0.26014975  0.32370963  0.37696558
   0.47475559  0.25652705  0.83321558
   0.51067862  0.94652110  0.41893752
   0.70095651  0.37417084  0.36351904
   0.82462915  0.57259410  0.94486512
Direct configuration=    45
   0.80958165  0.08092598  0.20906887
   0.23990156  0.09312629  0.05088674
   0.23085831  0.97923480  0.56301837
   0.48462405  0.53244129  0.06635189
   0.79486020  0.81878095  0.59046162
   0.06494688  0.45190465  0.65534195
   0.01344705  0.76670314  0.99909861
   0.47917592  0.24413925  0.52083004
   0.95157083  0.05802312  0.86461373
   0.00967221  0.78759016  0.32930135
   0.24643054  0.67965073  0.90357896
   0.26101673  0.32426042  0.37562836
   0.47433857  0.25528319  0.83360278
   0.51090002  0.94666523  0.41897894
   0.70118561  0.37417368  0.36442550
   0.82473456  0.57340873  0.94412791
Direct configuration=    46
   0.81007634  0.08129008  0.20973021
   0.24060096  0.09209268  0.05474527
   0.23081707  0.97948997  0.56328317
   0.48340072  0.53272227  0.06188854
   0.79585167  0.81885754  0.59144784
   0.06354111  0.45299824  0.65330509
   0.01381780  0.76763360  0.99759217
   0.47907803  0.24456555  0.51997178
   0.95073646  0.05699460  0.86617738
   0.01005970  0.78751794  0.32967778
   0.24582567  0.67893773  0.90479136
   0.26183301  0.32484336  0.37426198
   0.47391980  0.25401307  0.83404643
   0.51112233  0.94679776  0.41904002
   0.70137884  0.37419831  0.36537189
   0.82481565  0.57421527  0.94333430
Direct configuration=    47
   0.81050846  0.08164470  0.21042291
   0.24134660  0.09105528  0.05866907
   0.23071253  0.97965584  0.56355864
   0.48227151  0.53301707  0.05754838
   0.79673873  0.81891927  0.59249884
   0.06210475  0.45411618  0.65124523
   0.01415303  0.76861073  0.99613541
   0.47909271  0.24495018  0.51902209
   0.94993467  0.05592308  0.86775088
   0.01047048  0.78748485  0.33004701
   0.24523356  0.67823142  0.90596112
   0.26259409  0.32546046  0.37286717
   0.47349917  0.25271656  0.83453733