  14  14   0   0
  0.2202334E+02  0.7069572E-09  0.7018963E-09  0.7042078E-09  0.5000000E-15
   1.0000000000000000E-004
  CAR 
 unknown system                          
     16.19227980    -23.49056257  301      1.39388650      1.00000000
    -23.491  0.0000E+00  0.0000E+00
    -23.358  0.0000E+00  0.0000E+00
    -23.226  0.0000E+00  0.0000E+00
    -23.094  0.0000E+00  0.0000E+00
    -22.961  0.0000E+00  0.0000E+00
    -22.829  0.0000E+00  0.0000E+00
    -22.697  0.0000E+00  0.0000E+00
    -22.565  0.0000E+00  0.0000E+00
    -22.432  0.0000E+00  0.0000E+00
    -22.300  0.0000E+00  0.0000E+00
    -22.168  0.0000E+00  0.0000E+00
    -22.036  0.0000E+00  0.0000E+00
    -21.903  0.1051E-09  0.1391E-10
    -21.771  0.3210E-02  0.4246E-03
    -21.639  0.9939E+00  0.1319E+00
    -21.506  0.8167E+00  0.2399E+00
    -21.374  0.5689E-03  0.2400E+00
    -21.242  0.2027E-11  0.2400E+00
    -21.110  0.0000E+00  0.2400E+00
    -20.977  0.0000E+00  0.2400E+00
    -20.845  0.0000E+00  0.2400E+00
    -20.713  0.0000E+00  0.2400E+00
    -20.580  0.0000E+00  0.2400E+00
    -20.448  0.0000E+00  0.2400E+00
    -20.316  0.0000E+00  0.2400E+00
    -20.184  0.0000E+00  0.2400E+00
    -20.051  0.0000E+00  0.2400E+00
    -19.919  0.0000E+00  0.2400E+00
    -19.787  0.0000E+00  0.2400E+00
    -19.655  0.0000E+00  0.2400E+00
    -19.522  0.0000E+00  0.2400E+00
    -19.390  0.0000E+00  0.2400E+00
    -19.258  0.0000E+00  0.2400E+00
    -19.125  0.0000E+00  0.2400E+00
    -18.993  0.0000E+00  0.2400E+00
    -18.861  0.0000E+00  0.2400E+00
    -18.729  0.0000E+00  0.2400E+00
    -18.596  0.0000E+00  0.2400E+00
    -18.464  0.0000E+00  0.2400E+00
    -18.332  0.0000E+00  0.2400E+00
    -18.200  0.0000E+00  0.2400E+00
    -18.067  0.0000E+00  0.2400E+00
    -17.935  0.0000E+00  0.2400E+00
    -17.803  0.0000E+00  0.2400E+00
    -17.670  0.0000E+00  0.2400E+00
    -17.538  0.0000E+00  0.2400E+00
    -17.406  0.0000E+00  0.2400E+00
    -17.274  0.0000E+00  0.2400E+00
    -17.141  0.0000E+00  0.2400E+00
    -17.009  0.0000E+00  0.2400E+00
    -16.877  0.0000E+00  0.2400E+00
    -16.744  0.0000E+00  0.2400E+00
    -16.612  0.0000E+00  0.2400E+00
    -16.480  0.0000E+00  0.2400E+00
    -16.348  0.0000E+00  0.2400E+00
    -16.215  0.0000E+00  0.2400E+00
    -16.083  0.0000E+00  0.2400E+00
    -15.951  0.0000E+00  0.2400E+00
    -15.819  0.0000E+00  0.2400E+00
    -15.686  0.0000E+00  0.2400E+00
    -15.554  0.0000E+00  0.2400E+00
    -15.422  0.0000E+00  0.2400E+00
    -15.289  0.0000E+00  0.2400E+00
    -15.157  0.0000E+00  0.2400E+00
    -15.025  0.0000E+00  0.2400E+00
    -14.893  0.0000E+00  0.2400E+00
    -14.760  0.0000E+00  0.2400E+00
    -14.628  0.0000E+00  0.2400E+00
    -14.496  0.0000E+00  0.2400E+00
    -14.364  0.0000E+00  0.2400E+00
    -14.231  0.0000E+00  0.2400E+00
    -14.099  0.0000E+00  0.2400E+00
    -13.967  0.0000E+00  0.2400E+00
    -13.834  0.0000E+00  0.2400E+00
    -13.702  0.0000E+00  0.2400E+00
    -13.570  0.0000E+00  0.2400E+00
    -13.438  0.0000E+00  0.2400E+00
    -13.305  0.0000E+00  0.2400E+00
    -13.173  0.0000E+00  0.2400E+00
    -13.041  0.0000E+00  0.2400E+00
    -12.908  0.0000E+00  0.2400E+00
    -12.776  0.0000E+00  0.2400E+00
    -12.644  0.0000E+00  0.2400E+00
    -12.512  0.0000E+00  0.2400E+00
    -12.379  0.0000E+00  0.2400E+00
    -12.247  0.0000E+00  0.2400E+00
    -12.115  0.0000E+00  0.2400E+00
    -11.983  0.0000E+00  0.2400E+00
    -11.850  0.0000E+00  0.2400E+00
    -11.718  0.0000E+00  0.2400E+00
    -11.586  0.0000E+00  0.2400E+00
    -11.453  0.0000E+00  0.2400E+00
    -11.321  0.6013E-14  0.2400E+00
    -11.189  0.2874E-05  0.2400E+00
    -11.057  0.3909E-02  0.2405E+00
    -10.924  0.3320E-01  0.2449E+00
    -10.792  0.8766E-01  0.2565E+00
    -10.660  0.7354E-01  0.2662E+00
    -10.528  0.8682E-01  0.2777E+00
    -10.395  0.1422E-01  0.2796E+00
    -10.263  0.1606E+00  0.3008E+00
    -10.131  0.1445E+00  0.3200E+00
     -9.998  0.7154E-02  0.3209E+00
     -9.866  0.2369E+00  0.3522E+00
     -9.734  0.5865E-01  0.3600E+00
     -9.602  0.1218E-04  0.3600E+00
     -9.469  0.1758E-13  0.3600E+00
     -9.337  0.0000E+00  0.3600E+00
     -9.205  0.0000E+00  0.3600E+00
     -9.072  0.0000E+00  0.3600E+00
     -8.940  0.0000E+00  0.3600E+00
     -8.808  0.0000E+00  0.3600E+00
     -8.676  0.0000E+00  0.3600E+00
     -8.543  0.0000E+00  0.3600E+00
     -8.411  0.0000E+00  0.3600E+00
     -8.279  0.0000E+00  0.3600E+00
     -8.147  0.0000E+00  0.3600E+00
     -8.014  0.0000E+00  0.3600E+00
     -7.882  0.0000E+00  0.3600E+00
     -7.750  0.0000E+00  0.3600E+00
     -7.617  0.0000E+00  0.3600E+00
     -7.485  0.0000E+00  0.3600E+00
     -7.353  0.0000E+00  0.3600E+00
     -7.221  0.0000E+00  0.3600E+00
     -7.088  0.0000E+00  0.3600E+00
     -6.956  0.0000E+00  0.3600E+00
     -6.824  0.0000E+00  0.3600E+00
     -6.691  0.0000E+00  0.3600E+00
     -6.559  0.0000E+00  0.3600E+00
     -6.427  0.0000E+00  0.3600E+00
     -6.295  0.0000E+00  0.3600E+00
     -6.162  0.0000E+00  0.3600E+00
     -6.030  0.0000E+00  0.3600E+00
     -5.898  0.0000E+00  0.3600E+00
     -5.766  0.0000E+00  0.3600E+00
     -5.633  0.0000E+00  0.3600E+00
     -5.501  0.0000E+00  0.3600E+00
     -5.369  0.1306E-13  0.3600E+00
     -5.236  0.6831E-05  0.3600E+00
     -5.104  0.2065E-01  0.3627E+00
     -4.972  0.2227E+00  0.3922E+00
     -4.840  0.4878E+00  0.4567E+00
     -4.707  0.5248E+00  0.5261E+00
     -4.575  0.7799E+00  0.6293E+00
     -4.443  0.6734E+00  0.7184E+00
     -4.311  0.2987E+00  0.7579E+00
     -4.178  0.1614E-01  0.7600E+00
     -4.046  0.2121E-06  0.7600E+00
     -3.914  0.1865E-17  0.7600E+00
     -3.781  0.7607E-07  0.7600E+00
     -3.649  0.4819E-02  0.7606E+00
     -3.517  0.2128E-01  0.7635E+00
     -3.385  0.6116E-01  0.7715E+00
     -3.252  0.7134E-01  0.7810E+00
     -3.120  0.4527E-01  0.7870E+00
     -2.988  0.2843E-01  0.7907E+00
     -2.855  0.3111E-01  0.7948E+00
     -2.723  0.2441E-01  0.7981E+00
     -2.591  0.2004E-01  0.8007E+00
     -2.459  0.2460E-01  0.8040E+00
     -2.326  0.4761E-01  0.8103E+00
     -2.194  0.6643E-01  0.8191E+00
     -2.062  0.5744E-01  0.8267E+00
     -1.930  0.3934E-01  0.8319E+00
     -1.797  0.1640E-01  0.8340E+00
     -1.665  0.7312E-01  0.8437E+00
     -1.533  0.2248E-01  0.8467E+00
     -1.400  0.4315E-01  0.8524E+00
     -1.268  0.8340E-01  0.8634E+00
     -1.136  0.9463E-01  0.8759E+00
     -1.004  0.7205E-01  0.8855E+00
     -0.871  0.4765E-01  0.8918E+00
     -0.739  0.1463E+00  0.9111E+00
     -0.607  0.8331E-01  0.9221E+00
     -0.475  0.1300E+00  0.9393E+00
     -0.342  0.6134E-01  0.9475E+00
     -0.210  0.3196E-01  0.9517E+00
     -0.078  0.1402E+00  0.9702E+00
      0.055  0.1741E+00  0.9933E+00
      0.187  0.1311E+00  0.1011E+01
      0.319  0.1330E+00  0.1028E+01
      0.451  0.1164E+00  0.1044E+01
      0.584  0.1211E+00  0.1060E+01
      0.716  0.1716E+00  0.1082E+01
      0.848  0.1727E+00  0.1105E+01
      0.981  0.9586E-01  0.1118E+01
      1.113  0.7764E-02  0.1119E+01
      1.245  0.8564E-02  0.1120E+01
      1.377  0.4339E-04  0.1120E+01
      1.510  0.1821E-11  0.1120E+01
      1.642  0.0000E+00  0.1120E+01
      1.774  0.0000E+00  0.1120E+01
      1.906  0.0000E+00  0.1120E+01
      2.039  0.0000E+00  0.1120E+01
      2.171  0.0000E+00  0.1120E+01
      2.303  0.0000E+00  0.1120E+01
      2.436  0.0000E+00  0.1120E+01
      2.568  0.0000E+00  0.1120E+01
      2.700  0.0000E+00  0.1120E+01
      2.832  0.0000E+00  0.1120E+01
      2.965  0.6094E-13  0.1120E+01
      3.097  0.8831E-05  0.1120E+01
      3.229  0.4387E-02  0.1121E+01
      3.361  0.1204E-02  0.1121E+01
      3.494  0.1649E-07  0.1121E+01
      3.626  0.0000E+00  0.1121E+01
      3.758  0.0000E+00  0.1121E+01
      3.891  0.0000E+00  0.1121E+01
      4.023  0.3866E-08  0.1121E+01
      4.155  0.1282E-02  0.1121E+01
      4.287  0.1969E-01  0.1124E+01
      4.420  0.3881E-01  0.1129E+01
      4.552  0.6576E-01  0.1137E+01
      4.684  0.6016E-01  0.1145E+01
      4.817  0.3412E-01  0.1150E+01
      4.949  0.5497E-01  0.1157E+01
      5.081  0.4461E-01  0.1163E+01
      5.213  0.3271E-01  0.1167E+01
      5.346  0.7223E-01  0.1177E+01
      5.478  0.5478E-01  0.1184E+01
      5.610  0.9178E-01  0.1196E+01
      5.742  0.9187E-01  0.1208E+01
      5.875  0.2999E-01  0.1212E+01
      6.007  0.8362E-01  0.1223E+01
      6.139  0.9804E-01  0.1236E+01
      6.272  0.8956E-01  0.1248E+01
      6.404  0.9934E-01  0.1261E+01
      6.536  0.4147E-01  0.1267E+01
      6.668  0.5060E-01  0.1274E+01
      6.801  0.6677E-01  0.1282E+01
      6.933  0.7692E-01  0.1293E+01
      7.065  0.1102E+00  0.1307E+01
      7.198  0.8183E-01  0.1318E+01
      7.330  0.6797E-01  0.1327E+01
      7.462  0.1096E+00  0.1341E+01
      7.594  0.1153E+00  0.1357E+01
      7.727  0.3057E-01  0.1361E+01
      7.859  0.7931E-01  0.1371E+01
      7.991  0.1169E+00  0.1387E+01
      8.123  0.8460E-01  0.1398E+01
      8.256  0.1083E+00  0.1412E+01
      8.388  0.1257E+00  0.1429E+01
      8.520  0.6942E-01  0.1438E+01
      8.653  0.8552E-01  0.1449E+01
      8.785  0.6687E-01  0.1458E+01
      8.917  0.1067E+00  0.1472E+01
      9.049  0.7471E-01  0.1482E+01
      9.182  0.9200E-01  0.1494E+01
      9.314  0.4450E-01  0.1500E+01
      9.446  0.7392E-01  0.1510E+01
      9.578  0.1259E+00  0.1527E+01
      9.711  0.6872E-01  0.1536E+01
      9.843  0.6905E-01  0.1545E+01
      9.975  0.8217E-01  0.1556E+01
     10.108  0.8630E-01  0.1567E+01
     10.240  0.6133E-01  0.1575E+01
     10.372  0.1022E+00  0.1589E+01
     10.504  0.7130E-01  0.1598E+01
     10.637  0.8207E-01  0.1609E+01
     10.769  0.7477E-01  0.1619E+01
     10.901  0.9886E-01  0.1632E+01
     11.034  0.4773E-01  0.1638E+01
     11.166  0.8082E-01  0.1649E+01
     11.298  0.5401E-01  0.1656E+01
     11.430  0.1129E+00  0.1671E+01
     11.563  0.9984E-01  0.1684E+01
     11.695  0.1372E+00  0.1703E+01
     11.827  0.5803E-01  0.1710E+01
     11.959  0.5325E-01  0.1717E+01
     12.092  0.9403E-01  0.1730E+01
     12.224  0.9639E-01  0.1742E+01
     12.356  0.8360E-01  0.1753E+01
     12.489  0.6838E-01  0.1763E+01
     12.621  0.9562E-01  0.1775E+01
     12.753  0.8040E-01  0.1786E+01
     12.885  0.7917E-01  0.1796E+01
     13.018  0.1411E+00  0.1815E+01
     13.150  0.1371E+00  0.1833E+01
     13.282  0.7667E-01  0.1843E+01
     13.414  0.7004E-01  0.1852E+01
     13.547  0.1102E+00  0.1867E+01
     13.679  0.9631E-01  0.1880E+01
     13.811  0.1090E+00  0.1894E+01
     13.944  0.6771E-01  0.1903E+01
     14.076  0.6546E-01  0.1912E+01
     14.208  0.2385E-01  0.1915E+01
     14.340  0.1477E-01  0.1917E+01
     14.473  0.2292E-01  0.1920E+01
     14.605  0.1935E-03  0.1920E+01
     14.737  0.1034E-10  0.1920E+01
     14.870  0.0000E+00  0.1920E+01
     15.002  0.0000E+00  0.1920E+01
     15.134  0.0000E+00  0.1920E+01
     15.266  0.0000E+00  0.1920E+01
     15.399  0.0000E+00  0.1920E+01
     15.531  0.0000E+00  0.1920E+01
     15.663  0.0000E+00  0.1920E+01
     15.795  0.0000E+00  0.1920E+01
     15.928  0.0000E+00  0.1920E+01
     16.060  0.0000E+00  0.1920E+01
     16.192  0.0000E+00  0.1920E+01
