       N       E                     dE             d eps       ncg     rms          rms(c)
DAV:   1     0.757176781615E+03    0.75718E+03   -0.45922E+04  1920   0.111E+03
DAV:   2     0.168375154230E+02   -0.74034E+03   -0.70196E+03  2016   0.297E+02
DAV:   3    -0.492779493255E+02   -0.66115E+02   -0.65586E+02  2560   0.906E+01
DAV:   4    -0.505944292469E+02   -0.13165E+01   -0.13160E+01  2080   0.136E+01
DAV:   5    -0.506206383362E+02   -0.26209E-01   -0.26208E-01  2560   0.185E+00    0.141E+01
DAV:   6    -0.471493551726E+02    0.34713E+01   -0.60187E+00  3008   0.310E+01    0.116E+01
DAV:   7    -0.470281803153E+02    0.12117E+00   -0.32151E+00  2528   0.506E+00    0.606E+00
DAV:   8    -0.470375562290E+02   -0.93759E-02   -0.93068E-02  2368   0.963E-01    0.177E+00
DAV:   9    -0.470451109677E+02   -0.75547E-02   -0.13225E-02  2560   0.356E-01    0.445E-01
DAV:  10    -0.470460712800E+02   -0.96031E-03   -0.12065E-03  2304   0.112E-01    0.174E-01
DAV:  11    -0.470478308185E+02   -0.17595E-02   -0.21184E-03  2432   0.128E-01    0.528E-02
DAV:  12    -0.470478807594E+02   -0.49941E-04   -0.14512E-04  2368   0.809E-02    0.398E-02
DAV:  13    -0.470478924062E+02   -0.11647E-04   -0.16355E-05  2144   0.194E-02    0.157E-02
DAV:  14    -0.470478969601E+02   -0.45540E-05   -0.71878E-06  2112   0.811E-03
   1 F= -.47047897E+02 E0= -.47047897E+02  d E =-.470479E+02
