   3   3   0   0
  0.3417989E+02  0.5248115E-09  0.7007952E-09  0.4162294E-09  0.5000000E-15
   1.0000000000000000E-004
  CAR 
 unknown system                          
     17.19047907    -27.03861835  301      0.11191844      1.00000000
    -27.039  0.0000E+00  0.0000E+00
    -26.891  0.0000E+00  0.0000E+00
    -26.744  0.0000E+00  0.0000E+00
    -26.596  0.0000E+00  0.0000E+00
    -26.449  0.0000E+00  0.0000E+00
    -26.301  0.0000E+00  0.0000E+00
    -26.154  0.0000E+00  0.0000E+00
    -26.007  0.0000E+00  0.0000E+00
    -25.859  0.0000E+00  0.0000E+00
    -25.712  0.0000E+00  0.0000E+00
    -25.564  0.0000E+00  0.0000E+00
    -25.417  0.0000E+00  0.0000E+00
    -25.269  0.6215E-12  0.9162E-13
    -25.122  0.7433E-03  0.1096E-03
    -24.975  0.2512E+00  0.3714E-01
    -24.827  0.1536E+00  0.5979E-01
    -24.680  0.1411E-02  0.6000E-01
    -24.532  0.6236E-11  0.6000E-01
    -24.385  0.0000E+00  0.6000E-01
    -24.237  0.0000E+00  0.6000E-01
    -24.090  0.0000E+00  0.6000E-01
    -23.943  0.0000E+00  0.6000E-01
    -23.795  0.0000E+00  0.6000E-01
    -23.648  0.0000E+00  0.6000E-01
    -23.500  0.0000E+00  0.6000E-01
    -23.353  0.0000E+00  0.6000E-01
    -23.205  0.0000E+00  0.6000E-01
    -23.058  0.0000E+00  0.6000E-01
    -22.911  0.0000E+00  0.6000E-01
    -22.763  0.0000E+00  0.6000E-01
    -22.616  0.0000E+00  0.6000E-01
    -22.468  0.0000E+00  0.6000E-01
    -22.321  0.0000E+00  0.6000E-01
    -22.173  0.0000E+00  0.6000E-01
    -22.026  0.0000E+00  0.6000E-01
    -21.879  0.0000E+00  0.6000E-01
    -21.731  0.0000E+00  0.6000E-01
    -21.584  0.0000E+00  0.6000E-01
    -21.436  0.0000E+00  0.6000E-01
    -21.289  0.0000E+00  0.6000E-01
    -21.141  0.0000E+00  0.6000E-01
    -20.994  0.0000E+00  0.6000E-01
    -20.847  0.0000E+00  0.6000E-01
    -20.699  0.0000E+00  0.6000E-01
    -20.552  0.0000E+00  0.6000E-01
    -20.404  0.0000E+00  0.6000E-01
    -20.257  0.0000E+00  0.6000E-01
    -20.109  0.0000E+00  0.6000E-01
    -19.962  0.0000E+00  0.6000E-01
    -19.815  0.0000E+00  0.6000E-01
    -19.667  0.0000E+00  0.6000E-01
    -19.520  0.0000E+00  0.6000E-01
    -19.372  0.0000E+00  0.6000E-01
    -19.225  0.0000E+00  0.6000E-01
    -19.077  0.0000E+00  0.6000E-01
    -18.930  0.0000E+00  0.6000E-01
    -18.783  0.0000E+00  0.6000E-01
    -18.635  0.0000E+00  0.6000E-01
    -18.488  0.0000E+00  0.6000E-01
    -18.340  0.0000E+00  0.6000E-01
    -18.193  0.0000E+00  0.6000E-01
    -18.045  0.0000E+00  0.6000E-01
    -17.898  0.0000E+00  0.6000E-01
    -17.751  0.0000E+00  0.6000E-01
    -17.603  0.0000E+00  0.6000E-01
    -17.456  0.0000E+00  0.6000E-01
    -17.308  0.0000E+00  0.6000E-01
    -17.161  0.0000E+00  0.6000E-01
    -17.013  0.0000E+00  0.6000E-01
    -16.866  0.0000E+00  0.6000E-01
    -16.718  0.0000E+00  0.6000E-01
    -16.571  0.0000E+00  0.6000E-01
    -16.424  0.0000E+00  0.6000E-01
    -16.276  0.0000E+00  0.6000E-01
    -16.129  0.0000E+00  0.6000E-01
    -15.981  0.0000E+00  0.6000E-01
    -15.834  0.0000E+00  0.6000E-01
    -15.686  0.0000E+00  0.6000E-01
    -15.539  0.0000E+00  0.6000E-01
    -15.392  0.0000E+00  0.6000E-01
    -15.244  0.0000E+00  0.6000E-01
    -15.097  0.0000E+00  0.6000E-01
    -14.949  0.0000E+00  0.6000E-01
    -14.802  0.0000E+00  0.6000E-01
    -14.654  0.0000E+00  0.6000E-01
    -14.507  0.0000E+00  0.6000E-01
    -14.360  0.0000E+00  0.6000E-01
    -14.212  0.0000E+00  0.6000E-01
    -14.065  0.0000E+00  0.6000E-01
    -13.917  0.0000E+00  0.6000E-01
    -13.770  0.0000E+00  0.6000E-01
    -13.622  0.0000E+00  0.6000E-01
    -13.475  0.0000E+00  0.6000E-01
    -13.328  0.0000E+00  0.6000E-01
    -13.180  0.0000E+00  0.6000E-01
    -13.033  0.2667E-08  0.6000E-01
    -12.885  0.2021E-02  0.6030E-01
    -12.738  0.4773E-01  0.6733E-01
    -12.590  0.4432E-01  0.7387E-01
    -12.443  0.4144E-01  0.7998E-01
    -12.296  0.1467E-03  0.8000E-01
    -12.148  0.4157E-12  0.8000E-01
    -12.001  0.0000E+00  0.8000E-01
    -11.853  0.0000E+00  0.8000E-01
    -11.706  0.0000E+00  0.8000E-01
    -11.558  0.0000E+00  0.8000E-01
    -11.411  0.0000E+00  0.8000E-01
    -11.264  0.0000E+00  0.8000E-01
    -11.116  0.0000E+00  0.8000E-01
    -10.969  0.0000E+00  0.8000E-01
    -10.821  0.0000E+00  0.8000E-01
    -10.674  0.0000E+00  0.8000E-01
    -10.526  0.0000E+00  0.8000E-01
    -10.379  0.0000E+00  0.8000E-01
    -10.232  0.0000E+00  0.8000E-01
    -10.084  0.0000E+00  0.8000E-01
     -9.937  0.0000E+00  0.8000E-01
     -9.789  0.0000E+00  0.8000E-01
     -9.642  0.0000E+00  0.8000E-01
     -9.494  0.0000E+00  0.8000E-01
     -9.347  0.0000E+00  0.8000E-01
     -9.200  0.0000E+00  0.8000E-01
     -9.052  0.0000E+00  0.8000E-01
     -8.905  0.0000E+00  0.8000E-01
     -8.757  0.0000E+00  0.8000E-01
     -8.610  0.0000E+00  0.8000E-01
     -8.462  0.0000E+00  0.8000E-01
     -8.315  0.0000E+00  0.8000E-01
     -8.168  0.0000E+00  0.8000E-01
     -8.020  0.3673E-13  0.8000E-01
     -7.873  0.3658E-04  0.8001E-01
     -7.725  0.2006E-01  0.8296E-01
     -7.578  0.2373E-01  0.8646E-01
     -7.430  0.1669E-01  0.8892E-01
     -7.283  0.4663E-01  0.9580E-01
     -7.136  0.5021E+00  0.1698E+00
     -6.988  0.6341E-01  0.1792E+00
     -6.841  0.5665E-02  0.1800E+00
     -6.693  0.2660E-07  0.1800E+00
     -6.546  0.0000E+00  0.1800E+00
     -6.398  0.0000E+00  0.1800E+00
     -6.251  0.0000E+00  0.1800E+00
     -6.104  0.0000E+00  0.1800E+00
     -5.956  0.0000E+00  0.1800E+00
     -5.809  0.0000E+00  0.1800E+00
     -5.661  0.1076E-18  0.1800E+00
     -5.514  0.2551E-07  0.1800E+00
     -5.366  0.1277E-02  0.1802E+00
     -5.219  0.1490E-01  0.1824E+00
     -5.071  0.2721E-01  0.1864E+00
     -4.924  0.2355E-01  0.1899E+00
     -4.777  0.8692E-02  0.1911E+00
     -4.629  0.1095E-01  0.1928E+00
     -4.482  0.3970E-02  0.1933E+00
     -4.334  0.1099E-01  0.1950E+00
     -4.187  0.9734E-02  0.1964E+00
     -4.039  0.1109E-01  0.1980E+00
     -3.892  0.1305E-01  0.2000E+00
     -3.745  0.2472E-03  0.2000E+00
     -3.597  0.2471E-02  0.2004E+00
     -3.450  0.1740E-01  0.2029E+00
     -3.302  0.9646E-02  0.2044E+00
     -3.155  0.1500E-01  0.2066E+00
     -3.007  0.3473E-01  0.2117E+00
     -2.860  0.2279E-01  0.2150E+00
     -2.713  0.2791E-01  0.2192E+00
     -2.565  0.2568E-01  0.2229E+00
     -2.418  0.2222E-01  0.2262E+00
     -2.270  0.1976E-01  0.2291E+00
     -2.123  0.3237E-01  0.2339E+00
     -1.975  0.2149E-01  0.2371E+00
     -1.828  0.1819E-01  0.2398E+00
     -1.681  0.1047E-01  0.2413E+00
     -1.533  0.4879E-02  0.2420E+00
     -1.386  0.5475E-02  0.2428E+00
     -1.238  0.1252E-02  0.2430E+00
     -1.091  0.4438E-02  0.2437E+00
     -0.943  0.4464E-02  0.2443E+00
     -0.796  0.4553E-02  0.2450E+00
     -0.649  0.4147E-02  0.2456E+00
     -0.501  0.5479E-02  0.2464E+00
     -0.354  0.9541E-02  0.2478E+00
     -0.206  0.3964E-02  0.2484E+00
     -0.059  0.7831E-02  0.2496E+00
      0.089  0.2380E-02  0.2499E+00
      0.236  0.3563E-02  0.2504E+00
      0.383  0.7184E-02  0.2515E+00
      0.531  0.9319E-02  0.2529E+00
      0.678  0.9270E-02  0.2542E+00
      0.826  0.1085E-01  0.2558E+00
      0.973  0.1159E-01  0.2575E+00
      1.121  0.7223E-02  0.2586E+00
      1.268  0.1046E-01  0.2601E+00
      1.415  0.1098E-01  0.2618E+00
      1.563  0.8560E-02  0.2630E+00
      1.710  0.1556E-01  0.2653E+00
      1.858  0.4144E-01  0.2714E+00
      2.005  0.2183E-01  0.2747E+00
      2.153  0.1466E-01  0.2768E+00
      2.300  0.3807E-01  0.2824E+00
      2.447  0.9734E-02  0.2839E+00
      2.595  0.1017E-01  0.2854E+00
      2.742  0.1464E-01  0.2875E+00
      2.890  0.3087E-01  0.2921E+00
      3.037  0.3000E-01  0.2965E+00
      3.185  0.2582E-01  0.3003E+00
      3.332  0.2879E-01  0.3045E+00
      3.479  0.2206E-01  0.3078E+00
      3.627  0.2486E-01  0.3115E+00
      3.774  0.1743E-01  0.3140E+00
      3.922  0.7947E-02  0.3152E+00
      4.069  0.5328E-02  0.3160E+00
      4.217  0.1174E-01  0.3177E+00
      4.364  0.1491E-01  0.3199E+00
      4.511  0.1450E-01  0.3221E+00
      4.659  0.1631E-01  0.3245E+00
      4.806  0.1683E-01  0.3269E+00
      4.954  0.1218E-01  0.3287E+00
      5.101  0.2597E-01  0.3326E+00
      5.249  0.1906E-01  0.3354E+00
      5.396  0.3230E-01  0.3401E+00
      5.543  0.2850E-01  0.3443E+00
      5.691  0.3782E-01  0.3499E+00
      5.838  0.1473E-01  0.3521E+00
      5.986  0.2831E-01  0.3563E+00
      6.133  0.1780E-01  0.3589E+00
      6.281  0.4369E-01  0.3653E+00
      6.428  0.2417E-01  0.3689E+00
      6.575  0.2516E-01  0.3726E+00
      6.723  0.2479E-01  0.3763E+00
      6.870  0.1713E-01  0.3788E+00
      7.018  0.4792E-01  0.3858E+00
      7.165  0.3666E-01  0.3912E+00
      7.313  0.2416E-01  0.3948E+00
      7.460  0.2424E-01  0.3984E+00
      7.608  0.1613E-01  0.4008E+00
      7.755  0.2218E-01  0.4040E+00
      7.902  0.2344E-01  0.4075E+00
      8.050  0.1497E-01  0.4097E+00
      8.197  0.3786E-01  0.4153E+00
      8.345  0.3711E-01  0.4207E+00
      8.492  0.4195E-01  0.4269E+00
      8.640  0.3330E-01  0.4318E+00
      8.787  0.2869E-01  0.4361E+00
      8.934  0.3945E-01  0.4419E+00
      9.082  0.2933E-01  0.4462E+00
      9.229  0.3648E-01  0.4516E+00
      9.377  0.3358E-01  0.4565E+00
      9.524  0.3411E-01  0.4616E+00
      9.672  0.3347E-01  0.4665E+00
      9.819  0.3073E-01  0.4710E+00
      9.966  0.3879E-01  0.4768E+00
     10.114  0.2465E-01  0.4804E+00
     10.261  0.2640E-01  0.4843E+00
     10.409  0.3797E-01  0.4899E+00
     10.556  0.2605E-01  0.4937E+00
     10.704  0.3052E-01  0.4982E+00
     10.851  0.3236E-01  0.5030E+00
     10.998  0.3835E-01  0.5086E+00
     11.146  0.2764E-01  0.5127E+00
     11.293  0.4000E-01  0.5186E+00
     11.441  0.2924E-01  0.5229E+00
     11.588  0.4092E-01  0.5290E+00
     11.736  0.3466E-01  0.5341E+00
     11.883  0.3822E-01  0.5397E+00
     12.030  0.3042E-01  0.5442E+00
     12.178  0.2915E-01  0.5485E+00
     12.325  0.3511E-01  0.5537E+00
     12.473  0.2955E-01  0.5580E+00
     12.620  0.2934E-01  0.5623E+00
     12.768  0.3299E-01  0.5672E+00
     12.915  0.5142E-01  0.5748E+00
     13.062  0.2757E-01  0.5789E+00
     13.210  0.2707E-01  0.5828E+00
     13.357  0.3751E-01  0.5884E+00
     13.505  0.2438E-01  0.5920E+00
     13.652  0.4177E-01  0.5981E+00
     13.800  0.3569E-01  0.6034E+00
     13.947  0.2468E-01  0.6070E+00
     14.094  0.4699E-01  0.6140E+00
     14.242  0.3717E-01  0.6194E+00
     14.389  0.3403E-01  0.6245E+00
     14.537  0.3725E-01  0.6299E+00
     14.684  0.2096E-01  0.6330E+00
     14.832  0.2004E-01  0.6360E+00
     14.979  0.1090E-01  0.6376E+00
     15.126  0.1175E-01  0.6393E+00
     15.274  0.4541E-02  0.6400E+00
     15.421  0.8095E-05  0.6400E+00
     15.569  0.8605E-14  0.6400E+00
     15.716  0.0000E+00  0.6400E+00
     15.864  0.0000E+00  0.6400E+00
     16.011  0.0000E+00  0.6400E+00
     16.158  0.0000E+00  0.6400E+00
     16.306  0.0000E+00  0.6400E+00
     16.453  0.0000E+00  0.6400E+00
     16.601  0.0000E+00  0.6400E+00
     16.748  0.0000E+00  0.6400E+00
     16.896  0.0000E+00  0.6400E+00
     17.043  0.0000E+00  0.6400E+00
     17.190  0.0000E+00  0.6400E+00
