 vasp.6.3.2 27Jun22 (build Jun 14 2024 17:29:11) complex                         
 executed on             LinuxGNU date 2026.03.29  20:01:32
 running on   32 total cores
 distrk:  each k-point on   32 cores,    1 groups
 distr:  one band on NCORE=   1 cores,   32 groups


--------------------------------------------------------------------------------------------------------


 INCAR:
   EDIFF = 1e-05
   EDIFFG = -0.05
   ENCUT = 400.0
   IBRION = 2
   ISIF = 3
   ISMEAR = 0
   LCHARG = False
   LREAL = Auto
   LWAVE = False
   NSW = 100
   SIGMA = 0.05

 POTCAR:    PAW_PBE Na_pv 19Sep2006               
 POTCAR:    PAW_PBE Zn 06Sep2000                  
 POTCAR:    PAW_PBE S 06Sep2000                   
 -----------------------------------------------------------------------------
|                                                                             |
|           W    W    AA    RRRRR   N    N  II  N    N   GGGG   !!!           |
|           W    W   A  A   R    R  NN   N  II  NN   N  G    G  !!!           |
|           W    W  A    A  R    R  N N  N  II  N N  N  G       !!!           |
|           W WW W  AAAAAA  RRRRR   N  N N  II  N  N N  G  GGG   !            |
|           WW  WW  A    A  R   R   N   NN  II  N   NN  G    G                |
|           W    W  A    A  R    R  N    N  II  N    N   GGGG   !!!           |
|                                                                             |
|     For optimal performance we recommend to set                             |
|       NCORE = 2 up to number-of-cores-per-socket                            |
|     NCORE specifies how many cores store one orbital (NPAR=cpu/NCORE).      |
|     This setting can greatly improve the performance of VASP for DFT.       |
|     The default, NCORE=1 might be grossly inefficient on modern             |
|     multi-core architectures or massively parallel machines. Do your        |
|     own testing! More info at https://www.vasp.at/wiki/index.php/NCORE      |
|     Unfortunately you need to use the default for GW and RPA                |
|     calculations (for HF NCORE is supported but not extensively tested      |
|     yet).                                                                   |
|                                                                             |
 -----------------------------------------------------------------------------

 POTCAR:    PAW_PBE Na_pv 19Sep2006               
   SHA256 =  6a2f546d9e11350984debacf3dc457d8cffc0868e817d445faca461816a32b94 Na_pv/POTCAR          
   COPYR  = (c) Copyright 19Sep2006 Georg Kresse                                                    
   COPYR  = This file is part of the software VASP. Any use, copying, and all other rights are regul
   COPYR  = If you do not have a valid VASP license, you may not use, copy or distribute this file. 
   VRHFIN =Na: p6s1                                                                                 
   LEXCH  = PE                                                                                      
   EATOM  =   766.0439 eV,   56.3026 Ry                                                             
                                                                                                    
   TITEL  = PAW_PBE Na_pv 19Sep2006                                                                 
   LULTRA =        F    use ultrasoft PP ?                                                          
   IUNSCR =        1    unscreen: 0-lin 1-nonlin 2-no                                               
   RPACOR =    1.800    partial core radius                                                         
   POMASS =   22.990; ZVAL   =    7.000    mass and valenz                                          
   RCORE  =    2.200    outmost cutoff radius                                                       
   RWIGS  =    2.200; RWIGS  =    1.164    wigner-seitz radius (au A)                               
   ENMAX  =  259.561; ENMIN  =  194.671 eV                                                          
   ICORE  =        2    local potential                                                             
   LCOR   =        T    correct aug charges                                                         
   LPAW   =        T    paw PP                                                                      
   EAUG   =  368.056                                                                                
   DEXC   =    0.000                                                                                
   RMAX   =    2.245    core radius for proj-oper                                                   
   RAUG   =    1.300    factor for augmentation sphere                                              
   RDEP   =    2.259    radius for radial grids                                                     
   RDEPT  =    1.738    core radius for aug-charge                                                  
                                                                                                    
   Atomic configuration                                                                             
    5 entries                                                                                       
     n  l   j            E        occ.                                                              
     1  0  0.50     -1033.6933   2.0000                                                             
     2  0  0.50       -56.7526   2.0000                                                             
     2  1  1.50       -28.6721   6.0000                                                             
     3  0  0.50        -2.7440   1.0000                                                             
     3  2  1.50        -1.3606   0.0000                                                             
   Description                                                                                      
     l       E           TYP  RCUT    TYP  RCUT                                                     
     1    -28.6720912     23  2.000                                                                 
     1      6.8029130     23  2.000                                                                 
     0     -2.7439560     23  2.200                                                                 
     0     34.0145650     23  2.200                                                                 
     2     -1.3605826     23  2.200                                                                 
  local pseudopotential read in
  partial core-charges read in
  partial kinetic energy density read in
  atomic valenz-charges read in
  non local Contribution for L=           1  read in
    real space projection operators read in
  non local Contribution for L=           1  read in
    real space projection operators read in
  non local Contribution for L=           0  read in
    real space projection operators read in
  non local Contribution for L=           0  read in
    real space projection operators read in
    PAW grid and wavefunctions read in

   number of l-projection  operators is LMAX  =           4
   number of lm-projection operators is LMMAX =           8

 POTCAR:    PAW_PBE Zn 06Sep2000                  
   SHA256 =  501fddbd8274dd8e9725d4f3de27861d7f1e553a7e18441bc79fed8f346e7f23 Zn/POTCAR             
   COPYR  = (c) Copyright 06Sep2000 Georg Kresse                                                    
   COPYR  = This file is part of the software VASP. Any use, copying, and all other rights are regul
   COPYR  = If you do not have a valid VASP license, you may not use, copy or distribute this file. 
   VRHFIN =Zn: d10 p2                                                                               
   LEXCH  = PE                                                                                      
   EATOM  =  1748.8345 eV,  128.5357 Ry                                                             
                                                                                                    
   TITEL  = PAW_PBE Zn 06Sep2000                                                                    
   LULTRA =        F    use ultrasoft PP ?                                                          
   IUNSCR =        1    unscreen: 0-lin 1-nonlin 2-no                                               
   RPACOR =    2.000    partial core radius                                                         
   POMASS =   65.390; ZVAL   =   12.000    mass and valenz                                          
   RCORE  =    2.300    outmost cutoff radius                                                       
   RWIGS  =    2.400; RWIGS  =    1.270    wigner-seitz radius (au A)                               
   ENMAX  =  276.723; ENMIN  =  207.542 eV                                                          
   RCLOC  =    1.828    cutoff for local pot                                                        
   LCOR   =        T    correct aug charges                                                         
   LPAW   =        T    paw PP                                                                      
   EAUG   =  575.892                                                                                
   DEXC   =    0.000                                                                                
   RMAX   =    2.347    core radius for proj-oper                                                   
   RAUG   =    1.300    factor for augmentation sphere                                              
   RDEP   =    2.324    radius for radial grids                                                     
   RDEPT  =    1.788    core radius for aug-charge                                                  
                                                                                                    
   Atomic configuration                                                                             
    9 entries                                                                                       
     n  l   j            E        occ.                                                              
     1  0  0.50     -9524.6913   2.0000                                                             
     2  0  0.50     -1158.1882   2.0000                                                             
     2  1  1.50     -1003.8506   6.0000                                                             
     3  0  0.50      -129.2194   2.0000                                                             
     3  1  1.50       -83.3890   6.0000                                                             
     3  2  2.50       -10.1410  10.0000                                                             
     4  0  0.50        -5.9785   2.0000                                                             
     4  1  0.50        -4.0817   0.0000                                                             
     4  3  2.50        -1.3606   0.0000                                                             
   Description                                                                                      
     l       E           TYP  RCUT    TYP  RCUT                                                     
     2    -10.1410010     23  2.300                                                                 
     2    -11.5015836     23  2.300                                                                 
     0     -5.9785163     23  2.300                                                                 
     0      1.1858015     23  2.300                                                                 
     1     -2.7211652     23  2.300                                                                 
     1     13.2444212     23  2.300                                                                 
  local pseudopotential read in
  partial core-charges read in
  partial kinetic energy density read in
  atomic valenz-charges read in
  non local Contribution for L=           2  read in
    real space projection operators read in
  non local Contribution for L=           2  read in
    real space projection operators read in
  non local Contribution for L=           0  read in
    real space projection operators read in
  non local Contribution for L=           0  read in
    real space projection operators read in
  non local Contribution for L=           1  read in
    real space projection operators read in
  non local Contribution for L=           1  read in
    real space projection operators read in
    PAW grid and wavefunctions read in

   number of l-projection  operators is LMAX  =           6
   number of lm-projection operators is LMMAX =          18

 POTCAR:    PAW_PBE S 06Sep2000                   
   SHA256 =  0fc7481fb0695f01bdc6462160264c5c84044ae9ec85a907d398b887a2bc3132 S/POTCAR              
   COPYR  = (c) Copyright 06Sep2000 Georg Kresse                                                    
   COPYR  = This file is part of the software VASP. Any use, copying, and all other rights are regul
   COPYR  = If you do not have a valid VASP license, you may not use, copy or distribute this file. 
   VRHFIN =S : s2p4                                                                                 
   LEXCH  = PE                                                                                      
   EATOM  =   276.8230 eV,   20.3459 Ry                                                             
                                                                                                    
   TITEL  = PAW_PBE S 06Sep2000                                                                     
   LULTRA =        F    use ultrasoft PP ?                                                          
   IUNSCR =        1    unscreen: 0-lin 1-nonlin 2-no                                               
   RPACOR =    1.500    partial core radius                                                         
   POMASS =   32.066; ZVAL   =    6.000    mass and valenz                                          
   RCORE  =    1.900    outmost cutoff radius                                                       
   RWIGS  =    2.200; RWIGS  =    1.164    wigner-seitz radius (au A)                               
   ENMAX  =  258.689; ENMIN  =  194.016 eV                                                          
   ICORE  =        2    local potential                                                             
   LCOR   =        T    correct aug charges                                                         
   LPAW   =        T    paw PP                                                                      
   EAUG   =  335.092                                                                                
   DEXC   =    0.000                                                                                
   RMAX   =    1.942    core radius for proj-oper                                                   
   RAUG   =    1.300    factor for augmentation sphere                                              
   RDEP   =    1.954    radius for radial grids                                                     
   RDEPT  =    1.744    core radius for aug-charge                                                  
                                                                                                    
   Atomic configuration                                                                             
    6 entries                                                                                       
     n  l   j            E        occ.                                                              
     1  0  0.50     -2405.8406   2.0000                                                             
     2  0  0.50      -211.7007   2.0000                                                             
     2  1  1.50      -156.4958   6.0000                                                             
     3  0  0.50       -17.2562   2.0000                                                             
     3  1  0.50        -7.0085   4.0000                                                             
     3  2  1.50        -6.8029   0.0000                                                             
   Description                                                                                      
     l       E           TYP  RCUT    TYP  RCUT                                                     
     0    -17.2561641     23  1.900                                                                 
     0    -15.8743224     23  1.900                                                                 
     1     -7.0085400     23  1.900                                                                 
     1     -2.7779785     23  1.900                                                                 
     2     -6.8029130     23  1.900                                                                 
  local pseudopotential read in
  partial core-charges read in
  partial kinetic energy density read in
  atomic valenz-charges read in
  non local Contribution for L=           0  read in
    real space projection operators read in
  non local Contribution for L=           0  read in
    real space projection operators read in
  non local Contribution for L=           1  read in
    real space projection operators read in
  non local Contribution for L=           1  read in
    real space projection operators read in
    PAW grid and wavefunctions read in

   number of l-projection  operators is LMAX  =           4
   number of lm-projection operators is LMMAX =           8

 -----------------------------------------------------------------------------
|                                                                             |
|               ----> ADVICE to this user running VASP <----                  |
|                                                                             |
|     You have a (more or less) 'small supercell' and for smaller cells       |
|     it is recommended to use the reciprocal-space projection scheme!        |
|     The real-space optimization is not efficient for small cells and it     |
|     is also less accurate ...                                               |
|     Therefore, set LREAL=.FALSE. in the INCAR file.                         |
|                                                                             |
 -----------------------------------------------------------------------------

 Optimization of the real space projectors (new method)

 maximal supplied QI-value         = 17.01
 optimisation between [QCUT,QGAM] = [ 10.20, 20.41] = [ 29.16,116.64] Ry 
 Optimized for a Real-space Cutoff    1.30 Angstroem

   l    n(q)    QCUT    max X(q) W(low)/X(q) W(high)/X(q)  e(spline) 
   1      7    10.205     4.940    0.23E-03    0.84E-03    0.11E-06
   1      7    10.205     6.253    0.40E-03    0.13E-02    0.18E-06
   0      8    10.205    37.438    0.23E-03    0.37E-03    0.42E-07
   0      8    10.205     9.606    0.16E-03    0.26E-03    0.31E-07
 Optimization of the real space projectors (new method)

 maximal supplied QI-value         = 16.25
 optimisation between [QCUT,QGAM] = [ 10.24, 20.48] = [ 29.35,117.42] Ry 
 Optimized for a Real-space Cutoff    1.38 Angstroem

   l    n(q)    QCUT    max X(q) W(low)/X(q) W(high)/X(q)  e(spline) 
   2      7    10.239    46.356    0.21E-03    0.48E-03    0.10E-06
   2      7    10.239    41.843    0.21E-03    0.50E-03    0.10E-06
   0      8    10.239    48.958    0.37E-03    0.79E-04    0.11E-06
   0      8    10.239    32.776    0.35E-03    0.73E-04    0.10E-06
   1      8    10.239    17.787    0.49E-03    0.70E-03    0.14E-06
   1      8    10.239    14.435    0.42E-03    0.61E-03    0.13E-06
 Optimization of the real space projectors (new method)

 maximal supplied QI-value         = 19.84
 optimisation between [QCUT,QGAM] = [ 10.12, 20.44] = [ 28.68,116.96] Ry 
 Optimized for a Real-space Cutoff    1.23 Angstroem

   l    n(q)    QCUT    max X(q) W(low)/X(q) W(high)/X(q)  e(spline) 
   0      7    10.119   187.594    0.62E-04    0.28E-03    0.52E-07
   0      7    10.119   164.243    0.61E-04    0.28E-03    0.52E-07
   1      7    10.119    67.533    0.45E-03    0.63E-03    0.13E-06
   1      7    10.119    50.729    0.44E-03    0.62E-03    0.12E-06
  PAW_PBE Na_pv 19Sep2006               :
 energy of atom  1       EATOM= -766.0439
 kinetic energy error for atom=    0.0103 (will be added to EATOM!!)
  PAW_PBE Zn 06Sep2000                  :
 energy of atom  2       EATOM=-1748.8345
 kinetic energy error for atom=    0.0107 (will be added to EATOM!!)
  PAW_PBE S 06Sep2000                   :
 energy of atom  3       EATOM= -276.8230
 kinetic energy error for atom=    0.0046 (will be added to EATOM!!)


 POSCAR: Na1 Zn1 S1
  positions in direct lattice
  No initial velocities read in
 exchange correlation table for  LEXCH =        8
   RHO(1)=    0.500       N(1)  =     2000
   RHO(2)=  100.500       N(2)  =     4000



--------------------------------------------------------------------------------------------------------


 ion  position               nearest neighbor table
   1  0.922  0.942  0.000-   3 2.62   3 2.62
   2  0.929  0.442  0.000-   3 2.35   3 2.35
   3  0.422  0.942  0.000-   2 2.35   2 2.35   1 2.62   1 2.62

  LATTYP: Found a simple monoclinic cell.
 ALAT       =     4.6943494288
 B/A-ratio  =     0.8866604506
 C/A-ratio  =     1.1179643147
 COS(beta)  =    -0.0095030850
  
  Lattice vectors:
  
 A1 = (   1.8047199835,  -4.3335784683,   0.0000000000)
 A2 = (   0.0000000000,   0.0000000000,   4.1622939797)
 A3 = (  -4.8637408582,  -1.9714810196,   0.0000000000)


Analysis of symmetry for initial positions (statically):
=====================================================================
 Subroutine PRICEL returns:
 Original cell was already a primitive cell.
 

 Routine SETGRP: Setting up the symmetry group for a 
 simple monoclinic supercell.


 Subroutine GETGRP returns: Found  2 space group operations
 (whereof  2 operations were pure point group operations)
 out of a pool of  4 trial point group operations.


The static configuration has the point symmetry C_1h.


Analysis of symmetry for dynamics (positions and initial velocities):
=====================================================================
 Subroutine PRICEL returns:
 Original cell was already a primitive cell.
 

 Routine SETGRP: Setting up the symmetry group for a 
 simple monoclinic supercell.


 Subroutine GETGRP returns: Found  2 space group operations
 (whereof  2 operations were pure point group operations)
 out of a pool of  4 trial point group operations.


The dynamic configuration has the point symmetry C_1h.


 Subroutine INISYM returns: Found  2 space group operations
 (whereof  2 operations are pure point group operations),
 and found     1 'primitive' translations


----------------------------------------------------------------------------------------

                                     Primitive cell                                     

  volume of cell :     102.5397

  direct lattice vectors                    reciprocal lattice vectors
     4.863740858  1.971481020  0.000000000     0.255935206 -0.124171888  0.000000000
     3.059020875  6.305059488  0.000000000    -0.080026430  0.197429148  0.000000000
     0.000000000  0.000000000  4.162293980     0.000000000  0.000000000  0.240252131

  length of vectors
     5.248115142  7.007951474  4.162293980     0.284467024  0.213031683  0.240252131

  position of ions in fractional coordinates (direct lattice)
     0.921832054  0.941602907  0.000000000
     0.928529476  0.441659643  0.000000000
     0.421665650  0.941629336  0.000000000

  ion indices of the primitive-cell ions
   primitive index   ion index
                 1           1
                 2           2
                 3           3

----------------------------------------------------------------------------------------



 KPOINTS: pymatgen with grid density = 500 / numbe

Automatic generation of k-mesh.
 Grid dimensions read from file:
 generate k-points for:    5    4    7

 Generating k-lattice:

  Cartesian coordinates                     Fractional coordinates (reciprocal lattice)
     0.051187041 -0.024834378  0.000000000     0.200000000  0.000000000  0.000000000
    -0.020006607  0.049357287  0.000000000     0.000000000  0.250000000  0.000000000
     0.000000000  0.000000000  0.034321733     0.000000000  0.000000000  0.142857143

  Length of vectors
     0.056893405  0.053257921  0.034321733

  Shift w.r.t. Gamma in fractional coordinates (k-lattice)
     0.000000000  0.000000000  0.000000000

 
 Subroutine IBZKPT returns following result:
 ===========================================
 
 Found     44 irreducible k-points:
 
 Following reciprocal coordinates:
            Coordinates               Weight
  0.000000  0.000000  0.000000      1.000000
  0.200000  0.000000  0.000000      2.000000
  0.400000  0.000000  0.000000      2.000000
  0.000000  0.250000  0.000000      2.000000
  0.200000  0.250000  0.000000      2.000000
  0.400000  0.250000  0.000000      2.000000
 -0.400000  0.250000  0.000000      2.000000
 -0.200000  0.250000  0.000000      2.000000
  0.000000  0.500000  0.000000      1.000000
  0.200000  0.500000  0.000000      2.000000
  0.400000  0.500000  0.000000      2.000000
  0.000000  0.000000  0.142857      2.000000
  0.200000  0.000000  0.142857      4.000000
  0.400000  0.000000  0.142857      4.000000
  0.000000  0.250000  0.142857      4.000000
  0.200000  0.250000  0.142857      4.000000
  0.400000  0.250000  0.142857      4.000000
 -0.400000  0.250000  0.142857      4.000000
 -0.200000  0.250000  0.142857      4.000000
  0.000000  0.500000  0.142857      2.000000
  0.200000  0.500000  0.142857      4.000000
  0.400000  0.500000  0.142857      4.000000
  0.000000  0.000000  0.285714      2.000000
  0.200000  0.000000  0.285714      4.000000
  0.400000  0.000000  0.285714      4.000000
  0.000000  0.250000  0.285714      4.000000
  0.200000  0.250000  0.285714      4.000000
  0.400000  0.250000  0.285714      4.000000
 -0.400000  0.250000  0.285714      4.000000
 -0.200000  0.250000  0.285714      4.000000
  0.000000  0.500000  0.285714      2.000000
  0.200000  0.500000  0.285714      4.000000
  0.400000  0.500000  0.285714      4.000000
  0.000000  0.000000  0.428571      2.000000
  0.200000  0.000000  0.428571      4.000000
  0.400000  0.000000  0.428571      4.000000
  0.000000  0.250000  0.428571      4.000000
  0.200000  0.250000  0.428571      4.000000
  0.400000  0.250000  0.428571      4.000000
 -0.400000  0.250000  0.428571      4.000000
 -0.200000  0.250000  0.428571      4.000000
  0.000000  0.500000  0.428571      2.000000
  0.200000  0.500000  0.428571      4.000000
  0.400000  0.500000  0.428571      4.000000
 
 Following cartesian coordinates:
            Coordinates               Weight
  0.000000  0.000000  0.000000      1.000000
  0.051187 -0.024834  0.000000      2.000000
  0.102374 -0.049669  0.000000      2.000000
 -0.020007  0.049357  0.000000      2.000000
  0.031180  0.024523  0.000000      2.000000
  0.082367 -0.000311  0.000000      2.000000
 -0.122381  0.099026  0.000000      2.000000
 -0.071194  0.074192  0.000000      2.000000
 -0.040013  0.098715  0.000000      1.000000
  0.011174  0.073880  0.000000      2.000000
  0.062361  0.049046  0.000000      2.000000
  0.000000  0.000000  0.034322      2.000000
  0.051187 -0.024834  0.034322      4.000000
  0.102374 -0.049669  0.034322      4.000000
 -0.020007  0.049357  0.034322      4.000000
  0.031180  0.024523  0.034322      4.000000
  0.082367 -0.000311  0.034322      4.000000
 -0.122381  0.099026  0.034322      4.000000
 -0.071194  0.074192  0.034322      4.000000
 -0.040013  0.098715  0.034322      2.000000
  0.011174  0.073880  0.034322      4.000000
  0.062361  0.049046  0.034322      4.000000
  0.000000  0.000000  0.068643      2.000000
  0.051187 -0.024834  0.068643      4.000000
  0.102374 -0.049669  0.068643      4.000000
 -0.020007  0.049357  0.068643      4.000000
  0.031180  0.024523  0.068643      4.000000
  0.082367 -0.000311  0.068643      4.000000
 -0.122381  0.099026  0.068643      4.000000
 -0.071194  0.074192  0.068643      4.000000
 -0.040013  0.098715  0.068643      2.000000
  0.011174  0.073880  0.068643      4.000000
  0.062361  0.049046  0.068643      4.000000
  0.000000  0.000000  0.102965      2.000000
  0.051187 -0.024834  0.102965      4.000000
  0.102374 -0.049669  0.102965      4.000000
 -0.020007  0.049357  0.102965      4.000000
  0.031180  0.024523  0.102965      4.000000
  0.082367 -0.000311  0.102965      4.000000
 -0.122381  0.099026  0.102965      4.000000
 -0.071194  0.074192  0.102965      4.000000
 -0.040013  0.098715  0.102965      2.000000
  0.011174  0.073880  0.102965      4.000000
  0.062361  0.049046  0.102965      4.000000
 


--------------------------------------------------------------------------------------------------------




 Dimension of arrays:
   k-points           NKPTS =     44   k-points in BZ     NKDIM =     44   number of bands    NBANDS=     32
   number of dos      NEDOS =    301   number of ions     NIONS =      3
   non local maximal  LDIM  =      6   non local SUM 2l+1 LMDIM =     18
   total plane-waves  NPLWV =  20160
   max r-space proj   IRMAX =   2216   max aug-charges    IRDMAX=   6393
   dimension x,y,z NGX =    28 NGY =   36 NGZ =   20
   dimension x,y,z NGXF=    56 NGYF=   72 NGZF=   40
   support grid    NGXF=    56 NGYF=   72 NGZF=   40
   ions per type =               1   1   1
   NGX,Y,Z   is equivalent  to a cutoff of   8.87,  8.54,  7.99 a.u.
   NGXF,Y,Z  is equivalent  to a cutoff of  17.74, 17.08, 15.98 a.u.

 SYSTEM =  unknown system                          
 POSCAR =  Na1 Zn1 S1                              

 Startparameter for this run:
   NWRITE =      2    write-flag & timer
   PREC   = normal    normal or accurate (medium, high low for compatibility)
   ISTART =      0    job   : 0-new  1-cont  2-samecut
   ICHARG =      2    charge: 1-file 2-atom 10-const
   ISPIN  =      1    spin polarized calculation?
   LNONCOLLINEAR =      F non collinear calculations
   LSORBIT =      F    spin-orbit coupling
   INIWAV =      1    electr: 0-lowe 1-rand  2-diag
   LASPH  =      F    aspherical Exc in radial PAW
 Electronic Relaxation 1
   ENCUT  =  400.0 eV  29.40 Ry    5.42 a.u.   8.56 11.43  6.79*2*pi/ulx,y,z
   ENINI  =  400.0     initial cutoff
   ENAUG  =  575.9 eV  augmentation charge cutoff
   NELM   =     60;   NELMIN=  2; NELMDL= -5     # of ELM steps 
   EDIFF  = 0.1E-04   stopping-criterion for ELM
   LREAL  =      T    real-space projection
   NLSPLINE    = F    spline interpolate recip. space projectors
   LCOMPAT=      F    compatible to vasp.4.4
   GGA_COMPAT  = T    GGA compatible to vasp.4.4-vasp.4.6
   LMAXPAW     = -100 max onsite density
   LMAXMIX     =    2 max onsite mixed and CHGCAR
   VOSKOWN=      0    Vosko Wilk Nusair interpolation
   ROPT   =   -0.00050  -0.00050  -0.00050
 Ionic relaxation
   EDIFFG = -.5E-01   stopping-criterion for IOM
   NSW    =    100    number of steps for IOM
   NBLOCK =      1;   KBLOCK =    100    inner block; outer block 
   IBRION =      2    ionic relax: 0-MD 1-quasi-New 2-CG
   NFREE  =      1    steps in history (QN), initial steepest desc. (CG)
   ISIF   =      3    stress and relaxation
   IWAVPR =     11    prediction:  0-non 1-charg 2-wave 3-comb
   ISYM   =      2    0-nonsym 1-usesym 2-fastsym
   LCORR  =      T    Harris-Foulkes like correction to forces

   POTIM  = 0.5000    time-step for ionic-motion
   TEIN   =    0.0    initial temperature
   TEBEG  =    0.0;   TEEND  =   0.0 temperature during run
   SMASS  =  -3.00    Nose mass-parameter (am)
   estimated Nose-frequenzy (Omega)   =  0.10E-29 period in steps = 0.13E+47 mass=  -0.629E-27a.u.
   SCALEE = 1.0000    scale energy and forces
   NPACO  =    256;   APACO  = 10.0  distance and # of slots for P.C.
   PSTRESS=    0.0 pullay stress

  Mass of Ions in am
   POMASS =  22.99 65.39 32.07
  Ionic Valenz
   ZVAL   =   7.00 12.00  6.00
  Atomic Wigner-Seitz radii
   RWIGS  =  -1.00 -1.00 -1.00
  virtual crystal weights 
   VCA    =   1.00  1.00  1.00
   NELECT =      25.0000    total number of electrons
   NUPDOWN=      -1.0000    fix difference up-down

 DOS related values:
   EMIN   =  10.00;   EMAX   =-10.00  energy-range for DOS
   EFERMI =   0.00
   ISMEAR =     0;   SIGMA  =   0.05  broadening in eV -4-tet -1-fermi 0-gaus

 Electronic relaxation 2 (details)
   IALGO  =     38    algorithm
   LDIAG  =      T    sub-space diagonalisation (order eigenvalues)
   LSUBROT=      F    optimize rotation matrix (better conditioning)
   TURBO    =      0    0=normal 1=particle mesh
   IRESTART =      0    0=no restart 2=restart with 2 vectors
   NREBOOT  =      0    no. of reboots
   NMIN     =      0    reboot dimension
   EREF     =   0.00    reference energy to select bands
   IMIX   =      4    mixing-type and parameters
     AMIX     =   0.40;   BMIX     =  1.00
     AMIX_MAG =   1.60;   BMIX_MAG =  1.00
     AMIN     =   0.10
     WC   =   100.;   INIMIX=   1;  MIXPRE=   1;  MAXMIX= -45

 Intra band minimization:
   WEIMIN = 0.0010     energy-eigenvalue tresh-hold
   EBREAK =  0.78E-07  absolut break condition
   DEPER  =   0.30     relativ break condition  

   TIME   =   0.40     timestep for ELM

  volume/ion in A,a.u.               =      34.18       230.66
  Fermi-wavevector in a.u.,A,eV,Ry     =   1.022722  1.932664 14.231149  1.045960
  Thomas-Fermi vector in A             =   2.156417

 Write flags
   LWAVE        =      F    write WAVECAR
   LDOWNSAMPLE  =      F    k-point downsampling of WAVECAR
   LCHARG       =      F    write CHGCAR
   LVTOT        =      F    write LOCPOT, total local potential
   LVHAR        =      F    write LOCPOT, Hartree potential only
   LELF         =      F    write electronic localiz. function (ELF)
   LORBIT       =      0    0 simple, 1 ext, 2 COOP (PROOUT), +10 PAW based schemes


 Dipole corrections
   LMONO  =      F    monopole corrections only (constant potential shift)
   LDIPOL =      F    correct potential (dipole corrections)
   IDIPOL =      0    1-x, 2-y, 3-z, 4-all directions 
   EPSILON=  1.0000000 bulk dielectric constant

 Exchange correlation treatment:
   GGA     =    --    GGA type
   LEXCH   =     8    internal setting for exchange type
   LIBXC   =     F    Libxc                    
   VOSKOWN =     0    Vosko Wilk Nusair interpolation
   LHFCALC =     F    Hartree Fock is set to
   LHFONE  =     F    Hartree Fock one center treatment
   AEXX    =    0.0000 exact exchange contribution

 Linear response parameters
   LEPSILON=     F    determine dielectric tensor
   LRPA    =     F    only Hartree local field effects (RPA)
   LNABLA  =     F    use nabla operator in PAW spheres
   LVEL    =     F    velocity operator in full k-point grid
   CSHIFT  =0.1000    complex shift for real part using Kramers Kronig
   OMEGAMAX=  -1.0    maximum frequency
   DEG_THRESHOLD= 0.2000000E-02 threshold for treating states as degnerate
   RTIME   =   -0.100 relaxation time in fs
  (WPLASMAI=    0.000 imaginary part of plasma frequency in eV, 0.658/RTIME)
   DFIELD  = 0.0000000 0.0000000 0.0000000 field for delta impulse in time

  Optional k-point grid parameters
   LKPOINTS_OPT  =     F    use optional k-point grid
   KPOINTS_OPT_MODE=     1    mode for optional k-point grid

 Orbital magnetization related:
   ORBITALMAG=     F  switch on orbital magnetization
   LCHIMAG   =     F  perturbation theory with respect to B field
   DQ        =  0.001000  dq finite difference perturbation B field
   LLRAUG    =     F  two centre corrections for induced B field



--------------------------------------------------------------------------------------------------------


 conjugate gradient relaxation of ions
 charge density and potential will be updated during run
 non-spin polarized calculation
 Variant of blocked Davidson
 Davidson routine will perform the subspace rotation
 perform sub-space diagonalisation
    after iterative eigenvector-optimisation
 modified Broyden-mixing scheme, WC =      100.0
 initial mixing is a Kerker type mixing with AMIX =  0.4000 and BMIX =      1.0000
 Hartree-type preconditioning will be used
 using additional bands           19
 real space projection scheme for non local part
 use partial core corrections
 calculate Harris-corrections to forces   (improved forces if not selfconsistent)
 use gradient corrections 
 use of overlap-Matrix (Vanderbilt PP)
 Gauss-broadening in eV      SIGMA  =   0.05


--------------------------------------------------------------------------------------------------------


  energy-cutoff  :      400.00
  volume of cell :      102.54
      direct lattice vectors                 reciprocal lattice vectors
     4.863740858  1.971481020  0.000000000     0.255935206 -0.124171888  0.000000000
     3.059020875  6.305059488  0.000000000    -0.080026430  0.197429148  0.000000000
     0.000000000  0.000000000  4.162293980     0.000000000  0.000000000  0.240252131

  length of vectors
     5.248115142  7.007951474  4.162293980     0.284467024  0.213031683  0.240252131



 k-points in units of 2pi/SCALE and weight: pymatgen with grid density = 500 / numbe
   0.00000000  0.00000000  0.00000000       0.007
   0.05118704 -0.02483438  0.00000000       0.014
   0.10237408 -0.04966876  0.00000000       0.014
  -0.02000661  0.04935729  0.00000000       0.014
   0.03118043  0.02452291  0.00000000       0.014
   0.08236748 -0.00031147  0.00000000       0.014
  -0.12238069  0.09902604  0.00000000       0.014
  -0.07119365  0.07419166  0.00000000       0.014
  -0.04001321  0.09871457  0.00000000       0.007
   0.01117383  0.07388020  0.00000000       0.014
   0.06236087  0.04904582  0.00000000       0.014
   0.00000000  0.00000000  0.03432173       0.014
   0.05118704 -0.02483438  0.03432173       0.029
   0.10237408 -0.04966876  0.03432173       0.029
  -0.02000661  0.04935729  0.03432173       0.029
   0.03118043  0.02452291  0.03432173       0.029
   0.08236748 -0.00031147  0.03432173       0.029
  -0.12238069  0.09902604  0.03432173       0.029
  -0.07119365  0.07419166  0.03432173       0.029
  -0.04001321  0.09871457  0.03432173       0.014
   0.01117383  0.07388020  0.03432173       0.029
   0.06236087  0.04904582  0.03432173       0.029
   0.00000000  0.00000000  0.06864347       0.014
   0.05118704 -0.02483438  0.06864347       0.029
   0.10237408 -0.04966876  0.06864347       0.029
  -0.02000661  0.04935729  0.06864347       0.029
   0.03118043  0.02452291  0.06864347       0.029
   0.08236748 -0.00031147  0.06864347       0.029
  -0.12238069  0.09902604  0.06864347       0.029
  -0.07119365  0.07419166  0.06864347       0.029
  -0.04001321  0.09871457  0.06864347       0.014
   0.01117383  0.07388020  0.06864347       0.029
   0.06236087  0.04904582  0.06864347       0.029
   0.00000000  0.00000000  0.10296520       0.014
   0.05118704 -0.02483438  0.10296520       0.029
   0.10237408 -0.04966876  0.10296520       0.029
  -0.02000661  0.04935729  0.10296520       0.029
   0.03118043  0.02452291  0.10296520       0.029
   0.08236748 -0.00031147  0.10296520       0.029
  -0.12238069  0.09902604  0.10296520       0.029
  -0.07119365  0.07419166  0.10296520       0.029
  -0.04001321  0.09871457  0.10296520       0.014
   0.01117383  0.07388020  0.10296520       0.029
   0.06236087  0.04904582  0.10296520       0.029

 k-points in reciprocal lattice and weights: pymatgen with grid density = 500 / numbe
   0.00000000  0.00000000  0.00000000       0.007
   0.20000000  0.00000000  0.00000000       0.014
   0.40000000  0.00000000  0.00000000       0.014
   0.00000000  0.25000000  0.00000000       0.014
   0.20000000  0.25000000  0.00000000       0.014
   0.40000000  0.25000000  0.00000000       0.014
  -0.40000000  0.25000000  0.00000000       0.014
  -0.20000000  0.25000000  0.00000000       0.014
   0.00000000  0.50000000  0.00000000       0.007
   0.20000000  0.50000000  0.00000000       0.014
   0.40000000  0.50000000  0.00000000       0.014
   0.00000000  0.00000000  0.14285714       0.014
   0.20000000  0.00000000  0.14285714       0.029
   0.40000000  0.00000000  0.14285714       0.029
   0.00000000  0.25000000  0.14285714       0.029
   0.20000000  0.25000000  0.14285714       0.029
   0.40000000  0.25000000  0.14285714       0.029
  -0.40000000  0.25000000  0.14285714       0.029
  -0.20000000  0.25000000  0.14285714       0.029
   0.00000000  0.50000000  0.14285714       0.014
   0.20000000  0.50000000  0.14285714       0.029
   0.40000000  0.50000000  0.14285714       0.029
   0.00000000  0.00000000  0.28571429       0.014
   0.20000000  0.00000000  0.28571429       0.029
   0.40000000  0.00000000  0.28571429       0.029
   0.00000000  0.25000000  0.28571429       0.029
   0.20000000  0.25000000  0.28571429       0.029
   0.40000000  0.25000000  0.28571429       0.029
  -0.40000000  0.25000000  0.28571429       0.029
  -0.20000000  0.25000000  0.28571429       0.029
   0.00000000  0.50000000  0.28571429       0.014
   0.20000000  0.50000000  0.28571429       0.029
   0.40000000  0.50000000  0.28571429       0.029
   0.00000000  0.00000000  0.42857143       0.014
   0.20000000  0.00000000  0.42857143       0.029
   0.40000000  0.00000000  0.42857143       0.029
   0.00000000  0.25000000  0.42857143       0.029
   0.20000000  0.25000000  0.42857143       0.029
   0.40000000  0.25000000  0.42857143       0.029
  -0.40000000  0.25000000  0.42857143       0.029
  -0.20000000  0.25000000  0.42857143       0.029
   0.00000000  0.50000000  0.42857143       0.014
   0.20000000  0.50000000  0.42857143       0.029
   0.40000000  0.50000000  0.42857143       0.029

 position of ions in fractional coordinates (direct lattice) 
   0.92183205  0.94160291  0.00000000
   0.92852948  0.44165964  0.00000000
   0.42166565  0.94162934  0.00000000

 position of ions in cartesian coordinates  (Angst):
   7.36393517  7.75423674  0.00000000
   5.86717282  4.61526856  0.00000000
   4.93133624  6.76833480  0.00000000



--------------------------------------------------------------------------------------------------------


 k-point   1 :   0.0000 0.0000 0.0000  plane waves:    1879
 k-point   2 :   0.2000 0.0000 0.0000  plane waves:    1854
 k-point   3 :   0.4000 0.0000 0.0000  plane waves:    1870
 k-point   4 :   0.0000 0.2500 0.0000  plane waves:    1862
 k-point   5 :   0.2000 0.2500 0.0000  plane waves:    1868
 k-point   6 :   0.4000 0.2500 0.0000  plane waves:    1866
 k-point   7 :  -0.4000 0.2500 0.0000  plane waves:    1866
 k-point   8 :  -0.2000 0.2500 0.0000  plane waves:    1853
 k-point   9 :   0.0000 0.5000 0.0000  plane waves:    1850
 k-point  10 :   0.2000 0.5000 0.0000  plane waves:    1850
 k-point  11 :   0.4000 0.5000 0.0000  plane waves:    1866
 k-point  12 :   0.0000 0.0000 0.1429  plane waves:    1869
 k-point  13 :   0.2000 0.0000 0.1429  plane waves:    1863
 k-point  14 :   0.4000 0.0000 0.1429  plane waves:    1852
 k-point  15 :   0.0000 0.2500 0.1429  plane waves:    1865
 k-point  16 :   0.2000 0.2500 0.1429  plane waves:    1869
 k-point  17 :   0.4000 0.2500 0.1429  plane waves:    1866
 k-point  18 :  -0.4000 0.2500 0.1429  plane waves:    1862
 k-point  19 :  -0.2000 0.2500 0.1429  plane waves:    1862
 k-point  20 :   0.0000 0.5000 0.1429  plane waves:    1856
 k-point  21 :   0.2000 0.5000 0.1429  plane waves:    1861
 k-point  22 :   0.4000 0.5000 0.1429  plane waves:    1863
 k-point  23 :   0.0000 0.0000 0.2857  plane waves:    1880
 k-point  24 :   0.2000 0.0000 0.2857  plane waves:    1867
 k-point  25 :   0.4000 0.0000 0.2857  plane waves:    1855
 k-point  26 :   0.0000 0.2500 0.2857  plane waves:    1866
 k-point  27 :   0.2000 0.2500 0.2857  plane waves:    1868
 k-point  28 :   0.4000 0.2500 0.2857  plane waves:    1851
 k-point  29 :  -0.4000 0.2500 0.2857  plane waves:    1854
 k-point  30 :  -0.2000 0.2500 0.2857  plane waves:    1862
 k-point  31 :   0.0000 0.5000 0.2857  plane waves:    1862
 k-point  32 :   0.2000 0.5000 0.2857  plane waves:    1867
 k-point  33 :   0.4000 0.5000 0.2857  plane waves:    1854
 k-point  34 :   0.0000 0.0000 0.4286  plane waves:    1874
 k-point  35 :   0.2000 0.0000 0.4286  plane waves:    1870
 k-point  36 :   0.4000 0.0000 0.4286  plane waves:    1857
 k-point  37 :   0.0000 0.2500 0.4286  plane waves:    1860
 k-point  38 :   0.2000 0.2500 0.4286  plane waves:    1873
 k-point  39 :   0.4000 0.2500 0.4286  plane waves:    1861
 k-point  40 :  -0.4000 0.2500 0.4286  plane waves:    1854
 k-point  41 :  -0.2000 0.2500 0.4286  plane waves:    1875
 k-point  42 :   0.0000 0.5000 0.4286  plane waves:    1870
 k-point  43 :   0.2000 0.5000 0.4286  plane waves:    1861
 k-point  44 :   0.4000 0.5000 0.4286  plane waves:    1864

 maximum and minimum number of plane-waves per node :      1880     1850

 maximum number of plane-waves:      1880
 maximum index in each direction: 
   IXMAX=    8   IYMAX=   11   IZMAX=    6
   IXMIN=   -8   IYMIN=  -11   IZMIN=   -7


 serial   3D FFT for wavefunctions
 parallel 3D FFT for charge:
    minimum data exchange during FFTs selected (reduces bandwidth)


 total amount of memory used by VASP MPI-rank0    33582. kBytes
=======================================================================

   base      :      30000. kBytes
   nonlr-proj:        672. kBytes
   fftplans  :        286. kBytes
   grid      :       1204. kBytes
   one-center:         46. kBytes
   wavefun   :       1374. kBytes

     INWAV:  cpu time      0.0000: real time      0.0002
 Broyden mixing: mesh for mixing (old mesh)
   NGX = 17   NGY = 23   NGZ = 13
  (NGX  = 56   NGY  = 72   NGZ  = 40)
  gives a total of   5083 points

 initial charge density was supplied:
 charge density of overlapping atoms calculated
 number of electron      25.0000000 magnetization 
 keeping initial charge density in first step


--------------------------------------------------------------------------------------------------------


 Maximum index for non-local projection operator         2108
 Maximum index for augmentation-charges          257 (set IRDMAX)


--------------------------------------------------------------------------------------------------------


 First call to EWALD:  gamma=   0.379
 Maximum number of real-space cells 3x 3x 3
 Maximum number of reciprocal cells 3x 4x 2

    FEWALD:  cpu time      0.0007: real time      0.0009


--------------------------------------- Iteration      1(   1)  ---------------------------------------


    POTLOK:  cpu time      0.0076: real time      0.0081
    SETDIJ:  cpu time      0.0023: real time      0.0024
     EDDAV:  cpu time      0.6924: real time      0.6929
       DOS:  cpu time      0.0006: real time      0.0008
    --------------------------------------------
      LOOP:  cpu time      0.7029: real time      0.7042

 eigenvalue-minimisations  :  2816
 total energy-change (2. order) : 0.3708654E+02  (-0.1162639E+04)
 number of electron      25.0000000 magnetization 
 augmentation part       25.0000000 magnetization 

 Free energy of the ion-electron system (eV)
  ---------------------------------------------------
  alpha Z        PSCENC =        48.91098011
  Ewald energy   TEWEN  =     -1247.42727025
  -Hartree energ DENC   =     -1174.02100788
  -exchange      EXHF   =         0.00000000
  -V(xc)+E(xc)   XCENC  =        92.80522607
  PAW double counting   =      2175.06114249    -2438.00879782
  entropy T*S    EENTRO =        -0.00286546
  eigenvalues    EBANDS =      -211.90662045
  atomic energy  EATOM  =      2791.67575309
  Solvation  Ediel_sol  =         0.00000000
  ---------------------------------------------------
  free energy    TOTEN  =        37.08653991 eV

  energy without entropy =       37.08940537  energy(sigma->0) =       37.08797264


--------------------------------------------------------------------------------------------------------




--------------------------------------- Iteration      1(   2)  ---------------------------------------


     EDDAV:  cpu time      1.1995: real time      1.2005
       DOS:  cpu time      0.0005: real time      0.0006
    --------------------------------------------
      LOOP:  cpu time      1.1999: real time      1.2010

 eigenvalue-minimisations  :  3872
 total energy-change (2. order) :-0.4480369E+02  (-0.4406237E+02)
 number of electron      25.0000000 magnetization 
 augmentation part       25.0000000 magnetization 

 Free energy of the ion-electron system (eV)
  ---------------------------------------------------
  alpha Z        PSCENC =        48.91098011
  Ewald energy   TEWEN  =     -1247.42727025
  -Hartree energ DENC   =     -1174.02100788
  -exchange      EXHF   =         0.00000000
  -V(xc)+E(xc)   XCENC  =        92.80522607
  PAW double counting   =      2175.06114249    -2438.00879782
  entropy T*S    EENTRO =        -0.00130113
  eigenvalues    EBANDS =      -256.71187849
  atomic energy  EATOM  =      2791.67575309
  Solvation  Ediel_sol  =         0.00000000
  ---------------------------------------------------
  free energy    TOTEN  =        -7.71715380 eV

  energy without entropy =       -7.71585267  energy(sigma->0) =       -7.71650323


--------------------------------------------------------------------------------------------------------




--------------------------------------- Iteration      1(   3)  ---------------------------------------


     EDDAV:  cpu time      0.8501: real time      0.8508
       DOS:  cpu time      0.0004: real time      0.0005
    --------------------------------------------
      LOOP:  cpu time      0.8505: real time      0.8513

 eigenvalue-minimisations  :  3104
 total energy-change (2. order) :-0.7610105E+00  (-0.7610098E+00)
 number of electron      25.0000000 magnetization 
 augmentation part       25.0000000 magnetization 

 Free energy of the ion-electron system (eV)
  ---------------------------------------------------
  alpha Z        PSCENC =        48.91098011
  Ewald energy   TEWEN  =     -1247.42727025
  -Hartree energ DENC   =     -1174.02100788
  -exchange      EXHF   =         0.00000000
  -V(xc)+E(xc)   XCENC  =        92.80522607
  PAW double counting   =      2175.06114249    -2438.00879782
  entropy T*S    EENTRO =        -0.00128011
  eigenvalues    EBANDS =      -257.47291005
  atomic energy  EATOM  =      2791.67575309
  Solvation  Ediel_sol  =         0.00000000
  ---------------------------------------------------
  free energy    TOTEN  =        -8.47816434 eV

  energy without entropy =       -8.47688424  energy(sigma->0) =       -8.47752429


--------------------------------------------------------------------------------------------------------




--------------------------------------- Iteration      1(   4)  ---------------------------------------


     EDDAV:  cpu time      2.1463: real time      2.1476
       DOS:  cpu time      0.0006: real time      0.0007
    --------------------------------------------
      LOOP:  cpu time      2.1469: real time      2.1483

 eigenvalue-minimisations  :  5248
 total energy-change (2. order) :-0.3394856E-02  (-0.3394855E-02)
 number of electron      25.0000000 magnetization 
 augmentation part       25.0000000 magnetization 

 Free energy of the ion-electron system (eV)
  ---------------------------------------------------
  alpha Z        PSCENC =        48.91098011
  Ewald energy   TEWEN  =     -1247.42727025
  -Hartree energ DENC   =     -1174.02100788
  -exchange      EXHF   =         0.00000000
  -V(xc)+E(xc)   XCENC  =        92.80522607
  PAW double counting   =      2175.06114249    -2438.00879782
  entropy T*S    EENTRO =        -0.00128052
  eigenvalues    EBANDS =      -257.47630449
  atomic energy  EATOM  =      2791.67575309
  Solvation  Ediel_sol  =         0.00000000
  ---------------------------------------------------
  free energy    TOTEN  =        -8.48155920 eV

  energy without entropy =       -8.48027868  energy(sigma->0) =       -8.48091894


--------------------------------------------------------------------------------------------------------




--------------------------------------- Iteration      1(   5)  ---------------------------------------


     EDDAV:  cpu time      0.8529: real time      0.8535
       DOS:  cpu time      0.0004: real time      0.0005
    CHARGE:  cpu time      0.0183: real time      0.0185
    MIXING:  cpu time      0.0010: real time      0.0011
    --------------------------------------------
      LOOP:  cpu time      0.8726: real time      0.8737

 eigenvalue-minimisations  :  3104
 total energy-change (2. order) :-0.4046747E-06  (-0.4046929E-06)
 number of electron      25.0000020 magnetization 
 augmentation part       11.4954295 magnetization 

 Broyden mixing:
  rms(total) = 0.84932E+00    rms(broyden)= 0.84930E+00
  rms(prec ) = 0.13370E+01
  weight for this iteration     100.00

 Free energy of the ion-electron system (eV)
  ---------------------------------------------------
  alpha Z        PSCENC =        48.91098011
  Ewald energy   TEWEN  =     -1247.42727025
  -Hartree energ DENC   =     -1174.02100788
  -exchange      EXHF   =         0.00000000
  -V(xc)+E(xc)   XCENC  =        92.80522607
  PAW double counting   =      2175.06114249    -2438.00879782
  entropy T*S    EENTRO =        -0.00128052
  eigenvalues    EBANDS =      -257.47630490
  atomic energy  EATOM  =      2791.67575309
  Solvation  Ediel_sol  =         0.00000000
  ---------------------------------------------------
  free energy    TOTEN  =        -8.48155960 eV

  energy without entropy =       -8.48027908  energy(sigma->0) =       -8.48091934


--------------------------------------------------------------------------------------------------------




--------------------------------------- Iteration      1(   6)  ---------------------------------------


    POTLOK:  cpu time      0.0064: real time      0.0066
    SETDIJ:  cpu time      0.0015: real time      0.0015
     EDDAV:  cpu time      1.5018: real time      1.5026
       DOS:  cpu time      0.0004: real time      0.0006
    CHARGE:  cpu time      0.0174: real time      0.0174
    MIXING:  cpu time      0.0004: real time      0.0005
    --------------------------------------------
      LOOP:  cpu time      1.5280: real time      1.5291

 eigenvalue-minimisations  :  4384
 total energy-change (2. order) : 0.1071600E+01  (-0.4183850E+00)
 number of electron      25.0000021 magnetization 
 augmentation part       11.6228063 magnetization 

 Broyden mixing:
  rms(total) = 0.54167E+00    rms(broyden)= 0.54167E+00
  rms(prec ) = 0.64247E+00
  weight for this iteration     100.00

 eigenvalues of (default mixing * dielectric matrix)
  average eigenvalue GAMMA=   1.7272
  1.7272

 Free energy of the ion-electron system (eV)
  ---------------------------------------------------
  alpha Z        PSCENC =        48.91098011
  Ewald energy   TEWEN  =     -1247.42727025
  -Hartree energ DENC   =     -1173.47366571
  -exchange      EXHF   =         0.00000000
  -V(xc)+E(xc)   XCENC  =        93.08259827
  PAW double counting   =      2299.23233207    -2560.07016811
  entropy T*S    EENTRO =        -0.00186383
  eigenvalues    EBANDS =      -259.33865508
  atomic energy  EATOM  =      2791.67575309
  Solvation  Ediel_sol  =         0.00000000
  ---------------------------------------------------
  free energy    TOTEN  =        -7.40995943 eV

  energy without entropy =       -7.40809561  energy(sigma->0) =       -7.40902752


--------------------------------------------------------------------------------------------------------




--------------------------------------- Iteration      1(   7)  ---------------------------------------


    POTLOK:  cpu time      0.0063: real time      0.0065
    SETDIJ:  cpu time      0.0014: real time      0.0014
     EDDAV:  cpu time      1.7103: real time      1.7113
       DOS:  cpu time      0.0004: real time      0.0005
    CHARGE:  cpu time      0.0174: real time      0.0174
    MIXING:  cpu time      0.0003: real time      0.0003
    --------------------------------------------
      LOOP:  cpu time      1.7361: real time      1.7375

 eigenvalue-minimisations  :  4704
 total energy-change (2. order) : 0.9775138E-01  (-0.4071489E-01)
 number of electron      25.0000020 magnetization 
 augmentation part       11.6113463 magnetization 

 Broyden mixing:
  rms(total) = 0.21898E+00    rms(broyden)= 0.21898E+00
  rms(prec ) = 0.26189E+00
  weight for this iteration     100.00

 eigenvalues of (default mixing * dielectric matrix)
  average eigenvalue GAMMA=   1.5804
  1.0770  2.0838

 Free energy of the ion-electron system (eV)
  ---------------------------------------------------
  alpha Z        PSCENC =        48.91098011
  Ewald energy   TEWEN  =     -1247.42727025
  -Hartree energ DENC   =     -1177.10955314
  -exchange      EXHF   =         0.00000000
  -V(xc)+E(xc)   XCENC  =        93.35136408
  PAW double counting   =      2478.86851583    -2741.81317497
  entropy T*S    EENTRO =        -0.00184024
  eigenvalues    EBANDS =      -253.76698256
  atomic energy  EATOM  =      2791.67575309
  Solvation  Ediel_sol  =         0.00000000
  ---------------------------------------------------
  free energy    TOTEN  =        -7.31220806 eV

  energy without entropy =       -7.31036781  energy(sigma->0) =       -7.31128793


--------------------------------------------------------------------------------------------------------




--------------------------------------- Iteration      1(   8)  ---------------------------------------


    POTLOK:  cpu time      0.0062: real time      0.0063
    SETDIJ:  cpu time      0.0014: real time      0.0014
     EDDAV:  cpu time      1.2565: real time      1.2570
       DOS:  cpu time      0.0005: real time      0.0006
    CHARGE:  cpu time      0.0176: real time      0.0176
    MIXING:  cpu time      0.0003: real time      0.0003
    --------------------------------------------
      LOOP:  cpu time      1.2824: real time      1.2833

 eigenvalue-minimisations  :  3872
 total energy-change (2. order) : 0.8758571E-02  (-0.2610333E-02)
 number of electron      25.0000021 magnetization 
 augmentation part       11.6162719 magnetization 

 Broyden mixing:
  rms(total) = 0.37926E-01    rms(broyden)= 0.37926E-01
  rms(prec ) = 0.71174E-01
  weight for this iteration     100.00

 eigenvalues of (default mixing * dielectric matrix)
  average eigenvalue GAMMA=   1.3921
  2.0247  1.3110  0.8407

 Free energy of the ion-electron system (eV)
  ---------------------------------------------------
  alpha Z        PSCENC =        48.91098011
  Ewald energy   TEWEN  =     -1247.42727025
  -Hartree energ DENC   =     -1175.85208384
  -exchange      EXHF   =         0.00000000
  -V(xc)+E(xc)   XCENC  =        93.32029904
  PAW double counting   =      2589.27959741    -2852.35146625
  entropy T*S    EENTRO =        -0.00186400
  eigenvalues    EBANDS =      -254.85739480
  atomic energy  EATOM  =      2791.67575309
  Solvation  Ediel_sol  =         0.00000000
  ---------------------------------------------------
  free energy    TOTEN  =        -7.30344948 eV

  energy without entropy =       -7.30158549  energy(sigma->0) =       -7.30251749


--------------------------------------------------------------------------------------------------------




--------------------------------------- Iteration      1(   9)  ---------------------------------------


    POTLOK:  cpu time      0.0064: real time      0.0066
    SETDIJ:  cpu time      0.0014: real time      0.0014
     EDDAV:  cpu time      1.4484: real time      1.5198
       DOS:  cpu time      0.0004: real time      0.0007
    CHARGE:  cpu time      0.0173: real time      0.0173
    MIXING:  cpu time      0.0003: real time      0.0003
    --------------------------------------------
      LOOP:  cpu time      1.4742: real time      1.5460

 eigenvalue-minimisations  :  4224
 total energy-change (2. order) :-0.7136366E-03  (-0.3138251E-03)
 number of electron      25.0000021 magnetization 
 augmentation part       11.6123279 magnetization 

 Broyden mixing:
  rms(total) = 0.22504E-01    rms(broyden)= 0.22504E-01
  rms(prec ) = 0.39694E-01
  weight for this iteration     100.00

 eigenvalues of (default mixing * dielectric matrix)
  average eigenvalue GAMMA=   1.8908
  3.0437  2.3963  0.8952  1.2280

 Free energy of the ion-electron system (eV)
  ---------------------------------------------------
  alpha Z        PSCENC =        48.91098011
  Ewald energy   TEWEN  =     -1247.42727025
  -Hartree energ DENC   =     -1176.15613429
  -exchange      EXHF   =         0.00000000
  -V(xc)+E(xc)   XCENC  =        93.33565091
  PAW double counting   =      2607.30120077    -2870.66019098
  entropy T*S    EENTRO =        -0.00180903
  eigenvalues    EBANDS =      -254.28234345
  atomic energy  EATOM  =      2791.67575309
  Solvation  Ediel_sol  =         0.00000000
  ---------------------------------------------------
  free energy    TOTEN  =        -7.30416312 eV

  energy without entropy =       -7.30235409  energy(sigma->0) =       -7.30325860


--------------------------------------------------------------------------------------------------------




--------------------------------------- Iteration      1(  10)  ---------------------------------------


    POTLOK:  cpu time      0.0062: real time      0.0064
    SETDIJ:  cpu time      0.0014: real time      0.0014
     EDDAV:  cpu time      1.1633: real time      1.1642
       DOS:  cpu time      0.0004: real time      0.0005
    CHARGE:  cpu time      0.0173: real time      0.0173
    MIXING:  cpu time      0.0004: real time      0.0004
    --------------------------------------------
      LOOP:  cpu time      1.1891: real time      1.1902

 eigenvalue-minimisations  :  3680
 total energy-change (2. order) :-0.2270632E-02  (-0.5643082E-03)
 number of electron      25.0000021 magnetization 
 augmentation part       11.6125074 magnetization 

 Broyden mixing:
  rms(total) = 0.62168E-02    rms(broyden)= 0.62167E-02
  rms(prec ) = 0.90784E-02
  weight for this iteration     100.00

 eigenvalues of (default mixing * dielectric matrix)
  average eigenvalue GAMMA=   1.7033
  3.0022  2.3140  0.9013  1.1495  1.1495

 Free energy of the ion-electron system (eV)
  ---------------------------------------------------
  alpha Z        PSCENC =        48.91098011
  Ewald energy   TEWEN  =     -1247.42727025
  -Hartree energ DENC   =     -1176.63505641
  -exchange      EXHF   =         0.00000000
  -V(xc)+E(xc)   XCENC  =        93.34703433
  PAW double counting   =      2580.39425898    -2843.84241691
  entropy T*S    EENTRO =        -0.00172110
  eigenvalues    EBANDS =      -253.72799560
  atomic energy  EATOM  =      2791.67575309
  Solvation  Ediel_sol  =         0.00000000
  ---------------------------------------------------
  free energy    TOTEN  =        -7.30643375 eV

  energy without entropy =       -7.30471265  energy(sigma->0) =       -7.30557320


--------------------------------------------------------------------------------------------------------




--------------------------------------- Iteration      1(  11)  ---------------------------------------


    POTLOK:  cpu time      0.0062: real time      0.0064
    SETDIJ:  cpu time      0.0014: real time      0.0014
     EDDAV:  cpu time      1.3122: real time      1.3127
       DOS:  cpu time      0.0004: real time      0.0006
    CHARGE:  cpu time      0.0173: real time      0.0173
    MIXING:  cpu time      0.0003: real time      0.0003
    --------------------------------------------
      LOOP:  cpu time      1.3378: real time      1.3387

 eigenvalue-minimisations  :  3936
 total energy-change (2. order) : 0.1222272E-04  (-0.3572549E-04)
 number of electron      25.0000021 magnetization 
 augmentation part       11.6119400 magnetization 

 Broyden mixing:
  rms(total) = 0.17090E-02    rms(broyden)= 0.17090E-02
  rms(prec ) = 0.41407E-02
  weight for this iteration     100.00

 eigenvalues of (default mixing * dielectric matrix)
  average eigenvalue GAMMA=   1.8869
  3.3772  2.4327  2.4327  1.1333  0.8958  1.0499

 Free energy of the ion-electron system (eV)
  ---------------------------------------------------
  alpha Z        PSCENC =        48.91098011
  Ewald energy   TEWEN  =     -1247.42727025
  -Hartree energ DENC   =     -1176.57016121
  -exchange      EXHF   =         0.00000000
  -V(xc)+E(xc)   XCENC  =        93.34274238
  PAW double counting   =      2584.54629547    -2847.98268080
  entropy T*S    EENTRO =        -0.00176503
  eigenvalues    EBANDS =      -253.80031530
  atomic energy  EATOM  =      2791.67575309
  Solvation  Ediel_sol  =         0.00000000
  ---------------------------------------------------
  free energy    TOTEN  =        -7.30642153 eV

  energy without entropy =       -7.30465650  energy(sigma->0) =       -7.30553901


--------------------------------------------------------------------------------------------------------




--------------------------------------- Iteration      1(  12)  ---------------------------------------


    POTLOK:  cpu time      0.0062: real time      0.0064
    SETDIJ:  cpu time      0.0014: real time      0.0014
     EDDAV:  cpu time      1.2035: real time      1.2040
       DOS:  cpu time      0.0004: real time      0.0005
    CHARGE:  cpu time      0.0173: real time      0.0173
    MIXING:  cpu time      0.0003: real time      0.0003
    --------------------------------------------
      LOOP:  cpu time      1.2291: real time      1.2300

 eigenvalue-minimisations  :  3776
 total energy-change (2. order) :-0.8741978E-04  (-0.2064336E-04)
 number of electron      25.0000021 magnetization 
 augmentation part       11.6117655 magnetization 

 Broyden mixing:
  rms(total) = 0.90875E-03    rms(broyden)= 0.90873E-03
  rms(prec ) = 0.12286E-02
  weight for this iteration     100.00

 eigenvalues of (default mixing * dielectric matrix)
  average eigenvalue GAMMA=   1.8936
  4.0491  2.5117  2.5117  1.2069  1.2069  0.8845  0.8845

 Free energy of the ion-electron system (eV)
  ---------------------------------------------------
  alpha Z        PSCENC =        48.91098011
  Ewald energy   TEWEN  =     -1247.42727025
  -Hartree energ DENC   =     -1176.70035548
  -exchange      EXHF   =         0.00000000
  -V(xc)+E(xc)   XCENC  =        93.34661199
  PAW double counting   =      2585.15174904    -2848.58870041
  entropy T*S    EENTRO =        -0.00176469
  eigenvalues    EBANDS =      -253.67351235
  atomic energy  EATOM  =      2791.67575309
  Solvation  Ediel_sol  =         0.00000000
  ---------------------------------------------------
  free energy    TOTEN  =        -7.30650895 eV

  energy without entropy =       -7.30474426  energy(sigma->0) =       -7.30562661


--------------------------------------------------------------------------------------------------------




--------------------------------------- Iteration      1(  13)  ---------------------------------------


    POTLOK:  cpu time      0.0062: real time      0.0064
    SETDIJ:  cpu time      0.0014: real time      0.0014
     EDDAV:  cpu time      4.7788: real time      4.7848
       DOS:  cpu time      0.0004: real time      0.0006
    --------------------------------------------
      LOOP:  cpu time      4.7868: real time      4.7931

 eigenvalue-minimisations  :  4192
 total energy-change (2. order) :-0.2677204E-05  (-0.9162035E-06)
 number of electron      25.0000021 magnetization 
 augmentation part       11.6117655 magnetization 

 Free energy of the ion-electron system (eV)
  ---------------------------------------------------
  alpha Z        PSCENC =        48.91098011
  Ewald energy   TEWEN  =     -1247.42727025
  -Hartree energ DENC   =     -1176.72043046
  -exchange      EXHF   =         0.00000000
  -V(xc)+E(xc)   XCENC  =        93.34663266
  PAW double counting   =      2584.38256869    -2847.81080954
  entropy T*S    EENTRO =        -0.00176444
  eigenvalues    EBANDS =      -253.66217149
  atomic energy  EATOM  =      2791.67575309
  Solvation  Ediel_sol  =         0.00000000
  ---------------------------------------------------
  free energy    TOTEN  =        -7.30651163 eV

  energy without entropy =       -7.30474719  energy(sigma->0) =       -7.30562941


--------------------------------------------------------------------------------------------------------




 average (electrostatic) potential at core
  the test charge radii are     0.9254  0.9521  0.9698
  (the norm of the test charge is              1.0000)
       1 -50.1057       2 -39.1528       3 -90.9120



 E-fermi :   0.7895     XC(G=0):  -6.7685     alpha+bet : -4.8013

 Fermi energy:         0.7895082546

 k-point     1 :       0.0000    0.0000    0.0000
  band No.  band energies     occupation 
      1     -24.3384      2.00000
      2     -24.3381      2.00000
      3     -24.2280      2.00000
      4     -12.3816      2.00000
      5      -6.6450      2.00000
      6      -6.6409      2.00000
      7      -6.6074      2.00000
      8      -6.5849      2.00000
      9      -6.4640      2.00000
     10      -3.4903      2.00000
     11      -2.5459      2.00000
     12      -1.6011      2.00000
     13      -1.1953      2.00000
     14       2.0512      0.00000
     15       4.4965      0.00000
     16       5.7336      0.00000
     17       6.7055      0.00000
     18       7.1048      0.00000
     19       7.5888      0.00000
     20       8.7456      0.00000
     21       9.2715      0.00000
     22      10.1002      0.00000
     23      10.2004      0.00000
     24      10.2692      0.00000
     25      10.7744      0.00000
     26      11.9412      0.00000
     27      12.1656      0.00000
     28      14.8939      0.00000
     29      15.0560      0.00000
     30      15.5730      0.00000
     31      15.9777      0.00000
     32      16.0551      0.00000

 k-point     2 :       0.2000    0.0000    0.0000
  band No.  band energies     occupation 
      1     -24.3387      2.00000
      2     -24.3379      2.00000
      3     -24.2291      2.00000
      4     -12.2529      2.00000
      5      -6.7093      2.00000
      6      -6.6678      2.00000
      7      -6.6355      2.00000
      8      -6.6080      2.00000
      9      -6.6024      2.00000
     10      -4.3235      2.00000
     11      -2.6385      2.00000
     12      -1.0552      2.00000
     13       0.0656      2.00000
     14       2.1794      0.00000
     15       3.5480      0.00000
     16       6.0100      0.00000
     17       6.2393      0.00000
     18       6.4879      0.00000
     19       8.1863      0.00000
     20       8.4452      0.00000
     21       9.2323      0.00000
     22       9.9063      0.00000
     23      11.1019      0.00000
     24      11.1030      0.00000
     25      11.9086      0.00000
     26      12.2894      0.00000
     27      12.9063      0.00000
     28      12.9612      0.00000
     29      13.3324      0.00000
     30      14.5088      0.00000
     31      15.4853      0.00000
     32      16.1950      0.00000

 k-point     3 :       0.4000    0.0000    0.0000
  band No.  band energies     occupation 
      1     -24.3394      2.00000
      2     -24.3380      2.00000
      3     -24.2309      2.00000
      4     -12.0221      2.00000
      5      -7.2021      2.00000
      6      -6.7264      2.00000
      7      -6.6326      2.00000
      8      -6.6319      2.00000
      9      -6.6076      2.00000
     10      -4.7812      2.00000
     11      -2.5834      2.00000
     12      -0.8112      2.00000
     13       0.6655      1.99955
     14       2.9575      0.00000
     15       4.0334      0.00000
     16       5.2241      0.00000
     17       6.1951      0.00000
     18       7.1955      0.00000
     19       8.1062      0.00000
     20       8.2594      0.00000
     21       8.5917      0.00000
     22       9.7992      0.00000
     23      10.0872      0.00000
     24      10.5174      0.00000
     25      11.0037      0.00000
     26      12.1798      0.00000
     27      12.9336      0.00000
     28      13.6073      0.00000
     29      15.0224      0.00000
     30      15.2805      0.00000
     31      16.3914      0.00000
     32      16.6077      0.00000

 k-point     4 :       0.0000    0.2500    0.0000
  band No.  band energies     occupation 
      1     -24.3390      2.00000
      2     -24.3379      2.00000
      3     -24.2279      2.00000
      4     -12.2234      2.00000
      5      -6.8334      2.00000
      6      -6.6804      2.00000
      7      -6.6391      2.00000
      8      -6.6119      2.00000
      9      -6.6060      2.00000
     10      -4.5637      2.00000
     11      -2.2948      2.00000
     12      -0.9978      2.00000
     13       0.3810      2.00000
     14       2.6722      0.00000
     15       3.3128      0.00000
     16       4.9877      0.00000
     17       5.6410      0.00000
     18       6.4156      0.00000
     19       8.8298      0.00000
     20       9.1845      0.00000
     21       9.4897      0.00000
     22      10.0095      0.00000
     23      10.5909      0.00000
     24      11.2406      0.00000
     25      11.4094      0.00000
     26      12.3223      0.00000
     27      12.3973      0.00000
     28      13.5597      0.00000
     29      13.6109      0.00000
     30      14.1333      0.00000
     31      14.5219      0.00000
     32      15.8133      0.00000

 k-point     5 :       0.2000    0.2500    0.0000
  band No.  band energies     occupation 
      1     -24.3383      2.00000
      2     -24.3380      2.00000
      3     -24.2291      2.00000
      4     -12.3528      2.00000
      5      -6.6462      2.00000
      6      -6.6392      2.00000
      7      -6.6079      2.00000
      8      -6.5861      2.00000
      9      -6.4722      2.00000
     10      -3.5847      2.00000
     11      -2.8341      2.00000
     12      -1.2529      2.00000
     13      -1.1794      2.00000
     14       2.0575      0.00000
     15       4.3872      0.00000
     16       6.1553      0.00000
     17       6.3828      0.00000
     18       6.7189      0.00000
     19       8.3642      0.00000
     20       8.3749      0.00000
     21       8.5643      0.00000
     22       9.9095      0.00000
     23      10.2993      0.00000
     24      11.4848      0.00000
     25      11.5571      0.00000
     26      12.3946      0.00000
     27      12.9472      0.00000
     28      13.3074      0.00000
     29      14.2532      0.00000
     30      14.5544      0.00000
     31      15.2638      0.00000
     32      16.2504      0.00000

 k-point     6 :       0.4000    0.2500    0.0000
  band No.  band energies     occupation 
      1     -24.3385      2.00000
      2     -24.3380      2.00000
      3     -24.2310      2.00000
      4     -12.2620      2.00000
      5      -6.6665      2.00000
      6      -6.6346      2.00000
      7      -6.6088      2.00000
      8      -6.5955      2.00000
      9      -6.5858      2.00000
     10      -4.0255      2.00000
     11      -3.0942      2.00000
     12      -1.0999      2.00000
     13      -0.1415      2.00000
     14       1.6197      0.00000
     15       4.4524      0.00000
     16       5.8933      0.00000
     17       6.4881      0.00000
     18       7.4073      0.00000
     19       7.6446      0.00000
     20       7.9407      0.00000
     21       9.0536      0.00000
     22      10.2408      0.00000
     23      10.5247      0.00000
     24      11.2267      0.00000
     25      12.0400      0.00000
     26      12.1339      0.00000
     27      13.5679      0.00000
     28      14.0045      0.00000
     29      14.0821      0.00000
     30      14.7380      0.00000
     31      15.3273      0.00000
     32      15.6978      0.00000

 k-point     7 :      -0.4000    0.2500    0.0000
  band No.  band energies     occupation 
      1     -24.3392      2.00000
      2     -24.3379      2.00000
      3     -24.2310      2.00000
      4     -12.0633      2.00000
      5      -7.0955      2.00000
      6      -6.7166      2.00000
      7      -6.6328      2.00000
      8      -6.6263      2.00000
      9      -6.6077      2.00000
     10      -4.7106      2.00000
     11      -2.6819      2.00000
     12      -0.8598      2.00000
     13       0.8230      0.34347
     14       2.4042      0.00000
     15       4.0346      0.00000
     16       5.3941      0.00000
     17       6.2254      0.00000
     18       7.3343      0.00000
     19       8.1007      0.00000
     20       8.2787      0.00000
     21       8.6200      0.00000
     22       9.9553      0.00000
     23      10.2813      0.00000
     24      10.4065      0.00000
     25      11.0093      0.00000
     26      12.1884      0.00000
     27      13.2901      0.00000
     28      13.3498      0.00000
     29      14.6924      0.00000
     30      15.6029      0.00000
     31      16.0972      0.00000
     32      16.6422      0.00000

 k-point     8 :      -0.2000    0.2500    0.0000
  band No.  band energies     occupation 
      1     -24.3395      2.00000
      2     -24.3379      2.00000
      3     -24.2289      2.00000
      4     -12.0305      2.00000
      5      -7.2730      2.00000
      6      -6.7226      2.00000
      7      -6.6362      2.00000
      8      -6.6355      2.00000
      9      -6.6065      2.00000
     10      -4.8957      2.00000
     11      -2.2262      2.00000
     12      -0.7852      2.00000
     13       1.2647      0.00000
     14       2.8107      0.00000
     15       3.3823      0.00000
     16       4.9740      0.00000
     17       6.0176      0.00000
     18       6.9745      0.00000
     19       7.2215      0.00000
     20       8.7460      0.00000
     21       8.9527      0.00000
     22       8.9867      0.00000
     23      10.7808      0.00000
     24      11.5008      0.00000
     25      11.8399      0.00000
     26      12.0867      0.00000
     27      13.3966      0.00000
     28      13.8891      0.00000
     29      14.8252      0.00000
     30      15.0820      0.00000
     31      15.3745      0.00000
     32      15.4063      0.00000

 k-point     9 :       0.0000    0.5000    0.0000
  band No.  band energies     occupation 
      1     -24.3396      2.00000
      2     -24.3379      2.00000
      3     -24.2278      2.00000
      4     -12.0427      2.00000
      5      -7.2980      2.00000
      6      -6.7185      2.00000
      7      -6.6385      2.00000
      8      -6.6368      2.00000
      9      -6.6059      2.00000
     10      -4.9518      2.00000
     11      -2.0032      2.00000
     12      -0.7773      2.00000
     13       2.3143      0.00000
     14       2.4330      0.00000
     15       2.5293      0.00000
     16       4.8585      0.00000
     17       5.5206      0.00000
     18       6.8288      0.00000
     19       7.1345      0.00000
     20       8.5802      0.00000
     21       9.6763      0.00000
     22       9.7757      0.00000
     23      10.5671      0.00000
     24      11.6533      0.00000
     25      11.9224      0.00000
     26      12.4380      0.00000
     27      13.0876      0.00000
     28      13.8450      0.00000
     29      13.9716      0.00000
     30      14.7826      0.00000
     31      15.4720      0.00000
     32      15.5167      0.00000

 k-point    10 :       0.2000    0.5000    0.0000
  band No.  band energies     occupation 
      1     -24.3391      2.00000
      2     -24.3379      2.00000
[...]
     23       9.3355      0.00000
     24       9.9716      0.00000
     25      10.8687      0.00000
     26      11.3086      0.00000
     27      11.5551      0.00000
     28      12.5493      0.00000
     29      12.8266      0.00000
     30      13.3992      0.00000
     31      13.4135      0.00000
     32      14.3920      0.00000

 k-point    35 :       0.2000    0.0000    0.4286
  band No.  band energies     occupation 
      1     -25.0274      2.00000
      2     -25.0187      2.00000
      3     -24.9085      2.00000
      4     -12.7262      2.00000
      5      -7.2515      2.00000
      6      -7.2317      2.00000
      7      -7.1986      2.00000
      8      -7.1846      2.00000
      9      -7.1782      2.00000
     10      -4.6423      2.00000
     11      -3.0258      2.00000
     12      -2.6232      2.00000
     13      -0.1141      2.00000
     14       1.9987      0.00000
     15       2.3167      0.00000
     16       3.5914      0.00000
     17       4.1110      0.00000
     18       6.1431      0.00000
     19       6.8733      0.00000
     20       7.2575      0.00000
     21       8.4461      0.00000
     22       8.5158      0.00000
     23       9.2651      0.00000
     24      10.3735      0.00000
     25      10.7638      0.00000
     26      11.1914      0.00000
     27      11.5040      0.00000
     28      12.1199      0.00000
     29      12.4496      0.00000
     30      13.5917      0.00000
     31      14.1825      0.00000
     32      15.0576      0.00000

 k-point    36 :       0.4000    0.0000    0.4286
  band No.  band energies     occupation 
      1     -25.0280      2.00000
      2     -25.0186      2.00000
      3     -24.9100      2.00000
      4     -12.5224      2.00000
      5      -7.6933      2.00000
      6      -7.2783      2.00000
      7      -7.2112      2.00000
      8      -7.1979      2.00000
      9      -7.1935      2.00000
     10      -5.0832      2.00000
     11      -2.9792      2.00000
     12      -2.2361      2.00000
     13       0.7714      0.00000
     14       1.6711      0.00000
     15       2.7331      0.00000
     16       3.1643      0.00000
     17       4.5807      0.00000
     18       5.2669      0.00000
     19       6.8959      0.00000
     20       7.1312      0.00000
     21       8.0523      0.00000
     22       8.7411      0.00000
     23      10.4323      0.00000
     24      10.8904      0.00000
     25      11.2476      0.00000
     26      11.5449      0.00000
     27      11.8249      0.00000
     28      12.4077      0.00000
     29      12.8875      0.00000
     30      13.6496      0.00000
     31      14.0702      0.00000
     32      14.3753      0.00000

 k-point    37 :       0.0000    0.2500    0.4286
  band No.  band energies     occupation 
      1     -25.0276      2.00000
      2     -25.0187      2.00000
      3     -24.9074      2.00000
      4     -12.6998      2.00000
      5      -7.3604      2.00000
      6      -7.2406      2.00000
      7      -7.1981      2.00000
      8      -7.1974      2.00000
      9      -7.1868      2.00000
     10      -4.8542      2.00000
     11      -2.7636      2.00000
     12      -2.5690      2.00000
     13       0.3222      0.00000
     14       1.7832      0.00000
     15       3.0489      0.00000
     16       3.2002      0.00000
     17       4.3293      0.00000
     18       5.6203      0.00000
     19       5.6996      0.00000
     20       7.3072      0.00000
     21       8.8441      0.00000
     22       9.0716      0.00000
     23       9.2502      0.00000
     24       9.4143      0.00000
     25       9.9504      0.00000
     26      11.1361      0.00000
     27      12.0257      0.00000
     28      12.4154      0.00000
     29      13.0511      0.00000
     30      14.0236      0.00000
     31      14.1861      0.00000
     32      14.7306      0.00000

 k-point    38 :       0.2000    0.2500    0.4286
  band No.  band energies     occupation 
      1     -25.0271      2.00000
      2     -25.0187      2.00000
      3     -24.9085      2.00000
      4     -12.8149      2.00000
      5      -7.2114      2.00000
      6      -7.2030      2.00000
      7      -7.1989      2.00000
      8      -7.1594      2.00000
      9      -7.0064      2.00000
     10      -4.0159      2.00000
     11      -3.1976      2.00000
     12      -2.7865      2.00000
     13      -1.4037      2.00000
     14       2.1096      0.00000
     15       2.5838      0.00000
     16       3.8808      0.00000
     17       4.7367      0.00000
     18       6.3156      0.00000
     19       6.4993      0.00000
     20       7.1048      0.00000
     21       8.3844      0.00000
     22       8.8095      0.00000
     23       9.3744      0.00000
     24      10.1177      0.00000
     25      10.3039      0.00000
     26      10.5760      0.00000
     27      11.1402      0.00000
     28      12.2171      0.00000
     29      13.1799      0.00000
     30      13.3807      0.00000
     31      14.3163      0.00000
     32      15.1422      0.00000

 k-point    39 :       0.4000    0.2500    0.4286
  band No.  band energies     occupation 
      1     -25.0273      2.00000
      2     -25.0187      2.00000
      3     -24.9101      2.00000
      4     -12.7342      2.00000
      5      -7.2263      2.00000
      6      -7.2025      2.00000
      7      -7.2002      2.00000
      8      -7.1700      2.00000
      9      -7.1202      2.00000
     10      -4.3915      2.00000
     11      -3.3976      2.00000
     12      -2.6331      2.00000
     13      -0.4155      2.00000
     14       1.6995      0.00000
     15       2.2763      0.00000
     16       3.0193      0.00000
     17       5.2411      0.00000
     18       6.7218      0.00000
     19       6.9258      0.00000
     20       7.2395      0.00000
     21       8.7719      0.00000
     22       8.9000      0.00000
     23       9.8399      0.00000
     24       9.9769      0.00000
     25      10.5725      0.00000
     26      10.8628      0.00000
     27      11.4427      0.00000
     28      12.4800      0.00000
     29      12.8349      0.00000
     30      13.2292      0.00000
     31      13.7187      0.00000
     32      14.0133      0.00000

 k-point    40 :      -0.4000    0.2500    0.4286
  band No.  band energies     occupation 
      1     -25.0279      2.00000
      2     -25.0186      2.00000
      3     -24.9100      2.00000
      4     -12.5582      2.00000
      5      -7.5979      2.00000
      6      -7.2698      2.00000
      7      -7.2058      2.00000
      8      -7.1974      2.00000
      9      -7.1934      2.00000
     10      -5.0152      2.00000
     11      -3.0643      2.00000
     12      -2.3043      2.00000
     13       0.9274      0.00000
     14       1.8094      0.00000
     15       2.1851      0.00000
     16       2.9043      0.00000
     17       4.9369      0.00000
     18       5.3354      0.00000
     19       7.0636      0.00000
     20       7.3936      0.00000
     21       8.0864      0.00000
     22       8.7842      0.00000
     23      10.3929      0.00000
     24      10.6361      0.00000
     25      11.0782      0.00000
     26      11.2793      0.00000
     27      11.9629      0.00000
     28      12.2783      0.00000
     29      12.8289      0.00000
     30      13.4575      0.00000
     31      13.9198      0.00000
     32      13.9929      0.00000

 k-point    41 :      -0.2000    0.2500    0.4286
  band No.  band energies     occupation 
      1     -25.0281      2.00000
      2     -25.0187      2.00000
      3     -24.9084      2.00000
      4     -12.5303      2.00000
      5      -7.7561      2.00000
      6      -7.2758      2.00000
      7      -7.2154      2.00000
      8      -7.1979      2.00000
      9      -7.1967      2.00000
     10      -5.1787      2.00000
     11      -2.6895      2.00000
     12      -2.2299      2.00000
     13       1.2056      0.00000
     14       1.4139      0.00000
     15       2.9481      0.00000
     16       3.6576      0.00000
     17       4.3536      0.00000
     18       5.3510      0.00000
     19       6.0532      0.00000
     20       6.7330      0.00000
     21       6.9324      0.00000
     22       9.2718      0.00000
     23       9.7645      0.00000
     24       9.8380      0.00000
     25      10.9490      0.00000
     26      11.5550      0.00000
     27      12.4789      0.00000
     28      12.8056      0.00000
     29      13.7300      0.00000
     30      14.1754      0.00000
     31      14.6482      0.00000
     32      14.8138      0.00000

 k-point    42 :       0.0000    0.5000    0.4286
  band No.  band energies     occupation 
      1     -25.0282      2.00000
      2     -25.0187      2.00000
      3     -24.9074      2.00000
      4     -12.5413      2.00000
      5      -7.7780      2.00000
      6      -7.2726      2.00000
      7      -7.2171      2.00000
      8      -7.2006      2.00000
      9      -7.1958      2.00000
     10      -5.2249      2.00000
     11      -2.5157      2.00000
     12      -2.2354      2.00000
     13       1.0855      0.00000
     14       2.2608      0.00000
     15       2.5442      0.00000
     16       3.3327      0.00000
     17       4.4787      0.00000
     18       5.5607      0.00000
     19       6.2634      0.00000
     20       6.3206      0.00000
     21       6.7657      0.00000
     22       7.7100      0.00000
     23       9.2323      0.00000
     24      10.8488      0.00000
     25      11.2017      0.00000
     26      11.2252      0.00000
     27      12.7889      0.00000
     28      12.9327      0.00000
     29      14.0086      0.00000
     30      14.2568      0.00000
     31      14.5120      0.00000
     32      15.0278      0.00000

 k-point    43 :       0.2000    0.5000    0.4286
  band No.  band energies     occupation 
      1     -25.0277      2.00000
      2     -25.0187      2.00000
      3     -24.9084      2.00000
      4     -12.6335      2.00000
      5      -7.4822      2.00000
      6      -7.2535      2.00000
      7      -7.2006      2.00000
      8      -7.1971      2.00000
      9      -7.1937      2.00000
     10      -4.9678      2.00000
     11      -2.8874      2.00000
     12      -2.4405      2.00000
     13       0.9497      0.00000
     14       1.7407      0.00000
     15       2.1707      0.00000
     16       3.4337      0.00000
     17       4.2364      0.00000
     18       5.8839      0.00000
     19       6.2345      0.00000
     20       6.9674      0.00000
     21       8.7977      0.00000
     22       9.0978      0.00000
     23       9.1715      0.00000
     24       9.9283      0.00000
     25      10.3299      0.00000
     26      11.2739      0.00000
     27      11.6637      0.00000
     28      12.2476      0.00000
     29      13.4823      0.00000
     30      13.6321      0.00000
     31      14.4180      0.00000
     32      14.7288      0.00000

 k-point    44 :       0.4000    0.5000    0.4286
  band No.  band energies     occupation 
      1     -25.0272      2.00000
      2     -25.0187      2.00000
      3     -24.9101      2.00000
      4     -12.7645      2.00000
      5      -7.2168      2.00000
      6      -7.2003      2.00000
      7      -7.1989      2.00000
      8      -7.1635      2.00000
      9      -7.0467      2.00000
     10      -4.1778      2.00000
     11      -3.4656      2.00000
     12      -2.6857      2.00000
     13      -0.8699      2.00000
     14       1.8141      0.00000
     15       2.3057      0.00000
     16       3.1458      0.00000
     17       5.4196      0.00000
     18       6.7216      0.00000
     19       6.8962      0.00000
     20       7.7191      0.00000
     21       8.4016      0.00000
     22       8.6071      0.00000
     23       9.6963      0.00000
     24       9.8411      0.00000
     25      10.0494      0.00000
     26      11.0271      0.00000
     27      11.4999      0.00000
     28      12.5439      0.00000
     29      13.0823      0.00000
     30      13.3171      0.00000
     31      14.0142      0.00000
     32      14.6464      0.00000


--------------------------------------------------------------------------------------------------------


 soft charge-density along one line, spin component           1
         0         1         2         3         4         5         6         7         8         9
 total charge-density along one line

 pseudopotential strength for first ion, spin component:           1
-28.141  -0.000   0.028   3.918   0.000  -0.011  -0.000  -0.000
 -0.000 -28.149   0.000   0.000   3.921  -0.000   0.000   0.000
  0.028   0.000 -28.080  -0.011  -0.000   3.892  -0.000  -0.001
  3.918   0.000  -0.011   6.085   0.000   0.002   0.000   0.000
  0.000   3.921  -0.000   0.000   6.084  -0.000  -0.000   0.000
 -0.011  -0.000   3.892   0.002  -0.000   6.090   0.000   0.000
 -0.000   0.000  -0.000   0.000  -0.000   0.000   1.424   7.066
 -0.000   0.000  -0.001   0.000   0.000   0.000   7.066  34.665
 total augmentation occupancy for first ion, spin component:           1
  2.001   0.000  -0.000   0.001   0.000  -0.004   0.000  -0.000
  0.000   2.001   0.000   0.000   0.002   0.000   0.000   0.000
 -0.000   0.000   2.000  -0.004   0.000  -0.008   0.001  -0.000
  0.001   0.000  -0.004   0.008   0.000   0.013   0.001  -0.000
  0.000   0.002   0.000   0.000   0.005   0.000   0.000   0.000
 -0.004   0.000  -0.008   0.013   0.000   0.035   0.001  -0.000
  0.000   0.000   0.001   0.001   0.000   0.001   0.555  -0.001
 -0.000   0.000  -0.000  -0.000   0.000  -0.000  -0.001   0.000


------------------------ aborting loop because EDIFF is reached ----------------------------------------


    CHARGE:  cpu time      0.0174: real time      0.0174
    FORLOC:  cpu time      0.0004: real time      0.0004
    FORNL :  cpu time      0.0808: real time      0.0808
    STRESS:  cpu time      0.2420: real time      0.2421
    FORCOR:  cpu time      0.0057: real time      0.0057
    FORHAR:  cpu time      0.0016: real time      0.0016
    MIXING:  cpu time      0.0003: real time      0.0003
    OFIELD:  cpu time      0.0000: real time      0.0000

  FORCE on cell =-STRESS in cart. coord.  units (eV):
  Direction    XX          YY          ZZ          XY          YZ          ZX
  --------------------------------------------------------------------------------------
  Alpha Z    40.84888    40.84888    40.84888
  Ewald    -241.50711    24.56981  -896.69195  -132.70282    -0.00000    -0.00000
  Hartree   526.48251   703.49072    57.44620   -87.02960    -0.00000    -0.00000
  E(xc)    -130.72521  -130.15727  -131.28495    -0.30504     0.00000     0.00000
  Local    -477.29243  -912.92413   642.01441   216.40381     0.00000     0.00000
  n-local    19.63740    17.05662    17.28409     1.08061    -0.03645     0.01485
  augment    64.90046    64.88266    64.12810    -0.05157    -0.00000     0.00000
  Kinetic   197.56189   192.26299   206.34903     2.54204    -0.10354    -0.00005
  Fock        0.00000     0.00000     0.00000     0.00000     0.00000     0.00000
  -------------------------------------------------------------------------------------
  Total      -0.09362     0.03027     0.09382    -0.06258     0.00000     0.00000
  in kB      -1.22171     0.39506     1.22431    -0.81659     0.00000     0.00000
  external pressure =        0.13 kB  Pullay stress =        0.00 kB


 VOLUME and BASIS-vectors are now :
 -----------------------------------------------------------------------------
  energy-cutoff  :      400.00
  volume of cell :      122.78
      direct lattice vectors                 reciprocal lattice vectors
     4.929525342  1.923623289  0.000000000     0.249963884 -0.120711421  0.000000000
     3.040186682  6.295484434  0.000000000    -0.076377974  0.195728115  0.000000000
     0.000000000  0.000000000  4.874905521     0.000000000  0.000000000  0.205132181

  length of vectors
     5.291554276  6.991127185  4.874905521     0.277584564  0.210102570  0.205132181


 FORCES acting on ions
    electron-ion (+dipol)            ewald-force                    non-local-force                 convergence-correction
 -----------------------------------------------------------------------------------------------
   0.219E+01 0.107E+01 -.723E-05   -.213E+01 -.104E+01 0.421E-16   -.750E-01 -.415E-01 0.280E-20   -.150E-02 -.598E-03 0.148E-12
   -.178E+00 -.311E+00 0.695E-05   0.177E+00 0.320E+00 0.439E-15   0.128E-01 -.408E-02 -.278E-20   0.361E-03 0.787E-03 0.145E-12
   -.201E+01 -.743E+00 -.349E-05   0.196E+01 0.717E+00 0.685E-16   0.744E-01 0.214E-01 0.223E-19   0.767E-03 0.145E-03 0.270E-13
 -----------------------------------------------------------------------------------------------
   -.339E-02 0.137E-01 -.376E-05   0.888E-15 0.777E-15 0.550E-15   0.121E-01 -.241E-01 0.223E-19   -.369E-03 0.334E-03 0.320E-12


 POSITION                                       TOTAL-FORCE (eV/Angst)
 -----------------------------------------------------------------------------------
      7.42467      7.70770     -0.00000        -0.025776     -0.008604      0.000000
      5.88880      4.55411     -0.00000         0.008779      0.008928     -0.000000
      4.95465      6.74503      0.00000         0.016997     -0.000324     -0.000000
 -----------------------------------------------------------------------------------
    total drift:                                0.008368     -0.010121     -0.000004


--------------------------------------------------------------------------------------------------------



  FREE ENERGIE OF THE ION-ELECTRON SYSTEM (eV)
  ---------------------------------------------------
  free  energy   TOTEN  =        -7.36503523 eV

  energy  without entropy=       -7.36439322  energy(sigma->0) =       -7.36471422

 d Force = 0.5671813E-04[-0.169E-03, 0.283E-03]  d Energy = 0.9662357E-03-0.910E-03
 d Force =-0.1458709E-01[-0.187E-01,-0.105E-01]  d Ewald  =-0.8092079E+01 0.808E+01


--------------------------------------------------------------------------------------------------------


    POTLOK:  cpu time      0.0074: real time      0.0074


--------------------------------------------------------------------------------------------------------


 Conjugate gradient step on ions:
 trial-energy change:   -0.000966  1 .order   -0.001116   -0.002314    0.000083
  (g-gl).g = 0.199E-02      g.g   = 0.131E-02  gl.gl    = 0.769E-02
 g(Force)  = 0.992E-04   g(Stress)= 0.121E-02 ortho     =-0.131E-04
 gamma     =   0.25922
 trial     =   1.76943
 opt step  =   1.67489  (harmonic =   1.70835) maximal distance =0.00299065
 next E    =    -7.365037   (d E  =  -0.00097)


--------------------------------------------------------------------------------------------------------


  
 reached required accuracy - stopping structural energy minimisation
     LOOP+:  cpu time      6.7247: real time      6.7383
    4ORBIT:  cpu time      0.0000: real time      0.0000

 total amount of memory used by VASP MPI-rank0    33582. kBytes
=======================================================================

   base      :      30000. kBytes
   nonlr-proj:        672. kBytes
   fftplans  :        286. kBytes
   grid      :       1204. kBytes
   one-center:         46. kBytes
   wavefun   :       1374. kBytes

  
  
 General timing and accounting informations for this job:
 ========================================================
  
                  Total CPU time used (sec):      127.723
                            User time (sec):      126.272
                          System time (sec):        1.451
                         Elapsed time (sec):      128.645
  
                   Maximum memory used (kb):      128660.
                   Average memory used (kb):          N/A
  
                          Minor page faults:        36340
                          Major page faults:          130
                 Voluntary context switches:         1293
