  55  55   0   0
  0.2301251E+02  0.1218282E-08  0.7661564E-09  0.1373046E-08  0.0000000E+00
   1.0000000000000000E-004
  CAR 
 NEB_bottleneck                          
      9.27183499    -24.84712851  301      1.79196039      1.00000000
    -24.847  0.0000E+00  0.0000E+00
    -24.733  0.0000E+00  0.0000E+00
    -24.620  0.0000E+00  0.0000E+00
    -24.506 -0.5478E-31 -0.6230E-32
    -24.392 -0.4612E-27 -0.5246E-28
    -24.278 -0.2023E-23 -0.2301E-24
    -24.165 -0.4617E-20 -0.5254E-21
    -24.051 -0.5478E-17 -0.6235E-18
    -23.937 -0.3260E-14 -0.3714E-15
    -23.824 -0.1031E-11 -0.1176E-12
    -23.710 -0.1675E-09 -0.1917E-10
    -23.596 -0.1390E-07 -0.1600E-08
    -23.482 -0.5818E-06 -0.6777E-07
    -23.369 -0.1202E-04 -0.1435E-05
    -23.255 -0.1171E-03 -0.1475E-04
    -23.141 -0.4729E-03 -0.6853E-04
    -23.027 -0.2810E-03 -0.1005E-03
    -22.914  0.3222E-02  0.2660E-03
    -22.800  0.1196E-01  0.1627E-02
    -22.686  0.2323E-01  0.4269E-02
    -22.573  0.2380E-01  0.6975E-02
    -22.459  0.8846E-02  0.7981E-02
    -22.345 -0.2614E-02  0.7684E-02
    -22.231  0.6091E-02  0.8377E-02
    -22.118  0.3890E-01  0.1280E-01
    -22.004  0.6155E-01  0.1980E-01
    -21.890  0.4544E-01  0.2497E-01
    -21.776  0.2411E-01  0.2771E-01
    -21.663  0.3275E-01  0.3144E-01
    -21.549  0.7956E-01  0.4048E-01
    -21.435  0.1145E+00  0.5351E-01
    -21.322  0.8098E-01  0.6272E-01
    -21.208  0.4040E-01  0.6732E-01
    -21.094  0.8900E-01  0.7744E-01
    -20.980  0.1692E+00  0.9668E-01
    -20.867  0.1559E+00  0.1144E+00
    -20.753  0.8382E-01  0.1239E+00
    -20.639  0.4722E-01  0.1293E+00
    -20.525  0.3886E-01  0.1337E+00
    -20.412  0.2823E-01  0.1369E+00
    -20.298  0.1100E-01  0.1382E+00
    -20.184 -0.4253E-04  0.1382E+00
    -20.070 -0.1301E-02  0.1380E+00
    -19.957 -0.3451E-03  0.1380E+00
    -19.843 -0.3627E-04  0.1380E+00
    -19.729 -0.1787E-05  0.1380E+00
    -19.616 -0.4350E-07  0.1380E+00
    -19.502 -0.5358E-09  0.1380E+00
    -19.388 -0.3381E-11  0.1380E+00
    -19.274 -0.1101E-13  0.1380E+00
    -19.161 -0.1952E-16  0.1380E+00
    -19.047  0.0000E+00  0.1380E+00
    -18.933  0.0000E+00  0.1380E+00
    -18.819  0.0000E+00  0.1380E+00
    -18.706  0.0000E+00  0.1380E+00
    -18.592  0.0000E+00  0.1380E+00
    -18.478  0.0000E+00  0.1380E+00
    -18.365  0.0000E+00  0.1380E+00
    -18.251  0.0000E+00  0.1380E+00
    -18.137  0.0000E+00  0.1380E+00
    -18.023  0.0000E+00  0.1380E+00
    -17.910  0.0000E+00  0.1380E+00
    -17.796  0.0000E+00  0.1380E+00
    -17.682  0.0000E+00  0.1380E+00
    -17.568  0.0000E+00  0.1380E+00
    -17.455  0.0000E+00  0.1380E+00
    -17.341  0.0000E+00  0.1380E+00
    -17.227  0.0000E+00  0.1380E+00
    -17.113  0.0000E+00  0.1380E+00
    -17.000  0.0000E+00  0.1380E+00
    -16.886  0.0000E+00  0.1380E+00
    -16.772  0.0000E+00  0.1380E+00
    -16.659  0.0000E+00  0.1380E+00
    -16.545  0.0000E+00  0.1380E+00
    -16.431  0.0000E+00  0.1380E+00
    -16.317  0.0000E+00  0.1380E+00
    -16.204  0.0000E+00  0.1380E+00
    -16.090  0.0000E+00  0.1380E+00
    -15.976  0.0000E+00  0.1380E+00
    -15.862  0.0000E+00  0.1380E+00
    -15.749  0.0000E+00  0.1380E+00
    -15.635  0.0000E+00  0.1380E+00
    -15.521  0.0000E+00  0.1380E+00
    -15.408  0.0000E+00  0.1380E+00
    -15.294  0.0000E+00  0.1380E+00
    -15.180  0.0000E+00  0.1380E+00
    -15.066  0.0000E+00  0.1380E+00
    -14.953  0.0000E+00  0.1380E+00
    -14.839  0.0000E+00  0.1380E+00
    -14.725  0.0000E+00  0.1380E+00
    -14.611  0.0000E+00  0.1380E+00
    -14.498  0.0000E+00  0.1380E+00
    -14.384  0.0000E+00  0.1380E+00
    -14.270  0.0000E+00  0.1380E+00
    -14.157  0.0000E+00  0.1380E+00
    -14.043  0.0000E+00  0.1380E+00
    -13.929  0.0000E+00  0.1380E+00
    -13.815  0.0000E+00  0.1380E+00
    -13.702  0.0000E+00  0.1380E+00
    -13.588  0.0000E+00  0.1380E+00
    -13.474  0.0000E+00  0.1380E+00
    -13.360  0.0000E+00  0.1380E+00
    -13.247  0.0000E+00  0.1380E+00
    -13.133  0.0000E+00  0.1380E+00
    -13.019  0.0000E+00  0.1380E+00
    -12.905 -0.3059E-31  0.1380E+00
    -12.792 -0.2682E-27  0.1380E+00
    -12.678 -0.1225E-23  0.1380E+00
    -12.564 -0.2912E-20  0.1380E+00
    -12.451 -0.3598E-17  0.1380E+00
    -12.337 -0.2232E-14  0.1380E+00
    -12.223 -0.7348E-12  0.1380E+00
    -12.109 -0.1244E-09  0.1380E+00
    -11.996 -0.1076E-07  0.1380E+00
    -11.882 -0.4686E-06  0.1380E+00
    -11.768 -0.1003E-04  0.1380E+00
    -11.654 -0.9948E-04  0.1380E+00
    -11.541 -0.3770E-03  0.1379E+00
    -11.427  0.1134E-03  0.1380E+00
    -11.313  0.3620E-02  0.1384E+00
    -11.200  0.7291E-02  0.1392E+00
    -11.086  0.7656E-02  0.1401E+00
    -10.972  0.1243E-01  0.1415E+00
    -10.858  0.1970E-01  0.1437E+00
    -10.745  0.1568E-01  0.1455E+00
    -10.631  0.5420E-02  0.1461E+00
    -10.517  0.4133E-02  0.1466E+00
    -10.403  0.8609E-02  0.1476E+00
    -10.290  0.9821E-02  0.1487E+00
    -10.176  0.9504E-02  0.1498E+00
    -10.062  0.1427E-01  0.1514E+00
     -9.949  0.2191E-01  0.1539E+00
     -9.835  0.2170E-01  0.1564E+00
     -9.721  0.1635E-01  0.1582E+00
     -9.607  0.1659E-01  0.1601E+00
     -9.494  0.2389E-01  0.1628E+00
     -9.380  0.2720E-01  0.1659E+00
     -9.266  0.2525E-01  0.1688E+00
     -9.152  0.2735E-01  0.1719E+00
     -9.039  0.3335E-01  0.1757E+00
     -8.925  0.3574E-01  0.1797E+00
     -8.811  0.2896E-01  0.1830E+00
     -8.697  0.1690E-01  0.1850E+00
     -8.584  0.7828E-02  0.1859E+00
     -8.470  0.2107E-02  0.1861E+00
     -8.356 -0.3718E-03  0.1861E+00
     -8.243 -0.3694E-03  0.1860E+00
     -8.129 -0.7757E-04  0.1860E+00
     -8.015 -0.6873E-05  0.1860E+00
     -7.901 -0.2888E-06  0.1860E+00
     -7.788 -0.6008E-08  0.1860E+00
     -7.674 -0.6319E-10  0.1860E+00
     -7.560 -0.3398E-12  0.1860E+00
     -7.446 -0.9410E-15  0.1860E+00
     -7.333  0.0000E+00  0.1860E+00
     -7.219  0.0000E+00  0.1860E+00
     -7.105  0.0000E+00  0.1860E+00
     -6.992  0.0000E+00  0.1860E+00
     -6.878  0.0000E+00  0.1860E+00
     -6.764  0.0000E+00  0.1860E+00
     -6.650  0.0000E+00  0.1860E+00
     -6.537  0.0000E+00  0.1860E+00
     -6.423  0.0000E+00  0.1860E+00
     -6.309  0.0000E+00  0.1860E+00
     -6.195  0.0000E+00  0.1860E+00
     -6.082  0.0000E+00  0.1860E+00
     -5.968  0.0000E+00  0.1860E+00
     -5.854  0.0000E+00  0.1860E+00
     -5.741  0.0000E+00  0.1860E+00
     -5.627  0.0000E+00  0.1860E+00
     -5.513  0.0000E+00  0.1860E+00
     -5.399 -0.4805E-30  0.1860E+00
     -5.286 -0.3474E-26  0.1860E+00
     -5.172 -0.1308E-22  0.1860E+00
     -5.058 -0.2562E-19  0.1860E+00
     -4.944 -0.2510E-16  0.1860E+00
     -4.831 -0.1329E-13  0.1860E+00
     -4.717 -0.3596E-11  0.1860E+00
     -4.603 -0.4996E-09  0.1860E+00
     -4.489 -0.3532E-07  0.1860E+00
     -4.376 -0.1251E-05  0.1860E+00
     -4.262 -0.2151E-04  0.1860E+00
     -4.148 -0.1655E-03  0.1860E+00
     -4.035 -0.4068E-03  0.1859E+00
     -3.921  0.9020E-03  0.1860E+00
     -3.807  0.5421E-02  0.1867E+00
     -3.693  0.7598E-02  0.1875E+00
     -3.580  0.4516E-02  0.1880E+00
     -3.466  0.4727E-02  0.1886E+00
     -3.352  0.7003E-02  0.1894E+00
     -3.238  0.6607E-02  0.1901E+00
     -3.125  0.1154E-01  0.1914E+00
     -3.011  0.1999E-01  0.1937E+00
     -2.897  0.2256E-01  0.1963E+00
     -2.784  0.2026E-01  0.1986E+00
     -2.670  0.1472E-01  0.2002E+00
     -2.556  0.9464E-02  0.2013E+00
     -2.442  0.4864E-02  0.2019E+00
     -2.329  0.1787E-02  0.2021E+00
     -2.215  0.5705E-02  0.2027E+00
     -2.101  0.1151E-01  0.2040E+00
     -1.987  0.1164E-01  0.2054E+00
     -1.874  0.1198E-01  0.2067E+00
     -1.760  0.1908E-01  0.2089E+00
     -1.646  0.2240E-01  0.2114E+00
     -1.533  0.1830E-01  0.2135E+00
     -1.419  0.2133E-01  0.2159E+00
     -1.305  0.3137E-01  0.2195E+00
     -1.191  0.3403E-01  0.2234E+00
     -1.078  0.2754E-01  0.2265E+00
     -0.964  0.2128E-01  0.2289E+00
     -0.850  0.1894E-01  0.2311E+00
     -0.736  0.2290E-01  0.2337E+00
     -0.623  0.3242E-01  0.2374E+00
     -0.509  0.3455E-01  0.2413E+00
     -0.395  0.3262E-01  0.2450E+00
     -0.281  0.3715E-01  0.2492E+00
     -0.168  0.4371E-01  0.2542E+00
     -0.054  0.4532E-01  0.2594E+00
      0.060  0.4113E-01  0.2641E+00
      0.173  0.3663E-01  0.2682E+00
      0.287  0.3934E-01  0.2727E+00
      0.401  0.4491E-01  0.2778E+00
      0.515  0.4410E-01  0.2828E+00
      0.628  0.3888E-01  0.2872E+00
      0.742  0.3491E-01  0.2912E+00
      0.856  0.3797E-01  0.2955E+00
      0.970  0.4676E-01  0.3008E+00
      1.083  0.4508E-01  0.3060E+00
      1.197  0.3606E-01  0.3101E+00
      1.311  0.3834E-01  0.3144E+00
      1.424  0.4064E-01  0.3191E+00
      1.538  0.3208E-01  0.3227E+00
      1.652  0.2657E-01  0.3257E+00
      1.766  0.2449E-01  0.3285E+00
      1.879  0.1308E-01  0.3300E+00
      1.993  0.1514E-02  0.3302E+00
      2.107 -0.1491E-02  0.3300E+00
      2.221 -0.1000E-03  0.3300E+00
      2.334  0.4333E-02  0.3305E+00
      2.448  0.8069E-02  0.3314E+00
      2.562  0.5179E-02  0.3320E+00
      2.676  0.6997E-03  0.3321E+00
      2.789 -0.4187E-03  0.3320E+00
      2.903 -0.2644E-03  0.3320E+00
      3.017 -0.4089E-03  0.3319E+00
      3.130  0.3698E-03  0.3320E+00
      3.244  0.4495E-02  0.3325E+00
      3.358  0.8083E-02  0.3334E+00
      3.472  0.5077E-02  0.3340E+00
      3.585  0.6417E-03  0.3341E+00
      3.699 -0.4639E-03  0.3340E+00
      3.813 -0.4415E-03  0.3340E+00
      3.927 -0.2378E-03  0.3339E+00
      4.040  0.2510E-02  0.3342E+00
      4.154  0.6963E-02  0.3350E+00
      4.268  0.7415E-02  0.3359E+00
      4.381  0.7422E-02  0.3367E+00
      4.495  0.1080E-01  0.3379E+00
      4.609  0.1131E-01  0.3392E+00
      4.723  0.6044E-02  0.3399E+00
      4.836  0.3348E-03  0.3399E+00
      4.950  0.1712E-02  0.3401E+00
      5.064  0.1174E-01  0.3415E+00
      5.178  0.2030E-01  0.3438E+00
      5.291  0.1896E-01  0.3459E+00
      5.405  0.2031E-01  0.3482E+00
      5.519  0.2662E-01  0.3513E+00
      5.632  0.2342E-01  0.3539E+00
      5.746  0.1888E-01  0.3561E+00
      5.860  0.1878E-01  0.3582E+00
      5.974  0.1382E-01  0.3598E+00
      6.087  0.1214E-01  0.3612E+00
      6.201  0.1953E-01  0.3634E+00
      6.315  0.2527E-01  0.3663E+00
      6.429  0.2813E-01  0.3695E+00
      6.542  0.3321E-01  0.3732E+00
      6.656  0.3356E-01  0.3771E+00
      6.770  0.2613E-01  0.3800E+00
      6.884  0.2671E-01  0.3831E+00
      6.997  0.3565E-01  0.3871E+00
      7.111  0.3579E-01  0.3912E+00
      7.225  0.2592E-01  0.3941E+00
      7.338  0.1381E-01  0.3957E+00
      7.452  0.3750E-02  0.3961E+00
      7.566 -0.4995E-03  0.3961E+00
      7.680 -0.5765E-03  0.3960E+00
      7.793 -0.1309E-03  0.3960E+00
      7.907 -0.1281E-04  0.3960E+00
      8.021 -0.6030E-06  0.3960E+00
      8.135 -0.1418E-07  0.3960E+00
      8.248 -0.1694E-09  0.3960E+00
      8.362 -0.1037E-11  0.3960E+00
      8.476 -0.3272E-14  0.3960E+00
      8.589 -0.3905E-17  0.3960E+00
      8.703  0.0000E+00  0.3960E+00
      8.817  0.0000E+00  0.3960E+00
      8.931  0.0000E+00  0.3960E+00
      9.044  0.0000E+00  0.3960E+00
      9.158  0.0000E+00  0.3960E+00
      9.272  0.0000E+00  0.3960E+00
