       N       E                     dE             d eps       ncg     rms          rms(c)
DAV:   1     0.323902859731E+04    0.32390E+04   -0.14712E+05   405   0.159E+03
DAV:   2     0.279723765728E+03   -0.29593E+04   -0.28467E+04   423   0.417E+02
DAV:   3    -0.189472463067E+03   -0.46920E+03   -0.46008E+03   477   0.174E+02
DAV:   4    -0.220146660506E+03   -0.30674E+02   -0.30386E+02   459   0.407E+01
DAV:   5    -0.221422012399E+03   -0.12754E+01   -0.12728E+01   540   0.893E+00    0.273E+01
RMM:   6    -0.206080167992E+03    0.15342E+02   -0.24423E+01   419   0.648E+00    0.179E+01
RMM:   7    -0.205254248837E+03    0.82592E+00   -0.26406E+01   425   0.605E+00    0.111E+01
RMM:   8    -0.204663258272E+03    0.59099E+00   -0.44982E+00   537   0.356E+00    0.764E+00
RMM:   9    -0.204315856918E+03    0.34740E+00   -0.12491E+00   401   0.179E+00    0.120E+00
RMM:  10    -0.204318218396E+03   -0.23615E-02   -0.19544E-01   514   0.940E-01    0.925E-01
RMM:  11    -0.204306516549E+03    0.11702E-01   -0.38265E-02   523   0.406E-01    0.793E-01
RMM:  12    -0.204310237998E+03   -0.37214E-02   -0.15533E-02   483   0.198E-01    0.610E-01
RMM:  13    -0.204311075853E+03   -0.83786E-03   -0.69345E-03   452   0.139E-01    0.387E-01
RMM:  14    -0.204313297824E+03   -0.22220E-02   -0.10401E-02   482   0.168E-01    0.209E-01
RMM:  15    -0.204312792656E+03    0.50517E-03   -0.12806E-03   485   0.742E-02    0.187E-01
RMM:  16    -0.204312814605E+03   -0.21949E-04   -0.10410E-03   439   0.541E-02    0.399E-02
RMM:  17    -0.204312845348E+03   -0.30743E-04   -0.30579E-04   511   0.319E-02    0.268E-02
RMM:  18    -0.204312848976E+03   -0.36277E-05   -0.41727E-05   432   0.149E-02    0.180E-02
RMM:  19    -0.204312847824E+03    0.11521E-05   -0.17181E-05   364   0.787E-03    0.679E-03
RMM:  20    -0.204312848880E+03   -0.10565E-05   -0.49161E-06   388   0.476E-03    0.554E-03
RMM:  21    -0.204312849364E+03   -0.48365E-06   -0.79896E-07   231   0.251E-03
   1 F= -.20431285E+03 E0= -.20430396E+03  d E =-.204313E+03
       N       E                     dE             d eps       ncg     rms          rms(c)
DAV:   1    -0.204312849091E+03   -0.21093E-06   -0.43769E-07   252   0.203E-03    0.105E-03
RMM:   2    -0.204312849168E+03   -0.76401E-07   -0.17875E-07   229   0.136E-03
   2 F= -.20431285E+03 E0= -.20430395E+03  d E =0.196313E-06
       N       E                     dE             d eps       ncg     rms          rms(c)
DAV:   1    -0.204312849170E+03   -0.79213E-07   -0.90997E-08   261   0.118E-03    0.636E-04
RMM:   2    -0.204312849189E+03   -0.18350E-07   -0.12182E-08   126   0.543E-04
   3 F= -.20431285E+03 E0= -.20430395E+03  d E =-.211621E-07
       N       E                     dE             d eps       ncg     rms          rms(c)
DAV:   1    -0.204312849189E+03   -0.18885E-07   -0.42195E-08   279   0.515E-04    0.403E-04
RMM:   2    -0.204312849181E+03    0.85602E-08   -0.11026E-09    59   0.371E-04
   4 F= -.20431285E+03 E0= -.20430395E+03  d E =0.802538E-08
       N       E                     dE             d eps       ncg     rms          rms(c)
DAV:   1    -0.204312849178E+03    0.10805E-07   -0.14510E-08   279   0.391E-04    0.225E-04
RMM:   2    -0.204312849172E+03    0.65884E-08    0.10834-123    44   0.243E-04
   5 F= -.20431285E+03 E0= -.20430395E+03  d E =0.883301E-08
       N       E                     dE             d eps       ncg     rms          rms(c)
DAV:   1    -0.204312849170E+03    0.89385E-08   -0.59812E-09   261   0.259E-04    0.137E-04
RMM:   2    -0.204312849166E+03    0.32051E-08    0.22230-124    36   0.174E-04
   6 F= -.20431285E+03 E0= -.20430395E+03  d E =0.555519E-08
       N       E                     dE             d eps       ncg     rms          rms(c)
DAV:   1    -0.204312849166E+03    0.35106E-08   -0.25614E-09   243   0.182E-04    0.920E-05
RMM:   2    -0.204312849163E+03    0.28085E-08    0.11797-124    30   0.122E-04
   7 F= -.20431285E+03 E0= -.20430395E+03  d E =0.311411E-08
       N       E                     dE             d eps       ncg     rms          rms(c)
DAV:   1    -0.204312849162E+03    0.37180E-08   -0.14612E-09   252   0.128E-04    0.610E-05
RMM:   2    -0.204312849161E+03    0.12042E-08    0.53200-184    26   0.884E-05
   8 F= -.20431285E+03 E0= -.20430395E+03  d E =0.211367E-08
       N       E                     dE             d eps       ncg     rms          rms(c)
DAV:   1    -0.204312849161E+03    0.15461E-08   -0.90895E-10   234   0.933E-05    0.429E-05
RMM:   2    -0.204312849160E+03    0.42928E-09    0.22879-190    22   0.651E-05
   9 F= -.20431285E+03 E0= -.20430395E+03  d E =0.771252E-09
       N       E                     dE             d eps       ncg     rms          rms(c)
DAV:   1    -0.204312849159E+03    0.12842E-08   -0.47335E-10   225   0.686E-05    0.274E-05
RMM:   2    -0.204312849160E+03   -0.45111E-09    0.23078-262    18   0.476E-05
  10 F= -.20431285E+03 E0= -.20430395E+03  d E =0.403816E-09
       N       E                     dE             d eps       ncg     rms          rms(c)
DAV:   1    -0.204312849160E+03   -0.48021E-09   -0.32680E-11   225   0.505E-05    0.201E-05
RMM:   2    -0.204312849160E+03    0.18917E-09    0.20843-262    18   0.361E-05
  11 F= -.20431285E+03 E0= -.20430395E+03  d E =0.160071E-09
       N       E                     dE             d eps       ncg     rms          rms(c)
DAV:   1    -0.204312849160E+03    0.21828E-10   -0.29818E-10   225   0.382E-05    0.129E-05
RMM:   2    -0.204312849160E+03    0.44383E-09    0.88757-263    15   0.266E-05
  12 F= -.20431285E+03 E0= -.20430395E+03  d E =0.276486E-09
       N       E                     dE             d eps       ncg     rms          rms(c)
DAV:   1    -0.204312849160E+03   -0.10914E-10   -0.33243E-10   225   0.284E-05    0.970E-06
RMM:   2    -0.204312849160E+03    0.45839E-09    0.84965-263    15   0.206E-05
  13 F= -.20431285E+03 E0= -.20430395E+03  d E =0.363798E-11
       N       E                     dE             d eps       ncg     rms          rms(c)
DAV:   1    -0.204312849159E+03    0.80036E-09   -0.19775E-10   225   0.219E-05    0.628E-06
RMM:   2    -0.204312849159E+03   -0.26921E-09    0.39648-263    12   0.153E-05
  14 F= -.20431285E+03 E0= -.20430395E+03  d E =0.727596E-10
       N       E                     dE             d eps       ncg     rms          rms(c)
DAV:   1    -0.204312849159E+03   -0.19281E-09   -0.34912E-11   225   0.164E-05    0.491E-06
RMM:   2    -0.204312849160E+03   -0.35288E-09    0.34872-263    11   0.120E-05
  15 F= -.20431285E+03 E0= -.20430395E+03  d E =-.276486E-09
       N       E                     dE             d eps       ncg     rms          rms(c)
DAV:   1    -0.204312849159E+03    0.78580E-09   -0.28312E-10   225   0.128E-05    0.322E-06
RMM:   2    -0.204312849159E+03   -0.85129E-09    0.12972-299     8   0.904E-06
  16 F= -.20431285E+03 E0= -.20430395E+03  d E =0.287400E-09
       N       E                     dE             d eps       ncg     rms          rms(c)
DAV:   1    -0.204312849159E+03   -0.21828E-09   -0.47084E-11   225   0.964E-06    0.235E-06
RMM:   2    -0.204312849159E+03   -0.40382E-09    0.56487-300     7   0.705E-06
  17 F= -.20431285E+03 E0= -.20430395E+03  d E =0.229193E-09
       N       E                     dE             d eps       ncg     rms          rms(c)
DAV:   1    -0.204312849158E+03    0.33833E-09    0.86701E-11   225   0.754E-06    0.167E-06
RMM:   2    -0.204312849159E+03   -0.89130E-09    0.40061-306     6   0.543E-06
  18 F= -.20431285E+03 E0= -.20430395E+03  d E =-.149157E-09
       N       E                     dE             d eps       ncg     rms          rms(c)
DAV:   1    -0.204312849159E+03   -0.12369E-09    0.56447E-11   225   0.579E-06    0.117E-06
RMM:   2    -0.204312849160E+03   -0.10041E-08    0.22880-306     6   0.419E-06
  19 F= -.20431285E+03 E0= -.20430395E+03  d E =-.236469E-09
       N       E                     dE             d eps       ncg     rms          rms(c)
DAV:   1    -0.204312849159E+03   -0.81855E-09   -0.13054E-10   225   0.449E-06    0.911E-07
RMM:   2    -0.204312849159E+03    0.29104E-10    0.32114-321     4   0.329E-06
  20 F= -.20431285E+03 E0= -.20430395E+03  d E =0.214641E-09
       N       E                     dE             d eps       ncg     rms          rms(c)
DAV:   1    -0.204312849158E+03    0.89858E-09   -0.15021E-10   225   0.352E-06    0.646E-07
RMM:   2    -0.204312849159E+03   -0.60754E-09    0.27174-321     4   0.252E-06
  21 F= -.20431285E+03 E0= -.20430395E+03  d E =0.261934E-09
       N       E                     dE             d eps       ncg     rms          rms(c)
DAV:   1    -0.204312849159E+03   -0.15280E-09   -0.22791E-10   225   0.270E-06    0.512E-07
RMM:   2    -0.204312849159E+03   -0.80763E-09    0.79051-322     4   0.200E-06
  22 F= -.20431285E+03 E0= -.20430395E+03  d E =-.352884E-09
       N       E                     dE             d eps       ncg     rms          rms(c)
DAV:   1    -0.204312849160E+03   -0.12151E-08   -0.84332E-11   225   0.214E-06    0.370E-07
RMM:   2    -0.204312849159E+03    0.76398E-09    0.88932-322     4   0.153E-06
  23 F= -.20431285E+03 E0= -.20430395E+03  d E =0.356522E-09
       N       E                     dE             d eps       ncg     rms          rms(c)
DAV:   1    -0.204312849159E+03    0.62209E-09    0.11728E-12   225   0.164E-06    0.291E-07
RMM:   2    -0.204312849159E+03    0.00000E+00    0.74110-322     3   0.121E-06
  24 F= -.20431285E+03 E0= -.20430395E+03  d E =-.141881E-09
       N       E                     dE             d eps       ncg     rms          rms(c)
DAV:   1    -0.204312849159E+03    0.17462E-09   -0.96225E-11   225   0.130E-06    0.216E-07
RMM:   2    -0.204312849159E+03   -0.17462E-09    0.98813-322     3   0.932E-07
  25 F= -.20431285E+03 E0= -.20430395E+03  d E =0.000000E+00
       N       E                     dE             d eps       ncg     rms          rms(c)
DAV:   1    -0.204312849160E+03   -0.56025E-09   -0.17432E-10   225   0.100E-06    0.169E-07
RMM:   2    -0.204312849159E+03    0.18190E-09    0.24703-322     3   0.738E-07
  26 F= -.20431285E+03 E0= -.20430395E+03  d E =-.203727E-09
       N       E                     dE             d eps       ncg     rms          rms(c)
DAV:   1    -0.204312849159E+03    0.42201E-09   -0.24968E-10   225   0.796E-07    0.129E-07
RMM:   2    -0.204312849159E+03    0.25466E-10    0.34585-322     3   0.572E-07
  27 F= -.20431285E+03 E0= -.20430395E+03  d E =0.265572E-09
       N       E                     dE             d eps       ncg     rms          rms(c)
DAV:   1    -0.204312849159E+03    0.32378E-09   -0.47822E-11   225   0.616E-07    0.993E-08
RMM:   2    -0.204312849159E+03   -0.36380E-09    0.98813-323     3   0.452E-07
  28 F= -.20431285E+03 E0= -.20430395E+03  d E =-.654836E-10
       N       E                     dE             d eps       ncg     rms          rms(c)
DAV:   1    -0.204312849159E+03   -0.26193E-09   -0.32975E-11   225   0.487E-07    0.773E-08
RMM:   2    -0.204312849159E+03   -0.29104E-09    0.98813-323     3   0.353E-07
  29 F= -.20431285E+03 E0= -.20430395E+03  d E =-.189175E-09
       N       E                     dE             d eps       ncg     rms          rms(c)
DAV:   1    -0.204312849159E+03   -0.13824E-09    0.36641E-11   225   0.380E-07    0.597E-08
RMM:   2    -0.204312849159E+03   -0.32742E-10    0.00000E+00     2   0.278E-07
  30 F= -.20431285E+03 E0= -.20430395E+03  d E =0.120053E-09
       N       E                     dE             d eps       ncg     rms          rms(c)
DAV:   1    -0.204312849160E+03   -0.28740E-09    0.16105E-10   225   0.300E-07    0.469E-08
RMM:   2    -0.204312849159E+03    0.21100E-09    0.49407-323     3   0.217E-07
  31 F= -.20431285E+03 E0= -.20430395E+03  d E =-.436557E-10
       N       E                     dE             d eps       ncg     rms          rms(c)
DAV:   1    -0.204312849160E+03   -0.37471E-09   -0.50801E-11   225   0.235E-07    0.366E-08
RMM:   2    -0.204312849159E+03    0.78580E-09    0.00000E+00     2   0.171E-07
  32 F= -.20431285E+03 E0= -.20430395E+03  d E =0.200089E-09
       N       E                     dE             d eps       ncg     rms          rms(c)
DAV:   1    -0.204312849160E+03    0.25466E-10    0.88383E-11   225   0.185E-07    0.285E-08
RMM:   2    -0.204312849159E+03    0.77853E-09    0.00000E+00     2   0.134E-07
  33 F= -.20431285E+03 E0= -.20430395E+03  d E =0.181899E-10
       N       E                     dE             d eps       ncg     rms          rms(c)
DAV:   1    -0.204312849160E+03    0.16735E-09   -0.16351E-10   225   0.145E-07    0.223E-08
RMM:   2    -0.204312849159E+03    0.45111E-09    0.00000E+00     2   0.106E-07
  34 F= -.20431285E+03 E0= -.20430395E+03  d E =-.160071E-09
       N       E                     dE             d eps       ncg     rms          rms(c)
DAV:   1    -0.204312849160E+03   -0.40382E-09   -0.36321E-10   225   0.115E-07    0.177E-08
RMM:   2    -0.204312849159E+03    0.95315E-09    0.00000E+00     2   0.832E-08
  35 F= -.20431285E+03 E0= -.20430395E+03  d E =0.982254E-10
       N       E                     dE             d eps       ncg     rms          rms(c)
DAV:   1    -0.204312849159E+03    0.15789E-08   -0.25332E-10   225   0.899E-08    0.137E-08
RMM:   2    -0.204312849159E+03   -0.47294E-09    0.00000E+00     2   0.656E-08
  36 F= -.20431285E+03 E0= -.20430395E+03  d E =0.152795E-09
       N       E                     dE             d eps       ncg     rms          rms(c)
DAV:   1    -0.204312849158E+03    0.45111E-09   -0.14241E-10   225   0.708E-08    0.107E-08
RMM:   2    -0.204312849159E+03   -0.11169E-08    0.00000E+00     2   0.516E-08
  37 F= -.20431285E+03 E0= -.20430395E+03  d E =-.192813E-09
       N       E                     dE             d eps       ncg     rms          rms(c)
DAV:   1    -0.204312849159E+03   -0.97134E-09   -0.12994E-10   225   0.560E-08    0.873E-09
RMM:   2    -0.204312849159E+03   -0.16007E-09    0.00000E+00     2   0.408E-08
  38 F= -.20431285E+03 E0= -.20430395E+03  d E =-.145519E-10
       N       E                     dE             d eps       ncg     rms          rms(c)
DAV:   1    -0.204312849159E+03   -0.19281E-09   -0.30240E-10   225   0.441E-08    0.657E-09
RMM:   2    -0.204312849159E+03    0.94587E-10    0.00000E+00     2   0.319E-08
  39 F= -.20431285E+03 E0= -.20430395E+03  d E =0.618456E-10
       N       E                     dE             d eps       ncg     rms          rms(c)
DAV:   1    -0.204312849160E+03   -0.23647E-09   -0.37747E-11   225   0.346E-08    0.541E-09
RMM:   2    -0.204312849159E+03    0.34561E-09    0.00000E+00     2   0.254E-08
  40 F= -.20431285E+03 E0= -.20430395E+03  d E =0.145519E-10
       N       E                     dE             d eps       ncg     rms          rms(c)
DAV:   1    -0.204312849159E+03    0.61846E-10   -0.74141E-11   225   0.275E-08    0.406E-09
RMM:   2    -0.204312849159E+03    0.27285E-09    0.00000E+00     2   0.198E-08
  41 F= -.20431285E+03 E0= -.20430395E+03  d E =-.109139E-10
       N       E                     dE             d eps       ncg     rms          rms(c)
DAV:   1    -0.204312849159E+03    0.75670E-09   -0.14674E-10   225   0.215E-08    0.336E-09
RMM:   2    -0.204312849159E+03   -0.38563E-09    0.00000E+00     2   0.158E-08
  42 F= -.20431285E+03 E0= -.20430395E+03  d E =0.982254E-10
       N       E                     dE             d eps       ncg     rms          rms(c)
DAV:   1    -0.204312849159E+03   -0.40018E-10   -0.14759E-10   225   0.174E-08    0.266E-09
RMM:   2    -0.204312849159E+03   -0.28376E-09    0.00000E+00     2   0.124E-08
  43 F= -.20431285E+03 E0= -.20430395E+03  d E =0.618456E-10
       N       E                     dE             d eps       ncg     rms          rms(c)
DAV:   1    -0.204312849159E+03   -0.73851E-09   -0.25729E-11   225   0.133E-08    0.197E-09
RMM:   2    -0.204312849159E+03    0.27285E-09    0.00000E+00     2   0.976E-09
  44 F= -.20431285E+03 E0= -.20430395E+03  d E =-.181899E-09
       N       E                     dE             d eps       ncg     rms          rms(c)
DAV:   1    -0.204312849159E+03    0.16007E-09   -0.23092E-10   225   0.105E-08    0.155E-09
RMM:   2    -0.204312849159E+03   -0.14552E-10    0.00000E+00     2   0.774E-09
  45 F= -.20431285E+03 E0= -.20430395E+03  d E =-.127329E-09
       N       E                     dE             d eps       ncg     rms          rms(c)
DAV:   1    -0.204312849160E+03   -0.84765E-09   -0.17144E-10   225   0.869E-09    0.150E-09
RMM:   2    -0.204312849159E+03    0.92768E-09    0.00000E+00     2   0.620E-09
  46 F= -.20431285E+03 E0= -.20430395E+03  d E =0.945874E-10
       N       E                     dE             d eps       ncg     rms          rms(c)
DAV:   1    -0.204312849159E+03    0.14879E-08   -0.17312E-10   225   0.667E-09    0.888E-10
RMM:   2    -0.204312849159E+03   -0.43292E-09    0.00000E+00     2   0.483E-09
  47 F= -.20431285E+03 E0= -.20430395E+03  d E =0.127329E-09
       N       E                     dE             d eps       ncg     rms          rms(c)
DAV:   1    -0.204312849159E+03    0.87311E-10   -0.21438E-10   225   0.520E-09    0.927E-10
RMM:   2    -0.204312849159E+03   -0.67303E-09    0.00000E+00     2   0.392E-09
  48 F= -.20431285E+03 E0= -.20430395E+03  d E =-.152795E-09
       N       E                     dE             d eps       ncg     rms          rms(c)
DAV:   1    -0.204312849159E+03   -0.16735E-09   -0.15739E-10   225   0.422E-09    0.606E-10
RMM:   2    -0.204312849159E+03   -0.22555E-09    0.00000E+00     2   0.310E-09
  49 F= -.20431285E+03 E0= -.20430395E+03  d E =0.280124E-09
       N       E                     dE             d eps       ncg     rms          rms(c)
DAV:   1    -0.204312849159E+03   -0.41109E-09   -0.23782E-10   225   0.313E-09    0.862E-10
RMM:   2    -0.204312849159E+03    0.65484E-10    0.00000E+00     2   0.265E-09
  50 F= -.20431285E+03 E0= -.20430395E+03  d E =-.120053E-09
       N       E                     dE             d eps       ncg     rms          rms(c)
DAV:   1    -0.204312849159E+03   -0.20736E-09   -0.41936E-10   225   0.268E-09    0.551E-10
RMM:   2    -0.204312849159E+03    0.30923E-09    0.00000E+00     2   0.202E-09
  51 F= -.20431285E+03 E0= -.20430395E+03  d E =0.363798E-10
       N       E                     dE             d eps       ncg     rms          rms(c)
DAV:   1    -0.204312849159E+03    0.15280E-09   -0.32236E-10   225   0.204E-09    0.478E-10
RMM:   2    -0.204312849159E+03   -0.21828E-10    0.00000E+00     2   0.150E-09
  52 F= -.20431285E+03 E0= -.20430395E+03  d E =-.178261E-09
       N       E                     dE             d eps       ncg     rms          rms(c)
DAV:   1    -0.204312849158E+03    0.98225E-09   -0.25922E-10   225   0.160E-09    0.479E-10
RMM:   2    -0.204312849159E+03   -0.89858E-09    0.00000E+00     2   0.123E-09
  53 F= -.20431285E+03 E0= -.20430395E+03  d E =0.105501E-09
       N       E                     dE             d eps       ncg     rms          rms(c)
DAV:   1    -0.204312849158E+03   -0.10186E-09   -0.22747E-10   225   0.135E-09    0.550E-10
RMM:   2    -0.204312849159E+03   -0.73851E-09    0.00000E+00     2   0.102E-09
  54 F= -.20431285E+03 E0= -.20430395E+03  d E =0.582077E-10
       N       E                     dE             d eps       ncg     rms          rms(c)
DAV:   1    -0.204312849159E+03   -0.46202E-09   -0.42909E-10   225   0.127E-09    0.450E-10
RMM:   2    -0.204312849159E+03   -0.29831E-09    0.00000E+00     2   0.865E-10
  55 F= -.20431285E+03 E0= -.20430395E+03  d E =-.218279E-10
       N       E                     dE             d eps       ncg     rms          rms(c)
DAV:   1    -0.204312849160E+03   -0.73851E-09   -0.27887E-10   225   0.953E-10    0.284E-10
RMM:   2    -0.204312849159E+03    0.31287E-09    0.00000E+00     2   0.800E-10
  56 F= -.20431285E+03 E0= -.20430395E+03  d E =-.127329E-09
       N       E                     dE             d eps       ncg     rms          rms(c)
DAV:   1    -0.204312849159E+03    0.47294E-09   -0.17994E-10   225   0.762E-10    0.472E-10
RMM:   2    -0.204312849159E+03   -0.21828E-10    0.00000E+00     2   0.604E-10
  57 F= -.20431285E+03 E0= -.20430395E+03  d E =0.138243E-09
       N       E                     dE             d eps       ncg     rms          rms(c)
DAV:   1    -0.204312849160E+03   -0.83674E-09   -0.14394E-10   225   0.730E-10    0.381E-10
RMM:   2    -0.204312849159E+03    0.66211E-09    0.00000E+00     2   0.444E-10
  58 F= -.20431285E+03 E0= -.20430395E+03  d E =-.152795E-09
       N       E                     dE             d eps       ncg     rms          rms(c)
DAV:   1    -0.204312849159E+03    0.77125E-09   -0.27785E-10   225   0.499E-10    0.814E-10
RMM:   2    -0.204312849159E+03   -0.13824E-09    0.00000E+00     2   0.561E-10
  59 F= -.20431285E+03 E0= -.20430395E+03  d E =-.291038E-10
       N       E                     dE             d eps       ncg     rms          rms(c)
DAV:   1    -0.204312849159E+03   -0.25466E-10   -0.33301E-10   225   0.689E-10    0.322E-10
RMM:   2    -0.204312849159E+03    0.94587E-10    0.00000E+00     2   0.399E-10
  60 F= -.20431285E+03 E0= -.20430395E+03  d E =0.207365E-09
       N       E                     dE             d eps       ncg     rms          rms(c)
DAV:   1    -0.204312849159E+03    0.60390E-09   -0.29531E-10   225   0.564E-10    0.637E-10
RMM:   2    -0.204312849159E+03   -0.56752E-09    0.00000E+00     2   0.465E-10
  61 F= -.20431285E+03 E0= -.20430395E+03  d E =-.582077E-10
       N       E                     dE             d eps       ncg     rms          rms(c)
DAV:   1    -0.204312849160E+03   -0.17171E-08   -0.24356E-10   225   0.454E-10    0.440E-10
RMM:   2    -0.204312849159E+03    0.11314E-08    0.00000E+00     2   0.282E-10
  62 F= -.20431285E+03 E0= -.20430395E+03  d E =-.181899E-10
       N       E                     dE             d eps       ncg     rms          rms(c)
DAV:   1    -0.204312849159E+03    0.17353E-08   -0.36375E-10   225   0.333E-10    0.372E-10
RMM:   2    -0.204312849159E+03   -0.54206E-09    0.00000E+00     2   0.248E-10
  63 F= -.20431285E+03 E0= -.20430395E+03  d E =0.618456E-10
       N       E                     dE             d eps       ncg     rms          rms(c)
DAV:   1    -0.204312849159E+03   -0.74215E-09   -0.10716E-10   225   0.392E-10    0.394E-10
RMM:   2    -0.204312849159E+03    0.43656E-10    0.00000E+00     2   0.250E-10
  64 F= -.20431285E+03 E0= -.20430395E+03  d E =-.156433E-09
       N       E                     dE             d eps       ncg     rms          rms(c)
DAV:   1    -0.204312849159E+03    0.23283E-09   -0.32789E-10   225   0.309E-10    0.387E-10
RMM:   2    -0.204312849159E+03   -0.26921E-09    0.00000E+00     2   0.246E-10
  65 F= -.20431285E+03 E0= -.20430395E+03  d E =-.800355E-10
       N       E                     dE             d eps       ncg     rms          rms(c)
DAV:   1    -0.204312849159E+03    0.58208E-10   -0.19769E-10   225   0.516E-10    0.338E-10
RMM:   2    -0.204312849159E+03   -0.16735E-09    0.00000E+00     2   0.328E-10
  66 F= -.20431285E+03 E0= -.20430395E+03  d E =0.160071E-09
       N       E                     dE             d eps       ncg     rms          rms(c)
DAV:   1    -0.204312849160E+03   -0.50568E-09   -0.34368E-10   225   0.265E-10    0.406E-10
RMM:   2    -0.204312849159E+03    0.46566E-09    0.00000E+00     2   0.297E-10
  67 F= -.20431285E+03 E0= -.20430395E+03  d E =0.127329E-09
       N       E                     dE             d eps       ncg     rms          rms(c)
DAV:   1    -0.204312849160E+03   -0.26193E-09   -0.22656E-10   225   0.410E-10    0.527E-10
RMM:   2    -0.204312849159E+03    0.63301E-09    0.00000E+00     2   0.384E-10
  68 F= -.20431285E+03 E0= -.20430395E+03  d E =-.945874E-10
       N       E                     dE             d eps       ncg     rms          rms(c)
DAV:   1    -0.204312849160E+03   -0.43656E-10   -0.35129E-10   225   0.379E-10    0.316E-10
RMM:   2    -0.204312849159E+03    0.56389E-09    0.00000E+00     2   0.201E-10
  69 F= -.20431285E+03 E0= -.20430395E+03  d E =-.112777E-09
       N       E                     dE             d eps       ncg     rms          rms(c)
DAV:   1    -0.204312849159E+03    0.10441E-08   -0.21973E-10   225   0.205E-10    0.346E-10
RMM:   2    -0.204312849159E+03   -0.49840E-09    0.00000E+00     2   0.350E-10
  70 F= -.20431285E+03 E0= -.20430395E+03  d E =-.181899E-10
       N       E                     dE             d eps       ncg     rms          rms(c)
DAV:   1    -0.204312849158E+03    0.30559E-09   -0.21654E-10   225   0.210E-10    0.533E-10
RMM:   2    -0.204312849159E+03   -0.79672E-09    0.00000E+00     2   0.473E-10
  71 F= -.20431285E+03 E0= -.20430395E+03  d E =0.727596E-11
       N       E                     dE             d eps       ncg     rms          rms(c)
DAV:   1    -0.204312849159E+03   -0.10186E-08   -0.27527E-10   225   0.298E-10    0.512E-10
RMM:   2    -0.204312849159E+03    0.32378E-09    0.00000E+00     2   0.305E-10
  72 F= -.20431285E+03 E0= -.20430395E+03  d E =0.101863E-09
       N       E                     dE             d eps       ncg     rms          rms(c)
DAV:   1    -0.204312849159E+03    0.15280E-09   -0.11582E-10   225   0.262E-10    0.443E-10
RMM:   2    -0.204312849159E+03    0.20009E-09    0.00000E+00     2   0.166E-10
  73 F= -.20431285E+03 E0= -.20430395E+03  d E =0.291038E-10
       N       E                     dE             d eps       ncg     rms          rms(c)
DAV:   1    -0.204312849160E+03   -0.24738E-09   -0.22006E-10   225   0.205E-10    0.511E-10
RMM:   2    -0.204312849159E+03    0.19645E-09    0.00000E+00     2   0.161E-10
  74 F= -.20431285E+03 E0= -.20430395E+03  d E =-.251021E-09
       N       E                     dE             d eps       ncg     rms          rms(c)
DAV:   1    -0.204312849160E+03   -0.58208E-10   -0.19260E-10   225   0.274E-10    0.501E-10
RMM:   2    -0.204312849159E+03    0.42201E-09    0.00000E+00     2   0.415E-10
  75 F= -.20431285E+03 E0= -.20430395E+03  d E =0.167347E-09
       N       E                     dE             d eps       ncg     rms          rms(c)
DAV:   1    -0.204312849159E+03    0.76761E-09   -0.64082E-11   225   0.252E-10    0.459E-10
RMM:   2    -0.204312849159E+03   -0.25830E-09    0.00000E+00     2   0.330E-10
  76 F= -.20431285E+03 E0= -.20430395E+03  d E =0.873115E-10
       N       E                     dE             d eps       ncg     rms          rms(c)
DAV:   1    -0.204312849159E+03   -0.58208E-10   -0.17092E-10   225   0.205E-10    0.226E-10
RMM:   2    -0.204312849159E+03   -0.33833E-09    0.00000E+00     2   0.225E-10
  77 F= -.20431285E+03 E0= -.20430395E+03  d E =-.138243E-09
       N       E                     dE             d eps       ncg     rms          rms(c)
DAV:   1    -0.204312849159E+03   -0.17826E-09   -0.29671E-10   225   0.262E-10    0.430E-10
RMM:   2    -0.204312849159E+03    0.00000E+00    0.00000E+00     2   0.222E-10
  78 F= -.20431285E+03 E0= -.20430395E+03  d E =0.160071E-09
       N       E                     dE             d eps       ncg     rms          rms(c)
DAV:   1    -0.204312849160E+03   -0.40382E-09   -0.16864E-10   225   0.309E-10    0.404E-10
RMM:   2    -0.204312849159E+03    0.46202E-09    0.00000E+00     2   0.195E-10
  79 F= -.20431285E+03 E0= -.20430395E+03  d E =0.582077E-10
       N       E                     dE             d eps       ncg     rms          rms(c)
DAV:   1    -0.204312849161E+03   -0.11605E-08   -0.94562E-11   225   0.311E-10    0.435E-10
RMM:   2    -0.204312849159E+03    0.16371E-08    0.00000E+00     2   0.340E-10
  80 F= -.20431285E+03 E0= -.20430395E+03  d E =0.145519E-10
       N       E                     dE             d eps       ncg     rms          rms(c)
DAV:   1    -0.204312849159E+03    0.18990E-08   -0.17770E-10   225   0.354E-10    0.434E-10
RMM:   2    -0.204312849159E+03   -0.44020E-09    0.00000E+00     2   0.299E-10
  81 F= -.20431285E+03 E0= -.20430395E+03  d E =-.178261E-09
       N       E                     dE             d eps       ncg     rms          rms(c)
DAV:   1    -0.204312849159E+03   -0.16735E-09   -0.25567E-11   225   0.230E-10    0.269E-10
RMM:   2    -0.204312849159E+03   -0.16007E-09    0.00000E+00     2   0.125E-10
  82 F= -.20431285E+03 E0= -.20430395E+03  d E =0.112777E-09
       N       E                     dE             d eps       ncg     rms          rms(c)
DAV:   1    -0.204312849158E+03    0.72396E-09   -0.12160E-10   225   0.304E-10    0.395E-10
RMM:   2    -0.204312849159E+03   -0.92768E-09    0.00000E+00     2   0.405E-10
  83 F= -.20431285E+03 E0= -.20430395E+03  d E =-.436557E-10
       N       E                     dE             d eps       ncg     rms          rms(c)
DAV:   1    -0.204312849159E+03   -0.11314E-08   -0.12730E-10   225   0.334E-10    0.478E-10
RMM:   2    -0.204312849159E+03    0.22555E-09    0.00000E+00     2   0.173E-10
  84 F= -.20431285E+03 E0= -.20430395E+03  d E =0.218279E-10
       N       E                     dE             d eps       ncg     rms          rms(c)
DAV:   1    -0.204312849160E+03   -0.62209E-09   -0.23536E-10   225   0.188E-10    0.309E-10
RMM:   2    -0.204312849159E+03    0.70941E-09    0.00000E+00     2   0.227E-10
  85 F= -.20431285E+03 E0= -.20430395E+03  d E =-.138243E-09
       N       E                     dE             d eps       ncg     rms          rms(c)
DAV:   1    -0.204312849160E+03    0.12369E-09   -0.23529E-10   225   0.310E-10    0.377E-10
RMM:   2    -0.204312849159E+03    0.54933E-09    0.00000E+00     2   0.395E-10
  86 F= -.20431285E+03 E0= -.20430395E+03  d E =-.363798E-10
       N       E                     dE             d eps       ncg     rms          rms(c)
DAV:   1    -0.204312849160E+03    0.13824E-09   -0.15781E-10   225   0.289E-10    0.387E-10
RMM:   2    -0.204312849159E+03    0.35288E-09    0.00000E+00     2   0.127E-10
  87 F= -.20431285E+03 E0= -.20430395E+03  d E =-.582077E-10
       N       E                     dE             d eps       ncg     rms          rms(c)
DAV:   1    -0.204312849160E+03    0.18917E-09   -0.18121E-10   225   0.347E-10    0.697E-10
RMM:   2    -0.204312849159E+03    0.21100E-09    0.00000E+00     2   0.331E-10
  88 F= -.20431285E+03 E0= -.20430395E+03  d E =0.472937E-10
       N       E                     dE             d eps       ncg     rms          rms(c)
DAV:   1    -0.204312849159E+03    0.50204E-09   -0.38449E-10   225   0.559E-10    0.536E-10
RMM:   2    -0.204312849159E+03   -0.72760E-10    0.00000E+00     2   0.313E-10
  89 F= -.20431285E+03 E0= -.20430395E+03  d E =0.218279E-09
       N       E                     dE             d eps       ncg     rms          rms(c)
DAV:   1    -0.204312849159E+03   -0.47294E-09   -0.37789E-10   225   0.480E-10    0.624E-10
RMM:   2    -0.204312849159E+03    0.16007E-09    0.00000E+00     2   0.352E-10
  90 F= -.20431285E+03 E0= -.20430395E+03  d E =-.240107E-09
       N       E                     dE             d eps       ncg     rms          rms(c)
DAV:   1    -0.204312849160E+03   -0.13461E-09   -0.28850E-10   225   0.402E-10    0.408E-10
RMM:   2    -0.204312849159E+03    0.49840E-09    0.00000E+00     2   0.248E-10
  91 F= -.20431285E+03 E0= -.20430395E+03  d E =0.203727E-09
       N       E                     dE             d eps       ncg     rms          rms(c)
DAV:   1    -0.204312849159E+03    0.32378E-09   -0.18365E-10   225   0.482E-10    0.430E-10
RMM:   2    -0.204312849159E+03    0.47294E-10    0.00000E+00     2   0.473E-10
  92 F= -.20431285E+03 E0= -.20430395E+03  d E =-.127329E-09
       N       E                     dE             d eps       ncg     rms          rms(c)
DAV:   1    -0.204312849159E+03    0.25466E-09   -0.19987E-10   225   0.541E-10    0.339E-10
RMM:   2    -0.204312849159E+03   -0.13461E-09    0.00000E+00     2   0.273E-10
  93 F= -.20431285E+03 E0= -.20430395E+03  d E =0.727596E-10
       N       E                     dE             d eps       ncg     rms          rms(c)
DAV:   1    -0.204312849159E+03    0.45839E-09   -0.23868E-10   225   0.298E-10    0.554E-10
RMM:   2    -0.204312849159E+03   -0.46566E-09    0.00000E+00     2   0.247E-10
  94 F= -.20431285E+03 E0= -.20430395E+03  d E =0.127329E-09
       N       E                     dE             d eps       ncg     rms          rms(c)
DAV:   1    -0.204312849160E+03   -0.10004E-08   -0.34330E-10   225   0.340E-10    0.333E-10
RMM:   2    -0.204312849159E+03    0.37107E-09    0.00000E+00     2   0.192E-10
  95 F= -.20431285E+03 E0= -.20430395E+03  d E =-.163709E-09
       N       E                     dE             d eps       ncg     rms          rms(c)
DAV:   1    -0.204312849159E+03    0.53478E-09   -0.15158E-10   225   0.207E-10    0.295E-10
RMM:   2    -0.204312849159E+03   -0.72760E-10    0.00000E+00     2   0.216E-10
  96 F= -.20431285E+03 E0= -.20430395E+03  d E =0.909495E-10
       N       E                     dE             d eps       ncg     rms          rms(c)
DAV:   1    -0.204312849158E+03    0.63665E-09   -0.23444E-10   225   0.195E-10    0.555E-10
RMM:   2    -0.204312849159E+03   -0.81127E-09    0.00000E+00     2   0.304E-10
  97 F= -.20431285E+03 E0= -.20430395E+03  d E =-.101863E-09
       N       E                     dE             d eps       ncg     rms          rms(c)
DAV:   1    -0.204312849160E+03   -0.11860E-08   -0.26470E-10   225   0.324E-10    0.600E-10
RMM:   2    -0.204312849159E+03    0.48021E-09    0.00000E+00     2   0.215E-10
  98 F= -.20431285E+03 E0= -.20430395E+03  d E =0.105501E-09
       N       E                     dE             d eps       ncg     rms          rms(c)
DAV:   1    -0.204312849160E+03   -0.14552E-09   -0.16736E-10   225   0.287E-10    0.310E-10
RMM:   2    -0.204312849159E+03    0.48385E-09    0.00000E+00     2   0.155E-10
  99 F= -.20431285E+03 E0= -.20430395E+03  d E =-.141881E-09
       N       E                     dE             d eps       ncg     rms          rms(c)
DAV:   1    -0.204312849160E+03   -0.61482E-09   -0.12356E-10   225   0.229E-10    0.414E-10
RMM:   2    -0.204312849159E+03    0.11132E-08    0.00000E+00     2   0.213E-10
 100 F= -.20431285E+03 E0= -.20430395E+03  d E =0.145519E-10
       N       E                     dE             d eps       ncg     rms          rms(c)
DAV:   1    -0.204312849160E+03    0.60027E-09   -0.25964E-10   225   0.252E-10    0.494E-10
RMM:   2    -0.204312849159E+03    0.56752E-09    0.00000E+00     2   0.351E-10
 101 F= -.20431285E+03 E0= -.20430395E+03  d E =0.545697E-10
       N       E                     dE             d eps       ncg     rms          rms(c)
DAV:   1    -0.204312849159E+03    0.10114E-08   -0.17913E-10   225   0.257E-10    0.428E-10
RMM:   2    -0.204312849159E+03   -0.25830E-09    0.00000E+00     2   0.353E-10
 102 F= -.20431285E+03 E0= -.20430395E+03  d E =0.185537E-09
       N       E                     dE             d eps       ncg     rms          rms(c)
DAV:   1    -0.204312849160E+03   -0.84037E-09   -0.35204E-10   225   0.318E-10    0.244E-10
RMM:   2    -0.204312849159E+03    0.45111E-09    0.00000E+00     2   0.376E-10
 103 F= -.20431285E+03 E0= -.20430395E+03  d E =-.130967E-09
       N       E                     dE             d eps       ncg     rms          rms(c)
DAV:   1    -0.204312849161E+03   -0.10696E-08   -0.17189E-10   225   0.175E-10    0.363E-10
RMM:   2    -0.204312849159E+03    0.12951E-08    0.00000E+00     2   0.129E-10
 104 F= -.20431285E+03 E0= -.20430395E+03  d E =-.225555E-09
       N       E                     dE             d eps       ncg     rms          rms(c)
DAV:   1    -0.204312849160E+03    0.69122E-09   -0.16377E-10   225   0.206E-10    0.611E-10
RMM:   2    -0.204312849159E+03    0.75306E-09    0.00000E+00     2   0.233E-10
 105 F= -.20431285E+03 E0= -.20430395E+03  d E =0.149157E-09
       N       E                     dE             d eps       ncg     rms          rms(c)
DAV:   1    -0.204312849159E+03    0.82218E-09   -0.28271E-10   225   0.328E-10    0.429E-10
RMM:   2    -0.204312849159E+03   -0.76398E-10    0.00000E+00     2   0.175E-10
 106 F= -.20431285E+03 E0= -.20430395E+03  d E =-.727596E-11
       N       E                     dE             d eps       ncg     rms          rms(c)
DAV:   1    -0.204312849159E+03    0.28376E-09   -0.28431E-10   225   0.274E-10    0.290E-10
RMM:   2    -0.204312849159E+03   -0.21100E-09    0.00000E+00     2   0.270E-10
 107 F= -.20431285E+03 E0= -.20430395E+03  d E =0.149157E-09
       N       E                     dE             d eps       ncg     rms          rms(c)
DAV:   1    -0.204312849159E+03    0.54570E-10   -0.29835E-10   225   0.169E-10    0.634E-10
RMM:   2    -0.204312849159E+03   -0.45839E-09    0.00000E+00     2   0.251E-10
 108 F= -.20431285E+03 E0= -.20430395E+03  d E =-.192813E-09
       N       E                     dE             d eps       ncg     rms          rms(c)
DAV:   1    -0.204312849159E+03    0.29468E-09   -0.33492E-10   225   0.376E-10    0.695E-10
RMM:   2    -0.204312849159E+03   -0.74215E-09    0.00000E+00     2   0.254E-10
 109 F= -.20431285E+03 E0= -.20430395E+03  d E =0.109139E-10
       N       E                     dE             d eps       ncg     rms          rms(c)
DAV:   1    -0.204312849159E+03   -0.29104E-10   -0.11431E-10   225   0.352E-10    0.316E-10
RMM:   2    -0.204312849159E+03   -0.82218E-09    0.00000E+00     2   0.148E-10
 110 F= -.20431285E+03 E0= -.20430395E+03  d E =-.109139E-09
       N       E                     dE             d eps       ncg     rms          rms(c)
DAV:   1    -0.204312849158E+03    0.50204E-09   -0.25205E-10   225   0.201E-10    0.284E-10
RMM:   2    -0.204312849159E+03   -0.11278E-08    0.00000E+00     2   0.212E-10
 111 F= -.20431285E+03 E0= -.20430395E+03  d E =0.196451E-09
       N       E                     dE             d eps       ncg     rms          rms(c)
DAV:   1    -0.204312849160E+03   -0.23065E-08   -0.33709E-10   225   0.159E-10    0.327E-10
RMM:   2    -0.204312849159E+03    0.11423E-08    0.00000E+00     2   0.276E-10
 112 F= -.20431285E+03 E0= -.20430395E+03  d E =-.363798E-10
       N       E                     dE             d eps       ncg     rms          rms(c)
DAV:   1    -0.204312849159E+03    0.12878E-08   -0.18475E-10   225   0.449E-10    0.342E-10
RMM:   2    -0.204312849159E+03   -0.29104E-09    0.00000E+00     2   0.291E-10
 113 F= -.20431285E+03 E0= -.20430395E+03  d E =-.145519E-09
       N       E                     dE             d eps       ncg     rms          rms(c)
DAV:   1    -0.204312849159E+03    0.55297E-09   -0.24034E-10   225   0.430E-10    0.482E-10
RMM:   2    -0.204312849159E+03   -0.56752E-09    0.00000E+00     2   0.303E-10
 114 F= -.20431285E+03 E0= -.20430395E+03  d E =0.276486E-09
       N       E                     dE             d eps       ncg     rms          rms(c)
DAV:   1    -0.204312849159E+03   -0.36016E-09   -0.18100E-10   225   0.405E-10    0.607E-10
RMM:   2    -0.204312849159E+03   -0.13097E-09    0.00000E+00     2   0.302E-10
 115 F= -.20431285E+03 E0= -.20430395E+03  d E =0.763976E-10
       N       E                     dE             d eps       ncg     rms          rms(c)
DAV:   1    -0.204312849159E+03   -0.45839E-09   -0.28409E-10   225   0.447E-10    0.499E-10
RMM:   2    -0.204312849159E+03    0.25830E-09    0.00000E+00     2   0.268E-10
 116 F= -.20431285E+03 E0= -.20430395E+03  d E =-.691216E-10
       N       E                     dE             d eps       ncg     rms          rms(c)
DAV:   1    -0.204312849158E+03    0.82582E-09   -0.10944E-10   225   0.299E-10    0.259E-10
RMM:   2    -0.204312849159E+03   -0.68758E-09    0.00000E+00     2   0.273E-10
 117 F= -.20431285E+03 E0= -.20430395E+03  d E =-.120053E-09
       N       E                     dE             d eps       ncg     rms          rms(c)
DAV:   1    -0.204312849159E+03   -0.42201E-09   -0.16854E-10   225   0.213E-10    0.370E-10
RMM:   2    -0.204312849159E+03   -0.19645E-09    0.00000E+00     2   0.157E-10
 118 F= -.20431285E+03 E0= -.20430395E+03  d E =0.691216E-10
       N       E                     dE             d eps       ncg     rms          rms(c)
DAV:   1    -0.204312849160E+03   -0.78580E-09   -0.12434E-10   225   0.229E-10    0.323E-10
RMM:   2    -0.204312849159E+03    0.54933E-09    0.00000E+00     2   0.295E-10
 119 F= -.20431285E+03 E0= -.20430395E+03  d E =-.400178E-10
       N       E                     dE             d eps       ncg     rms          rms(c)
DAV:   1    -0.204312849160E+03   -0.18917E-09   -0.31422E-10   225   0.245E-10    0.300E-10
RMM:   2    -0.204312849159E+03    0.85129E-09    0.00000E+00     2   0.166E-10
 120 F= -.20431285E+03 E0= -.20430395E+03  d E =0.112777E-09
       N       E                     dE             d eps       ncg     rms          rms(c)
DAV:   1    -0.204312849159E+03    0.13097E-08   -0.14365E-10   225   0.224E-10    0.498E-10
RMM:   2    -0.204312849159E+03   -0.48385E-09    0.00000E+00     2   0.323E-10
 121 F= -.20431285E+03 E0= -.20430395E+03  d E =-.254659E-10
       N       E                     dE             d eps       ncg     rms          rms(c)
DAV:   1    -0.204312849159E+03   -0.90586E-09   -0.20981E-10   225   0.360E-10    0.507E-10
RMM:   2    -0.204312849159E+03    0.27649E-09    0.00000E+00     2   0.219E-10
 122 F= -.20431285E+03 E0= -.20430395E+03  d E =-.145519E-09
       N       E                     dE             d eps       ncg     rms          rms(c)
DAV:   1    -0.204312849159E+03    0.11642E-09   -0.33054E-10   225   0.276E-10    0.452E-10
RMM:   2    -0.204312849159E+03    0.17099E-09    0.00000E+00     2   0.165E-10
 123 F= -.20431285E+03 E0= -.20430395E+03  d E =0.109139E-10
       N       E                     dE             d eps       ncg     rms          rms(c)
DAV:   1    -0.204312849159E+03    0.31287E-09   -0.71554E-11   225   0.220E-10    0.466E-10
RMM:   2    -0.204312849159E+03   -0.24738E-09    0.00000E+00     2   0.181E-10
 124 F= -.20431285E+03 E0= -.20430395E+03  d E =-.105501E-09
       N       E                     dE             d eps       ncg     rms          rms(c)
DAV:   1    -0.204312849158E+03    0.94224E-09   -0.70798E-11   225   0.305E-10    0.467E-10
RMM:   2    -0.204312849159E+03   -0.97134E-09    0.00000E+00     2   0.320E-10
 125 F= -.20431285E+03 E0= -.20430395E+03  d E =0.218279E-09
       N       E                     dE             d eps       ncg     rms          rms(c)
DAV:   1    -0.204312849160E+03   -0.16516E-08   -0.25059E-10   225   0.318E-10    0.224E-10
RMM:   2    -0.204312849159E+03    0.66939E-09    0.00000E+00     2   0.209E-10
 126 F= -.20431285E+03 E0= -.20430395E+03  d E =-.109139E-10
       N       E                     dE             d eps       ncg     rms          rms(c)
DAV:   1    -0.204312849160E+03   -0.34561E-09   -0.14053E-10   225   0.232E-10    0.538E-10
RMM:   2    -0.204312849159E+03    0.86584E-09    0.00000E+00     2   0.198E-10
 127 F= -.20431285E+03 E0= -.20430395E+03  d E =-.149157E-09
       N       E                     dE             d eps       ncg     rms          rms(c)
DAV:   1    -0.204312849160E+03   -0.22192E-09   -0.10536E-10   225   0.280E-10    0.205E-10
RMM:   2    -0.204312849159E+03    0.10914E-08    0.00000E+00     2   0.170E-10
 128 F= -.20431285E+03 E0= -.20430395E+03  d E =0.363798E-11
       N       E                     dE             d eps       ncg     rms          rms(c)
DAV:   1    -0.204312849159E+03    0.14697E-08   -0.23631E-10   225   0.170E-10    0.483E-10
RMM:   2    -0.204312849159E+03   -0.16007E-09    0.00000E+00     2   0.240E-10
 129 F= -.20431285E+03 E0= -.20430395E+03  d E =0.218279E-09
       N       E                     dE             d eps       ncg     rms          rms(c)
DAV:   1    -0.204312849159E+03   -0.56389E-09   -0.16889E-10   225   0.274E-10    0.363E-10
RMM:   2    -0.204312849159E+03    0.25466E-09    0.00000E+00     2   0.235E-10
 130 F= -.20431285E+03 E0= -.20430395E+03  d E =-.149157E-09
       N       E                     dE             d eps       ncg     rms          rms(c)
DAV:   1    -0.204312849160E+03   -0.49840E-09   -0.21712E-10   225   0.246E-10    0.297E-10
RMM:   2    -0.204312849159E+03    0.74215E-09    0.00000E+00     2   0.189E-10
 131 F= -.20431285E+03 E0= -.20430395E+03  d E =-.109139E-10
       N       E                     dE             d eps       ncg     rms          rms(c)
DAV:   1    -0.204312849159E+03    0.99317E-09   -0.94267E-11   225   0.174E-10    0.288E-10
RMM:   2    -0.204312849159E+03   -0.16735E-09    0.00000E+00     2   0.150E-10
 132 F= -.20431285E+03 E0= -.20430395E+03  d E =0.836735E-10
       N       E                     dE             d eps       ncg     rms          rms(c)
DAV:   1    -0.204312849158E+03    0.44020E-09   -0.14193E-10   225   0.183E-10    0.394E-10
RMM:   2    -0.204312849159E+03   -0.81491E-09    0.00000E+00     2   0.152E-10
 133 F= -.20431285E+03 E0= -.20430395E+03  d E =-.207365E-09
       N       E                     dE             d eps       ncg     rms          rms(c)
DAV:   1    -0.204312849159E+03   -0.61846E-10   -0.16005E-10   225   0.243E-10    0.366E-10
RMM:   2    -0.204312849159E+03   -0.59663E-09    0.00000E+00     2   0.279E-10
 134 F= -.20431285E+03 E0= -.20430395E+03  d E =0.156433E-09
       N       E                     dE             d eps       ncg     rms          rms(c)
DAV:   1    -0.204312849159E+03   -0.84037E-09   -0.10282E-10   225   0.303E-10    0.483E-10
RMM:   2    -0.204312849159E+03    0.23283E-09    0.00000E+00     2   0.350E-10
 135 F= -.20431285E+03 E0= -.20430395E+03  d E =-.109139E-10
       N       E                     dE             d eps       ncg     rms          rms(c)
DAV:   1    -0.204312849159E+03    0.79308E-09   -0.18110E-10   225   0.361E-10    0.388E-10
RMM:   2    -0.204312849159E+03   -0.74215E-09    0.00000E+00     2   0.174E-10
 136 F= -.20431285E+03 E0= -.20430395E+03  d E =-.181899E-09
       N       E                     dE             d eps       ncg     rms          rms(c)
DAV:   1    -0.204312849158E+03    0.10550E-09   -0.17252E-10   225   0.288E-10    0.316E-10
RMM:   2    -0.204312849159E+03   -0.70213E-09    0.00000E+00     2   0.182E-10
 137 F= -.20431285E+03 E0= -.20430395E+03  d E =0.145519E-09
       N       E                     dE             d eps       ncg     rms          rms(c)
DAV:   1    -0.204312849160E+03   -0.12442E-08   -0.19429E-10   225   0.175E-10    0.248E-10
RMM:   2    -0.204312849159E+03    0.57844E-09    0.00000E+00     2   0.295E-10
 138 F= -.20431285E+03 E0= -.20430395E+03  d E =0.363798E-10
       N       E                     dE             d eps       ncg     rms          rms(c)
DAV:   1    -0.204312849160E+03    0.58208E-10   -0.20105E-10   225   0.172E-10    0.541E-10
RMM:   2    -0.204312849159E+03    0.29104E-09    0.00000E+00     2   0.229E-10
 139 F= -.20431285E+03 E0= -.20430395E+03  d E =-.229193E-09
       N       E                     dE             d eps       ncg     rms          rms(c)
DAV:   1    -0.204312849161E+03   -0.11787E-08   -0.21655E-10   225   0.295E-10    0.264E-10
RMM:   2    -0.204312849159E+03    0.16225E-08    0.00000E+00     2   0.143E-10
 140 F= -.20431285E+03 E0= -.20430395E+03  d E =0.152795E-09
       N       E                     dE             d eps       ncg     rms          rms(c)
DAV:   1    -0.204312849160E+03    0.66939E-09   -0.32462E-10   225   0.223E-10    0.503E-10
RMM:   2    -0.204312849159E+03    0.11132E-08    0.00000E+00     2   0.294E-10
 141 F= -.20431285E+03 E0= -.20430395E+03  d E =0.160071E-09
       N       E                     dE             d eps       ncg     rms          rms(c)
DAV:   1    -0.204312849159E+03    0.10041E-08   -0.19935E-10   225   0.371E-10    0.482E-10
RMM:   2    -0.204312849159E+03   -0.29104E-10    0.00000E+00     2   0.300E-10
 142 F= -.20431285E+03 E0= -.20430395E+03  d E =-.138243E-09
       N       E                     dE             d eps       ncg     rms          rms(c)
DAV:   1    -0.204312849159E+03   -0.58208E-10   -0.90354E-11   225   0.326E-10    0.311E-10
RMM:   2    -0.204312849159E+03    0.13824E-09    0.00000E+00     2   0.185E-10
 143 F= -.20431285E+03 E0= -.20430395E+03  d E =0.109139E-09
       N       E                     dE             d eps       ncg     rms          rms(c)
DAV:   1    -0.204312849158E+03    0.11023E-08   -0.13487E-10   225   0.276E-10    0.330E-10
RMM:   2    -0.204312849159E+03   -0.10114E-08    0.00000E+00     2   0.302E-10
 144 F= -.20431285E+03 E0= -.20430395E+03  d E =-.472937E-10
       N       E                     dE             d eps       ncg     rms          rms(c)
DAV:   1    -0.204312849159E+03   -0.13461E-08   -0.16848E-10   225   0.327E-10    0.488E-10
RMM:   2    -0.204312849159E+03    0.29468E-09    0.00000E+00     2   0.266E-10
 145 F= -.20431285E+03 E0= -.20430395E+03  d E =-.400178E-10
       N       E                     dE             d eps       ncg     rms          rms(c)
DAV:   1    -0.204312849159E+03    0.37835E-09   -0.19308E-10   225   0.375E-10    0.745E-10
RMM:   2    -0.204312849159E+03   -0.14916E-09    0.00000E+00     2   0.336E-10
 146 F= -.20431285E+03 E0= -.20430395E+03  d E =-.654836E-10
       N       E                     dE             d eps       ncg     rms          rms(c)
DAV:   1    -0.204312849159E+03    0.16371E-09   -0.45315E-10   225   0.440E-10    0.512E-10
RMM:   2    -0.204312849159E+03   -0.87311E-10    0.00000E+00     2   0.236E-10
 147 F= -.20431285E+03 E0= -.20430395E+03  d E =0.225555E-09
       N       E                     dE             d eps       ncg     rms          rms(c)
DAV:   1    -0.204312849160E+03   -0.84765E-09   -0.37932E-10   225   0.319E-10    0.378E-10
RMM:   2    -0.204312849159E+03    0.70577E-09    0.00000E+00     2   0.294E-10
 148 F= -.20431285E+03 E0= -.20430395E+03  d E =-.545697E-10
       N       E                     dE             d eps       ncg     rms          rms(c)
DAV:   1    -0.204312849160E+03    0.21464E-09   -0.21583E-10   225   0.257E-10    0.382E-10
RMM:   2    -0.204312849159E+03    0.48385E-09    0.00000E+00     2   0.172E-10
 149 F= -.20431285E+03 E0= -.20430395E+03  d E =-.727596E-11
       N       E                     dE             d eps       ncg     rms          rms(c)
DAV:   1    -0.204312849159E+03    0.86948E-09   -0.16857E-10   225   0.239E-10    0.282E-10
RMM:   2    -0.204312849159E+03   -0.51659E-09    0.00000E+00     2   0.163E-10
 150 F= -.20431285E+03 E0= -.20430395E+03  d E =-.130967E-09
       N       E                     dE             d eps       ncg     rms          rms(c)
DAV:   1    -0.204312849159E+03    0.94587E-10   -0.13514E-10   225   0.222E-10    0.377E-10
RMM:   2    -0.204312849159E+03   -0.37835E-09    0.00000E+00     2   0.472E-10
 151 F= -.20431285E+03 E0= -.20430395E+03  d E =0.232831E-09
       N       E                     dE             d eps       ncg     rms          rms(c)
DAV:   1    -0.204312849159E+03   -0.69122E-10   -0.14045E-10   225   0.383E-10    0.557E-10
RMM:   2    -0.204312849159E+03   -0.57844E-09    0.00000E+00     2   0.281E-10
 152 F= -.20431285E+03 E0= -.20430395E+03  d E =-.269210E-09
       N       E                     dE             d eps       ncg     rms          rms(c)
DAV:   1    -0.204312849160E+03   -0.10987E-08   -0.42666E-10   225   0.367E-10    0.427E-10
RMM:   2    -0.204312849159E+03    0.71304E-09    0.00000E+00     2   0.309E-10
 153 F= -.20431285E+03 E0= -.20430395E+03  d E =0.192813E-09
       N       E                     dE             d eps       ncg     rms          rms(c)
DAV:   1    -0.204312849160E+03    0.18190E-09   -0.19823E-10   225   0.319E-10    0.666E-10
RMM:   2    -0.204312849159E+03    0.52023E-09    0.00000E+00     2   0.313E-10
 154 F= -.20431285E+03 E0= -.20430395E+03  d E =-.109139E-10
       N       E                     dE             d eps       ncg     rms          rms(c)
DAV:   1    -0.204312849159E+03    0.24011E-09   -0.24942E-10   225   0.374E-10    0.467E-10
RMM:   2    -0.204312849159E+03    0.14916E-09    0.00000E+00     2   0.404E-10
 155 F= -.20431285E+03 E0= -.20430395E+03  d E =-.130967E-09
       N       E                     dE             d eps       ncg     rms          rms(c)
DAV:   1    -0.204312849160E+03   -0.19281E-09   -0.41023E-10   225   0.408E-10    0.527E-10
RMM:   2    -0.204312849159E+03    0.17099E-09    0.00000E+00     2   0.213E-10
 156 F= -.20431285E+03 E0= -.20430395E+03  d E =-.170985E-09
       N       E                     dE             d eps       ncg     rms          rms(c)
DAV:   1    -0.204312849159E+03    0.69122E-09   -0.36157E-10   225   0.321E-10    0.895E-10
RMM:   2    -0.204312849159E+03   -0.17099E-09    0.00000E+00     2   0.325E-10
 157 F= -.20431285E+03 E0= -.20430395E+03  d E =0.349246E-09
       N       E                     dE             d eps       ncg     rms          rms(c)
DAV:   1    -0.204312849160E+03   -0.64756E-09   -0.15463E-10   225   0.635E-10    0.464E-10
RMM:   2    -0.204312849159E+03    0.36744E-09    0.00000E+00     2   0.371E-10
 158 F= -.20431285E+03 E0= -.20430395E+03  d E =-.109139E-09
       N       E                     dE             d eps       ncg     rms          rms(c)
DAV:   1    -0.204312849159E+03    0.42564E-09   -0.20307E-10   225   0.629E-10    0.431E-10
RMM:   2    -0.204312849159E+03   -0.11278E-09    0.00000E+00     2   0.284E-10
 159 F= -.20431285E+03 E0= -.20430395E+03  d E =-.545697E-10
       N       E                     dE             d eps       ncg     rms          rms(c)
DAV:   1    -0.204312849158E+03    0.98225E-09   -0.25876E-10   225   0.403E-10    0.357E-10
RMM:   2    -0.204312849159E+03   -0.10805E-08    0.00000E+00     2   0.272E-10
 160 F= -.20431285E+03 E0= -.20430395E+03  d E =0.145519E-10
       N       E                     dE             d eps       ncg     rms          rms(c)
DAV:   1    -0.204312849159E+03   -0.12915E-08   -0.33930E-10   225   0.300E-10    0.446E-10
RMM:   2    -0.204312849159E+03    0.98225E-10    0.00000E+00     2   0.281E-10
 161 F= -.20431285E+03 E0= -.20430395E+03  d E =-.112777E-09
       N       E                     dE             d eps       ncg     rms          rms(c)
DAV:   1    -0.204312849160E+03   -0.71668E-09   -0.36520E-10   225   0.335E-10    0.351E-10
RMM:   2    -0.204312849159E+03    0.78217E-09    0.00000E+00     2   0.395E-10
 162 F= -.20431285E+03 E0= -.20430395E+03  d E =-.327418E-10
       N       E                     dE             d eps       ncg     rms          rms(c)
DAV:   1    -0.204312849158E+03    0.19390E-08   -0.13027E-10   225   0.247E-10    0.484E-10
RMM:   2    -0.204312849159E+03   -0.11678E-08    0.00000E+00     2   0.221E-10
 163 F= -.20431285E+03 E0= -.20430395E+03  d E =-.109139E-10
       N       E                     dE             d eps       ncg     rms          rms(c)
DAV:   1    -0.204312849158E+03   -0.29831E-09   -0.38310E-10   225   0.251E-10    0.747E-10
RMM:   2    -0.204312849159E+03   -0.74215E-09    0.00000E+00     2   0.343E-10
 164 F= -.20431285E+03 E0= -.20430395E+03  d E =0.127329E-09
       N       E                     dE             d eps       ncg     rms          rms(c)
DAV:   1    -0.204312849159E+03   -0.86220E-09   -0.74440E-11   225   0.416E-10    0.353E-10
RMM:   2    -0.204312849159E+03    0.20373E-09    0.00000E+00     2   0.569E-10
 165 F= -.20431285E+03 E0= -.20430395E+03  d E =0.836735E-10
       N       E                     dE             d eps       ncg     rms          rms(c)
DAV:   1    -0.204312849160E+03   -0.61846E-09   -0.32406E-10   225   0.320E-10    0.262E-10
RMM:   2    -0.204312849159E+03    0.80763E-09    0.00000E+00     2   0.257E-10
 166 F= -.20431285E+03 E0= -.20430395E+03  d E =-.145519E-10
       N       E                     dE             d eps       ncg     rms          rms(c)
DAV:   1    -0.204312849160E+03    0.30923E-09   -0.38734E-11   225   0.192E-10    0.297E-10
RMM:   2    -0.204312849159E+03    0.43292E-09    0.00000E+00     2   0.143E-10
 167 F= -.20431285E+03 E0= -.20430395E+03  d E =-.654836E-10
       N       E                     dE             d eps       ncg     rms          rms(c)
DAV:   1    -0.204312849159E+03    0.90949E-09   -0.87486E-11   225   0.402E-10    0.369E-10
RMM:   2    -0.204312849159E+03   -0.41837E-09    0.00000E+00     2   0.281E-10
 168 F= -.20431285E+03 E0= -.20430395E+03  d E =0.582077E-10
       N       E                     dE             d eps       ncg     rms          rms(c)
DAV:   1    -0.204312849159E+03   -0.36016E-09   -0.65757E-11   225   0.391E-10    0.372E-10
RMM:   2    -0.204312849159E+03   -0.12369E-09    0.00000E+00     2   0.209E-10
 169 F= -.20431285E+03 E0= -.20430395E+03  d E =-.654836E-10
       N       E                     dE             d eps       ncg     rms          rms(c)
DAV:   1    -0.204312849160E+03   -0.46202E-09   -0.36939E-10   225   0.237E-10    0.492E-10
RMM:   2    -0.204312849159E+03    0.45475E-09    0.00000E+00     2   0.212E-10
 170 F= -.20431285E+03 E0= -.20430395E+03  d E =0.116415E-09
       N       E                     dE             d eps       ncg     rms          rms(c)
DAV:   1    -0.204312849159E+03    0.29104E-09   -0.36659E-10   225   0.296E-10    0.427E-10
RMM:   2    -0.204312849159E+03   -0.61846E-10    0.00000E+00     2   0.213E-10
 171 F= -.20431285E+03 E0= -.20430395E+03  d E =-.225555E-09
       N       E                     dE             d eps       ncg     rms          rms(c)
DAV:   1    -0.204312849159E+03    0.17462E-09   -0.22361E-10   225   0.305E-10    0.308E-10
RMM:   2    -0.204312849159E+03   -0.19645E-09    0.00000E+00     2   0.169E-10
 172 F= -.20431285E+03 E0= -.20430395E+03  d E =0.400178E-10
       N       E                     dE             d eps       ncg     rms          rms(c)
DAV:   1    -0.204312849159E+03    0.31287E-09   -0.13238E-10   225   0.247E-10    0.296E-10
RMM:   2    -0.204312849159E+03   -0.25102E-09    0.00000E+00     2   0.292E-10
 173 F= -.20431285E+03 E0= -.20430395E+03  d E =0.258296E-09
       N       E                     dE             d eps       ncg     rms          rms(c)
DAV:   1    -0.204312849159E+03   -0.58571E-09   -0.12678E-10   225   0.191E-10    0.626E-10
RMM:   2    -0.204312849159E+03    0.17826E-09    0.00000E+00     2   0.301E-10
 174 F= -.20431285E+03 E0= -.20430395E+03  d E =-.156433E-09
       N       E                     dE             d eps       ncg     rms          rms(c)
DAV:   1    -0.204312849160E+03   -0.86220E-09   -0.39346E-10   225   0.430E-10    0.404E-10
RMM:   2    -0.204312849159E+03    0.10004E-08    0.00000E+00     2   0.335E-10
 175 F= -.20431285E+03 E0= -.20430395E+03  d E =-.400178E-10
       N       E                     dE             d eps       ncg     rms          rms(c)
DAV:   1    -0.204312849159E+03    0.98225E-09   -0.23898E-10   225   0.321E-10    0.215E-10
RMM:   2    -0.204312849159E+03    0.58208E-10    0.00000E+00     2   0.155E-10
 176 F= -.20431285E+03 E0= -.20430395E+03  d E =0.400178E-10
       N       E                     dE             d eps       ncg     rms          rms(c)
DAV:   1    -0.204312849158E+03    0.13424E-08   -0.15669E-10   225   0.232E-10    0.370E-10
RMM:   2    -0.204312849159E+03   -0.11642E-08    0.00000E+00     2   0.445E-10
 177 F= -.20431285E+03 E0= -.20430395E+03  d E =0.120053E-09
       N       E                     dE             d eps       ncg     rms          rms(c)
DAV:   1    -0.204312849159E+03   -0.15934E-08   -0.33128E-10   225   0.259E-10    0.347E-10
RMM:   2    -0.204312849159E+03    0.37107E-09    0.00000E+00     2   0.313E-10
 178 F= -.20431285E+03 E0= -.20430395E+03  d E =-.582077E-10
       N       E                     dE             d eps       ncg     rms          rms(c)
DAV:   1    -0.204312849160E+03   -0.13824E-09   -0.18305E-10   225   0.217E-10    0.376E-10
RMM:   2    -0.204312849159E+03    0.32378E-09    0.00000E+00     2   0.161E-10
 179 F= -.20431285E+03 E0= -.20430395E+03  d E =-.185537E-09
       N       E                     dE             d eps       ncg     rms          rms(c)
DAV:   1    -0.204312849158E+03    0.11532E-08   -0.98081E-11   225   0.190E-10    0.365E-10
RMM:   2    -0.204312849159E+03   -0.75306E-09    0.00000E+00     2   0.258E-10
 180 F= -.20431285E+03 E0= -.20430395E+03  d E =0.763976E-10
       N       E                     dE             d eps       ncg     rms          rms(c)
DAV:   1    -0.204312849159E+03   -0.11642E-09   -0.22302E-10   225   0.249E-10    0.389E-10
RMM:   2    -0.204312849159E+03   -0.58935E-09    0.00000E+00     2   0.162E-10
 181 F= -.20431285E+03 E0= -.20430395E+03  d E =0.472937E-10
       N       E                     dE             d eps       ncg     rms          rms(c)
DAV:   1    -0.204312849159E+03   -0.54933E-09   -0.31529E-10   225   0.220E-10    0.390E-10
RMM:   2    -0.204312849159E+03   -0.65484E-10    0.00000E+00     2   0.181E-10
 182 F= -.20431285E+03 E0= -.20430395E+03  d E =-.254659E-10
       N       E                     dE             d eps       ncg     rms          rms(c)
DAV:   1    -0.204312849159E+03    0.28012E-09   -0.44053E-10   225   0.304E-10    0.231E-10
RMM:   2    -0.204312849159E+03   -0.34197E-09    0.00000E+00     2   0.306E-10
 183 F= -.20431285E+03 E0= -.20430395E+03  d E =0.363798E-11
       N       E                     dE             d eps       ncg     rms          rms(c)
DAV:   1    -0.204312849159E+03   -0.50204E-09   -0.32350E-11   225   0.259E-10    0.499E-10
RMM:   2    -0.204312849159E+03    0.21100E-09    0.00000E+00     2   0.709E-10
 184 F= -.20431285E+03 E0= -.20430395E+03  d E =0.509317E-10
       N       E                     dE             d eps       ncg     rms          rms(c)
DAV:   1    -0.204312849159E+03    0.50204E-09   -0.29597E-10   207   0.486E-10    0.340E-10
RMM:   2    -0.204312849159E+03   -0.19645E-09    0.00000E+00     2   0.283E-10
 185 F= -.20431285E+03 E0= -.20430395E+03  d E =0.945874E-10
       N       E                     dE             d eps       ncg     rms          rms(c)
DAV:   1    -0.204312849159E+03   -0.42564E-09   -0.14091E-10   198   0.226E-10    0.573E-10
RMM:   2    -0.204312849159E+03    0.72760E-10    0.00000E+00     1   0.355E-10
 186 F= -.20431285E+03 E0= -.20430395E+03  d E =-.156433E-09
       N       E                     dE             d eps       ncg     rms          rms(c)
DAV:   1    -0.204312849159E+03    0.17826E-09   -0.14777E-10   198   0.469E-10    0.471E-10
RMM:   2    -0.204312849159E+03   -0.11278E-09    0.00000E+00     1   0.436E-10
 187 F= -.20431285E+03 E0= -.20430395E+03  d E =-.727596E-11
       N       E                     dE             d eps       ncg     rms          rms(c)
DAV:   1    -0.204312849159E+03   -0.21100E-09   -0.23782E-10   198   0.308E-10    0.673E-10
RMM:   2    -0.204312849159E+03    0.21100E-09    0.00000E+00     1   0.272E-10
 188 F= -.20431285E+03 E0= -.20430395E+03  d E =0.112777E-09
       N       E                     dE             d eps       ncg     rms          rms(c)
DAV:   1    -0.204312849159E+03    0.46566E-09   -0.41919E-10   198   0.431E-10    0.317E-10
RMM:   2    -0.204312849159E+03   -0.49840E-09    0.00000E+00     1   0.224E-10
 189 F= -.20431285E+03 E0= -.20430395E+03  d E =-.243745E-09
       N       E                     dE             d eps       ncg     rms          rms(c)
DAV:   1    -0.204312849158E+03    0.42928E-09   -0.21299E-10   198   0.199E-10    0.338E-10
RMM:   2    -0.204312849159E+03   -0.73123E-09    0.00000E+00     1   0.136E-10
 190 F= -.20431285E+03 E0= -.20430395E+03  d E =0.196451E-09
       N       E                     dE             d eps       ncg     rms          rms(c)
DAV:   1    -0.204312849159E+03   -0.84765E-09   -0.17482E-10   198   0.196E-10    0.333E-10
RMM:   2    -0.204312849159E+03    0.80036E-10    0.00000E+00     1   0.256E-10
 191 F= -.20431285E+03 E0= -.20430395E+03  d E =-.363798E-10
       N       E                     dE             d eps       ncg     rms          rms(c)
DAV:   1    -0.204312849159E+03    0.41837E-09   -0.17357E-10   198   0.193E-10    0.382E-10
RMM:   2    -0.204312849159E+03   -0.14916E-09    0.00000E+00     1   0.404E-10
 192 F= -.20431285E+03 E0= -.20430395E+03  d E =0.189175E-09
       N       E                     dE             d eps       ncg     rms          rms(c)
DAV:   1    -0.204312849159E+03    0.33106E-09   -0.26316E-10   198   0.232E-10    0.371E-10
RMM:   2    -0.204312849159E+03   -0.67303E-09    0.00000E+00     1   0.168E-10
 193 F= -.20431285E+03 E0= -.20430395E+03  d E =-.192813E-09
       N       E                     dE             d eps       ncg     rms          rms(c)
DAV:   1    -0.204312849159E+03   -0.81491E-09   -0.11502E-10   198   0.206E-10    0.760E-10
RMM:   2    -0.204312849159E+03    0.17462E-09    0.00000E+00     1   0.271E-10
 194 F= -.20431285E+03 E0= -.20430395E+03  d E =0.327418E-10
       N       E                     dE             d eps       ncg     rms          rms(c)
DAV:   1    -0.204312849158E+03    0.16698E-08   -0.33040E-10   198   0.425E-10    0.444E-10
RMM:   2    -0.204312849159E+03   -0.16626E-08    0.00000E+00     1   0.193E-10
 195 F= -.20431285E+03 E0= -.20430395E+03  d E =-.167347E-09
       N       E                     dE             d eps       ncg     rms          rms(c)
DAV:   1    -0.204312849160E+03   -0.20736E-08   -0.18015E-10   198   0.221E-10    0.349E-10
RMM:   2    -0.204312849159E+03    0.72760E-09    0.00000E+00     1   0.175E-10
 196 F= -.20431285E+03 E0= -.20430395E+03  d E =0.316504E-09
       N       E                     dE             d eps       ncg     rms          rms(c)
DAV:   1    -0.204312849159E+03    0.69122E-09   -0.21369E-10   198   0.152E-10    0.650E-10
RMM:   2    -0.204312849159E+03   -0.18190E-09    0.00000E+00     1   0.277E-10
 197 F= -.20431285E+03 E0= -.20430395E+03  d E =-.218279E-09
       N       E                     dE             d eps       ncg     rms          rms(c)
DAV:   1    -0.204312849160E+03   -0.11714E-08   -0.37778E-10   198   0.338E-10    0.426E-10
RMM:   2    -0.204312849159E+03    0.10659E-08    0.00000E+00     1   0.146E-10
 198 F= -.20431285E+03 E0= -.20430395E+03  d E =0.763976E-10
       N       E                     dE             d eps       ncg     rms          rms(c)
DAV:   1    -0.204312849159E+03    0.13060E-08   -0.11789E-10   198   0.218E-10    0.416E-10
RMM:   2    -0.204312849159E+03   -0.37471E-09    0.00000E+00     1   0.164E-10
 199 F= -.20431285E+03 E0= -.20430395E+03  d E =-.134605E-09
       N       E                     dE             d eps       ncg     rms          rms(c)
DAV:   1    -0.204312849159E+03   -0.16007E-09   -0.12911E-10   198   0.198E-10    0.350E-10
RMM:   2    -0.204312849159E+03   -0.69122E-10    0.00000E+00     1   0.215E-10
 200 F= -.20431285E+03 E0= -.20430395E+03  d E =0.145519E-09
       N       E                     dE             d eps       ncg     rms          rms(c)
DAV:   1    -0.204312849159E+03   -0.12733E-09   -0.93327E-11   198   0.265E-10    0.392E-10
RMM:   2    -0.204312849159E+03    0.80036E-10    0.00000E+00     1   0.493E-10
 201 F= -.20431285E+03 E0= -.20430395E+03  d E =0.218279E-10
       N       E                     dE             d eps       ncg     rms          rms(c)
DAV:   1    -0.204312849159E+03    0.30923E-09   -0.23285E-10   198   0.281E-10    0.401E-10
RMM:   2    -0.204312849159E+03   -0.14188E-09    0.00000E+00     1   0.198E-10
 202 F= -.20431285E+03 E0= -.20430395E+03  d E =0.873115E-10
       N       E                     dE             d eps       ncg     rms          rms(c)
DAV:   1    -0.204312849159E+03    0.21828E-09   -0.23909E-10   198   0.307E-10    0.412E-10
RMM:   2    -0.204312849159E+03   -0.54933E-09    0.00000E+00     1   0.254E-10
 203 F= -.20431285E+03 E0= -.20430395E+03  d E =-.189175E-09
       N       E                     dE             d eps       ncg     rms          rms(c)
DAV:   1    -0.204312849159E+03   -0.26193E-09   -0.19380E-10   198   0.599E-10    0.412E-10
RMM:   2    -0.204312849159E+03   -0.27285E-09    0.00000E+00     1   0.379E-10
 204 F= -.20431285E+03 E0= -.20430395E+03  d E =0.145519E-10
       N       E                     dE             d eps       ncg     rms          rms(c)
DAV:   1    -0.204312849158E+03    0.62209E-09   -0.22945E-10   198   0.317E-10    0.522E-10
RMM:   2    -0.204312849159E+03   -0.72396E-09    0.00000E+00     1   0.254E-10
 205 F= -.20431285E+03 E0= -.20430395E+03  d E =0.170985E-09
       N       E                     dE             d eps       ncg     rms          rms(c)
DAV:   1    -0.204312849158E+03   -0.12369E-09   -0.95393E-11   198   0.213E-10    0.376E-10
RMM:   2    -0.204312849159E+03   -0.82218E-09    0.00000E+00     1   0.189E-10
 206 F= -.20431285E+03 E0= -.20430395E+03  d E =-.221917E-09
       N       E                     dE             d eps       ncg     rms          rms(c)
DAV:   1    -0.204312849159E+03   -0.18190E-09   -0.26835E-10   198   0.230E-10    0.433E-10
RMM:   2    -0.204312849159E+03   -0.65484E-09    0.00000E+00     1   0.201E-10
 207 F= -.20431285E+03 E0= -.20430395E+03  d E =-.145519E-10
       N       E                     dE             d eps       ncg     rms          rms(c)
DAV:   1    -0.204312849159E+03   -0.68030E-09   -0.22339E-10   198   0.285E-10    0.347E-10
RMM:   2    -0.204312849159E+03    0.32742E-10    0.00000E+00     1   0.285E-10
 208 F= -.20431285E+03 E0= -.20430395E+03  d E =0.727596E-11
       N       E                     dE             d eps       ncg     rms          rms(c)
DAV:   1    -0.204312849158E+03    0.15389E-08   -0.25110E-10   198   0.220E-10    0.327E-10
RMM:   2    -0.204312849159E+03   -0.13933E-08    0.00000E+00     1   0.224E-10
 209 F= -.20431285E+03 E0= -.20430395E+03  d E =0.112777E-09
       N       E                     dE             d eps       ncg     rms          rms(c)
DAV:   1    -0.204312849160E+03   -0.21537E-08   -0.30294E-10   198   0.221E-10    0.568E-10
RMM:   2    -0.204312849159E+03    0.65484E-09    0.00000E+00     1   0.260E-10
 210 F= -.20431285E+03 E0= -.20430395E+03  d E =-.105501E-09
       N       E                     dE             d eps       ncg     rms          rms(c)
DAV:   1    -0.204312849159E+03    0.65847E-09   -0.38348E-10   198   0.308E-10    0.448E-10
RMM:   2    -0.204312849159E+03    0.10186E-09    0.00000E+00     1   0.180E-10
 211 F= -.20431285E+03 E0= -.20430395E+03  d E =0.105501E-09
       N       E                     dE             d eps       ncg     rms          rms(c)
DAV:   1    -0.204312849160E+03   -0.10186E-08   -0.14624E-10   198   0.226E-10    0.392E-10
RMM:   2    -0.204312849159E+03    0.91313E-09    0.00000E+00     1   0.207E-10
 212 F= -.20431285E+03 E0= -.20430395E+03  d E =-.207365E-09
       N       E                     dE             d eps       ncg     rms          rms(c)
DAV:   1    -0.204312849160E+03    0.18917E-09   -0.10938E-10   198   0.215E-10    0.354E-10
RMM:   2    -0.204312849159E+03    0.84037E-09    0.00000E+00     1   0.180E-10
 213 F= -.20431285E+03 E0= -.20430395E+03  d E =0.116415E-09
       N       E                     dE             d eps       ncg     rms          rms(c)
DAV:   1    -0.204312849159E+03    0.11132E-08   -0.15215E-10   198   0.202E-10    0.339E-10
RMM:   2    -0.204312849159E+03   -0.15280E-09    0.00000E+00     1   0.381E-10
 214 F= -.20431285E+03 E0= -.20430395E+03  d E =0.120053E-09
       N       E                     dE             d eps       ncg     rms          rms(c)
DAV:   1    -0.204312849159E+03   -0.10550E-09   -0.33012E-10   198   0.265E-10    0.321E-10
RMM:   2    -0.204312849159E+03    0.00000E+00    0.00000E+00     1   0.185E-10
 215 F= -.20431285E+03 E0= -.20430395E+03  d E =0.472937E-10
       N       E                     dE             d eps       ncg     rms          rms(c)
DAV:   1    -0.204312849160E+03   -0.11496E-08   -0.13336E-10   198   0.280E-10    0.591E-10
RMM:   2    -0.204312849159E+03    0.11896E-08    0.00000E+00     1   0.419E-10
 216 F= -.20431285E+03 E0= -.20430395E+03  d E =0.400178E-10
       N       E                     dE             d eps       ncg     rms          rms(c)
DAV:   1    -0.204312849158E+03    0.24556E-08   -0.10417E-10   198   0.527E-10    0.515E-10
RMM:   2    -0.204312849159E+03   -0.14479E-08    0.00000E+00     1   0.398E-10
 217 F= -.20431285E+03 E0= -.20430395E+03  d E =-.181899E-09
       N       E                     dE             d eps       ncg     rms          rms(c)
DAV:   1    -0.204312849159E+03   -0.17062E-08   -0.35540E-10   198   0.503E-10    0.507E-10
RMM:   2    -0.204312849159E+03    0.26557E-09    0.00000E+00     1   0.345E-10
 218 F= -.20431285E+03 E0= -.20430395E+03  d E =0.727596E-11
       N       E                     dE             d eps       ncg     rms          rms(c)
DAV:   1    -0.204312849159E+03    0.76034E-09   -0.26165E-10   198   0.451E-10    0.354E-10
RMM:   2    -0.204312849159E+03   -0.39654E-09    0.00000E+00     1   0.431E-10
 219 F= -.20431285E+03 E0= -.20430395E+03  d E =0.982254E-10
       N       E                     dE             d eps       ncg     rms          rms(c)
DAV:   1    -0.204312849159E+03   -0.76398E-10   -0.59163E-11   198   0.488E-10    0.447E-10
RMM:   2    -0.204312849159E+03   -0.27649E-09    0.00000E+00     1   0.273E-10
 220 F= -.20431285E+03 E0= -.20430395E+03  d E =0.436557E-10
       N       E                     dE             d eps       ncg     rms          rms(c)
DAV:   1    -0.204312849159E+03   -0.34197E-09   -0.27603E-10   198   0.293E-10    0.474E-10
RMM:   2    -0.204312849159E+03   -0.72760E-10    0.00000E+00     1   0.208E-10
 221 F= -.20431285E+03 E0= -.20430395E+03  d E =-.138243E-09
       N       E                     dE             d eps       ncg     rms          rms(c)
DAV:   1    -0.204312849159E+03   -0.12005E-09   -0.39958E-10   198   0.325E-10    0.439E-10
RMM:   2    -0.204312849159E+03    0.72760E-10    0.00000E+00     1   0.227E-10
 222 F= -.20431285E+03 E0= -.20430395E+03  d E =0.254659E-10
       N       E                     dE             d eps       ncg     rms          rms(c)
DAV:   1    -0.204312849160E+03   -0.38199E-09   -0.12836E-10   198   0.326E-10    0.327E-10
RMM:   2    -0.204312849159E+03    0.50204E-09    0.00000E+00     1   0.196E-10
 223 F= -.20431285E+03 E0= -.20430395E+03  d E =0.472937E-10
       N       E                     dE             d eps       ncg     rms          rms(c)
DAV:   1    -0.204312849160E+03   -0.12369E-09   -0.30145E-10   198   0.325E-10    0.419E-10
RMM:   2    -0.204312849159E+03    0.69485E-09    0.00000E+00     1   0.295E-10
 224 F= -.20431285E+03 E0= -.20430395E+03  d E =0.691216E-10
       N       E                     dE             d eps       ncg     rms          rms(c)
DAV:   1    -0.204312849160E+03    0.10186E-09   -0.20129E-10   198   0.327E-10    0.396E-10
RMM:   2    -0.204312849159E+03    0.36380E-09    0.00000E+00     1   0.205E-10
 225 F= -.20431285E+03 E0= -.20430395E+03  d E =-.229193E-09
       N       E                     dE             d eps       ncg     rms          rms(c)
DAV:   1    -0.204312849160E+03   -0.90949E-10   -0.24765E-10   198   0.192E-10    0.244E-10
RMM:   2    -0.204312849159E+03    0.63301E-09    0.00000E+00     1   0.212E-10
 226 F= -.20431285E+03 E0= -.20430395E+03  d E =0.178261E-09
       N       E                     dE             d eps       ncg     rms          rms(c)
DAV:   1    -0.204312849159E+03    0.52023E-09   -0.23954E-10   198   0.316E-10    0.396E-10
RMM:   2    -0.204312849159E+03    0.83674E-10    0.00000E+00     1   0.366E-10
 227 F= -.20431285E+03 E0= -.20430395E+03  d E =-.291038E-10
       N       E                     dE             d eps       ncg     rms          rms(c)
DAV:   1    -0.204312849158E+03    0.13315E-08   -0.25269E-10   198   0.407E-10    0.415E-10
RMM:   2    -0.204312849159E+03   -0.11860E-08    0.00000E+00     1   0.455E-10
 228 F= -.20431285E+03 E0= -.20430395E+03  d E =0.618456E-10
       N       E                     dE             d eps       ncg     rms          rms(c)
DAV:   1    -0.204312849159E+03   -0.11860E-08   -0.32090E-10   198   0.282E-10    0.388E-10
RMM:   2    -0.204312849159E+03   -0.10550E-09    0.00000E+00     1   0.247E-10
 229 F= -.20431285E+03 E0= -.20430395E+03  d E =-.105501E-09
       N       E                     dE             d eps       ncg     rms          rms(c)
DAV:   1    -0.204312849159E+03    0.76398E-10   -0.31507E-10   198   0.404E-10    0.538E-10
RMM:   2    -0.204312849159E+03    0.72760E-11    0.00000E+00     1   0.378E-10
 230 F= -.20431285E+03 E0= -.20430395E+03  d E =0.189175E-09
       N       E                     dE             d eps       ncg     rms          rms(c)
DAV:   1    -0.204312849159E+03    0.25830E-09   -0.25417E-10   198   0.301E-10    0.424E-10
RMM:   2    -0.204312849159E+03   -0.31287E-09    0.00000E+00     1   0.361E-10
 231 F= -.20431285E+03 E0= -.20430395E+03  d E =-.618456E-10
       N       E                     dE             d eps       ncg     rms          rms(c)
DAV:   1    -0.204312849159E+03   -0.68394E-09   -0.17935E-10   198   0.332E-10    0.349E-10
RMM:   2    -0.204312849159E+03    0.45839E-09    0.00000E+00     1   0.201E-10
 232 F= -.20431285E+03 E0= -.20430395E+03  d E =0.873115E-10
       N       E                     dE             d eps       ncg     rms          rms(c)
DAV:   1    -0.204312849160E+03   -0.16735E-09   -0.33024E-10   198   0.326E-10    0.357E-10
RMM:   2    -0.204312849159E+03    0.33106E-09    0.00000E+00     1   0.413E-10
 233 F= -.20431285E+03 E0= -.20430395E+03  d E =-.294676E-09
       N       E                     dE             d eps       ncg     rms          rms(c)
DAV:   1    -0.204312849159E+03    0.10186E-08   -0.29605E-10   198   0.350E-10    0.481E-10
RMM:   2    -0.204312849159E+03   -0.46930E-09    0.00000E+00     1   0.421E-10
 234 F= -.20431285E+03 E0= -.20430395E+03  d E =0.218279E-09
       N       E                     dE             d eps       ncg     rms          rms(c)
DAV:   1    -0.204312849158E+03    0.94587E-10   -0.19147E-10   198   0.381E-10    0.851E-10
RMM:   2    -0.204312849159E+03   -0.86584E-09    0.00000E+00     1   0.382E-10
 235 F= -.20431285E+03 E0= -.20430395E+03  d E =-.301952E-09
       N       E                     dE             d eps       ncg     rms          rms(c)
DAV:   1    -0.204312849159E+03   -0.72396E-09   -0.18418E-10   198   0.547E-10    0.599E-10
RMM:   2    -0.204312849159E+03    0.87311E-10    0.00000E+00     1   0.325E-10
 236 F= -.20431285E+03 E0= -.20430395E+03  d E =0.229193E-09
       N       E                     dE             d eps       ncg     rms          rms(c)
DAV:   1    -0.204312849160E+03   -0.28740E-09   -0.20144E-10   198   0.497E-10    0.283E-10
RMM:   2    -0.204312849159E+03    0.19281E-09    0.00000E+00     1   0.177E-10
 237 F= -.20431285E+03 E0= -.20430395E+03  d E =-.181899E-09
       N       E                     dE             d eps       ncg     rms          rms(c)
DAV:   1    -0.204312849159E+03    0.45839E-09   -0.18175E-10   198   0.200E-10    0.191E-10
RMM:   2    -0.204312849159E+03   -0.25466E-10    0.00000E+00     1   0.235E-10
 238 F= -.20431285E+03 E0= -.20430395E+03  d E =0.240107E-09
       N       E                     dE             d eps       ncg     rms          rms(c)
DAV:   1    -0.204312849159E+03    0.24374E-09   -0.22126E-10   198   0.176E-10    0.535E-10
RMM:   2    -0.204312849159E+03   -0.35288E-09    0.00000E+00     1   0.420E-10
 239 F= -.20431285E+03 E0= -.20430395E+03  d E =-.836735E-10
       N       E                     dE             d eps       ncg     rms          rms(c)
DAV:   1    -0.204312849158E+03    0.40382E-09   -0.15795E-10   198   0.311E-10    0.385E-10
RMM:   2    -0.204312849159E+03   -0.61846E-09    0.00000E+00     1   0.235E-10
 240 F= -.20431285E+03 E0= -.20430395E+03  d E =0.138243E-09
[...]
 939 F= -.20431285E+03 E0= -.20430395E+03  d E =0.000000E+00
       N       E                     dE             d eps       ncg     rms          rms(c)
DAV:   1    -0.204312849159E+03   -0.92041E-09   -0.29948E-10   198   0.245E-10    0.215E-10
RMM:   2    -0.204312849159E+03    0.10186E-09    0.00000E+00     0   0.264E-10
 940 F= -.20431285E+03 E0= -.20430395E+03  d E =0.160071E-09
       N       E                     dE             d eps       ncg     rms          rms(c)
DAV:   1    -0.204312849159E+03    0.68758E-09   -0.46167E-12   198   0.226E-10    0.412E-10
RMM:   2    -0.204312849159E+03   -0.56389E-09    0.00000E+00     1   0.238E-10
 941 F= -.20431285E+03 E0= -.20430395E+03  d E =0.218279E-10
       N       E                     dE             d eps       ncg     rms          rms(c)
DAV:   1    -0.204312849159E+03   -0.84037E-09   -0.14897E-10   198   0.196E-10    0.319E-10
RMM:   2    -0.204312849159E+03    0.28012E-09    0.00000E+00     0   0.309E-10
 942 F= -.20431285E+03 E0= -.20430395E+03  d E =0.363798E-11
       N       E                     dE             d eps       ncg     rms          rms(c)
DAV:   1    -0.204312849159E+03    0.72760E-11   -0.38012E-11   198   0.229E-10    0.330E-10
RMM:   2    -0.204312849159E+03    0.22555E-09    0.00000E+00     1   0.241E-10
 943 F= -.20431285E+03 E0= -.20430395E+03  d E =-.472937E-10
       N       E                     dE             d eps       ncg     rms          rms(c)
DAV:   1    -0.204312849160E+03   -0.25466E-09   -0.12873E-10   198   0.195E-10    0.282E-10
RMM:   2    -0.204312849159E+03    0.37107E-09    0.00000E+00     0   0.215E-10
 944 F= -.20431285E+03 E0= -.20430395E+03  d E =-.109139E-09
       N       E                     dE             d eps       ncg     rms          rms(c)
DAV:   1    -0.204312849159E+03    0.29831E-09   -0.25926E-10   198   0.248E-10    0.429E-10
RMM:   2    -0.204312849159E+03    0.14188E-09    0.00000E+00     1   0.364E-10
 945 F= -.20431285E+03 E0= -.20430395E+03  d E =0.691216E-10
       N       E                     dE             d eps       ncg     rms          rms(c)
DAV:   1    -0.204312849159E+03    0.11278E-09   -0.29804E-10   198   0.473E-10    0.336E-10
RMM:   2    -0.204312849159E+03   -0.10914E-10    0.00000E+00     0   0.247E-10
 946 F= -.20431285E+03 E0= -.20430395E+03  d E =-.400178E-10
       N       E                     dE             d eps       ncg     rms          rms(c)
DAV:   1    -0.204312849159E+03   -0.13824E-09   -0.55822E-11   198   0.258E-10    0.509E-10
RMM:   2    -0.204312849159E+03    0.38563E-09    0.00000E+00     1   0.247E-10
 947 F= -.20431285E+03 E0= -.20430395E+03  d E =0.258296E-09
       N       E                     dE             d eps       ncg     rms          rms(c)
DAV:   1    -0.204312849160E+03   -0.13824E-09   -0.22678E-10   198   0.326E-10    0.416E-10
RMM:   2    -0.204312849159E+03    0.19281E-09    0.00000E+00     0   0.312E-10
 948 F= -.20431285E+03 E0= -.20430395E+03  d E =-.331056E-09
       N       E                     dE             d eps       ncg     rms          rms(c)
DAV:   1    -0.204312849159E+03    0.94951E-09   -0.27475E-10   198   0.326E-10    0.450E-10
RMM:   2    -0.204312849159E+03   -0.54933E-09    0.00000E+00     1   0.222E-10
 949 F= -.20431285E+03 E0= -.20430395E+03  d E =0.207365E-09
       N       E                     dE             d eps       ncg     rms          rms(c)
DAV:   1    -0.204312849159E+03    0.50932E-10   -0.15173E-10   198   0.514E-10    0.401E-10
RMM:   2    -0.204312849159E+03   -0.54206E-09    0.00000E+00     0   0.478E-10
 950 F= -.20431285E+03 E0= -.20430395E+03  d E =0.582077E-10
       N       E                     dE             d eps       ncg     rms          rms(c)
DAV:   1    -0.204312849159E+03   -0.62209E-09   -0.27348E-10   198   0.427E-10    0.384E-10
RMM:   2    -0.204312849159E+03   -0.12369E-09    0.00000E+00     1   0.390E-10
 951 F= -.20431285E+03 E0= -.20430395E+03  d E =-.203727E-09
       N       E                     dE             d eps       ncg     rms          rms(c)
DAV:   1    -0.204312849159E+03    0.23647E-09   -0.12403E-10   198   0.238E-10    0.344E-10
RMM:   2    -0.204312849159E+03   -0.36380E-09    0.00000E+00     0   0.208E-10
 952 F= -.20431285E+03 E0= -.20430395E+03  d E =-.363798E-11
       N       E                     dE             d eps       ncg     rms          rms(c)
DAV:   1    -0.204312849159E+03   -0.10914E-09   -0.17629E-10   198   0.158E-10    0.273E-10
RMM:   2    -0.204312849159E+03   -0.30923E-09    0.00000E+00     1   0.244E-10
 953 F= -.20431285E+03 E0= -.20430395E+03  d E =-.545697E-10
       N       E                     dE             d eps       ncg     rms          rms(c)
DAV:   1    -0.204312849159E+03   -0.13097E-09   -0.26161E-10   198   0.238E-10    0.508E-10
RMM:   2    -0.204312849159E+03    0.32742E-10    0.00000E+00     0   0.296E-10
 954 F= -.20431285E+03 E0= -.20430395E+03  d E =0.211003E-09
       N       E                     dE             d eps       ncg     rms          rms(c)
DAV:   1    -0.204312849159E+03    0.21100E-09   -0.24660E-10   198   0.343E-10    0.270E-10
RMM:   2    -0.204312849159E+03   -0.14916E-09    0.00000E+00     1   0.201E-10
 955 F= -.20431285E+03 E0= -.20430395E+03  d E =0.291038E-10
       N       E                     dE             d eps       ncg     rms          rms(c)
DAV:   1    -0.204312849158E+03    0.80036E-09   -0.60762E-11   198   0.251E-10    0.296E-10
RMM:   2    -0.204312849159E+03   -0.11714E-08    0.00000E+00     0   0.221E-10
 956 F= -.20431285E+03 E0= -.20430395E+03  d E =-.221917E-09
       N       E                     dE             d eps       ncg     rms          rms(c)
DAV:   1    -0.204312849159E+03   -0.11496E-08   -0.15799E-10   198   0.300E-10    0.640E-10
RMM:   2    -0.204312849159E+03    0.24011E-09    0.00000E+00     1   0.448E-10
 957 F= -.20431285E+03 E0= -.20430395E+03  d E =0.261934E-09
       N       E                     dE             d eps       ncg     rms          rms(c)
DAV:   1    -0.204312849159E+03    0.39290E-09   -0.12737E-10   198   0.445E-10    0.415E-10
RMM:   2    -0.204312849159E+03   -0.20373E-09    0.00000E+00     0   0.225E-10
 958 F= -.20431285E+03 E0= -.20430395E+03  d E =-.509317E-10
       N       E                     dE             d eps       ncg     rms          rms(c)
DAV:   1    -0.204312849160E+03   -0.65847E-09   -0.23231E-10   198   0.233E-10    0.327E-10
RMM:   2    -0.204312849159E+03    0.40018E-09    0.00000E+00     1   0.162E-10
 959 F= -.20431285E+03 E0= -.20430395E+03  d E =-.545697E-10
       N       E                     dE             d eps       ncg     rms          rms(c)
DAV:   1    -0.204312849159E+03    0.25830E-09   -0.20851E-10   198   0.202E-10    0.221E-10
RMM:   2    -0.204312849159E+03    0.13824E-09    0.00000E+00     0   0.144E-10
 960 F= -.20431285E+03 E0= -.20430395E+03  d E =-.363798E-11
       N       E                     dE             d eps       ncg     rms          rms(c)
DAV:   1    -0.204312849159E+03    0.38926E-09   -0.94850E-11   198   0.220E-10    0.372E-10
RMM:   2    -0.204312849159E+03   -0.32378E-09    0.00000E+00     1   0.199E-10
 961 F= -.20431285E+03 E0= -.20430395E+03  d E =-.727596E-10
       N       E                     dE             d eps       ncg     rms          rms(c)
DAV:   1    -0.204312849158E+03    0.67303E-09   -0.30600E-10   198   0.263E-10    0.557E-10
RMM:   2    -0.204312849159E+03   -0.91677E-09    0.00000E+00     0   0.178E-10
 962 F= -.20431285E+03 E0= -.20430395E+03  d E =0.800355E-10
       N       E                     dE             d eps       ncg     rms          rms(c)
DAV:   1    -0.204312849160E+03   -0.15352E-08   -0.24165E-10   198   0.262E-10    0.404E-10
RMM:   2    -0.204312849159E+03    0.60390E-09    0.00000E+00     1   0.212E-10
 963 F= -.20431285E+03 E0= -.20430395E+03  d E =-.145519E-10
       N       E                     dE             d eps       ncg     rms          rms(c)
DAV:   1    -0.204312849159E+03    0.82582E-09   -0.24648E-10   198   0.202E-10    0.299E-10
RMM:   2    -0.204312849159E+03   -0.22192E-09    0.00000E+00     0   0.155E-10
 964 F= -.20431285E+03 E0= -.20430395E+03  d E =0.000000E+00
       N       E                     dE             d eps       ncg     rms          rms(c)
DAV:   1    -0.204312849159E+03    0.37835E-09   -0.28378E-10   198   0.352E-10    0.375E-10
RMM:   2    -0.204312849159E+03   -0.56752E-09    0.00000E+00     1   0.217E-10
 965 F= -.20431285E+03 E0= -.20430395E+03  d E =0.327418E-10
       N       E                     dE             d eps       ncg     rms          rms(c)
DAV:   1    -0.204312849159E+03   -0.24374E-09   -0.23367E-10   198   0.403E-10    0.335E-10
RMM:   2    -0.204312849159E+03   -0.41473E-09    0.00000E+00     0   0.226E-10
 966 F= -.20431285E+03 E0= -.20430395E+03  d E =-.909495E-10
       N       E                     dE             d eps       ncg     rms          rms(c)
DAV:   1    -0.204312849159E+03   -0.14552E-10   -0.22600E-10   198   0.233E-10    0.506E-10
RMM:   2    -0.204312849159E+03   -0.34925E-09    0.00000E+00     1   0.179E-10
 967 F= -.20431285E+03 E0= -.20430395E+03  d E =0.509317E-10
       N       E                     dE             d eps       ncg     rms          rms(c)
DAV:   1    -0.204312849159E+03   -0.40018E-09   -0.20991E-10   198   0.230E-10    0.429E-10
RMM:   2    -0.204312849159E+03    0.18190E-10    0.00000E+00     0   0.367E-10
 968 F= -.20431285E+03 E0= -.20430395E+03  d E =-.327418E-10
       N       E                     dE             d eps       ncg     rms          rms(c)
DAV:   1    -0.204312849159E+03    0.35652E-09   -0.59550E-13   198   0.268E-10    0.467E-10
RMM:   2    -0.204312849159E+03   -0.44747E-09    0.00000E+00     0   0.270E-10
 969 F= -.20431285E+03 E0= -.20430395E+03  d E =-.109139E-09
       N       E                     dE             d eps       ncg     rms          rms(c)
DAV:   1    -0.204312849159E+03   -0.35652E-09   -0.28288E-10   198   0.294E-10    0.378E-10
RMM:   2    -0.204312849159E+03    0.21100E-09    0.00000E+00     0   0.132E-10
 970 F= -.20431285E+03 E0= -.20430395E+03  d E =0.301952E-09
       N       E                     dE             d eps       ncg     rms          rms(c)
DAV:   1    -0.204312849159E+03    0.21464E-09   -0.33324E-10   198   0.193E-10    0.390E-10
RMM:   2    -0.204312849159E+03   -0.72760E-10    0.00000E+00     1   0.342E-10
 971 F= -.20431285E+03 E0= -.20430395E+03  d E =-.691216E-10
       N       E                     dE             d eps       ncg     rms          rms(c)
DAV:   1    -0.204312849159E+03   -0.21828E-10   -0.41664E-10   198   0.287E-10    0.379E-10
RMM:   2    -0.204312849159E+03   -0.23283E-09    0.00000E+00     0   0.197E-10
 972 F= -.20431285E+03 E0= -.20430395E+03  d E =-.181899E-09
       N       E                     dE             d eps       ncg     rms          rms(c)
DAV:   1    -0.204312849158E+03    0.91313E-09   -0.28593E-10   198   0.233E-10    0.326E-10
RMM:   2    -0.204312849159E+03   -0.10150E-08    0.00000E+00     1   0.232E-10
 973 F= -.20431285E+03 E0= -.20430395E+03  d E =0.130967E-09
       N       E                     dE             d eps       ncg     rms          rms(c)
DAV:   1    -0.204312849159E+03   -0.70941E-09   -0.33931E-10   198   0.294E-10    0.438E-10
RMM:   2    -0.204312849159E+03   -0.26921E-09    0.00000E+00     0   0.375E-10
 974 F= -.20431285E+03 E0= -.20430395E+03  d E =0.363798E-10
       N       E                     dE             d eps       ncg     rms          rms(c)
DAV:   1    -0.204312849159E+03    0.25102E-09   -0.27147E-10   198   0.249E-10    0.336E-10
RMM:   2    -0.204312849159E+03   -0.74215E-09    0.00000E+00     0   0.204E-10
 975 F= -.20431285E+03 E0= -.20430395E+03  d E =-.221917E-09
       N       E                     dE             d eps       ncg     rms          rms(c)
DAV:   1    -0.204312849159E+03   -0.77125E-09   -0.86033E-11   198   0.206E-10    0.557E-10
RMM:   2    -0.204312849159E+03    0.11642E-09    0.00000E+00     0   0.217E-10
 976 F= -.20431285E+03 E0= -.20430395E+03  d E =0.873115E-10
       N       E                     dE             d eps       ncg     rms          rms(c)
DAV:   1    -0.204312849159E+03    0.50204E-09   -0.22308E-10   198   0.342E-10    0.400E-10
RMM:   2    -0.204312849159E+03   -0.22919E-09    0.00000E+00     0   0.252E-10
 977 F= -.20431285E+03 E0= -.20430395E+03  d E =0.156433E-09
       N       E                     dE             d eps       ncg     rms          rms(c)
DAV:   1    -0.204312849159E+03   -0.17099E-09   -0.24873E-11   198   0.385E-10    0.426E-10
RMM:   2    -0.204312849159E+03   -0.32742E-10    0.00000E+00     0   0.280E-10
 978 F= -.20431285E+03 E0= -.20430395E+03  d E =0.254659E-10
       N       E                     dE             d eps       ncg     rms          rms(c)
DAV:   1    -0.204312849159E+03   -0.40018E-09   -0.30935E-10   198   0.278E-10    0.227E-10
RMM:   2    -0.204312849159E+03    0.29831E-09    0.00000E+00     0   0.141E-10
 979 F= -.20431285E+03 E0= -.20430395E+03  d E =-.691216E-10
       N       E                     dE             d eps       ncg     rms          rms(c)
DAV:   1    -0.204312849159E+03    0.87311E-10   -0.10210E-10   198   0.224E-10    0.397E-10
RMM:   2    -0.204312849159E+03   -0.18190E-10    0.00000E+00     0   0.160E-10
 980 F= -.20431285E+03 E0= -.20430395E+03  d E =-.229193E-09
       N       E                     dE             d eps       ncg     rms          rms(c)
DAV:   1    -0.204312849159E+03    0.54570E-10   -0.27240E-10   198   0.193E-10    0.387E-10
RMM:   2    -0.204312849159E+03   -0.25466E-10    0.00000E+00     1   0.148E-10
 981 F= -.20431285E+03 E0= -.20430395E+03  d E =0.472937E-10
       N       E                     dE             d eps       ncg     rms          rms(c)
DAV:   1    -0.204312849161E+03   -0.13570E-08   -0.41474E-11   198   0.212E-10    0.473E-10
RMM:   2    -0.204312849159E+03    0.14043E-08    0.00000E+00     0   0.291E-10
 982 F= -.20431285E+03 E0= -.20430395E+03  d E =0.727596E-10
       N       E                     dE             d eps       ncg     rms          rms(c)
DAV:   1    -0.204312849159E+03    0.11314E-08   -0.13953E-10   198   0.261E-10    0.290E-10
RMM:   2    -0.204312849159E+03    0.20009E-09    0.00000E+00     0   0.127E-10
 983 F= -.20431285E+03 E0= -.20430395E+03  d E =-.727596E-10
       N       E                     dE             d eps       ncg     rms          rms(c)
DAV:   1    -0.204312849160E+03   -0.70941E-09   -0.10976E-10   198   0.316E-10    0.221E-10
RMM:   2    -0.204312849159E+03    0.10041E-08    0.00000E+00     0   0.220E-10
 984 F= -.20431285E+03 E0= -.20430395E+03  d E =0.945874E-10
       N       E                     dE             d eps       ncg     rms          rms(c)
DAV:   1    -0.204312849159E+03    0.10259E-08   -0.23640E-10   198   0.393E-10    0.456E-10
RMM:   2    -0.204312849159E+03   -0.87311E-10    0.00000E+00     0   0.303E-10
 985 F= -.20431285E+03 E0= -.20430395E+03  d E =-.654836E-10
       N       E                     dE             d eps       ncg     rms          rms(c)
DAV:   1    -0.204312849157E+03    0.18554E-08   -0.18892E-10   198   0.281E-10    0.230E-10
RMM:   2    -0.204312849159E+03   -0.18008E-08    0.00000E+00     0   0.189E-10
 986 F= -.20431285E+03 E0= -.20430395E+03  d E =0.141881E-09
       N       E                     dE             d eps       ncg     rms          rms(c)
DAV:   1    -0.204312849158E+03   -0.11132E-08   -0.17245E-10   198   0.236E-10    0.359E-10
RMM:   2    -0.204312849159E+03   -0.92405E-09    0.00000E+00     0   0.208E-10
 987 F= -.20431285E+03 E0= -.20430395E+03  d E =-.236469E-09
       N       E                     dE             d eps       ncg     rms          rms(c)
DAV:   1    -0.204312849160E+03   -0.13388E-08   -0.12442E-10   198   0.255E-10    0.247E-10
RMM:   2    -0.204312849159E+03    0.52023E-09    0.00000E+00     0   0.157E-10
 988 F= -.20431285E+03 E0= -.20430395E+03  d E =0.105501E-09
       N       E                     dE             d eps       ncg     rms          rms(c)
DAV:   1    -0.204312849159E+03    0.73851E-09   -0.24270E-10   198   0.308E-10    0.471E-10
RMM:   2    -0.204312849159E+03   -0.25466E-09    0.00000E+00     0   0.235E-10
 989 F= -.20431285E+03 E0= -.20430395E+03  d E =-.363798E-10
       N       E                     dE             d eps       ncg     rms          rms(c)
DAV:   1    -0.204312849159E+03    0.30923E-09   -0.26944E-10   198   0.397E-10    0.223E-10
RMM:   2    -0.204312849159E+03   -0.54933E-09    0.00000E+00     0   0.425E-10
 990 F= -.20431285E+03 E0= -.20430395E+03  d E =0.145519E-10
       N       E                     dE             d eps       ncg     rms          rms(c)
DAV:   1    -0.204312849160E+03   -0.13933E-08   -0.18664E-10   198   0.224E-10    0.367E-10
RMM:   2    -0.204312849159E+03    0.88767E-09    0.00000E+00     0   0.244E-10
 991 F= -.20431285E+03 E0= -.20430395E+03  d E =0.436557E-10
       N       E                     dE             d eps       ncg     rms          rms(c)
DAV:   1    -0.204312849160E+03    0.48385E-09   -0.36375E-10   198   0.322E-10    0.393E-10
RMM:   2    -0.204312849159E+03    0.52387E-09    0.00000E+00     0   0.304E-10
 992 F= -.20431285E+03 E0= -.20430395E+03  d E =0.120053E-09
       N       E                     dE             d eps       ncg     rms          rms(c)
DAV:   1    -0.204312849158E+03    0.12260E-08   -0.22201E-10   198   0.246E-10    0.316E-10
RMM:   2    -0.204312849159E+03   -0.76398E-09    0.00000E+00     0   0.162E-10
 993 F= -.20431285E+03 E0= -.20430395E+03  d E =-.618456E-10
       N       E                     dE             d eps       ncg     rms          rms(c)
DAV:   1    -0.204312849158E+03    0.20009E-09   -0.51044E-11   198   0.178E-10    0.317E-10
RMM:   2    -0.204312849159E+03   -0.93132E-09    0.00000E+00     0   0.147E-10
 994 F= -.20431285E+03 E0= -.20430395E+03  d E =0.327418E-10
       N       E                     dE             d eps       ncg     rms          rms(c)
DAV:   1    -0.204312849160E+03   -0.17280E-08   -0.15034E-10   198   0.163E-10    0.282E-10
RMM:   2    -0.204312849159E+03    0.86948E-09    0.00000E+00     0   0.204E-10
 995 F= -.20431285E+03 E0= -.20430395E+03  d E =0.727596E-10
       N       E                     dE             d eps       ncg     rms          rms(c)
DAV:   1    -0.204312849159E+03    0.97498E-09   -0.31465E-10   198   0.312E-10    0.539E-10
RMM:   2    -0.204312849159E+03   -0.16735E-09    0.00000E+00     0   0.519E-10
 996 F= -.20431285E+03 E0= -.20430395E+03  d E =-.618456E-10
       N       E                     dE             d eps       ncg     rms          rms(c)
DAV:   1    -0.204312849159E+03   -0.58208E-10   -0.14192E-10   198   0.473E-10    0.663E-10
RMM:   2    -0.204312849159E+03   -0.21464E-09    0.00000E+00     0   0.285E-10
 997 F= -.20431285E+03 E0= -.20430395E+03  d E =-.105501E-09
       N       E                     dE             d eps       ncg     rms          rms(c)
DAV:   1    -0.204312849159E+03   -0.32014E-09   -0.22155E-10   198   0.375E-10    0.374E-10
RMM:   2    -0.204312849159E+03    0.31650E-09    0.00000E+00     0   0.217E-10
 998 F= -.20431285E+03 E0= -.20430395E+03  d E =0.211003E-09
       N       E                     dE             d eps       ncg     rms          rms(c)
DAV:   1    -0.204312849160E+03   -0.30923E-09   -0.29777E-10   198   0.454E-10    0.450E-10
RMM:   2    -0.204312849159E+03    0.50932E-09    0.00000E+00     0   0.546E-10
 999 F= -.20431285E+03 E0= -.20430395E+03  d E =-.116415E-09
       N       E                     dE             d eps       ncg     rms          rms(c)
DAV:   1    -0.204312849158E+03    0.13279E-08   -0.12869E-10   198   0.426E-10    0.378E-10
RMM:   2    -0.204312849159E+03   -0.78944E-09    0.00000E+00     0   0.243E-10
1000 F= -.20431285E+03 E0= -.20430395E+03  d E =0.291038E-10
