       N       E                     dE             d eps       ncg     rms          rms(c)
DAV:   1     0.532874022719E+04    0.53287E+04   -0.33160E+05  3584   0.141E+03
DAV:   2     0.259969534585E+02   -0.53027E+04   -0.50876E+04  4480   0.313E+02
DAV:   3    -0.550802702816E+03   -0.57680E+03   -0.56597E+03  4640   0.120E+02
DAV:   4    -0.568930925812E+03   -0.18128E+02   -0.17956E+02  4800   0.224E+01
DAV:   5    -0.569838214683E+03   -0.90729E+00   -0.90616E+00  5888   0.447E+00    0.118E+02
DAV:   6    -0.529988998972E+03    0.39849E+02   -0.14018E+02  4224   0.275E+01    0.654E+01
DAV:   7    -0.533253369232E+03   -0.32644E+01   -0.54995E+01  4896   0.137E+01    0.288E+01
DAV:   8    -0.529120995021E+03    0.41324E+01   -0.14849E+01  5280   0.925E+00    0.105E+01
DAV:   9    -0.529255660111E+03   -0.13467E+00   -0.50265E+00  4160   0.324E+00    0.517E+00
DAV:  10    -0.529269282702E+03   -0.13623E-01   -0.10802E+00  4352   0.158E+00    0.307E+00
DAV:  11    -0.529233801641E+03    0.35481E-01   -0.14831E-01  4960   0.888E-01    0.148E+00
DAV:  12    -0.529237959980E+03   -0.41583E-02   -0.44906E-02  4192   0.331E-01    0.500E-01
DAV:  13    -0.529236441512E+03    0.15185E-02   -0.58511E-03  4256   0.163E-01    0.236E-01
DAV:  14    -0.529236343245E+03    0.98268E-04   -0.19789E-03  4512   0.737E-02    0.139E-01
DAV:  15    -0.529236389472E+03   -0.46228E-04   -0.72942E-04  4224   0.404E-02    0.716E-02
DAV:  16    -0.529236387905E+03    0.15674E-05   -0.82936E-05  4256   0.175E-02    0.356E-02
DAV:  17    -0.529236383422E+03    0.44825E-05   -0.40452E-05  3936   0.131E-02    0.145E-02
DAV:  18    -0.529236385272E+03   -0.18496E-05   -0.14585E-05  4032   0.584E-03    0.579E-03
DAV:  19    -0.529236385119E+03    0.15328E-06   -0.88486E-07  2208   0.187E-03
   1 F= -.52923639E+03 E0= -.52922961E+03  d E =-.135511E-01
