  39  39   0   0
  0.2439952E+02  0.6834254E-09  0.1767185E-08  0.7880486E-09  0.0000000E+00
   1.0000000000000000E-004
  CAR 
 NEB                                     
      9.53918359    -23.88082327  301      1.08342310      1.00000000
    -23.881  0.0000E+00  0.0000E+00
    -23.769  0.0000E+00  0.0000E+00
    -23.658  0.0000E+00  0.0000E+00
    -23.547 -0.1592E-30 -0.1773E-31
    -23.435 -0.1203E-26 -0.1341E-27
    -23.324 -0.4855E-23 -0.5410E-24
    -23.212 -0.1050E-19 -0.1171E-20
    -23.101 -0.1218E-16 -0.1358E-17
    -22.990 -0.7332E-14 -0.8181E-15
    -22.878 -0.2421E-11 -0.2705E-12
    -22.767 -0.4264E-09 -0.4777E-10
    -22.655 -0.3989E-07 -0.4492E-08
    -22.544 -0.1970E-05 -0.2239E-06
    -22.433 -0.5065E-04 -0.5866E-05
    -22.321 -0.6587E-03 -0.7924E-04
    -22.210 -0.4008E-02 -0.5258E-03
    -22.098 -0.8096E-02 -0.1428E-02
    -21.987  0.1794E-01  0.5708E-03
    -21.876  0.1068E+00  0.1247E-01
    -21.764  0.1929E+00  0.3395E-01
    -21.653  0.1932E+00  0.5547E-01
    -21.541  0.1845E+00  0.7603E-01
    -21.430  0.3590E+00  0.1160E+00
    -21.319  0.6872E+00  0.1926E+00
    -21.207  0.8302E+00  0.2851E+00
    -21.096  0.6148E+00  0.3535E+00
    -20.984  0.2488E+00  0.3813E+00
    -20.873  0.2224E-01  0.3837E+00
    -20.762 -0.2263E-01  0.3812E+00
    -20.650 -0.9267E-02  0.3802E+00
    -20.539 -0.1500E-02  0.3800E+00
    -20.427 -0.1206E-03  0.3800E+00
    -20.316 -0.5083E-05  0.3800E+00
    -20.205 -0.1146E-06  0.3800E+00
    -20.093 -0.1392E-08  0.3800E+00
    -19.982 -0.9125E-11  0.3800E+00
    -19.870 -0.3228E-13  0.3800E+00
    -19.759 -0.6644E-16  0.3800E+00
    -19.648  0.0000E+00  0.3800E+00
    -19.536  0.0000E+00  0.3800E+00
    -19.425  0.0000E+00  0.3800E+00
    -19.313  0.0000E+00  0.3800E+00
    -19.202  0.0000E+00  0.3800E+00
    -19.091  0.0000E+00  0.3800E+00
    -18.979  0.0000E+00  0.3800E+00
    -18.868  0.0000E+00  0.3800E+00
    -18.756  0.0000E+00  0.3800E+00
    -18.645  0.0000E+00  0.3800E+00
    -18.534  0.0000E+00  0.3800E+00
    -18.422  0.0000E+00  0.3800E+00
    -18.311  0.0000E+00  0.3800E+00
    -18.199  0.0000E+00  0.3800E+00
    -18.088  0.0000E+00  0.3800E+00
    -17.977  0.0000E+00  0.3800E+00
    -17.865  0.0000E+00  0.3800E+00
    -17.754  0.0000E+00  0.3800E+00
    -17.642  0.0000E+00  0.3800E+00
    -17.531  0.0000E+00  0.3800E+00
    -17.420  0.0000E+00  0.3800E+00
    -17.308  0.0000E+00  0.3800E+00
    -17.197  0.0000E+00  0.3800E+00
    -17.085  0.0000E+00  0.3800E+00
    -16.974  0.0000E+00  0.3800E+00
    -16.863  0.0000E+00  0.3800E+00
    -16.751  0.0000E+00  0.3800E+00
    -16.640  0.0000E+00  0.3800E+00
    -16.528  0.0000E+00  0.3800E+00
    -16.417  0.0000E+00  0.3800E+00
    -16.306  0.0000E+00  0.3800E+00
    -16.194  0.0000E+00  0.3800E+00
    -16.083  0.0000E+00  0.3800E+00
    -15.971  0.0000E+00  0.3800E+00
    -15.860  0.0000E+00  0.3800E+00
    -15.749  0.0000E+00  0.3800E+00
    -15.637  0.0000E+00  0.3800E+00
    -15.526  0.0000E+00  0.3800E+00
    -15.414  0.0000E+00  0.3800E+00
    -15.303  0.0000E+00  0.3800E+00
    -15.192  0.0000E+00  0.3800E+00
    -15.080  0.0000E+00  0.3800E+00
    -14.969  0.0000E+00  0.3800E+00
    -14.857  0.0000E+00  0.3800E+00
    -14.746  0.0000E+00  0.3800E+00
    -14.635  0.0000E+00  0.3800E+00
    -14.523  0.0000E+00  0.3800E+00
    -14.412  0.0000E+00  0.3800E+00
    -14.300  0.0000E+00  0.3800E+00
    -14.189 -0.2833E-31  0.3800E+00
    -14.078 -0.2444E-27  0.3800E+00
    -13.966 -0.1126E-23  0.3800E+00
    -13.855 -0.2777E-20  0.3800E+00
    -13.743 -0.3665E-17  0.3800E+00
    -13.632 -0.2511E-14  0.3800E+00
    -13.521 -0.9399E-12  0.3800E+00
    -13.409 -0.1877E-09  0.3800E+00
    -13.298 -0.1994E-07  0.3800E+00
    -13.186 -0.1124E-05  0.3800E+00
    -13.075 -0.3334E-04  0.3800E+00
    -12.964 -0.5125E-03  0.3799E+00
    -12.852 -0.3893E-02  0.3795E+00
    -12.741 -0.1218E-01  0.3781E+00
    -12.629  0.4405E-02  0.3786E+00
    -12.518  0.1184E+00  0.3918E+00
    -12.407  0.2913E+00  0.4243E+00
    -12.295  0.3507E+00  0.4634E+00
    -12.184  0.2773E+00  0.4942E+00
    -12.072  0.1515E+00  0.5111E+00
    -11.961  0.3598E-01  0.5151E+00
    -11.850 -0.8342E-02  0.5142E+00
    -11.738 -0.6350E-02  0.5135E+00
    -11.627 -0.1274E-02  0.5133E+00
    -11.515 -0.1157E-03  0.5133E+00
    -11.404 -0.5260E-05  0.5133E+00
    -11.293 -0.1240E-06  0.5133E+00
    -11.181 -0.1542E-08  0.5133E+00
    -11.070 -0.1329E-09  0.5133E+00
    -10.958 -0.1157E-07  0.5133E+00
    -10.847 -0.5699E-06  0.5133E+00
    -10.736 -0.1446E-04  0.5133E+00
    -10.624 -0.1842E-03  0.5133E+00
    -10.513 -0.1103E-02  0.5132E+00
    -10.401 -0.2342E-02  0.5129E+00
    -10.290  0.3871E-02  0.5134E+00
    -10.179  0.2930E-01  0.5166E+00
    -10.067  0.6532E-01  0.5239E+00
     -9.956  0.7865E-01  0.5327E+00
     -9.844  0.5253E-01  0.5385E+00
     -9.733  0.1297E-01  0.5400E+00
     -9.622 -0.1079E-01  0.5388E+00
     -9.510  0.7631E-02  0.5396E+00
     -9.399  0.1076E+00  0.5516E+00
     -9.287  0.2216E+00  0.5763E+00
     -9.176  0.2214E+00  0.6009E+00
     -9.065  0.1338E+00  0.6158E+00
     -8.953  0.4495E-01  0.6208E+00
     -8.842 -0.1345E-03  0.6208E+00
     -8.730 -0.5553E-02  0.6202E+00
     -8.619 -0.1687E-02  0.6200E+00
     -8.508 -0.2133E-03  0.6200E+00
     -8.396 -0.1319E-04  0.6200E+00
     -8.285 -0.4196E-06  0.6200E+00
     -8.173 -0.7003E-08  0.6200E+00
     -8.062 -0.6198E-10  0.6200E+00
     -7.951 -0.2925E-12  0.6200E+00
     -7.839 -0.7308E-15  0.6200E+00
     -7.728  0.0000E+00  0.6200E+00
     -7.616  0.0000E+00  0.6200E+00
     -7.505  0.0000E+00  0.6200E+00
     -7.394  0.0000E+00  0.6200E+00
     -7.282  0.0000E+00  0.6200E+00
     -7.171  0.0000E+00  0.6200E+00
     -7.059  0.0000E+00  0.6200E+00
     -6.948  0.0000E+00  0.6200E+00
     -6.837  0.0000E+00  0.6200E+00
     -6.725  0.0000E+00  0.6200E+00
     -6.614  0.0000E+00  0.6200E+00
     -6.502  0.0000E+00  0.6200E+00
     -6.391  0.0000E+00  0.6200E+00
     -6.280  0.0000E+00  0.6200E+00
     -6.168  0.0000E+00  0.6200E+00
     -6.057  0.0000E+00  0.6200E+00
     -5.945  0.0000E+00  0.6200E+00
     -5.834  0.0000E+00  0.6200E+00
     -5.723  0.0000E+00  0.6200E+00
     -5.611  0.0000E+00  0.6200E+00
     -5.500  0.0000E+00  0.6200E+00
     -5.388  0.0000E+00  0.6200E+00
     -5.277  0.0000E+00  0.6200E+00
     -5.166  0.0000E+00  0.6200E+00
     -5.054  0.0000E+00  0.6200E+00
     -4.943 -0.4248E-30  0.6200E+00
     -4.831 -0.2828E-26  0.6200E+00
     -4.720 -0.1007E-22  0.6200E+00
     -4.609 -0.1915E-19  0.6200E+00
     -4.497 -0.1945E-16  0.6200E+00
     -4.386 -0.1017E-13  0.6200E+00
     -4.274 -0.2903E-11  0.6200E+00
     -4.163 -0.4377E-09  0.6200E+00
     -4.052 -0.3463E-07  0.6200E+00
     -3.940 -0.1422E-05  0.6200E+00
     -3.829 -0.2969E-04  0.6200E+00
     -3.717 -0.3026E-03  0.6200E+00
     -3.606 -0.1344E-02  0.6198E+00
     -3.495 -0.1294E-02  0.6197E+00
     -3.383  0.7892E-02  0.6205E+00
     -3.272  0.3072E-01  0.6240E+00
     -3.160  0.6070E-01  0.6307E+00
     -3.049  0.7707E-01  0.6393E+00
     -2.938  0.5446E-01  0.6454E+00
     -2.826  0.1587E-01  0.6472E+00
     -2.715 -0.1659E-02  0.6470E+00
     -2.603 -0.2147E-02  0.6467E+00
     -2.492 -0.5048E-03  0.6467E+00
     -2.381 -0.5283E-04  0.6467E+00
     -2.269 -0.2762E-05  0.6467E+00
     -2.158 -0.5100E-06  0.6467E+00
     -2.046 -0.1148E-04  0.6467E+00
     -1.935 -0.1499E-03  0.6466E+00
     -1.824 -0.8999E-03  0.6465E+00
     -1.712 -0.1837E-02  0.6463E+00
     -1.601  0.2771E-02  0.6467E+00
     -1.489  0.1880E-01  0.6487E+00
     -1.378  0.4642E-01  0.6539E+00
     -1.267  0.8985E-01  0.6639E+00
     -1.155  0.1312E+00  0.6785E+00
     -1.044  0.1352E+00  0.6936E+00
     -0.932  0.8945E-01  0.7036E+00
     -0.821  0.3806E-01  0.7078E+00
     -0.710  0.4198E-01  0.7125E+00
     -0.598  0.6417E-01  0.7196E+00
     -0.487  0.4460E-01  0.7246E+00
     -0.375  0.1785E-01  0.7266E+00
     -0.264  0.4541E-01  0.7316E+00
     -0.153  0.1087E+00  0.7438E+00
     -0.041  0.1547E+00  0.7610E+00
      0.070  0.1866E+00  0.7818E+00
      0.182  0.2000E+00  0.8041E+00
      0.293  0.1885E+00  0.8251E+00
      0.404  0.1873E+00  0.8459E+00
      0.516  0.1840E+00  0.8664E+00
      0.627  0.1437E+00  0.8824E+00
      0.739  0.1090E+00  0.8946E+00
      0.850  0.1288E+00  0.9089E+00
      0.961  0.1450E+00  0.9251E+00
      1.073  0.9828E-01  0.9360E+00
      1.184  0.3649E-01  0.9401E+00
      1.296  0.4134E-02  0.9405E+00
      1.407 -0.3041E-02  0.9402E+00
      1.518 -0.1531E-02  0.9400E+00
      1.630 -0.2854E-03  0.9400E+00
      1.741 -0.2522E-04  0.9400E+00
      1.853 -0.1120E-05  0.9400E+00
      1.964 -0.2565E-07  0.9400E+00
      2.075 -0.3068E-09  0.9400E+00
      2.187 -0.1315E-10  0.9400E+00
      2.298 -0.1433E-08  0.9400E+00
      2.410 -0.9575E-07  0.9400E+00
      2.521 -0.3300E-05  0.9400E+00
      2.632 -0.5699E-04  0.9400E+00
      2.744 -0.4602E-03  0.9399E+00
      2.855 -0.1344E-02  0.9398E+00
      2.967  0.1640E-02  0.9400E+00
      3.078  0.1557E-01  0.9417E+00
      3.189  0.2701E-01  0.9447E+00
      3.301  0.1706E-01  0.9466E+00
      3.412  0.2390E-02  0.9469E+00
      3.524 -0.1364E-02  0.9467E+00
      3.635 -0.5710E-03  0.9467E+00
      3.746 -0.5226E-03  0.9466E+00
      3.858 -0.2105E-02  0.9464E+00
      3.969 -0.1576E-02  0.9462E+00
      4.081  0.1637E-01  0.9480E+00
      4.192  0.5034E-01  0.9536E+00
      4.303  0.6195E-01  0.9605E+00
      4.415  0.4168E-01  0.9652E+00
      4.526  0.1524E-01  0.9669E+00
      4.638  0.4993E-03  0.9669E+00
      4.749 -0.1726E-02  0.9667E+00
      4.860 -0.5579E-03  0.9667E+00
      4.972 -0.1173E-03  0.9667E+00
      5.083 -0.5290E-03  0.9666E+00
      5.195 -0.2664E-02  0.9663E+00
      5.306 -0.3265E-02  0.9659E+00
      5.417  0.1778E-01  0.9679E+00
      5.529  0.6704E-01  0.9754E+00
      5.640  0.9327E-01  0.9858E+00
      5.752  0.8022E-01  0.9947E+00
      5.863  0.7951E-01  0.1004E+01
      5.974  0.9434E-01  0.1014E+01
      6.086  0.8941E-01  0.1024E+01
      6.197  0.5755E-01  0.1030E+01
      6.309  0.2221E-01  0.1033E+01
      6.420  0.1185E-01  0.1034E+01
      6.531  0.3373E-01  0.1038E+01
      6.643  0.5078E-01  0.1044E+01
      6.754  0.5164E-01  0.1049E+01
      6.866  0.6712E-01  0.1057E+01
      6.977  0.8395E-01  0.1066E+01
      7.088  0.8668E-01  0.1076E+01
      7.200  0.9287E-01  0.1086E+01
      7.311  0.9293E-01  0.1097E+01
      7.423  0.8630E-01  0.1106E+01
      7.534  0.7641E-01  0.1115E+01
      7.645  0.4388E-01  0.1120E+01
      7.757  0.8513E-02  0.1121E+01
      7.868 -0.3038E-02  0.1120E+01
      7.980 -0.1701E-02  0.1120E+01
      8.091 -0.2971E-03  0.1120E+01
      8.202 -0.2403E-04  0.1120E+01
      8.314 -0.9782E-06  0.1120E+01
      8.425 -0.2066E-07  0.1120E+01
      8.537 -0.2296E-09  0.1120E+01
      8.648 -0.1351E-11  0.1120E+01
      8.759 -0.4226E-14  0.1120E+01
      8.871 -0.1329E-16  0.1120E+01
      8.982  0.0000E+00  0.1120E+01
      9.094  0.0000E+00  0.1120E+01
      9.205  0.0000E+00  0.1120E+01
      9.316  0.0000E+00  0.1120E+01
      9.428  0.0000E+00  0.1120E+01
      9.539  0.0000E+00  0.1120E+01
