  12  12   0   0
  0.2252765E+02  0.6521851E-09  0.6521851E-09  0.7516808E-09  0.5000000E-15
   1.0000000000000000E-004
  CAR 
 unknown system                          
     14.07358194    -22.97064902  301      1.85670327      1.00000000
    -22.971  0.0000E+00  0.0000E+00
    -22.847  0.0000E+00  0.0000E+00
    -22.724  0.0000E+00  0.0000E+00
    -22.600  0.0000E+00  0.0000E+00
    -22.477  0.0000E+00  0.0000E+00
    -22.353  0.0000E+00  0.0000E+00
    -22.230  0.0000E+00  0.0000E+00
    -22.106  0.0000E+00  0.0000E+00
    -21.983  0.0000E+00  0.0000E+00
    -21.859  0.0000E+00  0.0000E+00
    -21.736  0.0000E+00  0.0000E+00
    -21.612  0.0000E+00  0.0000E+00
    -21.489  0.9041E-09  0.1116E-09
    -21.365  0.4035E-02  0.4982E-03
    -21.242  0.7247E+00  0.8998E-01
    -21.118  0.2431E+00  0.1200E+00
    -20.995  0.2857E-04  0.1200E+00
    -20.871  0.5467E-02  0.1207E+00
    -20.748  0.7911E+00  0.2184E+00
    -20.625  0.1752E+00  0.2400E+00
    -20.501  0.5921E-05  0.2400E+00
    -20.378  0.1339E-14  0.2400E+00
    -20.254  0.0000E+00  0.2400E+00
    -20.131  0.0000E+00  0.2400E+00
    -20.007  0.0000E+00  0.2400E+00
    -19.884  0.0000E+00  0.2400E+00
    -19.760  0.0000E+00  0.2400E+00
    -19.637  0.0000E+00  0.2400E+00
    -19.513  0.0000E+00  0.2400E+00
    -19.390  0.0000E+00  0.2400E+00
    -19.266  0.0000E+00  0.2400E+00
    -19.143  0.0000E+00  0.2400E+00
    -19.019  0.0000E+00  0.2400E+00
    -18.896  0.0000E+00  0.2400E+00
    -18.772  0.0000E+00  0.2400E+00
    -18.649  0.0000E+00  0.2400E+00
    -18.525  0.0000E+00  0.2400E+00
    -18.402  0.0000E+00  0.2400E+00
    -18.278  0.0000E+00  0.2400E+00
    -18.155  0.0000E+00  0.2400E+00
    -18.031  0.0000E+00  0.2400E+00
    -17.908  0.0000E+00  0.2400E+00
    -17.784  0.0000E+00  0.2400E+00
    -17.661  0.0000E+00  0.2400E+00
    -17.537  0.0000E+00  0.2400E+00
    -17.414  0.0000E+00  0.2400E+00
    -17.291  0.0000E+00  0.2400E+00
    -17.167  0.0000E+00  0.2400E+00
    -17.044  0.0000E+00  0.2400E+00
    -16.920  0.0000E+00  0.2400E+00
    -16.797  0.0000E+00  0.2400E+00
    -16.673  0.0000E+00  0.2400E+00
    -16.550  0.0000E+00  0.2400E+00
    -16.426  0.0000E+00  0.2400E+00
    -16.303  0.0000E+00  0.2400E+00
    -16.179  0.0000E+00  0.2400E+00
    -16.056  0.0000E+00  0.2400E+00
    -15.932  0.0000E+00  0.2400E+00
    -15.809  0.0000E+00  0.2400E+00
    -15.685  0.0000E+00  0.2400E+00
    -15.562  0.0000E+00  0.2400E+00
    -15.438  0.0000E+00  0.2400E+00
    -15.315  0.0000E+00  0.2400E+00
    -15.191  0.0000E+00  0.2400E+00
    -15.068  0.0000E+00  0.2400E+00
    -14.944  0.0000E+00  0.2400E+00
    -14.821  0.0000E+00  0.2400E+00
    -14.697  0.0000E+00  0.2400E+00
    -14.574  0.0000E+00  0.2400E+00
    -14.450  0.0000E+00  0.2400E+00
    -14.327  0.0000E+00  0.2400E+00
    -14.204  0.0000E+00  0.2400E+00
    -14.080  0.0000E+00  0.2400E+00
    -13.957  0.0000E+00  0.2400E+00
    -13.833  0.0000E+00  0.2400E+00
    -13.710  0.0000E+00  0.2400E+00
    -13.586  0.1789E-13  0.2400E+00
    -13.463  0.2727E-05  0.2400E+00
    -13.339  0.2199E-01  0.2427E+00
    -13.216  0.1373E+00  0.2597E+00
    -13.092  0.2682E-02  0.2600E+00
    -12.969  0.3426E-08  0.2600E+00
    -12.845  0.0000E+00  0.2600E+00
    -12.722  0.3330E-17  0.2600E+00
    -12.598  0.2754E-07  0.2600E+00
    -12.475  0.3535E-02  0.2604E+00
    -12.351  0.1339E+00  0.2770E+00
    -12.228  0.2453E-01  0.2800E+00
    -12.104  0.2056E-05  0.2800E+00
    -11.981  0.3575E-14  0.2800E+00
    -11.857  0.0000E+00  0.2800E+00
    -11.734  0.0000E+00  0.2800E+00
    -11.610  0.0000E+00  0.2800E+00
    -11.487  0.0000E+00  0.2800E+00
    -11.363  0.0000E+00  0.2800E+00
    -11.240  0.0000E+00  0.2800E+00
    -11.116  0.0000E+00  0.2800E+00
    -10.993  0.0000E+00  0.2800E+00
    -10.870  0.0000E+00  0.2800E+00
    -10.746  0.0000E+00  0.2800E+00
    -10.623  0.3245E-08  0.2800E+00
    -10.499  0.2113E-02  0.2803E+00
    -10.376  0.1560E+00  0.2995E+00
    -10.252  0.1652E+00  0.3199E+00
    -10.129  0.2443E+00  0.3501E+00
    -10.005  0.8017E-01  0.3600E+00
     -9.882  0.5129E-04  0.3600E+00
     -9.758  0.1303E-11  0.3600E+00
     -9.635  0.0000E+00  0.3600E+00
     -9.511  0.0000E+00  0.3600E+00
     -9.388  0.0000E+00  0.3600E+00
     -9.264  0.0000E+00  0.3600E+00
     -9.141  0.0000E+00  0.3600E+00
     -9.017  0.0000E+00  0.3600E+00
     -8.894  0.0000E+00  0.3600E+00
     -8.770  0.0000E+00  0.3600E+00
     -8.647  0.0000E+00  0.3600E+00
     -8.523  0.0000E+00  0.3600E+00
     -8.400  0.0000E+00  0.3600E+00
     -8.276  0.0000E+00  0.3600E+00
     -8.153  0.0000E+00  0.3600E+00
     -8.029  0.0000E+00  0.3600E+00
     -7.906  0.0000E+00  0.3600E+00
     -7.783  0.0000E+00  0.3600E+00
     -7.659  0.0000E+00  0.3600E+00
     -7.536  0.2081E-15  0.3600E+00
     -7.412  0.1928E-06  0.3600E+00
     -7.289  0.1851E-02  0.3602E+00
     -7.165  0.1235E-01  0.3618E+00
     -7.042  0.6212E-01  0.3694E+00
     -6.918  0.8060E-01  0.3794E+00
     -6.795  0.5049E-02  0.3800E+00
     -6.671  0.1803E-06  0.3800E+00
     -6.548  0.8258E-16  0.3800E+00
     -6.424  0.0000E+00  0.3800E+00
     -6.301  0.0000E+00  0.3800E+00
     -6.177  0.0000E+00  0.3800E+00
     -6.054  0.0000E+00  0.3800E+00
     -5.930  0.1094E-09  0.3800E+00
     -5.807  0.1964E-03  0.3800E+00
     -5.683  0.1245E-01  0.3816E+00
     -5.560  0.5496E-01  0.3883E+00
     -5.436  0.8669E-01  0.3991E+00
     -5.313  0.7666E-02  0.4000E+00
     -5.189  0.4197E-06  0.4000E+00
     -5.066  0.3050E-15  0.4000E+00
     -4.942  0.0000E+00  0.4000E+00
     -4.819  0.0000E+00  0.4000E+00
     -4.695  0.0000E+00  0.4000E+00
     -4.572  0.0000E+00  0.4000E+00
     -4.449  0.0000E+00  0.4000E+00
     -4.325  0.0000E+00  0.4000E+00
     -4.202  0.0000E+00  0.4000E+00
     -4.078  0.0000E+00  0.4000E+00
     -3.955  0.0000E+00  0.4000E+00
     -3.831  0.5696E-13  0.4000E+00
     -3.708  0.4774E-05  0.4000E+00
     -3.584  0.8373E-02  0.4010E+00
     -3.461  0.4454E-01  0.4065E+00
     -3.337  0.8791E-01  0.4174E+00
     -3.214  0.2113E-01  0.4200E+00
     -3.090  0.3285E-01  0.4241E+00
     -2.967  0.1514E+00  0.4428E+00
     -2.843  0.1360E+00  0.4595E+00
     -2.720  0.6031E-02  0.4603E+00
     -2.596  0.6071E-01  0.4678E+00
     -2.473  0.9281E-01  0.4792E+00
     -2.349  0.1226E+00  0.4944E+00
     -2.226  0.4541E-01  0.5000E+00
     -2.102  0.8259E-04  0.5000E+00
     -1.979  0.5023E-11  0.5000E+00
     -1.855  0.0000E+00  0.5000E+00
     -1.732  0.0000E+00  0.5000E+00
     -1.608  0.0000E+00  0.5000E+00
     -1.485  0.0000E+00  0.5000E+00
     -1.362  0.0000E+00  0.5000E+00
     -1.238  0.0000E+00  0.5000E+00
     -1.115  0.0000E+00  0.5000E+00
     -0.991  0.7187E-09  0.5000E+00
     -0.868  0.8301E-03  0.5001E+00
     -0.744  0.7542E-01  0.5094E+00
     -0.621  0.6511E-01  0.5175E+00
     -0.497  0.4690E-01  0.5232E+00
     -0.374  0.1006E+00  0.5357E+00
     -0.250  0.9025E-01  0.5468E+00
     -0.127  0.1815E+00  0.5692E+00
     -0.003  0.1497E+00  0.5877E+00
      0.120  0.1146E+00  0.6019E+00
      0.244  0.1150E+00  0.6161E+00
      0.367  0.1122E+00  0.6299E+00
      0.491  0.6631E-01  0.6381E+00
      0.614  0.4868E-01  0.6441E+00
      0.738  0.9248E-01  0.6555E+00
      0.861  0.1130E+00  0.6695E+00
      0.985  0.1827E+00  0.6920E+00
      1.108  0.1358E+00  0.7088E+00
      1.232  0.1086E+00  0.7222E+00
      1.355  0.8959E-01  0.7333E+00
      1.479  0.2647E-01  0.7366E+00
      1.602  0.2768E-01  0.7400E+00
      1.726  0.2603E-03  0.7400E+00
      1.849  0.1377E-09  0.7400E+00
      1.972  0.0000E+00  0.7400E+00
      2.096  0.0000E+00  0.7400E+00
      2.219  0.0000E+00  0.7400E+00
      2.343  0.0000E+00  0.7400E+00
      2.466  0.0000E+00  0.7400E+00
      2.590  0.0000E+00  0.7400E+00
      2.713  0.0000E+00  0.7400E+00
      2.837  0.0000E+00  0.7400E+00
      2.960  0.0000E+00  0.7400E+00
      3.084  0.0000E+00  0.7400E+00
      3.207  0.0000E+00  0.7400E+00
      3.331  0.0000E+00  0.7400E+00
      3.454  0.0000E+00  0.7400E+00
      3.578  0.0000E+00  0.7400E+00
      3.701  0.0000E+00  0.7400E+00
      3.825  0.0000E+00  0.7400E+00
      3.948  0.0000E+00  0.7400E+00
      4.072  0.4826E-11  0.7400E+00
      4.195  0.4808E-04  0.7400E+00
      4.319  0.9550E-02  0.7412E+00
      4.442  0.7536E-02  0.7421E+00
      4.566  0.2488E-01  0.7452E+00
      4.689  0.4699E-01  0.7510E+00
      4.813  0.6780E-01  0.7594E+00
      4.936  0.3610E-01  0.7638E+00
      5.059  0.3261E-01  0.7678E+00
      5.183  0.4287E-01  0.7731E+00
      5.306  0.1232E+00  0.7884E+00
      5.430  0.6080E-01  0.7959E+00
      5.553  0.6906E-01  0.8044E+00
      5.677  0.1440E+00  0.8222E+00
      5.800  0.6256E-01  0.8299E+00
      5.924  0.4126E-01  0.8350E+00
      6.047  0.3941E-01  0.8399E+00
      6.171  0.7713E-01  0.8494E+00
      6.294  0.2634E-01  0.8526E+00
      6.418  0.5236E-01  0.8591E+00
      6.541  0.3897E-01  0.8639E+00
      6.665  0.1929E-01  0.8663E+00
      6.788  0.3069E-02  0.8667E+00
      6.912  0.2627E-01  0.8699E+00
      7.035  0.8312E-01  0.8802E+00
      7.159  0.7581E-01  0.8895E+00
      7.282  0.4242E-01  0.8948E+00
      7.406  0.4659E-01  0.9005E+00
      7.529  0.5388E-01  0.9072E+00
      7.653  0.1708E-01  0.9093E+00
      7.776  0.5926E-01  0.9166E+00
      7.900  0.9247E-01  0.9280E+00
      8.023  0.8197E-01  0.9382E+00
      8.147  0.5894E-01  0.9454E+00
      8.270  0.1052E+00  0.9584E+00
      8.393  0.8568E-01  0.9690E+00
      8.517  0.5542E-01  0.9758E+00
      8.640  0.1218E+00  0.9909E+00
      8.764  0.1085E+00  0.1004E+01
      8.887  0.9258E-01  0.1016E+01
      9.011  0.9557E-01  0.1028E+01
      9.134  0.9167E-01  0.1039E+01
      9.258  0.7284E-01  0.1048E+01
      9.381  0.9550E-01  0.1060E+01
      9.505  0.6627E-01  0.1068E+01
      9.628  0.7984E-01  0.1078E+01
      9.752  0.1581E+00  0.1097E+01
      9.875  0.1125E+00  0.1111E+01
      9.999  0.5601E-01  0.1118E+01
     10.122  0.4126E-01  0.1123E+01
     10.246  0.1078E+00  0.1136E+01
     10.369  0.1093E+00  0.1150E+01
     10.493  0.4069E-01  0.1155E+01
     10.616  0.7449E-01  0.1164E+01
     10.740  0.1019E+00  0.1177E+01
     10.863  0.3803E-01  0.1181E+01
     10.987  0.1171E+00  0.1196E+01
     11.110  0.6491E-01  0.1204E+01
     11.234  0.5655E-01  0.1211E+01
     11.357  0.6321E-01  0.1219E+01
     11.480  0.8104E-01  0.1229E+01
     11.604  0.9720E-01  0.1241E+01
     11.727  0.7587E-01  0.1250E+01
     11.851  0.9479E-01  0.1262E+01
     11.974  0.2673E-01  0.1265E+01
     12.098  0.1379E-01  0.1267E+01
     12.221  0.4058E-01  0.1272E+01
     12.345  0.4485E-01  0.1277E+01
     12.468  0.2165E-01  0.1280E+01
     12.592  0.3149E-03  0.1280E+01
     12.715  0.1315E-09  0.1280E+01
     12.839  0.0000E+00  0.1280E+01
     12.962  0.0000E+00  0.1280E+01
     13.086  0.0000E+00  0.1280E+01
     13.209  0.0000E+00  0.1280E+01
     13.333  0.0000E+00  0.1280E+01
     13.456  0.0000E+00  0.1280E+01
     13.580  0.0000E+00  0.1280E+01
     13.703  0.0000E+00  0.1280E+01
     13.827  0.0000E+00  0.1280E+01
     13.950  0.0000E+00  0.1280E+01
     14.074  0.0000E+00  0.1280E+01
