       N       E                     dE             d eps       ncg     rms          rms(c)
DAV:   1     0.421338672049E+03    0.42134E+03   -0.31127E+04  1280   0.931E+02
DAV:   2    -0.212235680488E+02   -0.44256E+03   -0.42647E+03  1472   0.242E+02
DAV:   3    -0.522152262592E+02   -0.30992E+02   -0.30846E+02  1856   0.667E+01
DAV:   4    -0.526991019205E+02   -0.48388E+00   -0.48377E+00  1504   0.924E+00
DAV:   5    -0.527138834637E+02   -0.14782E-01   -0.14781E-01  1888   0.155E+00    0.205E+01
DAV:   6    -0.511130181498E+02    0.16009E+01   -0.23721E+00  1600   0.469E+00    0.138E+01
DAV:   7    -0.509696951179E+02    0.14332E+00   -0.14306E+00  1824   0.311E+00    0.276E+00
DAV:   8    -0.509602511024E+02    0.94440E-02   -0.83074E-02  1632   0.933E-01    0.173E+00
DAV:   9    -0.509644065554E+02   -0.41555E-02   -0.17474E-02  1824   0.398E-01    0.452E-01
DAV:  10    -0.509643413478E+02    0.65208E-04   -0.10008E-03  1728   0.108E-01    0.172E-01
DAV:  11    -0.509650675456E+02   -0.72620E-03   -0.96066E-04  1696   0.101E-01    0.328E-02
DAV:  12    -0.509650753435E+02   -0.77979E-05   -0.17785E-05  1728   0.173E-02
   1 F= -.50965075E+02 E0= -.50965075E+02  d E =-.509651E+02
       N       E                     dE             d eps       ncg     rms          rms(c)
DAV:   1    -0.512422199557E+02   -0.27715E+00   -0.73862E+00  1472   0.157E+01    0.378E+00
DAV:   2    -0.510384093321E+02    0.20381E+00   -0.35601E-01  1760   0.282E+00    0.206E+00
DAV:   3    -0.509827050551E+02    0.55704E-01   -0.12168E-01  1728   0.157E+00    0.523E-01
DAV:   4    -0.509798995938E+02    0.28055E-02   -0.22281E-03  1888   0.189E-01    0.387E-01
DAV:   5    -0.509785509301E+02    0.13487E-02   -0.74543E-04  1664   0.110E-01    0.951E-02
DAV:   6    -0.509785273075E+02    0.23623E-04   -0.62101E-05  1920   0.283E-02    0.601E-02
DAV:   7    -0.509785132287E+02    0.14079E-04   -0.68256E-06  1408   0.110E-02    0.254E-02
DAV:   8    -0.509785118824E+02    0.13463E-05   -0.47529E-06  1568   0.950E-03
   2 F= -.50978512E+02 E0= -.50978512E+02  d E =-.134365E-01
       N       E                     dE             d eps       ncg     rms          rms(c)
DAV:   1    -0.510393139146E+02   -0.60801E-01   -0.12985E+00  1504   0.640E+00    0.164E+00
DAV:   2    -0.510025831679E+02    0.36731E-01   -0.63707E-02  1728   0.119E+00    0.883E-01
DAV:   3    -0.509926854305E+02    0.98977E-02   -0.22051E-02  1696   0.665E-01    0.241E-01
DAV:   4    -0.509922596137E+02    0.42582E-03   -0.40052E-04  1856   0.826E-02    0.190E-01
DAV:   5    -0.509920504713E+02    0.20914E-03   -0.14699E-04  1664   0.490E-02    0.403E-02
DAV:   6    -0.509920505467E+02   -0.75412E-07   -0.11327E-05  1920   0.116E-02
   3 F= -.50992051E+02 E0= -.50992051E+02  d E =-.269752E-01
       N       E                     dE             d eps       ncg     rms          rms(c)
DAV:   1    -0.510212823979E+02   -0.29232E-01   -0.80072E-01  1344   0.450E+00    0.981E-01
DAV:   2    -0.510045470888E+02    0.16735E-01   -0.48208E-02  1856   0.957E-01    0.501E-01
DAV:   3    -0.509996957746E+02    0.48513E-02   -0.89953E-03  1632   0.380E-01    0.185E-01
DAV:   4    -0.509992161655E+02    0.47961E-03   -0.59367E-04  1888   0.927E-02    0.144E-01
DAV:   5    -0.509990867076E+02    0.12946E-03   -0.67519E-05  1952   0.324E-02    0.362E-02
DAV:   6    -0.509990805871E+02    0.61205E-05   -0.14123E-05  1440   0.167E-02
   4 F= -.50999081E+02 E0= -.50999081E+02  d E =-.703004E-02
       N       E                     dE             d eps       ncg     rms          rms(c)
DAV:   1    -0.510047195448E+02   -0.56328E-02   -0.18456E-01  1344   0.215E+00    0.470E-01
DAV:   2    -0.510008332074E+02    0.38863E-02   -0.11112E-02  1856   0.459E-01    0.240E-01
DAV:   3    -0.509997144988E+02    0.11187E-02   -0.20998E-03  1632   0.183E-01    0.888E-02
DAV:   4    -0.509996010416E+02    0.11346E-03   -0.13507E-04  1888   0.438E-02    0.698E-02
DAV:   5    -0.509995643601E+02    0.36682E-04   -0.13079E-05  1344   0.158E-02    0.128E-02
DAV:   6    -0.509995622261E+02    0.21340E-05   -0.57201E-06  1024   0.123E-02
   5 F= -.50999562E+02 E0= -.50999562E+02  d E =-.751168E-02
       N       E                     dE             d eps       ncg     rms          rms(c)
DAV:   1    -0.510111536682E+02   -0.11589E-01   -0.36439E-01  1280   0.297E+00    0.613E-01
DAV:   2    -0.510044589622E+02    0.66947E-02   -0.22545E-02  1856   0.643E-01    0.319E-01
DAV:   3    -0.510025293129E+02    0.19296E-02   -0.39605E-03  1664   0.262E-01    0.115E-01
DAV:   4    -0.510023835945E+02    0.14572E-03   -0.19532E-04  1888   0.510E-02    0.853E-02
DAV:   5    -0.510023294266E+02    0.54168E-04   -0.22302E-05  1792   0.181E-02    0.371E-02
DAV:   6    -0.510023205690E+02    0.88576E-05   -0.54620E-06  1376   0.105E-02
   6 F= -.51002321E+02 E0= -.51002321E+02  d E =-.275834E-02
       N       E                     dE             d eps       ncg     rms          rms(c)
DAV:   1    -0.510055612801E+02   -0.32319E-02   -0.11768E-01  1280   0.168E+00    0.348E-01
DAV:   2    -0.510034001685E+02    0.21611E-02   -0.72906E-03  1856   0.365E-01    0.182E-01
DAV:   3    -0.510027783359E+02    0.62183E-03   -0.12812E-03  1664   0.149E-01    0.656E-02
DAV:   4    -0.510027283994E+02    0.49936E-04   -0.62604E-05  1888   0.288E-02    0.488E-02
DAV:   5    -0.510027075480E+02    0.20851E-04   -0.63427E-06  1408   0.104E-02    0.175E-02
DAV:   6    -0.510027034756E+02    0.40724E-05   -0.27417E-06  1216   0.823E-03
   7 F= -.51002703E+02 E0= -.51002703E+02  d E =-.314125E-02
