 vasp.6.3.2 27Jun22 (build Jun 14 2024 17:29:11) complex                         
 executed on             LinuxGNU date 2026.01.22  09:17:19
 running on   32 total cores
 distrk:  each k-point on   32 cores,    1 groups
 distr:  one band on NCORE=   1 cores,   32 groups


--------------------------------------------------------------------------------------------------------


 INCAR:
   SYSTEM = static
   ISTART = 1
   ICHARG = 1
   ENCUT = 520
   PREC = Accurate
   EDIFF = 1E-6
   ISMEAR = 0
   SIGMA = 0.05
   NSW = 0
   LREAL = Auto
   ALGO = Normal
   LASPH = .TRUE.
   LORBIT = 11
   NEDOS = 2000

 POTCAR:    PAW_PBE Na_sv 28Sep2000               
 POTCAR:    PAW_PBE Sb 06Sep2000                  
 POTCAR:    PAW_PBE S 06Sep2000                   
 POTCAR:    PAW_PBE O 08Apr2002                   
 POTCAR:    PAW_PBE H 15Jun2001                   
 -----------------------------------------------------------------------------
|                                                                             |
|           W    W    AA    RRRRR   N    N  II  N    N   GGGG   !!!           |
|           W    W   A  A   R    R  NN   N  II  NN   N  G    G  !!!           |
|           W    W  A    A  R    R  N N  N  II  N N  N  G       !!!           |
|           W WW W  AAAAAA  RRRRR   N  N N  II  N  N N  G  GGG   !            |
|           WW  WW  A    A  R   R   N   NN  II  N   NN  G    G                |
|           W    W  A    A  R    R  N    N  II  N    N   GGGG   !!!           |
|                                                                             |
|     For optimal performance we recommend to set                             |
|       NCORE = 2 up to number-of-cores-per-socket                            |
|     NCORE specifies how many cores store one orbital (NPAR=cpu/NCORE).      |
|     This setting can greatly improve the performance of VASP for DFT.       |
|     The default, NCORE=1 might be grossly inefficient on modern             |
|     multi-core architectures or massively parallel machines. Do your        |
|     own testing! More info at https://www.vasp.at/wiki/index.php/NCORE      |
|     Unfortunately you need to use the default for GW and RPA                |
|     calculations (for HF NCORE is supported but not extensively tested      |
|     yet).                                                                   |
|                                                                             |
 -----------------------------------------------------------------------------

 POTCAR:    PAW_PBE Na_sv 28Sep2000               
   SHA256 =  a6776e1c685fedd948d8820863091fa2c738ea18a23b817769b932f2fb3f61be Na_sv/POTCAR          
   COPYR  = (c) Copyright 28Sep2000 Georg Kresse                                                    
   COPYR  = This file is part of the software VASP. Any use, copying, and all other rights are regul
   COPYR  = If you do not have a valid VASP license, you may not use, copy or distribute this file. 
   VRHFIN =Na: s1p0                                                                                 
   LEXCH  = PE                                                                                      
   EATOM  =  1307.8686 eV,   96.1256 Ry                                                             
                                                                                                    
   TITEL  = PAW_PBE Na_sv 28Sep2000                                                                 
   LULTRA =        F    use ultrasoft PP ?                                                          
   IUNSCR =        0    unscreen: 0-lin 1-nonlin 2-no                                               
   RPACOR =    0.000    partial core radius                                                         
   POMASS =   22.990; ZVAL   =    9.000    mass and valenz                                          
   RCORE  =    1.450    outmost cutoff radius                                                       
   RWIGS  =    1.500; RWIGS  =    0.794    wigner-seitz radius (au A)                               
   ENMAX  =  645.640; ENMIN  =  484.230 eV                                                          
   RCLOC  =    1.007    cutoff for local pot                                                        
   LCOR   =        T    correct aug charges                                                         
   LPAW   =        T    paw PP                                                                      
   EAUG   =  698.012                                                                                
   RMAX   =    1.481    core radius for proj-oper                                                   
   RAUG   =    1.300    factor for augmentation sphere                                              
   RDEP   =    1.539    radius for radial grids                                                     
   RDEPT  =    1.250    core radius for aug-charge                                                  
                                                                                                    
   Atomic configuration                                                                             
    5 entries                                                                                       
     n  l   j            E        occ.                                                              
     1  0  0.50     -1033.6933   2.0000                                                             
     2  0  0.50       -56.7526   2.0000                                                             
     3  0  0.50        -2.7440   1.0000                                                             
     2  1  1.50       -28.6721   6.0000                                                             
     3  2  1.50        -1.3606   0.0000                                                             
   Description                                                                                      
     l       E           TYP  RCUT    TYP  RCUT                                                     
     0    -56.7526473     23  1.200                                                                 
     0     -2.7439560     23  1.450                                                                 
     1    -28.6720906     23  1.250                                                                 
     1     40.8174780     23  1.400                                                                 
  local pseudopotential read in
  atomic valenz-charges read in
  non local Contribution for L=           0  read in
    real space projection operators read in
  non local Contribution for L=           0  read in
    real space projection operators read in
  non local Contribution for L=           1  read in
    real space projection operators read in
  non local Contribution for L=           1  read in
    real space projection operators read in
    PAW grid and wavefunctions read in

   number of l-projection  operators is LMAX  =           4
   number of lm-projection operators is LMMAX =           8

 POTCAR:    PAW_PBE Sb 06Sep2000                  
   SHA256 =  8a1325a3afd8ca988779475cff04188eb880a428d1acb53275fe456fa3b784fc Sb/POTCAR             
   COPYR  = (c) Copyright 06Sep2000 Georg Kresse                                                    
   COPYR  = This file is part of the software VASP. Any use, copying, and all other rights are regul
   COPYR  = If you do not have a valid VASP license, you may not use, copy or distribute this file. 
   VRHFIN =Sb: s2p3                                                                                 
   LEXCH  = PE                                                                                      
   EATOM  =   149.9515 eV,   11.0211 Ry                                                             
                                                                                                    
   TITEL  = PAW_PBE Sb 06Sep2000                                                                    
   LULTRA =        F    use ultrasoft PP ?                                                          
   IUNSCR =        1    unscreen: 0-lin 1-nonlin 2-no                                               
   RPACOR =    2.200    partial core radius                                                         
   POMASS =  121.750; ZVAL   =    5.000    mass and valenz                                          
   RCORE  =    2.300    outmost cutoff radius                                                       
   RWIGS  =    2.980; RWIGS  =    1.577    wigner-seitz radius (au A)                               
   ENMAX  =  172.069; ENMIN  =  129.052 eV                                                          
   ICORE  =        3    local potential                                                             
   LCOR   =        T    correct aug charges                                                         
   LPAW   =        T    paw PP                                                                      
   EAUG   =  380.513                                                                                
   DEXC   =    0.000                                                                                
   RMAX   =    2.346    core radius for proj-oper                                                   
   RAUG   =    1.300    factor for augmentation sphere                                              
   RDEP   =    2.360    radius for radial grids                                                     
   RDEPT  =    2.192    core radius for aug-charge                                                  
                                                                                                    
   Atomic configuration                                                                             
   13 entries                                                                                       
     n  l   j            E        occ.                                                              
     1  0  0.50    -30298.2797   2.0000                                                             
     2  0  0.50     -4610.2252   2.0000                                                             
     2  1  1.50     -4138.3407   6.0000                                                             
     3  0  0.50      -903.8815   2.0000                                                             
     3  1  1.50      -750.1337   6.0000                                                             
     3  2  2.50      -515.7092  10.0000                                                             
     4  0  0.50      -148.8034   2.0000                                                             
     4  1  1.50      -101.7581   6.0000                                                             
     4  2  2.50       -33.5048  10.0000                                                             
     5  0  0.50       -12.8298   2.0000                                                             
     5  1  0.50        -4.8276   3.0000                                                             
     5  2  1.50        -4.0817   0.0000                                                             
     4  3  2.50        -4.0817   0.0000                                                             
   Description                                                                                      
     l       E           TYP  RCUT    TYP  RCUT                                                     
     0    -12.8297861     23  2.300                                                                 
     0     13.6058260     23  2.300                                                                 
     1     -4.8275512     23  2.300                                                                 
     1     -0.7245443     23  2.300                                                                 
     2     -4.0817478     23  2.300                                                                 
     3     -1.3605826     23  2.300                                                                 
  local pseudopotential read in
  partial core-charges read in
  partial kinetic energy density read in
  atomic valenz-charges read in
  non local Contribution for L=           0  read in
    real space projection operators read in
  non local Contribution for L=           0  read in
    real space projection operators read in
  non local Contribution for L=           1  read in
    real space projection operators read in
  non local Contribution for L=           1  read in
    real space projection operators read in
  non local Contribution for L=           2  read in
    real space projection operators read in
    PAW grid and wavefunctions read in

   number of l-projection  operators is LMAX  =           5
   number of lm-projection operators is LMMAX =          13

 POTCAR:    PAW_PBE S 06Sep2000                   
   SHA256 =  0fc7481fb0695f01bdc6462160264c5c84044ae9ec85a907d398b887a2bc3132 S/POTCAR              
   COPYR  = (c) Copyright 06Sep2000 Georg Kresse                                                    
   COPYR  = This file is part of the software VASP. Any use, copying, and all other rights are regul
   COPYR  = If you do not have a valid VASP license, you may not use, copy or distribute this file. 
   VRHFIN =S : s2p4                                                                                 
   LEXCH  = PE                                                                                      
   EATOM  =   276.8230 eV,   20.3459 Ry                                                             
                                                                                                    
   TITEL  = PAW_PBE S 06Sep2000                                                                     
   LULTRA =        F    use ultrasoft PP ?                                                          
   IUNSCR =        1    unscreen: 0-lin 1-nonlin 2-no                                               
   RPACOR =    1.500    partial core radius                                                         
   POMASS =   32.066; ZVAL   =    6.000    mass and valenz                                          
   RCORE  =    1.900    outmost cutoff radius                                                       
   RWIGS  =    2.200; RWIGS  =    1.164    wigner-seitz radius (au A)                               
   ENMAX  =  258.689; ENMIN  =  194.016 eV                                                          
   ICORE  =        2    local potential                                                             
   LCOR   =        T    correct aug charges                                                         
   LPAW   =        T    paw PP                                                                      
   EAUG   =  335.092                                                                                
   DEXC   =    0.000                                                                                
   RMAX   =    1.942    core radius for proj-oper                                                   
   RAUG   =    1.300    factor for augmentation sphere                                              
   RDEP   =    1.954    radius for radial grids                                                     
   RDEPT  =    1.744    core radius for aug-charge                                                  
                                                                                                    
   Atomic configuration                                                                             
    6 entries                                                                                       
     n  l   j            E        occ.                                                              
     1  0  0.50     -2405.8406   2.0000                                                             
     2  0  0.50      -211.7007   2.0000                                                             
     2  1  1.50      -156.4958   6.0000                                                             
     3  0  0.50       -17.2562   2.0000                                                             
     3  1  0.50        -7.0085   4.0000                                                             
     3  2  1.50        -6.8029   0.0000                                                             
   Description                                                                                      
     l       E           TYP  RCUT    TYP  RCUT                                                     
     0    -17.2561641     23  1.900                                                                 
     0    -15.8743224     23  1.900                                                                 
     1     -7.0085400     23  1.900                                                                 
     1     -2.7779785     23  1.900                                                                 
     2     -6.8029130     23  1.900                                                                 
  local pseudopotential read in
  partial core-charges read in
  partial kinetic energy density read in
  atomic valenz-charges read in
  non local Contribution for L=           0  read in
    real space projection operators read in
  non local Contribution for L=           0  read in
    real space projection operators read in
  non local Contribution for L=           1  read in
    real space projection operators read in
  non local Contribution for L=           1  read in
    real space projection operators read in
    PAW grid and wavefunctions read in

   number of l-projection  operators is LMAX  =           4
   number of lm-projection operators is LMMAX =           8

 POTCAR:    PAW_PBE O 08Apr2002                   
   SHA256 =  818f92134a0a090dccd8ba1447fa70422a3b330e708bb4f08108d8ae51209ddf O/POTCAR              
   COPYR  = (c) Copyright 08Apr2002 Georg Kresse                                                    
   COPYR  = This file is part of the software VASP. Any use, copying, and all other rights are regul
   COPYR  = If you do not have a valid VASP license, you may not use, copy or distribute this file. 
   VRHFIN =O: s2p4                                                                                  
   LEXCH  = PE                                                                                      
   EATOM  =   432.3788 eV,   31.7789 Ry                                                             
                                                                                                    
   TITEL  = PAW_PBE O 08Apr2002                                                                     
   LULTRA =        F    use ultrasoft PP ?                                                          
   IUNSCR =        1    unscreen: 0-lin 1-nonlin 2-no                                               
   RPACOR =    1.200    partial core radius                                                         
   POMASS =   16.000; ZVAL   =    6.000    mass and valenz                                          
   RCORE  =    1.520    outmost cutoff radius                                                       
   RWIGS  =    1.550; RWIGS  =    0.820    wigner-seitz radius (au A)                               
   ENMAX  =  400.000; ENMIN  =  300.000 eV                                                          
   ICORE  =        2    local potential                                                             
   LCOR   =        T    correct aug charges                                                         
   LPAW   =        T    paw PP                                                                      
   EAUG   =  605.392                                                                                
   DEXC   =    0.000                                                                                
   RMAX   =    1.553    core radius for proj-oper                                                   
   RAUG   =    1.300    factor for augmentation sphere                                              
   RDEP   =    1.550    radius for radial grids                                                     
   RDEPT  =    1.329    core radius for aug-charge                                                  
                                                                                                    
   Atomic configuration                                                                             
    4 entries                                                                                       
     n  l   j            E        occ.                                                              
     1  0  0.50      -514.6923   2.0000                                                             
     2  0  0.50       -23.9615   2.0000                                                             
     2  1  0.50        -9.0305   4.0000                                                             
     3  2  1.50        -9.5241   0.0000                                                             
   Description                                                                                      
     l       E           TYP  RCUT    TYP  RCUT                                                     
     0    -23.9615318     23  1.200                                                                 
     0     -9.5240782     23  1.200                                                                 
     1     -9.0304911     23  1.520                                                                 
     1      8.1634956     23  1.520                                                                 
     2     -9.5240782      7  1.500                                                                 
  local pseudopotential read in
  partial core-charges read in
  partial kinetic energy density read in
  kinetic energy density of atom read in
  atomic valenz-charges read in
  non local Contribution for L=           0  read in
    real space projection operators read in
  non local Contribution for L=           0  read in
    real space projection operators read in
  non local Contribution for L=           1  read in
    real space projection operators read in
  non local Contribution for L=           1  read in
    real space projection operators read in
    PAW grid and wavefunctions read in

   number of l-projection  operators is LMAX  =           4
   number of lm-projection operators is LMMAX =           8

 POTCAR:    PAW_PBE H 15Jun2001                   
   SHA256 =  030f79b5d3ab3cf0e668861823c8fb652ff669f3e15e46930bd03bfd63a607b6 H/POTCAR              
   COPYR  = (c) Copyright 15Jun2001 Georg Kresse                                                    
   COPYR  = This file is part of the software VASP. Any use, copying, and all other rights are regul
   COPYR  = If you do not have a valid VASP license, you may not use, copy or distribute this file. 
   VRHFIN =H: ultrasoft test                                                                        
   LEXCH  = PE                                                                                      
   EATOM  =    12.4884 eV,    0.9179 Ry                                                             
                                                                                                    
   TITEL  = PAW_PBE H 15Jun2001                                                                     
   LULTRA =        F    use ultrasoft PP ?                                                          
   IUNSCR =        0    unscreen: 0-lin 1-nonlin 2-no                                               
   RPACOR =    0.000    partial core radius                                                         
   POMASS =    1.000; ZVAL   =    1.000    mass and valenz                                          
   RCORE  =    1.100    outmost cutoff radius                                                       
   RWIGS  =    0.700; RWIGS  =    0.370    wigner-seitz radius (au A)                               
   ENMAX  =  250.000; ENMIN  =  200.000 eV                                                          
   RCLOC  =    0.701    cutoff for local pot                                                        
   LCOR   =        T    correct aug charges                                                         
   LPAW   =        T    paw PP                                                                      
   EAUG   =  400.000                                                                                
   RMAX   =    1.123    core radius for proj-oper                                                   
   RAUG   =    1.200    factor for augmentation sphere                                              
   RDEP   =    1.112    radius for radial grids                                                     
   RDEPT  =    0.926    core radius for aug-charge                                                  
                                                                                                    
   Atomic configuration                                                                             
    2 entries                                                                                       
     n  l   j            E        occ.                                                              
     1  0  0.50        -6.4927   1.0000                                                             
     2  1  0.50        -3.4015   0.0000                                                             
   Description                                                                                      
     l       E           TYP  RCUT    TYP  RCUT                                                     
     0     -6.4927494     23  1.100                                                                 
     0      6.8029130     23  1.100                                                                 
     1     -4.0817478     23  1.100                                                                 
  local pseudopotential read in
  atomic valenz-charges read in
  non local Contribution for L=           0  read in
    real space projection operators read in
  non local Contribution for L=           0  read in
    real space projection operators read in
  non local Contribution for L=           1  read in
    real space projection operators read in
    PAW grid and wavefunctions read in

   number of l-projection  operators is LMAX  =           3
   number of lm-projection operators is LMMAX =           5

 Optimization of the real space projectors (new method)

 maximal supplied QI-value         = 25.89
 optimisation between [QCUT,QGAM] = [ 11.65, 23.30] = [ 38.01,152.03] Ry 
 Optimized for a Real-space Cutoff    1.11 Angstroem

   l    n(q)    QCUT    max X(q) W(low)/X(q) W(high)/X(q)  e(spline) 
   0      8    11.650     6.352    0.47E-04    0.32E-05    0.39E-07
   0      8    11.650    12.451    0.76E-04    0.11E-04    0.81E-07
   1      7    11.650     1.851    0.24E-04    0.24E-04    0.57E-07
   1      7    11.650     2.565    0.24E-03    0.55E-03    0.17E-06
 Optimization of the real space projectors (new method)

 maximal supplied QI-value         = 16.25
 optimisation between [QCUT,QGAM] = [ 11.54, 23.24] = [ 37.28,151.24] Ry 
 Optimized for a Real-space Cutoff    1.36 Angstroem

   l    n(q)    QCUT    max X(q) W(low)/X(q) W(high)/X(q)  e(spline) 
   0      9    11.539    19.000    0.40E-04    0.50E-04    0.84E-07
   0      9    11.539     9.057    0.48E-04    0.60E-04    0.10E-06
   1      9    11.539   125.345    0.24E-03    0.13E-04    0.15E-06
   1      9    11.539    79.963    0.24E-03    0.12E-04    0.14E-06
   2      9    11.539     6.963    0.31E-04    0.10E-03    0.57E-07
 Optimization of the real space projectors (new method)

 maximal supplied QI-value         = 19.84
 optimisation between [QCUT,QGAM] = [ 11.51, 23.22] = [ 37.09,150.92] Ry 
 Optimized for a Real-space Cutoff    1.21 Angstroem

   l    n(q)    QCUT    max X(q) W(low)/X(q) W(high)/X(q)  e(spline) 
   0      8    11.508   187.594    0.96E-04    0.18E-03    0.54E-07
   0      8    11.508   164.243    0.96E-04    0.18E-03    0.54E-07
   1      8    11.508    67.533    0.18E-03    0.65E-04    0.94E-07
   1      8    11.508    50.729    0.18E-03    0.63E-04    0.92E-07
 Optimization of the real space projectors (new method)

 maximal supplied QI-value         = 24.76
 optimisation between [QCUT,QGAM] = [ 11.64, 23.27] = [ 37.91,151.63] Ry 
 Optimized for a Real-space Cutoff    1.14 Angstroem

   l    n(q)    QCUT    max X(q) W(low)/X(q) W(high)/X(q)  e(spline) 
   0      8    11.635    20.381    0.10E-03    0.33E-03    0.24E-06
   0      8    11.635    15.268    0.11E-03    0.35E-03    0.26E-06
   1      7    11.635     5.964    0.24E-03    0.31E-03    0.30E-06
   1      7    11.635     5.382    0.22E-03    0.25E-03    0.26E-06
 Optimization of the real space projectors (new method)

 maximal supplied QI-value         = 34.20
 optimisation between [QCUT,QGAM] = [ 11.63, 23.26] = [ 37.87,151.49] Ry 
 Optimized for a Real-space Cutoff    1.21 Angstroem

   l    n(q)    QCUT    max X(q) W(low)/X(q) W(high)/X(q)  e(spline) 
   0      8    11.629    19.460    0.17E-03    0.34E-03    0.21E-06
   0      8    11.629    12.209    0.16E-03    0.33E-03    0.21E-06
   1      8    11.629     4.655    0.18E-03    0.16E-03    0.26E-06
  PAW_PBE Na_sv 28Sep2000               :
 energy of atom  1       EATOM=-1307.8686
 kinetic energy error for atom=    1.0320 (will be added to EATOM!!)
  PAW_PBE Sb 06Sep2000                  :
 energy of atom  2       EATOM= -149.9515
 kinetic energy error for atom=    0.0005 (will be added to EATOM!!)
  PAW_PBE S 06Sep2000                   :
 energy of atom  3       EATOM= -276.8230
 kinetic energy error for atom=    0.0016 (will be added to EATOM!!)
  PAW_PBE O 08Apr2002                   :
 energy of atom  4       EATOM= -432.3788
 kinetic energy error for atom=    0.0208 (will be added to EATOM!!)
  PAW_PBE H 15Jun2001                   :
 energy of atom  5       EATOM=  -12.4884
 kinetic energy error for atom=    0.0014 (will be added to EATOM!!)


 POSCAR: 
  positions in direct lattice
  velocities in cartesian coordinates
 exchange correlation table for  LEXCH =        8
   RHO(1)=    0.500       N(1)  =     2000
   RHO(2)=  100.500       N(2)  =     4000



--------------------------------------------------------------------------------------------------------


 ion  position               nearest neighbor table
   1  0.500  0.000  0.500-
   2  0.500  0.500  0.000-
   3  0.000  0.000  0.000-
   4  0.000  0.500  0.500-
   5  0.169  0.558  0.085-
   6  0.831  0.442  0.915-
   7  0.831  0.058  0.415-
   8  0.169  0.942  0.585-
   9  0.665  0.051  0.087-
  10  0.335  0.949  0.913-
  11  0.335  0.551  0.413-
  12  0.665  0.449  0.587-
  13  0.289  0.168  0.251-  21 2.32  25 2.34  29 2.35  17 2.36
  14  0.711  0.832  0.749-  22 2.32  26 2.34  30 2.35  18 2.36
  15  0.711  0.668  0.249-  23 2.32  27 2.34  31 2.35  19 2.36
  16  0.289  0.332  0.751-  24 2.32  28 2.34  32 2.35  20 2.36
  17  0.204  0.991  0.210-  13 2.36
  18  0.796  0.009  0.790-  14 2.36
  19  0.796  0.491  0.290-  15 2.36
  20  0.204  0.509  0.710-  16 2.36
  21  0.406  0.194  0.425-  13 2.32
  22  0.594  0.806  0.575-  14 2.32
  23  0.594  0.694  0.075-  15 2.32
  24  0.406  0.306  0.925-  16 2.32
  25  0.479  0.214  0.153-  13 2.34
  26  0.521  0.786  0.847-  14 2.34
  27  0.521  0.714  0.347-  15 2.34
  28  0.479  0.286  0.653-  16 2.34
  29  0.061  0.282  0.215-  13 2.35
  30  0.939  0.718  0.785-  14 2.35
  31  0.939  0.782  0.285-  15 2.35
  32  0.061  0.218  0.715-  16 2.35
  33  0.095  0.387  0.002-  73 0.99  88 0.99
  34  0.905  0.613  0.998-  74 0.99  87 0.99
  35  0.905  0.887  0.498-  75 0.99  86 0.99
  36  0.095  0.113  0.502-  76 0.99  85 0.99
  37  0.149  0.522  0.255-  81 0.99  65 0.99
  38  0.851  0.478  0.745-  82 0.99  66 0.99
  39  0.851  0.022  0.245-  83 0.99  67 0.99
  40  0.149  0.978  0.755-  84 0.99  68 0.99
  41  0.151  0.657  0.471-  69 0.99  92 1.00
  42  0.849  0.343  0.529-  70 0.99  91 1.00
  43  0.849  0.157  0.029-  71 0.99  90 1.00
  44  0.151  0.843  0.971-  72 0.99  89 1.00
  45  0.202  0.395  0.466-  93 0.98 100 0.99
  46  0.798  0.605  0.534-  94 0.98  99 0.99
  47  0.798  0.895  0.034-  95 0.98  98 0.99
  48  0.202  0.105  0.966-  96 0.98  97 0.99
  49  0.207  0.735  0.152-  77 0.99 119 0.99
  50  0.793  0.265  0.848-  78 0.99 120 0.99
  51  0.793  0.235  0.348-  79 0.99 117 0.99
  52  0.207  0.765  0.652-  80 0.99 118 0.99
  53  0.412  0.457  0.153- 105 0.98 101 1.00
  54  0.588  0.543  0.847- 106 0.98 102 1.00
  55  0.588  0.957  0.347- 107 0.98 103 1.00
  56  0.412  0.043  0.653- 108 0.98 104 1.00
  57  0.529  0.425  0.407- 113 0.99 109 0.99
  58  0.471  0.575  0.593- 114 0.99 110 0.99
  59  0.471  0.925  0.093- 115 0.99 111 0.99
  60  0.529  0.075  0.907- 116 0.99 112 0.99
  61  0.745  0.399  0.065- 121 0.98 125 0.99
  62  0.255  0.601  0.935- 122 0.98 126 0.99
  63  0.255  0.899  0.435- 123 0.98 127 0.99
  64  0.745  0.101  0.565- 124 0.98 128 0.99
  65  0.036  0.526  0.267-  37 0.99
  66  0.964  0.474  0.733-  38 0.99
  67  0.964  0.026  0.233-  39 0.99
  68  0.036  0.974  0.767-  40 0.99
  69  0.074  0.701  0.419-  41 0.99
  70  0.926  0.299  0.581-  42 0.99
  71  0.926  0.201  0.081-  43 0.99
  72  0.074  0.799  0.919-  44 0.99
  73  0.089  0.345  0.064-  33 0.99
  74  0.911  0.655  0.936-  34 0.99
  75  0.911  0.845  0.436-  35 0.99
  76  0.089  0.155  0.564-  36 0.99
  77  0.118  0.743  0.190-  49 0.99
  78  0.882  0.257  0.810-  50 0.99
  79  0.882  0.243  0.310-  51 0.99
  80  0.118  0.757  0.690-  52 0.99
  81  0.160  0.445  0.245-  37 0.99
  82  0.840  0.555  0.755-  38 0.99
  83  0.840  0.945  0.255-  39 0.99
  84  0.160  0.055  0.745-  40 0.99
  85  0.187  0.143  0.476-  36 0.99
  86  0.813  0.857  0.524-  35 0.99
  87  0.813  0.643  0.024-  34 0.99
  88  0.187  0.357  0.976-  33 0.99
  89  0.171  0.803  0.038-  44 1.00
  90  0.829  0.197  0.962-  43 1.00
  91  0.829  0.303  0.462-  42 1.00
  92  0.171  0.697  0.538-  41 1.00
  93  0.184  0.344  0.408-  45 0.98
  94  0.816  0.656  0.592-  46 0.98
  95  0.816  0.844  0.092-  47 0.98
  96  0.184  0.156  0.908-  48 0.98
  97  0.288  0.140  0.020-  48 0.99
  98  0.712  0.860  0.980-  47 0.99
  99  0.712  0.640  0.480-  46 0.99
 100  0.288  0.360  0.520-  45 0.99
 101  0.416  0.378  0.149-  53 1.00
 102  0.584  0.622  0.851-  54 1.00
 103  0.584  0.878  0.351-  55 1.00
 104  0.416  0.122  0.649-  56 1.00
 105  0.506  0.473  0.210-  53 0.98
 106  0.494  0.527  0.790-  54 0.98
 107  0.494  0.973  0.290-  55 0.98
 108  0.506  0.027  0.710-  56 0.98
 109  0.499  0.349  0.404-  57 0.99
 110  0.501  0.651  0.596-  58 0.99
 111  0.501  0.849  0.096-  59 0.99
 112  0.499  0.151  0.904-  60 0.99
 113  0.620  0.434  0.372-  57 0.99
 114  0.380  0.566  0.628-  58 0.99
 115  0.380  0.934  0.128-  59 0.99
 116  0.620  0.066  0.872-  60 0.99
 117  0.690  0.233  0.293-  51 0.99
 118  0.310  0.767  0.707-  52 0.99
 119  0.310  0.733  0.207-  49 0.99
 120  0.690  0.267  0.793-  50 0.99
 121  0.711  0.325  0.068-  61 0.98
 122  0.289  0.675  0.932-  62 0.98
 123  0.289  0.825  0.432-  63 0.98
 124  0.711  0.175  0.568-  64 0.98
 125  0.775  0.424  0.139-  61 0.99
 126  0.225  0.576  0.861-  62 0.99
 127  0.225  0.924  0.361-  63 0.99
 128  0.775  0.076  0.639-  64 0.99

  LATTYP: Found a simple monoclinic cell.
 ALAT       =     8.3407802027
 B/A-ratio  =     1.5072974252
 C/A-ratio  =     1.5884907956
 COS(beta)  =    -0.2314337033
  
  Lattice vectors:
  
 A1 = (   8.3407774933,   0.0000000000,  -0.0067228788)
 A2 = (   0.0000000000,  12.5720365238,   0.0000000000)
 A3 = (  -3.0559332977,   0.0000000000,  12.8920116972)


Analysis of symmetry for initial positions (statically):
=====================================================================
 Subroutine PRICEL returns:
 Original cell was already a primitive cell.
 

 Routine SETGRP: Setting up the symmetry group for a 
 simple monoclinic supercell.


 Subroutine GETGRP returns: Found  4 space group operations
 (whereof  2 operations were pure point group operations)
 out of a pool of  4 trial point group operations.


The static configuration has the point symmetry S_2 .
 The point group associated with its full space group is C_2h.


Analysis of symmetry for dynamics (positions and initial velocities):
=====================================================================
 Subroutine PRICEL returns:
 Original cell was already a primitive cell.
 

 Routine SETGRP: Setting up the symmetry group for a 
 simple monoclinic supercell.


 Subroutine GETGRP returns: Found  4 space group operations
 (whereof  2 operations were pure point group operations)
 out of a pool of  4 trial point group operations.


The dynamic configuration has the point symmetry S_2 .
 The point group associated with its full space group is C_2h.


 Subroutine INISYM returns: Found  4 space group operations
 (whereof  2 operations are pure point group operations),
 and found     1 'primitive' translations


----------------------------------------------------------------------------------------

                                     Primitive cell                                     

  volume of cell :    1351.6053

  direct lattice vectors                    reciprocal lattice vectors
     8.340777493  0.000000000 -0.006722879     0.119915811 -0.000000000  0.028424945
     0.000000000 12.572036524  0.000000000    -0.000000000  0.079541608 -0.000000000
    -3.055933298  0.000000000 12.892011697     0.000062533 -0.000000000  0.077582236

  length of vectors
     8.340780203 12.572036524 13.249252580     0.123238708  0.079541608  0.077582261

  position of ions in fractional coordinates (direct lattice)
     0.500000000  0.000000000  0.500000000
     0.500000000  0.500000000  0.000000000
     0.000000000  0.000000000  0.000000000
     1.000000000  0.500000000  0.500000000
     0.168614488  0.558456763  0.084971036
     0.831385512  0.441543237  0.915028964
     0.831385512  0.058456763  0.415028964
     0.168614488  0.941543237  0.584971036
     0.664823951  0.050836873  0.087323992
     0.335176049  0.949163127  0.912676008
     0.335176049  0.550836873  0.412676008
     0.664823951  0.449163127  0.587323992
     0.289415876  0.167710862  0.250801421
     0.710584124  0.832289138  0.749198579
     0.710584124  0.667710862  0.249198579
     0.289415876  0.332289138  0.750801421
     0.204008166  0.991009073  0.210195456
     0.795991834  0.008990927  0.789804544
     0.795991834  0.491009073  0.289804544
     0.204008166  0.508990927  0.710195456
     0.405633476  0.194213725  0.425410968
     0.594366524  0.805786275  0.574589032
     0.594366524  0.694213725  0.074589032
     0.405633476  0.305786275  0.925410968
     0.479450664  0.213978549  0.152934534
     0.520549336  0.786021451  0.847065466
     0.520549336  0.713978549  0.347065466
     0.479450664  0.286021451  0.652934534
     0.060961776  0.282089726  0.215209473
     0.939038224  0.717910274  0.784790527
     0.939038224  0.782089726  0.284790527
     0.060961776  0.217910274  0.715209473
     0.094766253  0.387211543  0.001595092
     0.905233747  0.612788457  0.998404908
     0.905233747  0.887211543  0.498404908
     0.094766253  0.112788457  0.501595092
     0.148511104  0.522284689  0.254726142
     0.851488896  0.477715311  0.745273858
     0.851488896  0.022284689  0.245273858
     0.148511104  0.977715311  0.754726142
     0.150567195  0.657384872  0.471248445
     0.849432805  0.342615128  0.528751555
     0.849432805  0.157384872  0.028751555
     0.150567195  0.842615128  0.971248445
     0.202027826  0.394803489  0.465751513
     0.797972174  0.605196511  0.534248487
     0.797972174  0.894803489  0.034248487
     0.202027826  0.105196511  0.965751513
     0.207152802  0.734711597  0.152001321
     0.792847198  0.265288403  0.847998679
     0.792847198  0.234711597  0.347998679
     0.207152802  0.765288403  0.652001321
     0.412098392  0.457170504  0.152504671
     0.587901608  0.542829496  0.847495329
     0.587901608  0.957170504  0.347495329
     0.412098392  0.042829496  0.652504671
     0.529141888  0.425457192  0.407484235
     0.470858112  0.574542808  0.592515765
     0.470858112  0.925457192  0.092515765
     0.529141888  0.074542808  0.907484235
     0.744744876  0.399481562  0.065299588
     0.255255124  0.600518438  0.934700412
     0.255255124  0.899481562  0.434700412
     0.744744876  0.100518438  0.565299588
     0.035677907  0.526445218  0.266784061
     0.964322093  0.473554782  0.733215939
     0.964322093  0.026445218  0.233215939
     0.035677907  0.973554782  0.766784061
     0.074468775  0.700902769  0.418717371
     0.925531225  0.299097231  0.581282629
     0.925531225  0.200902769  0.081282629
     0.074468775  0.799097231  0.918717371
     0.089325839  0.344606874  0.063507965
     0.910674161  0.655393126  0.936492035
     0.910674161  0.844606874  0.436492035
     0.089325839  0.155393126  0.563507965
     0.118178072  0.742925286  0.189642458
     0.881821928  0.257074714  0.810357542
     0.881821928  0.242925286  0.310357542
     0.118178072  0.757074714  0.689642458
     0.159689398  0.444706037  0.245222825
     0.840310602  0.555293963  0.754777175
     0.840310602  0.944706037  0.254777175
     0.159689398  0.055293963  0.745222825
     0.187474750  0.143308426  0.475713120
     0.812525250  0.856691574  0.524286880
     0.812525250  0.643308426  0.024286880
     0.187474750  0.356691574  0.975713120
     0.170897506  0.802686800  0.037977686
     0.829102494  0.197313200  0.962022314
     0.829102494  0.302686800  0.462022314
     0.170897506  0.697313200  0.537977686
     0.183576928  0.344304286  0.407805452
     0.816423072  0.655695714  0.592194548
     0.816423072  0.844304286  0.092194548
     0.183576928  0.155695714  0.907805452
     0.288057673  0.140150843  0.019572240
     0.711942327  0.859849157  0.980427760
     0.711942327  0.640150843  0.480427760
     0.288057673  0.359849157  0.519572240
     0.415543829  0.378081304  0.149162368
     0.584456171  0.621918696  0.850837632
     0.584456171  0.878081304  0.350837632
     0.415543829  0.121918696  0.649162368
     0.506208664  0.472724075  0.210301467
     0.493791336  0.527275925  0.789698533
     0.493791336  0.972724075  0.289698533
     0.506208664  0.027275925  0.710301467
     0.499473981  0.348919463  0.404084281
     0.500526019  0.651080537  0.595915719
     0.500526019  0.848919463  0.095915719
     0.499473981  0.151080537  0.904084281
     0.619843148  0.434202194  0.371581660
     0.380156852  0.565797806  0.628418340
     0.380156852  0.934202194  0.128418340
     0.619843148  0.065797806  0.871581660
     0.689982239  0.233460717  0.292741243
     0.310017761  0.766539283  0.707258757
     0.310017761  0.733460717  0.207258757
     0.689982239  0.266539283  0.792741243
     0.711389412  0.325333374  0.067903421
     0.288610588  0.674666626  0.932096579
     0.288610588  0.825333374  0.432096579
     0.711389412  0.174666626  0.567903421
     0.774807719  0.423957406  0.138525909
     0.225192281  0.576042594  0.861474091
     0.225192281  0.923957406  0.361474091
     0.774807719  0.076042594  0.638525909

  ion indices of the primitive-cell ions
   primitive index   ion index
                 1           1
                 2           2
                 3           3
                 4           4
                 5           5
                 6           6
                 7           7
                 8           8
                 9           9
                10          10
                11          11
                12          12
                13          13
                14          14
                15          15
                16          16
                17          17
                18          18
                19          19
                20          20
                21          21
                22          22
                23          23
                24          24
                25          25
                26          26
                27          27
                28          28
                29          29
                30          30
                31          31
                32          32
                33          33
                34          34
                35          35
                36          36
                37          37
                38          38
                39          39
                40          40
                41          41
                42          42
                43          43
                44          44
                45          45
                46          46
                47          47
                48          48
                49          49
                50          50
                51          51
                52          52
                53          53
                54          54
                55          55
                56          56
                57          57
                58          58
                59          59
                60          60
                61          61
                62          62
                63          63
                64          64
                65          65
                66          66
                67          67
                68          68
                69          69
                70          70
                71          71
                72          72
                73          73
                74          74
                75          75
                76          76
                77          77
                78          78
                79          79
                80          80
                81          81
                82          82
                83          83
                84          84
                85          85
                86          86
                87          87
                88          88
                89          89
                90          90
                91          91
                92          92
                93          93
                94          94
                95          95
                96          96
                97          97
                98          98
                99          99
               100         100
               101         101
               102         102
               103         103
               104         104
               105         105
               106         106
               107         107
               108         108
               109         109
               110         110
               111         111
               112         112
               113         113
               114         114
               115         115
               116         116
               117         117
               118         118
               119         119
               120         120
               121         121
               122         122
               123         123
               124         124
               125         125
               126         126
               127         127
               128         128

----------------------------------------------------------------------------------------



 KPOINTS: Automatic mesh                          

Automatic generation of k-mesh.
 Grid dimensions read from file:
 generate k-points for:    4    3    3

 Generating k-lattice:

  Cartesian coordinates                     Fractional coordinates (reciprocal lattice)
     0.029978953 -0.000000000  0.007106236     0.250000000  0.000000000 -0.000000000
    -0.000000000  0.026513869 -0.000000000     0.000000000  0.333333333  0.000000000
     0.000020844 -0.000000000  0.025860745     0.000000000  0.000000000  0.333333333

  Length of vectors
     0.030809677  0.026513869  0.025860754

  Shift w.r.t. Gamma in fractional coordinates (k-lattice)
     0.000000000  0.000000000  0.000000000

 
 Subroutine IBZKPT returns following result:
 ===========================================
 
 Found     14 irreducible k-points:
 
 Following reciprocal coordinates:
            Coordinates               Weight
  0.000000  0.000000  0.000000      1.000000
  0.250000  0.000000  0.000000      2.000000
  0.500000  0.000000  0.000000      1.000000
  0.000000  0.333333  0.000000      2.000000
  0.250000  0.333333  0.000000      4.000000
  0.500000  0.333333  0.000000      2.000000
  0.000000  0.000000  0.333333      2.000000
  0.250000  0.000000  0.333333      2.000000
  0.500000  0.000000  0.333333      2.000000
 -0.250000  0.000000  0.333333      2.000000
  0.000000  0.333333  0.333333      4.000000
  0.250000  0.333333  0.333333      4.000000
  0.500000  0.333333  0.333333      4.000000
 -0.250000  0.333333  0.333333      4.000000
 
 Following cartesian coordinates:
            Coordinates               Weight
  0.000000  0.000000  0.000000      1.000000
  0.029979  0.000000  0.007106      2.000000
  0.059958  0.000000  0.014212      1.000000
  0.000000  0.026514  0.000000      2.000000
  0.029979  0.026514  0.007106      4.000000
  0.059958  0.026514  0.014212      2.000000
  0.000021  0.000000  0.025861      2.000000
  0.030000  0.000000  0.032967      2.000000
  0.059979  0.000000  0.040073      2.000000
 -0.029958  0.000000  0.018755      2.000000
  0.000021  0.026514  0.025861      4.000000
  0.030000  0.026514  0.032967      4.000000
  0.059979  0.026514  0.040073      4.000000
 -0.029958  0.026514  0.018755      4.000000
 


--------------------------------------------------------------------------------------------------------




 Dimension of arrays:
   k-points           NKPTS =     14   k-points in BZ     NKDIM =     14   number of bands    NBANDS=    320
   number of dos      NEDOS =   2000   number of ions     NIONS =    128
   non local maximal  LDIM  =      5   non local SUM 2l+1 LMDIM =     13
   total plane-waves  NPLWV = 614400
   max r-space proj   IRMAX =   4869   max aug-charges    IRDMAX=  25424
   dimension x,y,z NGX =    64 NGY =   96 NGZ =  100
   dimension x,y,z NGXF=   128 NGYF=  192 NGZF=  200
   support grid    NGXF=   128 NGYF=  192 NGZF=  200
   ions per type =              12   4  16  32  64
   NGX,Y,Z   is equivalent  to a cutoff of  12.76, 12.69, 12.55 a.u.
   NGXF,Y,Z  is equivalent  to a cutoff of  25.51, 25.39, 25.10 a.u.

 SYSTEM =  static                                  
 POSCAR =                                          

 Startparameter for this run:
   NWRITE =      2    write-flag & timer
   PREC   = accura    normal or accurate (medium, high low for compatibility)
   ISTART =      0    job   : 0-new  1-cont  2-samecut
   ICHARG =      1    charge: 1-file 2-atom 10-const
   ISPIN  =      1    spin polarized calculation?
   LNONCOLLINEAR =      F non collinear calculations
   LSORBIT =      F    spin-orbit coupling
   INIWAV =      1    electr: 0-lowe 1-rand  2-diag
   LASPH  =      T    aspherical Exc in radial PAW
 Electronic Relaxation 1
   ENCUT  =  520.0 eV  38.22 Ry    6.18 a.u.  15.51 23.38 24.63*2*pi/ulx,y,z
   ENINI  =  520.0     initial cutoff
   ENAUG  =  698.0 eV  augmentation charge cutoff
   NELM   =     60;   NELMIN=  2; NELMDL=  0     # of ELM steps 
   EDIFF  = 0.1E-05   stopping-criterion for ELM
   LREAL  =      T    real-space projection
   NLSPLINE    = F    spline interpolate recip. space projectors
   LCOMPAT=      F    compatible to vasp.4.4
   GGA_COMPAT  = T    GGA compatible to vasp.4.4-vasp.4.6
   LMAXPAW     = -100 max onsite density
   LMAXMIX     =    2 max onsite mixed and CHGCAR
   VOSKOWN=      0    Vosko Wilk Nusair interpolation
   ROPT   =   -0.00025  -0.00025  -0.00025  -0.00025
   ROPT   =   -0.00025
 Ionic relaxation
   EDIFFG = 0.1E-04   stopping-criterion for IOM
   NSW    =      0    number of steps for IOM
   NBLOCK =      1;   KBLOCK =      1    inner block; outer block 
   IBRION =     -1    ionic relax: 0-MD 1-quasi-New 2-CG
   NFREE  =      0    steps in history (QN), initial steepest desc. (CG)
   ISIF   =      2    stress and relaxation
   IWAVPR =     10    prediction:  0-non 1-charg 2-wave 3-comb
   ISYM   =      2    0-nonsym 1-usesym 2-fastsym
   LCORR  =      T    Harris-Foulkes like correction to forces

   POTIM  = 0.5000    time-step for ionic-motion
   TEIN   =    0.0    initial temperature
   TEBEG  =    0.0;   TEEND  =   0.0 temperature during run
   SMASS  =  -3.00    Nose mass-parameter (am)
   estimated Nose-frequenzy (Omega)   =  0.10E-29 period in steps = 0.13E+47 mass=  -0.159E-26a.u.
   SCALEE = 1.0000    scale energy and forces
   NPACO  =    256;   APACO  = 10.0  distance and # of slots for P.C.
   PSTRESS=    0.0 pullay stress

  Mass of Ions in am
   POMASS =  22.99121.75 32.07 16.00  1.00
  Ionic Valenz
   ZVAL   =   9.00  5.00  6.00  6.00  1.00
  Atomic Wigner-Seitz radii
   RWIGS  =  -1.00 -1.00 -1.00 -1.00 -1.00
  virtual crystal weights 
   VCA    =   1.00  1.00  1.00  1.00  1.00
   NELECT =     480.0000    total number of electrons
   NUPDOWN=      -1.0000    fix difference up-down

 DOS related values:
   EMIN   =  10.00;   EMAX   =-10.00  energy-range for DOS
   EFERMI =   0.00
   ISMEAR =     0;   SIGMA  =   0.05  broadening in eV -4-tet -1-fermi 0-gaus

 Electronic relaxation 2 (details)
   IALGO  =     38    algorithm
   LDIAG  =      T    sub-space diagonalisation (order eigenvalues)
   LSUBROT=      F    optimize rotation matrix (better conditioning)
   TURBO    =      0    0=normal 1=particle mesh
   IRESTART =      0    0=no restart 2=restart with 2 vectors
   NREBOOT  =      0    no. of reboots
   NMIN     =      0    reboot dimension
   EREF     =   0.00    reference energy to select bands
   IMIX   =      4    mixing-type and parameters
     AMIX     =   0.40;   BMIX     =  1.00
     AMIX_MAG =   1.60;   BMIX_MAG =  1.00
     AMIN     =   0.10
     WC   =   100.;   INIMIX=   1;  MIXPRE=   1;  MAXMIX= -45

 Intra band minimization:
   WEIMIN = 0.0000     energy-eigenvalue tresh-hold
   EBREAK =  0.78E-09  absolut break condition
   DEPER  =   0.30     relativ break condition  

   TIME   =   0.40     timestep for ELM

  volume/ion in A,a.u.               =      10.56        71.26
  Fermi-wavevector in a.u.,A,eV,Ry     =   1.159325  2.190807 18.286706  1.344035
  Thomas-Fermi vector in A             =   2.295919

 Write flags
   LWAVE        =      T    write WAVECAR
   LDOWNSAMPLE  =      F    k-point downsampling of WAVECAR
   LCHARG       =      T    write CHGCAR
   LVTOT        =      F    write LOCPOT, total local potential
   LVHAR        =      F    write LOCPOT, Hartree potential only
   LELF         =      F    write electronic localiz. function (ELF)
   LORBIT       =     11    0 simple, 1 ext, 2 COOP (PROOUT), +10 PAW based schemes


 Dipole corrections
   LMONO  =      F    monopole corrections only (constant potential shift)
   LDIPOL =      F    correct potential (dipole corrections)
   IDIPOL =      0    1-x, 2-y, 3-z, 4-all directions 
   EPSILON=  1.0000000 bulk dielectric constant

 Exchange correlation treatment:
   GGA     =    --    GGA type
   LEXCH   =     8    internal setting for exchange type
   LIBXC   =     F    Libxc                    
   VOSKOWN =     0    Vosko Wilk Nusair interpolation
   LHFCALC =     F    Hartree Fock is set to
   LHFONE  =     F    Hartree Fock one center treatment
   AEXX    =    0.0000 exact exchange contribution

 Linear response parameters
   LEPSILON=     F    determine dielectric tensor
   LRPA    =     F    only Hartree local field effects (RPA)
   LNABLA  =     F    use nabla operator in PAW spheres
   LVEL    =     F    velocity operator in full k-point grid
   CSHIFT  =0.1000    complex shift for real part using Kramers Kronig
   OMEGAMAX=  -1.0    maximum frequency
   DEG_THRESHOLD= 0.2000000E-02 threshold for treating states as degnerate
   RTIME   =   -0.100 relaxation time in fs
  (WPLASMAI=    0.000 imaginary part of plasma frequency in eV, 0.658/RTIME)
   DFIELD  = 0.0000000 0.0000000 0.0000000 field for delta impulse in time

  Optional k-point grid parameters
   LKPOINTS_OPT  =     F    use optional k-point grid
   KPOINTS_OPT_MODE=     1    mode for optional k-point grid

 Orbital magnetization related:
   ORBITALMAG=     F  switch on orbital magnetization
   LCHIMAG   =     F  perturbation theory with respect to B field
   DQ        =  0.001000  dq finite difference perturbation B field
   LLRAUG    =     F  two centre corrections for induced B field



--------------------------------------------------------------------------------------------------------


 Static calculation
 charge density and potential will be updated during run
 non-spin polarized calculation
 Variant of blocked Davidson
 Davidson routine will perform the subspace rotation
 perform sub-space diagonalisation
    after iterative eigenvector-optimisation
 modified Broyden-mixing scheme, WC =      100.0
 initial mixing is a Kerker type mixing with AMIX =  0.4000 and BMIX =      1.0000
 Hartree-type preconditioning will be used
 using additional bands           80
 real space projection scheme for non local part
 use partial core corrections
 calculate Harris-corrections to forces   (improved forces if not selfconsistent)
 use gradient corrections 
 use of overlap-Matrix (Vanderbilt PP)
 Gauss-broadening in eV      SIGMA  =   0.05


--------------------------------------------------------------------------------------------------------


  energy-cutoff  :      520.00
  volume of cell :     1351.61
      direct lattice vectors                 reciprocal lattice vectors
     8.340777493  0.000000000 -0.006722879     0.119915811 -0.000000000  0.028424945
     0.000000000 12.572036524  0.000000000    -0.000000000  0.079541608 -0.000000000
    -3.055933298  0.000000000 12.892011697     0.000062533 -0.000000000  0.077582236

  length of vectors
     8.340780203 12.572036524 13.249252580     0.123238708  0.079541608  0.077582261



 k-points in units of 2pi/SCALE and weight: Automatic mesh                          
   0.00000000  0.00000000  0.00000000       0.028
   0.02997895  0.00000000  0.00710624       0.056
   0.05995791  0.00000000  0.01421247       0.028
   0.00000000  0.02651387  0.00000000       0.056
   0.02997895  0.02651387  0.00710624       0.111
   0.05995791  0.02651387  0.01421247       0.056
   0.00002084  0.00000000  0.02586075       0.056
   0.02999980  0.00000000  0.03296698       0.056
   0.05997875  0.00000000  0.04007322       0.056
  -0.02995811  0.00000000  0.01875451       0.056
   0.00002084  0.02651387  0.02586075       0.111
   0.02999980  0.02651387  0.03296698       0.111
   0.05997875  0.02651387  0.04007322       0.111
  -0.02995811  0.02651387  0.01875451       0.111

 k-points in reciprocal lattice and weights: Automatic mesh                          
   0.00000000  0.00000000  0.00000000       0.028
   0.25000000  0.00000000  0.00000000       0.056
   0.50000000  0.00000000  0.00000000       0.028
   0.00000000  0.33333333  0.00000000       0.056
   0.25000000  0.33333333  0.00000000       0.111
   0.50000000  0.33333333  0.00000000       0.056
   0.00000000  0.00000000  0.33333333       0.056
   0.25000000  0.00000000  0.33333333       0.056
   0.50000000  0.00000000  0.33333333       0.056
  -0.25000000  0.00000000  0.33333333       0.056
   0.00000000  0.33333333  0.33333333       0.111
   0.25000000  0.33333333  0.33333333       0.111
   0.50000000  0.33333333  0.33333333       0.111
  -0.25000000  0.33333333  0.33333333       0.111

 position of ions in fractional coordinates (direct lattice) 
   0.50000000  0.00000000  0.50000000
   0.50000000  0.50000000  0.00000000
   0.00000000  0.00000000  0.00000000
   0.00000000  0.50000000  0.50000000
   0.16861449  0.55845676  0.08497104
   0.83138551  0.44154324  0.91502896
   0.83138551  0.05845676  0.41502896
   0.16861449  0.94154324  0.58497104
   0.66482395  0.05083687  0.08732399
   0.33517605  0.94916313  0.91267601
   0.33517605  0.55083687  0.41267601
   0.66482395  0.44916313  0.58732399
   0.28941588  0.16771086  0.25080142
   0.71058412  0.83228914  0.74919858
   0.71058412  0.66771086  0.24919858
   0.28941588  0.33228914  0.75080142
   0.20400817  0.99100907  0.21019546
   0.79599183  0.00899093  0.78980454
   0.79599183  0.49100907  0.28980454
   0.20400817  0.50899093  0.71019546
   0.40563348  0.19421373  0.42541097
   0.59436652  0.80578627  0.57458903
   0.59436652  0.69421373  0.07458903
   0.40563348  0.30578627  0.92541097
   0.47945066  0.21397855  0.15293453
   0.52054934  0.78602145  0.84706547
   0.52054934  0.71397855  0.34706547
   0.47945066  0.28602145  0.65293453
   0.06096178  0.28208973  0.21520947
   0.93903822  0.71791027  0.78479053
   0.93903822  0.78208973  0.28479053
   0.06096178  0.21791027  0.71520947
   0.09476625  0.38721154  0.00159509
   0.90523375  0.61278846  0.99840491
   0.90523375  0.88721154  0.49840491
   0.09476625  0.11278846  0.50159509
   0.14851110  0.52228469  0.25472614
   0.85148890  0.47771531  0.74527386
   0.85148890  0.02228469  0.24527386
   0.14851110  0.97771531  0.75472614
   0.15056720  0.65738487  0.47124844
   0.84943280  0.34261513  0.52875156
   0.84943280  0.15738487  0.02875156
   0.15056720  0.84261513  0.97124844
   0.20202783  0.39480349  0.46575151
   0.79797217  0.60519651  0.53424849
   0.79797217  0.89480349  0.03424849
   0.20202783  0.10519651  0.96575151
   0.20715280  0.73471160  0.15200132
   0.79284720  0.26528840  0.84799868
   0.79284720  0.23471160  0.34799868
   0.20715280  0.76528840  0.65200132
   0.41209839  0.45717050  0.15250467
   0.58790161  0.54282950  0.84749533
   0.58790161  0.95717050  0.34749533
   0.41209839  0.04282950  0.65250467
   0.52914189  0.42545719  0.40748424
   0.47085811  0.57454281  0.59251576
   0.47085811  0.92545719  0.09251576
   0.52914189  0.07454281  0.90748424
   0.74474488  0.39948156  0.06529959
   0.25525512  0.60051844  0.93470041
   0.25525512  0.89948156  0.43470041
   0.74474488  0.10051844  0.56529959
   0.03567791  0.52644522  0.26678406
   0.96432209  0.47355478  0.73321594
   0.96432209  0.02644522  0.23321594
   0.03567791  0.97355478  0.76678406
   0.07446877  0.70090277  0.41871737
   0.92553123  0.29909723  0.58128263
   0.92553123  0.20090277  0.08128263
   0.07446877  0.79909723  0.91871737
   0.08932584  0.34460687  0.06350796
   0.91067416  0.65539313  0.93649204
   0.91067416  0.84460687  0.43649204
   0.08932584  0.15539313  0.56350796
   0.11817807  0.74292529  0.18964246
   0.88182193  0.25707471  0.81035754
   0.88182193  0.24292529  0.31035754
   0.11817807  0.75707471  0.68964246
   0.15968940  0.44470604  0.24522283
   0.84031060  0.55529396  0.75477717
   0.84031060  0.94470604  0.25477717
   0.15968940  0.05529396  0.74522283
   0.18747475  0.14330843  0.47571312
   0.81252525  0.85669157  0.52428688
   0.81252525  0.64330843  0.02428688
   0.18747475  0.35669157  0.97571312
   0.17089751  0.80268680  0.03797769
   0.82910249  0.19731320  0.96202231
   0.82910249  0.30268680  0.46202231
   0.17089751  0.69731320  0.53797769
   0.18357693  0.34430429  0.40780545
   0.81642307  0.65569571  0.59219455
   0.81642307  0.84430429  0.09219455
   0.18357693  0.15569571  0.90780545
   0.28805767  0.14015084  0.01957224
   0.71194233  0.85984916  0.98042776
   0.71194233  0.64015084  0.48042776
   0.28805767  0.35984916  0.51957224
   0.41554383  0.37808130  0.14916237
   0.58445617  0.62191870  0.85083763
   0.58445617  0.87808130  0.35083763
   0.41554383  0.12191870  0.64916237
   0.50620866  0.47272408  0.21030147
   0.49379134  0.52727592  0.78969853
   0.49379134  0.97272408  0.28969853
   0.50620866  0.02727592  0.71030147
   0.49947398  0.34891946  0.40408428
   0.50052602  0.65108054  0.59591572
   0.50052602  0.84891946  0.09591572
   0.49947398  0.15108054  0.90408428
   0.61984315  0.43420219  0.37158166
   0.38015685  0.56579781  0.62841834
   0.38015685  0.93420219  0.12841834
   0.61984315  0.06579781  0.87158166
   0.68998224  0.23346072  0.29274124
   0.31001776  0.76653928  0.70725876
   0.31001776  0.73346072  0.20725876
   0.68998224  0.26653928  0.79274124
   0.71138941  0.32533337  0.06790342
   0.28861059  0.67466663  0.93209658
   0.28861059  0.82533337  0.43209658
   0.71138941  0.17466663  0.56790342
   0.77480772  0.42395741  0.13852591
   0.22519228  0.57604259  0.86147409
   0.22519228  0.92395741  0.36147409
   0.77480772  0.07604259  0.63852591

 position of ions in cartesian coordinates  (Angst):
   2.64242210  0.00000000  6.44264441
   4.17038875  6.28601826 -0.00336144
   0.00000000  0.00000000  0.00000000
  -1.52796665  6.28601826  6.44600585
   1.14671010  7.02093882  1.09431402
   4.13813409  5.55109771 11.79097480
   5.66610074  0.73492055  5.34496895
  -0.38125655 11.83711597  7.54031987
   5.27829235  0.63912302  1.12131240
   0.00655185 11.93291350 11.76397642
   1.53451849  6.92514129  5.31797057
   3.75032570  5.64689524  7.56731825
   1.64752101  2.10846708  3.23138915
   3.63732319 10.46356945  9.65389967
   5.16528983  8.39448534  3.20789382
   0.11955436  4.17755118  9.67739500
   1.05924342 12.45900226  2.70847076
   4.22560077  0.11303426 10.17681806
   5.75356742  6.17298400  3.73081221
  -0.46872322  6.39905252  9.15447661
   2.08327103  2.44166205  5.48167615
   3.20157317 10.13037448  7.40361267
   4.72953982  8.72768031  0.95760682
   0.55530438  3.84435621 11.92768200
   3.53163357  2.69014614  1.96841052
   1.75321062  9.88189039 10.91687830
   3.28117727  8.97616440  4.47087245
   2.00366692  3.59587212  8.41441636
  -0.14919719  3.54644234  2.77407320
   5.43404138  9.02559419 10.11121562
   6.96200803  9.83246060  3.66520977
  -1.67716384  2.73957593  9.22007905
   0.78554973  4.86803766  0.01992684
   4.49929446  7.70399886 12.86536198
   6.02726111 11.15405592  6.41935613
  -0.74241691  1.41798060  6.46593269
   0.46027198  6.56618219  3.28293398
   4.82457222  6.00585434  9.60235483
   6.35253887  0.28016392  3.15634899
  -1.06769467 12.29187260  9.72893983
  -0.18425634  8.26466662  6.07432822
   5.46910053  4.30736991  6.81096060
   6.99706718  1.97864835  0.36495475
  -1.71222299 10.59338817 12.52033407
   0.26176359  4.96348389  6.00311574
   5.02308061  7.60855264  6.88217307
   6.55104725 11.24950215  0.43616722
  -1.26620306  1.32253437 12.44912159
   1.26330954  9.23682103  1.95821014
   4.02153466  3.33521550 10.92707868
   5.54950131  2.95080277  4.48107283
  -0.26465711  9.62123376  8.40421599
   2.97117689  5.74756427  1.96332152
   2.31366731  6.82447225 10.92196730
   3.84163395 12.03358253  4.47596145
   1.44321024  0.53845399  8.40932737
   3.16821011  5.34886335  5.24973417
   2.11663409  7.22317317  7.63555465
   3.64460074 11.63488161  1.18954880
   1.64024346  0.93715491 11.69574002
   6.01220012  5.02229678  0.83683623
  -0.72735592  7.54973974 12.04845259
   0.80061073 11.30831505  5.60244674
   4.48423347  1.26372148  7.28284208
  -0.51769281  6.61848851  3.43914337
   5.80253701  5.95354801  9.44614545
   7.33050366  0.33247025  3.00013960
  -2.04565946 12.23956627  9.88514922
  -0.65844488  8.81177521  5.39760859
   5.94328907  3.76026131  7.48768022
   7.47125572  2.52575695  1.04167438
  -2.18641152 10.04627958 11.84361444
   0.55097085  4.33241021  0.81814490
   4.73387335  8.23962632 12.06714392
   6.26184000 10.61842847  5.62113807
  -0.97699580  1.95360805  7.26415075
   0.40616230  9.34008383  2.44407828
   4.87868190  3.23195269 10.44121053
   6.40664854  3.05406557  3.99520469
  -1.12180435  9.51797095  8.89008413
   0.58254914  5.59086053  3.16034196
   4.70229506  6.98117599  9.72494686
   6.23026171 11.87687880  3.27894101
  -0.94541751  0.69515773  9.60634781
   0.10993762  1.80167877  6.13163874
   5.17490658 10.77035776  6.75365008
   6.70287323  8.08769703  0.30764423
  -1.41802903  4.48433950 12.57764459
   1.30936079 10.09140776  0.48845986
   3.97548340  2.48062876 12.39682896
   5.50345005  3.80538950  5.95082311
  -0.21860586  8.76664702  6.93446570
   0.28494805  4.32860606  5.25619850
   4.99989615  8.24343046  7.62909032
   6.52786280 10.61462433  1.18308447
  -1.24301860  1.95741220 11.70220435
   2.34281350  1.76198152  0.25038897
   2.94203070 10.81005501 12.63489985
   4.46999735  8.04799978  6.18889400
   0.81484685  4.52403674  6.69639482
   3.01012837  4.75325196  1.92020934
   2.27471582  7.81878457 10.96507948
   3.80268247 11.03927022  4.51907363
   1.48216172  1.53276630  8.36621519
   3.57950658  5.94310434  2.70780579
   1.70533762  6.62893218 10.17748303
   3.23330427 12.22912260  3.73147718
   2.05153993  0.34291392  9.15381164
   2.93114673  4.38662824  5.20610138
   2.35369746  8.18540829  7.67918744
   3.88166411 10.67264650  1.23318159
   1.40318008  1.89939002 11.65210723
   4.03444501  5.45880584  4.78626798
   1.25039918  7.11323068  8.09902084
   2.77836583 11.74482411  1.65301499
   2.50647836  0.82721242 11.23227382
   4.86039062  2.93507666  3.76938486
   0.42445358  9.63695987  9.11590396
   1.95242023  9.22109492  2.66989811
   3.33242397  3.35094161 10.21539071
   5.72603247  4.09010307  0.87062912
  -0.44118828  8.48193346 12.01465970
   1.08677837 10.37612133  5.56865385
   4.19806582  2.19591520  7.31663496
   6.03917285  5.33000799  1.78066870
  -0.75432865  7.24202853 11.10462011
   0.77363799 11.61602626  4.65861427
   4.51120620  0.95601027  8.22667455



--------------------------------------------------------------------------------------------------------


 k-point   1 :   0.0000 0.0000 0.0000  plane waves:   36353
 k-point   2 :   0.2500 0.0000 0.0000  plane waves:   36418
 k-point   3 :   0.5000 0.0000 0.0000  plane waves:   36388
 k-point   4 :   0.0000 0.3333 0.0000  plane waves:   36405
 k-point   5 :   0.2500 0.3333 0.0000  plane waves:   36402
 k-point   6 :   0.5000 0.3333 0.0000  plane waves:   36366
 k-point   7 :   0.0000 0.0000 0.3333  plane waves:   36417
 k-point   8 :   0.2500 0.0000 0.3333  plane waves:   36424
 k-point   9 :   0.5000 0.0000 0.3333  plane waves:   36394
 k-point  10 :  -0.2500 0.0000 0.3333  plane waves:   36367
 k-point  11 :   0.0000 0.3333 0.3333  plane waves:   36423
 k-point  12 :   0.2500 0.3333 0.3333  plane waves:   36361
 k-point  13 :   0.5000 0.3333 0.3333  plane waves:   36346
 k-point  14 :  -0.2500 0.3333 0.3333  plane waves:   36388

 maximum and minimum number of plane-waves per node :     36424    36346

 maximum number of plane-waves:     36424
 maximum index in each direction: 
   IXMAX=   15   IYMAX=   23   IZMAX=   24
   IXMIN=  -16   IYMIN=  -23   IZMIN=  -24


 serial   3D FFT for wavefunctions
 parallel 3D FFT for charge:
    minimum data exchange during FFTs selected (reduces bandwidth)


 total amount of memory used by VASP MPI-rank0   193305. kBytes
=======================================================================

   base      :      30000. kBytes
   nonlr-proj:      33917. kBytes
   fftplans  :       7712. kBytes
   grid      :      37060. kBytes
   one-center:       1038. kBytes
   wavefun   :      83578. kBytes

     INWAV:  cpu time      0.0000: real time      0.0002
 Broyden mixing: mesh for mixing (old mesh)
   NGX = 31   NGY = 47   NGZ = 49
  (NGX  =128   NGY  =192   NGZ  =200)
  gives a total of  71393 points

 initial charge density was supplied:
 charge density of overlapping atoms calculated
 number of electron     480.0000000 magnetization 
 keeping initial charge density in first step


--------------------------------------------------------------------------------------------------------


 Maximum index for non-local projection operator         4675
 Maximum index for augmentation-charges          912 (set IRDMAX)


--------------------------------------------------------------------------------------------------------


 First call to EWALD:  gamma=   0.160
 Maximum number of real-space cells 4x 2x 2
 Maximum number of reciprocal cells 2x 3x 3

    FEWALD:  cpu time      0.0062: real time      0.0062


--------------------------------------- Iteration      1(   1)  ---------------------------------------


    POTLOK:  cpu time      0.1250: real time      0.1252
    SETDIJ:  cpu time      0.3242: real time      0.3248
     EDDAV:  cpu time     33.0467: real time     33.7970
       DOS:  cpu time      0.0012: real time      0.0013
    --------------------------------------------
      LOOP:  cpu time     33.4971: real time     34.2483

 eigenvalue-minimisations  :  8960
 total energy-change (2. order) : 0.4127272E+04  (-0.2405766E+05)
 number of electron     480.0000000 magnetization 
 augmentation part      480.0000000 magnetization 

 Free energy of the ion-electron system (eV)
  ---------------------------------------------------
  alpha Z        PSCENC =       610.09617125
  Ewald energy   TEWEN  =    -19057.38862968
  -Hartree energ DENC   =    -13094.65324184
  -exchange      EXHF   =         0.00000000
  -V(xc)+E(xc)   XCENC  =      1749.37685922
  PAW double counting   =     27072.91722098   -27381.66208945
  entropy T*S    EENTRO =        -0.02307222
  eigenvalues    EBANDS =     -1116.99832764
  atomic energy  EATOM  =     35345.60755108
  Solvation  Ediel_sol  =         0.00000000
  ---------------------------------------------------
  free energy    TOTEN  =      4127.27244170 eV

  energy without entropy =     4127.29551391  energy(sigma->0) =     4127.28397780


--------------------------------------------------------------------------------------------------------




--------------------------------------- Iteration      1(   2)  ---------------------------------------


     EDDAV:  cpu time     43.9259: real time     44.6851
       DOS:  cpu time      0.0008: real time      0.0009
    --------------------------------------------
      LOOP:  cpu time     43.9267: real time     44.6860

 eigenvalue-minimisations  : 10848
 total energy-change (2. order) :-0.4324839E+04  (-0.4206757E+04)
 number of electron     480.0000000 magnetization 
 augmentation part      480.0000000 magnetization 

 Free energy of the ion-electron system (eV)
  ---------------------------------------------------
  alpha Z        PSCENC =       610.09617125
  Ewald energy   TEWEN  =    -19057.38862968
  -Hartree energ DENC   =    -13094.65324184
  -exchange      EXHF   =         0.00000000
  -V(xc)+E(xc)   XCENC  =      1749.37685922
  PAW double counting   =     27072.91722098   -27381.66208945
  entropy T*S    EENTRO =        -0.00000000
  eigenvalues    EBANDS =     -5441.86066350
  atomic energy  EATOM  =     35345.60755108
  Solvation  Ediel_sol  =         0.00000000
  ---------------------------------------------------
  free energy    TOTEN  =      -197.56682194 eV

  energy without entropy =     -197.56682194  energy(sigma->0) =     -197.56682194


--------------------------------------------------------------------------------------------------------




--------------------------------------- Iteration      1(   3)  ---------------------------------------


     EDDAV:  cpu time     45.5777: real time     46.9370
       DOS:  cpu time      0.0008: real time      0.0009
    --------------------------------------------
      LOOP:  cpu time     45.5785: real time     46.9379

 eigenvalue-minimisations  : 12064
 total energy-change (2. order) :-0.4433510E+03  (-0.4410179E+03)
 number of electron     480.0000000 magnetization 
 augmentation part      480.0000000 magnetization 

 Free energy of the ion-electron system (eV)
  ---------------------------------------------------
  alpha Z        PSCENC =       610.09617125
  Ewald energy   TEWEN  =    -19057.38862968
  -Hartree energ DENC   =    -13094.65324184
  -exchange      EXHF   =         0.00000000
  -V(xc)+E(xc)   XCENC  =      1749.37685922
  PAW double counting   =     27072.91722098   -27381.66208945
  entropy T*S    EENTRO =        -0.00000000
  eigenvalues    EBANDS =     -5885.21165025
  atomic energy  EATOM  =     35345.60755108
  Solvation  Ediel_sol  =         0.00000000
  ---------------------------------------------------
  free energy    TOTEN  =      -640.91780870 eV

  energy without entropy =     -640.91780870  energy(sigma->0) =     -640.91780870


--------------------------------------------------------------------------------------------------------




--------------------------------------- Iteration      1(   4)  ---------------------------------------


     EDDAV:  cpu time     48.6328: real time     49.4593
       DOS:  cpu time      0.0008: real time      0.0009
    --------------------------------------------
      LOOP:  cpu time     48.6336: real time     49.4602

 eigenvalue-minimisations  : 11872
 total energy-change (2. order) :-0.9726023E+01  (-0.9707814E+01)
 number of electron     480.0000000 magnetization 
 augmentation part      480.0000000 magnetization 

 Free energy of the ion-electron system (eV)
  ---------------------------------------------------
  alpha Z        PSCENC =       610.09617125
  Ewald energy   TEWEN  =    -19057.38862968
  -Hartree energ DENC   =    -13094.65324184
  -exchange      EXHF   =         0.00000000
  -V(xc)+E(xc)   XCENC  =      1749.37685922
  PAW double counting   =     27072.91722098   -27381.66208945
  entropy T*S    EENTRO =        -0.00000000
  eigenvalues    EBANDS =     -5894.93767278
  atomic energy  EATOM  =     35345.60755108
  Solvation  Ediel_sol  =         0.00000000
  ---------------------------------------------------
  free energy    TOTEN  =      -650.64383123 eV

  energy without entropy =     -650.64383123  energy(sigma->0) =     -650.64383123


--------------------------------------------------------------------------------------------------------




--------------------------------------- Iteration      1(   5)  ---------------------------------------


     EDDAV:  cpu time     55.1359: real time     55.8688
       DOS:  cpu time      0.0009: real time      0.0010
    CHARGE:  cpu time      1.9108: real time      1.9132
    MIXING:  cpu time      0.0047: real time      0.0048
    --------------------------------------------
      LOOP:  cpu time     57.0524: real time     57.7878

 eigenvalue-minimisations  : 15072
 total energy-change (2. order) :-0.4480275E+00  (-0.4479111E+00)
 number of electron     480.0000043 magnetization 
 augmentation part       35.4453477 magnetization 

 Broyden mixing:
  rms(total) = 0.49092E+01    rms(broyden)= 0.49061E+01
  rms(prec ) = 0.57880E+01
  weight for this iteration     100.00

 Free energy of the ion-electron system (eV)
  ---------------------------------------------------
  alpha Z        PSCENC =       610.09617125
  Ewald energy   TEWEN  =    -19057.38862968
  -Hartree energ DENC   =    -13094.65324184
  -exchange      EXHF   =         0.00000000
  -V(xc)+E(xc)   XCENC  =      1749.37685922
  PAW double counting   =     27072.91722098   -27381.66208945
  entropy T*S    EENTRO =        -0.00000000
  eigenvalues    EBANDS =     -5895.38570032
  atomic energy  EATOM  =     35345.60755108
  Solvation  Ediel_sol  =         0.00000000
  ---------------------------------------------------
  free energy    TOTEN  =      -651.09185877 eV

  energy without entropy =     -651.09185877  energy(sigma->0) =     -651.09185877


--------------------------------------------------------------------------------------------------------




--------------------------------------- Iteration      1(   6)  ---------------------------------------


[...]
   0.257E+02 0.777E+02 -.134E+02   -.281E+02 -.856E+02 0.135E+02   0.240E+01 0.791E+01 -.793E-01   0.537E-04 0.302E-04 0.235E-04
   -.257E+02 -.777E+02 0.134E+02   0.281E+02 0.856E+02 -.135E+02   -.240E+01 -.791E+01 0.793E-01   -.537E-04 -.302E-04 -.235E-04
   -.257E+02 0.777E+02 0.134E+02   0.281E+02 -.856E+02 -.135E+02   -.240E+01 0.791E+01 0.793E-01   -.537E-04 0.302E-04 -.235E-04
   0.257E+02 -.777E+02 -.134E+02   -.281E+02 0.856E+02 0.135E+02   0.240E+01 -.791E+01 -.793E-01   0.537E-04 -.302E-04 0.235E-04
   -.471E+01 -.178E+02 -.778E+02   0.499E+01 0.203E+02 0.849E+02   -.273E+00 -.250E+01 -.711E+01   0.164E-04 -.466E-04 -.589E-04
   0.471E+01 0.178E+02 0.778E+02   -.499E+01 -.203E+02 -.849E+02   0.273E+00 0.250E+01 0.711E+01   -.164E-04 0.466E-04 0.589E-04
   0.471E+01 -.178E+02 0.778E+02   -.499E+01 0.203E+02 -.849E+02   0.273E+00 -.250E+01 0.711E+01   -.164E-04 -.466E-04 0.589E-04
   -.471E+01 0.178E+02 -.778E+02   0.499E+01 -.203E+02 0.849E+02   -.273E+00 0.250E+01 -.711E+01   0.164E-04 0.466E-04 -.589E-04
 -----------------------------------------------------------------------------------------------
   0.985E-09 0.564E-08 -.435E-08   -.187E-12 0.149E-12 0.853E-13   0.899E-14 -.133E-14 -.266E-14   -.285E-12 0.380E-13 0.728E-12


 POSITION                                       TOTAL-FORCE (eV/Angst)
 -----------------------------------------------------------------------------------
      2.64242      0.00000      6.44264        -0.000000     -0.000000      0.000000
      4.17039      6.28602     -0.00336        -0.000000     -0.000000      0.000000
      0.00000      0.00000      0.00000        -0.000000     -0.000000      0.000000
     -1.52797      6.28602      6.44601        -0.000000     -0.000000      0.000000
      1.14671      7.02094      1.09431         0.000318      0.002774     -0.007252
      4.13813      5.55110     11.79097        -0.000318     -0.002774      0.007252
      5.66610      0.73492      5.34497        -0.000318      0.002774      0.007252
     -0.38126     11.83712      7.54032         0.000318     -0.002774     -0.007252
      5.27829      0.63912      1.12131        -0.002703      0.007879     -0.009808
      0.00655     11.93291     11.76398         0.002703     -0.007879      0.009808
      1.53452      6.92514      5.31797         0.002703      0.007879      0.009808
      3.75033      5.64690      7.56732        -0.002703     -0.007879     -0.009808
      1.64752      2.10847      3.23139         0.004700      0.009418     -0.005618
      3.63732     10.46357      9.65390        -0.004700     -0.009418      0.005618
      5.16529      8.39449      3.20789        -0.004700      0.009418      0.005618
      0.11955      4.17755      9.67740         0.004700     -0.009418     -0.005618
      1.05924     12.45900      2.70847        -0.008506     -0.016444      0.000132
      4.22560      0.11303     10.17682         0.008506      0.016444     -0.000132
      5.75357      6.17298      3.73081         0.008506     -0.016444     -0.000132
     -0.46872      6.39905      9.15448        -0.008506      0.016444      0.000132
      2.08327      2.44166      5.48168         0.005809     -0.007666      0.011343
      3.20157     10.13037      7.40361        -0.005809      0.007666     -0.011343
      4.72954      8.72768      0.95761        -0.005809     -0.007666     -0.011343
      0.55530      3.84436     11.92768         0.005809      0.007666      0.011343
      3.53163      2.69015      1.96841         0.015058     -0.000781     -0.014325
      1.75321      9.88189     10.91688        -0.015058      0.000781      0.014325
      3.28118      8.97616      4.47087        -0.015058     -0.000781      0.014325
      2.00367      3.59587      8.41442         0.015058      0.000781     -0.014325
     -0.14920      3.54644      2.77407        -0.010724      0.005562     -0.002283
      5.43404      9.02559     10.11122         0.010724     -0.005562      0.002283
      6.96201      9.83246      3.66521         0.010724      0.005562      0.002283
     -1.67716      2.73958      9.22008        -0.010724     -0.005562     -0.002283
      0.78555      4.86804      0.01993         0.003809     -0.017740      0.010771
      4.49929      7.70400     12.86536        -0.003809      0.017740     -0.010771
      6.02726     11.15406      6.41936        -0.003809     -0.017740     -0.010771
     -0.74242      1.41798      6.46593         0.003809      0.017740      0.010771
      0.46027      6.56618      3.28293        -0.031714     -0.020404     -0.000436
      4.82457      6.00585      9.60235         0.031714      0.020404      0.000436
      6.35254      0.28016      3.15635         0.031714     -0.020404      0.000436
     -1.06769     12.29187      9.72894        -0.031714      0.020404     -0.000436
     -0.18426      8.26467      6.07433        -0.003892      0.012109      0.007687
      5.46910      4.30737      6.81096         0.003892     -0.012109     -0.007687
      6.99707      1.97865      0.36495         0.003892      0.012109     -0.007687
     -1.71222     10.59339     12.52033        -0.003892     -0.012109      0.007687
      0.26176      4.96348      6.00312        -0.014926     -0.010417     -0.004999
      5.02308      7.60855      6.88217         0.014926      0.010417      0.004999
      6.55105     11.24950      0.43617         0.014926     -0.010417      0.004999
     -1.26620      1.32253     12.44912        -0.014926      0.010417     -0.004999
      1.26331      9.23682      1.95821         0.000609      0.008410     -0.008814
      4.02153      3.33522     10.92708        -0.000609     -0.008410      0.008814
      5.54950      2.95080      4.48107        -0.000609      0.008410      0.008814
     -0.26466      9.62123      8.40422         0.000609     -0.008410     -0.008814
      2.97118      5.74756      1.96332        -0.012763     -0.009328     -0.008325
      2.31367      6.82447     10.92197         0.012763      0.009328      0.008325
      3.84163     12.03358      4.47596         0.012763     -0.009328      0.008325
      1.44321      0.53845      8.40933        -0.012763      0.009328     -0.008325
      3.16821      5.34886      5.24973         0.034745     -0.007448     -0.015576
      2.11663      7.22317      7.63555        -0.034745      0.007448      0.015576
      3.64460     11.63488      1.18955        -0.034745     -0.007448      0.015576
      1.64024      0.93715     11.69574         0.034745      0.007448     -0.015576
      6.01220      5.02230      0.83684         0.000194     -0.023269     -0.012502
     -0.72736      7.54974     12.04845        -0.000194      0.023269      0.012502
      0.80061     11.30832      5.60245        -0.000194     -0.023269      0.012502
      4.48423      1.26372      7.28284         0.000194      0.023269     -0.012502
     -0.51769      6.61849      3.43914         0.018113      0.009236     -0.004062
      5.80254      5.95355      9.44615        -0.018113     -0.009236      0.004062
      7.33050      0.33247      3.00014        -0.018113      0.009236      0.004062
     -2.04566     12.23957      9.88515         0.018113     -0.009236     -0.004062
     -0.65844      8.81178      5.39761         0.002565     -0.004323      0.001033
      5.94329      3.76026      7.48768        -0.002565      0.004323     -0.001033
      7.47126      2.52576      1.04167        -0.002565     -0.004323     -0.001033
     -2.18641     10.04628     11.84361         0.002565      0.004323      0.001033
      0.55097      4.33241      0.81814        -0.005481      0.017004     -0.003651
      4.73387      8.23963     12.06714         0.005481     -0.017004      0.003651
      6.26184     10.61843      5.62114         0.005481      0.017004      0.003651
     -0.97700      1.95361      7.26415        -0.005481     -0.017004     -0.003651
      0.40616      9.34008      2.44408        -0.011716      0.005115     -0.007158
      4.87868      3.23195     10.44121         0.011716     -0.005115      0.007158
      6.40665      3.05407      3.99520         0.011716      0.005115      0.007158
     -1.12180      9.51797      8.89008        -0.011716     -0.005115     -0.007158
      0.58255      5.59086      3.16034         0.002445      0.012815      0.000056
      4.70230      6.98118      9.72495        -0.002445     -0.012815     -0.000056
      6.23026     11.87688      3.27894        -0.002445      0.012815     -0.000056
     -0.94542      0.69516      9.60635         0.002445     -0.012815      0.000056
      0.10994      1.80168      6.13164        -0.005137      0.000826      0.003405
      5.17491     10.77036      6.75365         0.005137     -0.000826     -0.003405
      6.70287      8.08770      0.30764         0.005137      0.000826     -0.003405
     -1.41803      4.48434     12.57764        -0.005137     -0.000826      0.003405
      1.30936     10.09141      0.48846         0.005100      0.005966     -0.009123
      3.97548      2.48063     12.39683        -0.005100     -0.005966      0.009123
      5.50345      3.80539      5.95082        -0.005100      0.005966      0.009123
     -0.21861      8.76665      6.93447         0.005100     -0.005966     -0.009123
      0.28495      4.32861      5.25620        -0.009016     -0.003858      0.007713
      4.99990      8.24343      7.62909         0.009016      0.003858     -0.007713
      6.52786     10.61462      1.18308         0.009016     -0.003858     -0.007713
     -1.24302      1.95741     11.70220        -0.009016      0.003858      0.007713
      2.34281      1.76198      0.25039        -0.000863      0.010643     -0.034726
      2.94203     10.81006     12.63490         0.000863     -0.010643      0.034726
      4.47000      8.04800      6.18889         0.000863      0.010643      0.034726
      0.81485      4.52404      6.69639        -0.000863     -0.010643     -0.034726
      3.01013      4.75325      1.92021        -0.001204     -0.000410      0.000477
      2.27472      7.81878     10.96508         0.001204      0.000410     -0.000477
      3.80268     11.03927      4.51907         0.001204     -0.000410     -0.000477
      1.48216      1.53277      8.36622        -0.001204      0.000410      0.000477
      3.57951      5.94310      2.70781         0.007287      0.012523      0.006306
      1.70534      6.62893     10.17748        -0.007287     -0.012523     -0.006306
      3.23330     12.22912      3.73148        -0.007287      0.012523     -0.006306
      2.05154      0.34291      9.15381         0.007287     -0.012523      0.006306
      2.93115      4.38663      5.20610        -0.017699     -0.006517     -0.003430
      2.35370      8.18541      7.67919         0.017699      0.006517      0.003430
      3.88166     10.67265      1.23318         0.017699     -0.006517      0.003430
      1.40318      1.89939     11.65211        -0.017699      0.006517     -0.003430
      4.03445      5.45881      4.78627        -0.010237      0.016435      0.006530
      1.25040      7.11323      8.09902         0.010237     -0.016435     -0.006530
      2.77837     11.74482      1.65301         0.010237      0.016435     -0.006530
      2.50648      0.82721     11.23227        -0.010237     -0.016435      0.006530
      4.86039      2.93508      3.76938        -0.030004     -0.002491     -0.009422
      0.42445      9.63696      9.11590         0.030004      0.002491      0.009422
      1.95242      9.22109      2.66990         0.030004     -0.002491      0.009422
      3.33242      3.35094     10.21539        -0.030004      0.002491     -0.009422
      5.72603      4.09010      0.87063         0.001270      0.002950      0.000072
     -0.44119      8.48193     12.01466        -0.001270     -0.002950     -0.000072
      1.08678     10.37612      5.56865        -0.001270      0.002950     -0.000072
      4.19807      2.19592      7.31663         0.001270     -0.002950      0.000072
      6.03917      5.33001      1.78067         0.003590      0.020889      0.021504
     -0.75433      7.24203     11.10462        -0.003590     -0.020889     -0.021504
      0.77364     11.61603      4.65861        -0.003590      0.020889     -0.021504
      4.51121      0.95601      8.22667         0.003590     -0.020889      0.021504
 -----------------------------------------------------------------------------------
    total drift:                                0.000000      0.000000     -0.000000


--------------------------------------------------------------------------------------------------------



  FREE ENERGIE OF THE ION-ELECTRON SYSTEM (eV)
  ---------------------------------------------------
  free  energy   TOTEN  =      -594.03130389 eV

  energy  without entropy=     -594.03130389  energy(sigma->0) =     -594.03130389



--------------------------------------------------------------------------------------------------------


    POTLOK:  cpu time      0.3693: real time      0.4032


--------------------------------------------------------------------------------------------------------


 writing wavefunctions
     LOOP+:  cpu time    778.0468: real time    794.1323
    4ORBIT:  cpu time      0.0000: real time      0.0000



 total charge

# of ion       s       p       d       tot
------------------------------------------
    1        1.940   5.664   0.000   7.603
    2        1.940   5.664   0.000   7.603
    3        1.938   5.663   0.000   7.601
    4        1.938   5.663   0.000   7.601
    5        1.938   5.664   0.000   7.601
    6        1.938   5.664   0.000   7.601
    7        1.938   5.664   0.000   7.601
    8        1.938   5.664   0.000   7.601
    9        1.938   5.664   0.000   7.602
   10        1.938   5.664   0.000   7.602
   11        1.938   5.664   0.000   7.602
   12        1.938   5.664   0.000   7.602
   13        1.067   1.193   0.148   2.409
   14        1.067   1.193   0.148   2.409
   15        1.067   1.193   0.148   2.409
   16        1.067   1.193   0.148   2.409
   17        1.349   2.398   0.000   3.747
   18        1.349   2.398   0.000   3.747
   19        1.349   2.398   0.000   3.747
   20        1.349   2.398   0.000   3.747
   21        1.356   2.398   0.000   3.753
   22        1.356   2.398   0.000   3.753
   23        1.356   2.398   0.000   3.753
   24        1.356   2.398   0.000   3.753
   25        1.348   2.396   0.000   3.743
   26        1.348   2.396   0.000   3.743
   27        1.348   2.396   0.000   3.743
   28        1.348   2.396   0.000   3.743
   29        1.349   2.396   0.000   3.745
   30        1.349   2.396   0.000   3.745
   31        1.349   2.396   0.000   3.745
   32        1.349   2.396   0.000   3.745
   33        1.558   3.645   0.000   5.203
   34        1.558   3.645   0.000   5.203
   35        1.558   3.645   0.000   5.203
   36        1.558   3.645   0.000   5.203
   37        1.563   3.641   0.000   5.204
   38        1.563   3.641   0.000   5.204
   39        1.563   3.641   0.000   5.204
   40        1.563   3.641   0.000   5.204
   41        1.556   3.654   0.000   5.210
   42        1.556   3.654   0.000   5.210
   43        1.556   3.654   0.000   5.210
   44        1.556   3.654   0.000   5.210
   45        1.559   3.652   0.000   5.210
   46        1.559   3.652   0.000   5.210
   47        1.559   3.652   0.000   5.210
   48        1.559   3.652   0.000   5.210
   49        1.558   3.644   0.000   5.202
   50        1.558   3.644   0.000   5.202
   51        1.558   3.644   0.000   5.202
   52        1.558   3.644   0.000   5.202
   53        1.561   3.645   0.000   5.205
   54        1.561   3.645   0.000   5.205
   55        1.561   3.645   0.000   5.205
   56        1.561   3.645   0.000   5.205
   57        1.559   3.653   0.000   5.212
   58        1.559   3.653   0.000   5.212
   59        1.559   3.653   0.000   5.212
   60        1.559   3.653   0.000   5.212
   61        1.560   3.649   0.000   5.209
   62        1.560   3.649   0.000   5.209
   63        1.560   3.649   0.000   5.209
   64        1.560   3.649   0.000   5.209
   65        0.595   0.122   0.000   0.716
   66        0.595   0.122   0.000   0.716
   67        0.595   0.122   0.000   0.716
   68        0.595   0.122   0.000   0.716
   69        0.592   0.123   0.000   0.715
   70        0.592   0.123   0.000   0.715
   71        0.592   0.123   0.000   0.715
   72        0.592   0.123   0.000   0.715
   73        0.595   0.121   0.000   0.716
   74        0.595   0.121   0.000   0.716
   75        0.595   0.121   0.000   0.716
   76        0.595   0.121   0.000   0.716
   77        0.590   0.120   0.000   0.710
   78        0.590   0.120   0.000   0.710
   79        0.590   0.120   0.000   0.710
   80        0.590   0.120   0.000   0.710
   81        0.595   0.121   0.000   0.716
   82        0.595   0.121   0.000   0.716
   83        0.595   0.121   0.000   0.716
   84        0.595   0.121   0.000   0.716
   85        0.589   0.121   0.000   0.710
   86        0.589   0.121   0.000   0.710
   87        0.589   0.121   0.000   0.710
   88        0.589   0.121   0.000   0.710
   89        0.576   0.124   0.000   0.700
   90        0.576   0.124   0.000   0.700
   91        0.576   0.124   0.000   0.700
   92        0.576   0.124   0.000   0.700
   93        0.604   0.122   0.000   0.725
   94        0.604   0.122   0.000   0.725
   95        0.604   0.122   0.000   0.725
   96        0.604   0.122   0.000   0.725
   97        0.592   0.120   0.000   0.712
   98        0.592   0.120   0.000   0.712
   99        0.592   0.120   0.000   0.712
  100        0.592   0.120   0.000   0.712
  101        0.585   0.120   0.000   0.706
  102        0.585   0.120   0.000   0.706
  103        0.585   0.120   0.000   0.706
  104        0.585   0.120   0.000   0.706
  105        0.608   0.122   0.000   0.730
  106        0.608   0.122   0.000   0.730
  107        0.608   0.122   0.000   0.730
  108        0.608   0.122   0.000   0.730
  109        0.589   0.122   0.000   0.711
  110        0.589   0.122   0.000   0.711
  111        0.589   0.122   0.000   0.711
  112        0.589   0.122   0.000   0.711
  113        0.595   0.124   0.000   0.719
  114        0.595   0.124   0.000   0.719
  115        0.595   0.124   0.000   0.719
  116        0.595   0.124   0.000   0.719
  117        0.589   0.119   0.000   0.708
  118        0.589   0.119   0.000   0.708
  119        0.589   0.119   0.000   0.708
  120        0.589   0.119   0.000   0.708
  121        0.612   0.122   0.000   0.734
  122        0.612   0.122   0.000   0.734
  123        0.612   0.122   0.000   0.734
  124        0.612   0.122   0.000   0.734
  125        0.586   0.121   0.000   0.708
  126        0.586   0.121   0.000   0.708
  127        0.586   0.121   0.000   0.708
  128        0.586   0.121   0.000   0.708
--------------------------------------------------
tot        137.002 235.586   0.594 373.181


 total amount of memory used by VASP MPI-rank0   193305. kBytes
=======================================================================

   base      :      30000. kBytes
   nonlr-proj:      33917. kBytes
   fftplans  :       7712. kBytes
   grid      :      37060. kBytes
   one-center:       1038. kBytes
   wavefun   :      83578. kBytes

  
  
 General timing and accounting informations for this job:
 ========================================================
  
                  Total CPU time used (sec):      816.077
                            User time (sec):      801.132
                          System time (sec):       14.945
                         Elapsed time (sec):      839.307
  
                   Maximum memory used (kb):      333256.
                   Average memory used (kb):          N/A
  
                          Minor page faults:       451154
                          Major page faults:          248
                 Voluntary context switches:         1964
