 vasp.6.3.2 27Jun22 (build Mar 25 2024 10:42:18) complex                         
 executed on             LinuxGNU date 2024.03.31  13:25:23
 running on   32 total cores
 distrk:  each k-point on   32 cores,    1 groups
 distr:  one band on NCORE=   1 cores,   32 groups


--------------------------------------------------------------------------------------------------------


 INCAR:
   ISTART = 0
   ICHARG = 2
   PREC = Accurate
   IBRION = -1
   EDIFF = 0.000000001
   EDIFFG = -0.0005
   NSW = 0
   NELM = 100
   ENCUT = 520
   ISMEAR = -5
   SIGMA = 0.05
   ISPIN = 2
   ISYM = 0
   LWAVE = False
   LCHARG = False
   LASPH = True
   LORBIT = 11
   ADDGRID = TRUE

 POTCAR:    PAW_PBE S 06Sep2000                   
 -----------------------------------------------------------------------------
|                                                                             |
|           W    W    AA    RRRRR   N    N  II  N    N   GGGG   !!!           |
|           W    W   A  A   R    R  NN   N  II  NN   N  G    G  !!!           |
|           W    W  A    A  R    R  N N  N  II  N N  N  G       !!!           |
|           W WW W  AAAAAA  RRRRR   N  N N  II  N  N N  G  GGG   !            |
|           WW  WW  A    A  R   R   N   NN  II  N   NN  G    G                |
|           W    W  A    A  R    R  N    N  II  N    N   GGGG   !!!           |
|                                                                             |
|     You use a magnetic or noncollinear calculation, but did not specify     |
|     the initial magnetic moment with the MAGMOM tag. Note that a            |
|     default of 1 will be used for all atoms. This ferromagnetic setup       |
|     may break the symmetry of the crystal, in particular it may rule        |
|     out finding an antiferromagnetic solution. Thence, we recommend         |
|     setting the initial magnetic moment manually or verifying carefully     |
|     that this magnetic setup is desired.                                    |
|                                                                             |
 -----------------------------------------------------------------------------

 -----------------------------------------------------------------------------
|                                                                             |
|           W    W    AA    RRRRR   N    N  II  N    N   GGGG   !!!           |
|           W    W   A  A   R    R  NN   N  II  NN   N  G    G  !!!           |
|           W    W  A    A  R    R  N N  N  II  N N  N  G       !!!           |
|           W WW W  AAAAAA  RRRRR   N  N N  II  N  N N  G  GGG   !            |
|           WW  WW  A    A  R   R   N   NN  II  N   NN  G    G                |
|           W    W  A    A  R    R  N    N  II  N    N   GGGG   !!!           |
|                                                                             |
|     For optimal performance we recommend to set                             |
|       NCORE = 2 up to number-of-cores-per-socket                            |
|     NCORE specifies how many cores store one orbital (NPAR=cpu/NCORE).      |
|     This setting can greatly improve the performance of VASP for DFT.       |
|     The default, NCORE=1 might be grossly inefficient on modern             |
|     multi-core architectures or massively parallel machines. Do your        |
|     own testing! More info at https://www.vasp.at/wiki/index.php/NCORE      |
|     Unfortunately you need to use the default for GW and RPA                |
|     calculations (for HF NCORE is supported but not extensively tested      |
|     yet).                                                                   |
|                                                                             |
 -----------------------------------------------------------------------------

 POTCAR:    PAW_PBE S 06Sep2000                   
   SHA256 =  0fc7481fb0695f01bdc6462160264c5c84044ae9ec85a907d398b887a2bc3132 S/POTCAR              
   COPYR  = (c) Copyright 06Sep2000 Georg Kresse                                                    
   COPYR  = This file is part of the software VASP. Any use, copying, and all other rights are regul
   COPYR  = If you do not have a valid VASP license, you may not use, copy or distribute this file. 
   VRHFIN =S : s2p4                                                                                 
   LEXCH  = PE                                                                                      
   EATOM  =   276.8230 eV,   20.3459 Ry                                                             
                                                                                                    
   TITEL  = PAW_PBE S 06Sep2000                                                                     
   LULTRA =        F    use ultrasoft PP ?                                                          
   IUNSCR =        1    unscreen: 0-lin 1-nonlin 2-no                                               
   RPACOR =    1.500    partial core radius                                                         
   POMASS =   32.066; ZVAL   =    6.000    mass and valenz                                          
   RCORE  =    1.900    outmost cutoff radius                                                       
   RWIGS  =    2.200; RWIGS  =    1.164    wigner-seitz radius (au A)                               
   ENMAX  =  258.689; ENMIN  =  194.016 eV                                                          
   ICORE  =        2    local potential                                                             
   LCOR   =        T    correct aug charges                                                         
   LPAW   =        T    paw PP                                                                      
   EAUG   =  335.092                                                                                
   DEXC   =    0.000                                                                                
   RMAX   =    1.942    core radius for proj-oper                                                   
   RAUG   =    1.300    factor for augmentation sphere                                              
   RDEP   =    1.954    radius for radial grids                                                     
   RDEPT  =    1.744    core radius for aug-charge                                                  
                                                                                                    
   Atomic configuration                                                                             
    6 entries                                                                                       
     n  l   j            E        occ.                                                              
     1  0  0.50     -2405.8406   2.0000                                                             
     2  0  0.50      -211.7007   2.0000                                                             
     2  1  1.50      -156.4958   6.0000                                                             
     3  0  0.50       -17.2562   2.0000                                                             
     3  1  0.50        -7.0085   4.0000                                                             
     3  2  1.50        -6.8029   0.0000                                                             
   Description                                                                                      
     l       E           TYP  RCUT    TYP  RCUT                                                     
     0    -17.2561641     23  1.900                                                                 
     0    -15.8743224     23  1.900                                                                 
     1     -7.0085400     23  1.900                                                                 
     1     -2.7779785     23  1.900                                                                 
     2     -6.8029130     23  1.900                                                                 
  local pseudopotential read in
  partial core-charges read in
  partial kinetic energy density read in
  atomic valenz-charges read in
  non local Contribution for L=           0  read in
    real space projection operators read in
  non local Contribution for L=           0  read in
    real space projection operators read in
  non local Contribution for L=           1  read in
    real space projection operators read in
  non local Contribution for L=           1  read in
    real space projection operators read in
    PAW grid and wavefunctions read in

   number of l-projection  operators is LMAX  =           4
   number of lm-projection operators is LMMAX =           8

 -----------------------------------------------------------------------------
|                                                                             |
|               ----> ADVICE to this user running VASP <----                  |
|                                                                             |
|     You have a (more or less) 'large supercell' and for larger cells it     |
|     might be more efficient to use real-space projection operators.         |
|     Therefore, try LREAL= Auto in the INCAR file.                           |
|     Mind: For very accurate calculation, you might also keep the            |
|     reciprocal projection scheme (i.e. LREAL=.FALSE.).                      |
|                                                                             |
 -----------------------------------------------------------------------------

  PAW_PBE S 06Sep2000                   :
 energy of atom  1       EATOM= -276.8230
 kinetic energy error for atom=    0.0016 (will be added to EATOM!!)


 POSCAR: generated by phonopy
  positions in direct lattice
  No initial velocities read in
 exchange correlation table for  LEXCH =        8
   RHO(1)=    0.500       N(1)  =     2000
   RHO(2)=  100.500       N(2)  =     4000



--------------------------------------------------------------------------------------------------------


 ion  position               nearest neighbor table
   1  0.886  0.467  0.678-  45 1.98  24 2.13
   2  0.886  0.967  0.678-  46 1.98  23 2.13
   3  0.330  0.189  0.551-  41 2.05  19 2.13
   4  0.330  0.689  0.551-  42 2.05  20 2.13
   5  0.913  0.106  0.912-  51 1.99  11 2.13
   6  0.913  0.605  0.912-  52 1.98  12 2.13
   7  0.240  0.301  0.777-  19 1.98  37 2.23
   8  0.240  0.801  0.777-  20 1.98  38 2.23
   9  0.144  0.306  0.224-  31 2.05  39 2.13
  10  0.144  0.806  0.224-  32 2.05  40 2.13
  11  0.856  0.194  0.776-  47 2.05   5 2.13
  12  0.856  0.694  0.776-  48 2.05   6 2.13
  13  0.760  0.199  0.223-  27 1.98  33 2.23
  14  0.760  0.699  0.223-  28 1.98  34 2.23
  15  0.170  0.439  0.449-  31 2.05  30 2.13
  16  0.170  0.939  0.449-  32 2.05  29 2.13
  17  0.413  0.145  0.912-  37 1.98  43 2.13
  18  0.413  0.645  0.912-  38 1.98  44 2.13
  19  0.386  0.283  0.678-   7 1.98   3 2.13
  20  0.386  0.783  0.678-   8 1.98   4 2.13
  21  0.644  0.444  0.224-  53 2.05  35 2.13
  22  0.644  0.944  0.224-  54 2.05  36 2.13
  23  0.830  0.061  0.551-  47 2.05   2 2.13
  24  0.830  0.561  0.551-  48 2.05   1 2.13
  25  0.260  0.051  0.223-  29 1.98  50 2.23
  26  0.260  0.551  0.223-  30 1.98  49 2.23
  27  0.614  0.217  0.322-  13 1.98  55 2.13
  28  0.614  0.717  0.322-  14 1.98  56 2.13
  29  0.114  0.033  0.322-  25 1.98  16 2.13
  30  0.114  0.533  0.322-  26 1.98  15 2.13
  31  0.060  0.345  0.374-   9 2.05  15 2.05
  32  0.060  0.845  0.374-  10 2.05  16 2.05
  33  0.743  0.289  0.071-  35 1.98  13 2.23
  34  0.743  0.789  0.071-  36 1.98  14 2.23
  35  0.587  0.355  0.088-  33 1.98  21 2.13
  36  0.587  0.855  0.088-  34 1.98  22 2.13
  37  0.257  0.211  0.929-  17 1.98   7 2.23
  38  0.257  0.711  0.929-  18 1.98   8 2.23
  39  0.087  0.395  0.088-  49 1.98   9 2.13
  40  0.087  0.895  0.088-  50 1.98  10 2.13
  41  0.440  0.095  0.626-  43 2.05   3 2.05
  42  0.440  0.595  0.626-  44 2.05   4 2.05
  43  0.356  0.056  0.776-  41 2.05  17 2.13
  44  0.356  0.556  0.776-  42 2.05  18 2.13
  45  0.740  0.449  0.777-   1 1.98  52 2.23
  46  0.740  0.949  0.777-   2 1.98  51 2.23
  47  0.940  0.155  0.626-  11 2.05  23 2.05
  48  0.940  0.655  0.626-  12 2.05  24 2.05
  49  0.243  0.461  0.071-  39 1.98  26 2.23
  50  0.243  0.961  0.071-  40 1.98  25 2.23
  51  0.757  0.039  0.929-   5 1.99  46 2.23
  52  0.757  0.539  0.929-   6 1.98  45 2.23
  53  0.560  0.405  0.374-  21 2.05  55 2.05
  54  0.560  0.905  0.374-  22 2.05  56 2.05
  55  0.670  0.311  0.449-  53 2.05  27 2.13
  56  0.670  0.811  0.449-  54 2.05  28 2.13


IMPORTANT INFORMATION: All symmetrisations will be switched off!
NOSYMM: (Re-)initialisation of all symmetry stuff for point group C_1.


----------------------------------------------------------------------------------------

                                     Primitive cell                                     

  volume of cell :    1863.6770

  direct lattice vectors                    reciprocal lattice vectors
     0.000000000 10.307367086 -0.372855731     0.000000000  0.096453423 -0.015606996
    16.788494411  0.000000000  0.000000000     0.059564603  0.000000000  0.000000000
     0.000000000 -1.732519801-10.707215182     0.000000000 -0.003358783 -0.092851486

  length of vectors
    10.314108670 16.788494411 10.846477853     0.097707938  0.059564603  0.092912216

  position of ions in fractional coordinates (direct lattice)
     0.886423141  0.467004751  0.678126386
     0.886423141  0.967004751  0.678126386
     0.329563264  0.188743823  0.550707721
     0.329563264  0.688743823  0.550707721
     0.912671285  0.105837531  0.911960471
     0.912671285  0.605241885  0.911960471
     0.239736405  0.300831047  0.776574189
     0.239736405  0.800831047  0.776574189
     0.144417516  0.305688762  0.224396680
     0.144417516  0.805688762  0.224396680
     0.855582484  0.194311238  0.775603320
     0.855582484  0.694311238  0.775603320
     0.760263595  0.199168953  0.223425811
     0.760263595  0.699168953  0.223425811
     0.170436736  0.438743823  0.449292279
     0.170436736  0.938743823  0.449292279
     0.412671285  0.144758115  0.911960471
     0.412671285  0.644758115  0.911960471
     0.386423141  0.282995249  0.678126386
     0.386423141  0.782995249  0.678126386
     0.644417516  0.444311238  0.224396680
     0.644417516  0.944311238  0.224396680
     0.829563264  0.061256177  0.550707721
     0.829563264  0.561256177  0.550707721
     0.260263595  0.050831047  0.223425811
     0.260263595  0.550831047  0.223425811
     0.613576859  0.217004751  0.321873614
     0.613576859  0.717004751  0.321873614
     0.113576859  0.032995249  0.321873614
     0.113576859  0.532995249  0.321873614
     0.059895700  0.345087734  0.374484367
     0.059895700  0.845087734  0.374484367
     0.743425210  0.289344343  0.071165234
     0.743425210  0.789344343  0.071165234
     0.587328715  0.355241885  0.088039529
     0.587328715  0.855241885  0.088039529
     0.256574790  0.210655657  0.928834766
     0.256574790  0.710655657  0.928834766
     0.087328715  0.394758115  0.088039529
     0.087328715  0.894758115  0.088039529
     0.440104300  0.095087734  0.625515633
     0.440104300  0.595087734  0.625515633
     0.355582484  0.055688762  0.775603320
     0.355582484  0.555688762  0.775603320
     0.739736405  0.449168953  0.776574189
     0.739736405  0.949168953  0.776574189
     0.940104300  0.154912266  0.625515633
     0.940104300  0.654912266  0.625515633
     0.243425210  0.460655657  0.071165234
     0.243425210  0.960655657  0.071165234
     0.756574790  0.039344343  0.928834766
     0.756574790  0.539344343  0.928834766
     0.559895700  0.404912266  0.374484367
     0.559895700  0.904912266  0.374484367
     0.670436736  0.311256177  0.449292279
     0.670436736  0.811256177  0.449292279

  ion indices of the primitive-cell ions
   primitive index   ion index
                 1           1
                 2           2
                 3           3
                 4           4
                 5           5
                 6           6
                 7           7
                 8           8
                 9           9
                10          10
                11          11
                12          12
                13          13
                14          14
                15          15
                16          16
                17          17
                18          18
                19          19
                20          20
                21          21
                22          22
                23          23
                24          24
                25          25
                26          26
                27          27
                28          28
                29          29
                30          30
                31          31
                32          32
                33          33
                34          34
                35          35
                36          36
                37          37
                38          38
                39          39
                40          40
                41          41
                42          42
                43          43
                44          44
                45          45
                46          46
                47          47
                48          48
                49          49
                50          50
                51          51
                52          52
                53          53
                54          54
                55          55
                56          56

----------------------------------------------------------------------------------------



 KPOINTS: pymatgen with grid density = 595 / numbe

Automatic generation of k-mesh.
 Grid dimensions read from file:
 generate k-points for:    2    2    2

 Generating k-lattice:

  Cartesian coordinates                     Fractional coordinates (reciprocal lattice)
     0.000000000  0.048226712 -0.007803498     0.500000000  0.000000000 -0.000000000
     0.029782301  0.000000000  0.000000000     0.000000000  0.500000000  0.000000000
     0.000000000 -0.001679391 -0.046425743    -0.000000000  0.000000000  0.500000000

  Length of vectors
     0.048853969  0.029782301  0.046456108

  Shift w.r.t. Gamma in fractional coordinates (k-lattice)
     0.000000000  0.000000000  0.000000000

 TETIRR: Found     24 inequivalent tetrahedra from       48
 
 Subroutine IBZKPT returns following result:
 ===========================================
 
 Found      8 irreducible k-points:
 
 Following reciprocal coordinates:
            Coordinates               Weight
  0.000000  0.000000  0.000000      1.000000
  0.500000  0.000000  0.000000      1.000000
  0.000000  0.500000  0.000000      1.000000
  0.500000  0.500000  0.000000      1.000000
  0.000000  0.000000  0.500000      1.000000
  0.500000  0.000000  0.500000      1.000000
  0.000000  0.500000  0.500000      1.000000
  0.500000  0.500000  0.500000      1.000000
 
 Following cartesian coordinates:
            Coordinates               Weight
  0.000000  0.000000 -0.000000      1.000000
  0.000000  0.048227 -0.007803      1.000000
  0.029782  0.000000 -0.000000      1.000000
  0.029782  0.048227 -0.007803      1.000000
  0.000000 -0.001679 -0.046426      1.000000
  0.000000  0.046547 -0.054229      1.000000
  0.029782 -0.001679 -0.046426      1.000000
  0.029782  0.046547 -0.054229      1.000000
 


--------------------------------------------------------------------------------------------------------




 Dimension of arrays:
   k-points           NKPTS =      8   k-points in BZ     NKDIM =      8   number of bands    NBANDS=    256
   number of dos      NEDOS =    301   number of ions     NIONS =     56
   non local maximal  LDIM  =      4   non local SUM 2l+1 LMDIM =      8
   total plane-waves  NPLWV = 846720
   max r-space proj   IRMAX =      1   max aug-charges    IRDMAX= 114695
   dimension x,y,z NGX =    80 NGY =  126 NGZ =   84
   dimension x,y,z NGXF=   160 NGYF=  252 NGZF=  168
   support grid    NGXF=   320 NGYF=  504 NGZF=  336
   ions per type =              56
   NGX,Y,Z   is equivalent  to a cutoff of  12.89, 12.48, 12.87 a.u.
   NGXF,Y,Z  is equivalent  to a cutoff of  25.79, 24.95, 25.75 a.u.

 SYSTEM =  unknown system                          
 POSCAR =  generated by phonopy                    

 Startparameter for this run:
   NWRITE =      2    write-flag & timer
   PREC   = accura    normal or accurate (medium, high low for compatibility)
   ISTART =      0    job   : 0-new  1-cont  2-samecut
   ICHARG =      2    charge: 1-file 2-atom 10-const
   ISPIN  =      2    spin polarized calculation?
   LNONCOLLINEAR =      F non collinear calculations
   LSORBIT =      F    spin-orbit coupling
   INIWAV =      1    electr: 0-lowe 1-rand  2-diag
   LASPH  =      T    aspherical Exc in radial PAW
 Electronic Relaxation 1
   ENCUT  =  520.0 eV  38.22 Ry    6.18 a.u.  19.18 31.22 20.17*2*pi/ulx,y,z
   ENINI  =  520.0     initial cutoff
   ENAUG  =  335.1 eV  augmentation charge cutoff
   NELM   =    100;   NELMIN=  2; NELMDL= -5     # of ELM steps 
   EDIFF  = 0.1E-08   stopping-criterion for ELM
   LREAL  =      F    real-space projection
   NLSPLINE    = F    spline interpolate recip. space projectors
   LCOMPAT=      F    compatible to vasp.4.4
   GGA_COMPAT  = T    GGA compatible to vasp.4.4-vasp.4.6
   LMAXPAW     = -100 max onsite density
   LMAXMIX     =    2 max onsite mixed and CHGCAR
   VOSKOWN=      0    Vosko Wilk Nusair interpolation
   ROPT   =    0.00000
 Ionic relaxation
   EDIFFG = -.5E-03   stopping-criterion for IOM
   NSW    =      0    number of steps for IOM
   NBLOCK =      1;   KBLOCK =      1    inner block; outer block 
   IBRION =     -1    ionic relax: 0-MD 1-quasi-New 2-CG
   NFREE  =      0    steps in history (QN), initial steepest desc. (CG)
   ISIF   =      2    stress and relaxation
   IWAVPR =     10    prediction:  0-non 1-charg 2-wave 3-comb
   ISYM   =      0    0-nonsym 1-usesym 2-fastsym
   LCORR  =      T    Harris-Foulkes like correction to forces

   POTIM  = 0.5000    time-step for ionic-motion
   TEIN   =    0.0    initial temperature
   TEBEG  =    0.0;   TEEND  =   0.0 temperature during run
   SMASS  =  -3.00    Nose mass-parameter (am)
   estimated Nose-frequenzy (Omega)   =  0.10E-29 period in steps = 0.13E+47 mass=  -0.243E-26a.u.
   SCALEE = 1.0000    scale energy and forces
   NPACO  =    256;   APACO  = 10.0  distance and # of slots for P.C.
   PSTRESS=    0.0 pullay stress

  Mass of Ions in am
   POMASS =  32.07
  Ionic Valenz
   ZVAL   =   6.00
  Atomic Wigner-Seitz radii
   RWIGS  =  -1.00
  virtual crystal weights 
   VCA    =   1.00
   NELECT =     336.0000    total number of electrons
   NUPDOWN=      -1.0000    fix difference up-down

 DOS related values:
   EMIN   =  10.00;   EMAX   =-10.00  energy-range for DOS
   EFERMI =   0.00
   ISMEAR =    -5;   SIGMA  =   0.05  broadening in eV -4-tet -1-fermi 0-gaus

 Electronic relaxation 2 (details)
   IALGO  =     38    algorithm
   LDIAG  =      T    sub-space diagonalisation (order eigenvalues)
   LSUBROT=      F    optimize rotation matrix (better conditioning)
   TURBO    =      0    0=normal 1=particle mesh
   IRESTART =      0    0=no restart 2=restart with 2 vectors
   NREBOOT  =      0    no. of reboots
   NMIN     =      0    reboot dimension
   EREF     =   0.00    reference energy to select bands
   IMIX   =      4    mixing-type and parameters
     AMIX     =   0.40;   BMIX     =  1.00
     AMIX_MAG =   1.60;   BMIX_MAG =  1.00
     AMIN     =   0.10
     WC   =   100.;   INIMIX=   1;  MIXPRE=   1;  MAXMIX= -45

 Intra band minimization:
   WEIMIN = 0.0000     energy-eigenvalue tresh-hold
   EBREAK =  0.98E-12  absolut break condition
   DEPER  =   0.30     relativ break condition  

   TIME   =   0.40     timestep for ELM

  volume/ion in A,a.u.               =      33.28       224.58
  Fermi-wavevector in a.u.,A,eV,Ry     =   0.924835  1.747685 11.637339  0.855320
  Thomas-Fermi vector in A             =   2.050624

 Write flags
   LWAVE        =      F    write WAVECAR
   LDOWNSAMPLE  =      F    k-point downsampling of WAVECAR
   LCHARG       =      F    write CHGCAR
   LVTOT        =      F    write LOCPOT, total local potential
   LVHAR        =      F    write LOCPOT, Hartree potential only
   LELF         =      F    write electronic localiz. function (ELF)
   LORBIT       =     11    0 simple, 1 ext, 2 COOP (PROOUT), +10 PAW based schemes


 Dipole corrections
   LMONO  =      F    monopole corrections only (constant potential shift)
   LDIPOL =      F    correct potential (dipole corrections)
   IDIPOL =      0    1-x, 2-y, 3-z, 4-all directions 
   EPSILON=  1.0000000 bulk dielectric constant

 Exchange correlation treatment:
   GGA     =    --    GGA type
   LEXCH   =     8    internal setting for exchange type
   LIBXC   =     F    Libxc                    
   VOSKOWN =     0    Vosko Wilk Nusair interpolation
   LHFCALC =     F    Hartree Fock is set to
   LHFONE  =     F    Hartree Fock one center treatment
   AEXX    =    0.0000 exact exchange contribution

 Linear response parameters
   LEPSILON=     F    determine dielectric tensor
   LRPA    =     F    only Hartree local field effects (RPA)
   LNABLA  =     F    use nabla operator in PAW spheres
   LVEL    =     F    velocity operator in full k-point grid
   CSHIFT  =0.1000    complex shift for real part using Kramers Kronig
   OMEGAMAX=  -1.0    maximum frequency
   DEG_THRESHOLD= 0.2000000E-02 threshold for treating states as degnerate
   RTIME   =   -0.100 relaxation time in fs
  (WPLASMAI=    0.000 imaginary part of plasma frequency in eV, 0.658/RTIME)
   DFIELD  = 0.0000000 0.0000000 0.0000000 field for delta impulse in time

  Optional k-point grid parameters
   LKPOINTS_OPT  =     F    use optional k-point grid
   KPOINTS_OPT_MODE=     1    mode for optional k-point grid

 Orbital magnetization related:
   ORBITALMAG=     F  switch on orbital magnetization
   LCHIMAG   =     F  perturbation theory with respect to B field
   DQ        =  0.001000  dq finite difference perturbation B field
   LLRAUG    =     F  two centre corrections for induced B field



--------------------------------------------------------------------------------------------------------


 Static calculation
 charge density and potential will be updated during run
 spin polarized calculation
 Variant of blocked Davidson
 Davidson routine will perform the subspace rotation
 perform sub-space diagonalisation
    after iterative eigenvector-optimisation
 modified Broyden-mixing scheme, WC =      100.0
 initial mixing is a Kerker type mixing with AMIX =  0.4000 and BMIX =      1.0000
 Hartree-type preconditioning will be used
 using additional bands           88
 reciprocal scheme for non local part
 use partial core corrections
 calculate Harris-corrections to forces   (improved forces if not selfconsistent)
 use gradient corrections 
 use of overlap-Matrix (Vanderbilt PP)
 Fermi weights with tetrahedron method with Bloechl corrections


--------------------------------------------------------------------------------------------------------


  energy-cutoff  :      520.00
  volume of cell :     1863.68
      direct lattice vectors                 reciprocal lattice vectors
     0.000000000 10.307367086 -0.372855731     0.000000000  0.096453423 -0.015606996
    16.788494411  0.000000000  0.000000000     0.059564603  0.000000000  0.000000000
     0.000000000 -1.732519801-10.707215182     0.000000000 -0.003358783 -0.092851486

  length of vectors
    10.314108670 16.788494411 10.846477853     0.097707938  0.059564603  0.092912216



 k-points in units of 2pi/SCALE and weight: pymatgen with grid density = 595 / numbe
   0.00000000  0.00000000 -0.00000000       0.125
   0.00000000  0.04822671 -0.00780350       0.125
   0.02978230  0.00000000 -0.00000000       0.125
   0.02978230  0.04822671 -0.00780350       0.125
   0.00000000 -0.00167939 -0.04642574       0.125
   0.00000000  0.04654732 -0.05422924       0.125
   0.02978230 -0.00167939 -0.04642574       0.125
   0.02978230  0.04654732 -0.05422924       0.125

 k-points in reciprocal lattice and weights: pymatgen with grid density = 595 / numbe
   0.00000000  0.00000000  0.00000000       0.125
   0.50000000  0.00000000  0.00000000       0.125
   0.00000000  0.50000000  0.00000000       0.125
   0.50000000  0.50000000  0.00000000       0.125
   0.00000000  0.00000000  0.50000000       0.125
   0.50000000  0.00000000  0.50000000       0.125
   0.00000000  0.50000000  0.50000000       0.125
   0.50000000  0.50000000  0.50000000       0.125

 position of ions in fractional coordinates (direct lattice) 
   0.88642314  0.46700475  0.67812639
   0.88642314  0.96700475  0.67812639
   0.32956326  0.18874382  0.55070772
   0.32956326  0.68874382  0.55070772
   0.91267129  0.10583753  0.91196047
   0.91267129  0.60524188  0.91196047
   0.23973640  0.30083105  0.77657419
   0.23973640  0.80083105  0.77657419
   0.14441752  0.30568876  0.22439668
   0.14441752  0.80568876  0.22439668
   0.85558248  0.19431124  0.77560332
   0.85558248  0.69431124  0.77560332
   0.76026360  0.19916895  0.22342581
   0.76026360  0.69916895  0.22342581
   0.17043674  0.43874382  0.44929228
   0.17043674  0.93874382  0.44929228
   0.41267129  0.14475812  0.91196047
   0.41267129  0.64475812  0.91196047
   0.38642314  0.28299525  0.67812639
   0.38642314  0.78299525  0.67812639
   0.64441752  0.44431124  0.22439668
   0.64441752  0.94431124  0.22439668
   0.82956326  0.06125618  0.55070772
   0.82956326  0.56125618  0.55070772
   0.26026360  0.05083105  0.22342581
   0.26026360  0.55083105  0.22342581
   0.61357686  0.21700475  0.32187361
   0.61357686  0.71700475  0.32187361
   0.11357686  0.03299525  0.32187361
   0.11357686  0.53299525  0.32187361
   0.05989570  0.34508773  0.37448437
   0.05989570  0.84508773  0.37448437
   0.74342521  0.28934434  0.07116523
   0.74342521  0.78934434  0.07116523
   0.58732871  0.35524188  0.08803953
   0.58732871  0.85524188  0.08803953
   0.25657479  0.21065566  0.92883477
   0.25657479  0.71065566  0.92883477
   0.08732871  0.39475812  0.08803953
   0.08732871  0.89475812  0.08803953
   0.44010430  0.09508773  0.62551563
   0.44010430  0.59508773  0.62551563
   0.35558248  0.05568876  0.77560332
   0.35558248  0.55568876  0.77560332
   0.73973640  0.44916895  0.77657419
   0.73973640  0.94916895  0.77657419
   0.94010430  0.15491227  0.62551563
   0.94010430  0.65491227  0.62551563
   0.24342521  0.46065566  0.07116523
   0.24342521  0.96065566  0.07116523
   0.75657479  0.03934434  0.92883477
   0.75657479  0.53934434  0.92883477
   0.55989570  0.40491227  0.37448437
   0.55989570  0.90491227  0.37448437
   0.67043674  0.31125618  0.44929228
   0.67043674  0.81125618  0.44929228

 position of ions in cartesian coordinates  (Angst):
   7.84030666  7.96182132 -7.59135308
  16.23455387  7.96182132 -7.59135308
   3.16872461  2.44281751 -6.01942562
  11.56297182  2.44281751 -6.01942562
   1.77685280  7.82724839-10.10485172
  10.16110000  7.82724839-10.10485172
   5.05050035  1.12562097 -8.40433404
  13.44474755  1.12562097 -8.40433404
   5.13205407  1.09979266 -2.45651044
  13.52630128  1.09979266 -2.45651044
   3.26219313  7.47505463 -8.62356047
  11.65644034  7.47505463 -8.62356047
   3.34374686  7.44922632 -2.67573688
  11.73799406  7.44922632 -2.67573688
   7.36584822  0.97834624 -4.87421742
  15.76009542  0.97834624 -4.87421742
   2.43027081  2.67356485 -9.91842386
  10.82451801  2.67356485 -9.91842386
   4.75106415  2.80813777 -7.40492521
  13.14531135  2.80813777 -7.40492521
   7.45931673  6.25347620 -2.64293831
  15.85356394  6.25347620 -2.64293831
   1.02839899  7.59650105 -6.20585349
   9.42264619  7.59650105 -6.20585349
   0.85337674  2.29554277 -2.48930901
   9.24762395  2.29554277 -2.48930901
   3.64318306  5.76670951 -3.67514570
  12.03743026  5.76670951 -3.67514570
   0.55394055  0.61302597 -3.48871783
   8.94818775  0.61302597 -3.48871783
   5.79350349 -0.03143461 -4.03201715
  14.18775070 -0.03143461 -4.03201715
   4.85765589  7.53946136 -1.03917182
  13.25190310  7.53946136 -1.03917182
   5.96397640  5.90128244 -1.16164705
  14.35822361  5.90128244 -1.16164705
   3.53659131  1.03538593-10.04089909
  11.93083852  1.03538593-10.04089909
   6.62739441  0.74759889 -0.97521919
  15.02164161  0.74759889 -0.97521919
   1.59637989  3.45259836 -6.86162589
   9.99062710  3.45259836 -6.86162589
   0.93493047  2.32137108 -8.43713261
   9.32917768  2.32137108 -8.43713261
   7.54087046  6.27930451 -8.59076190
  15.93511767  6.27930451 -8.59076190
   2.60074371  8.60628190 -7.04805376
  10.99499092  8.60628190 -7.04805376
   7.73371492  2.38577782 -0.85274396
  16.12796212  2.38577782 -0.85274396
   0.66053229  6.18906947-10.22732695
   9.05477950  6.18906947-10.22732695
   6.79786731  5.12224893 -4.21844502
  15.19211452  5.12224893 -4.21844502
   5.22552259  6.13202978 -5.06064529
  13.61976980  6.13202978 -5.06064529



--------------------------------------------------------------------------------------------------------


 k-point   1 :   0.0000 0.0000 0.0000  plane waves:   50179
 k-point   2 :   0.5000 0.0000 0.0000  plane waves:   50160
 k-point   3 :   0.0000 0.5000 0.0000  plane waves:   50162
 k-point   4 :   0.5000 0.5000 0.0000  plane waves:   50192
 k-point   5 :   0.0000 0.0000 0.5000  plane waves:   50190
 k-point   6 :   0.5000 0.0000 0.5000  plane waves:   50190
 k-point   7 :   0.0000 0.5000 0.5000  plane waves:   50172
 k-point   8 :   0.5000 0.5000 0.5000  plane waves:   50200

 maximum and minimum number of plane-waves per node :     50200    50160

 maximum number of plane-waves:     50200
 maximum index in each direction: 
   IXMAX=   19   IYMAX=   31   IZMAX=   20
   IXMIN=  -19   IYMIN=  -31   IZMIN=  -20


 serial   3D FFT for wavefunctions
 parallel 3D FFT for charge:
    minimum data exchange during FFTs selected (reduces bandwidth)


 total amount of memory used by VASP MPI-rank0   322725. kBytes
=======================================================================

   base      :      30000. kBytes
   nonl-proj :      70692. kBytes
   fftplans  :      34504. kBytes
   grid      :      83442. kBytes
   one-center:        344. kBytes
   wavefun   :     103743. kBytes

     INWAV:  cpu time      0.0000: real time      0.0002
 Broyden mixing: mesh for mixing (old mesh)
   NGX = 39   NGY = 63   NGZ = 41
  (NGX  =160   NGY  =252   NGZ  =168)
  gives a total of 100737 points

 initial charge density was supplied:
 charge density of overlapping atoms calculated
 number of electron     336.0000000 magnetization      56.0000000
 keeping initial charge density in first step


--------------------------------------------------------------------------------------------------------


 Maximum index for augmentation-charges         3947 (set IRDMAX)


--------------------------------------------------------------------------------------------------------


 First call to EWALD:  gamma=   0.144
 Maximum number of real-space cells 3x 2x 3
 Maximum number of reciprocal cells 2x 4x 2

    FEWALD:  cpu time      0.0031: real time      0.0031


--------------------------------------- Iteration      1(   1)  ---------------------------------------


    POTLOK:  cpu time      0.5343: real time      0.5345
    SETDIJ:  cpu time     18.6866: real time     18.6958
     EDDAV:  cpu time     50.5669: real time     50.5984
 BZINTS: Fermi energy:   10.166798;  336.000000 electrons
         Band energy: 0.225163E+03;  BLOECHL correction:   -0.008832
       DOS:  cpu time      0.0495: real time      0.0496
    --------------------------------------------
      LOOP:  cpu time     69.8373: real time     69.8783

 eigenvalue-minimisations  :  8192
 total energy-change (2. order) : 0.2106170E+04  (-0.1333793E+05)
 number of electron     336.0000000 magnetization      56.0000000
 augmentation part      336.0000000 magnetization      56.0000000

 Free energy of the ion-electron system (eV)
  ---------------------------------------------------
  alpha Z        PSCENC =       253.99581917
  Ewald energy   TEWEN  =     -9971.12987152
  -Hartree energ DENC   =     -4765.61679964
  -exchange      EXHF   =         0.00000000
  -V(xc)+E(xc)   XCENC  =       682.51124265
  PAW double counting   =     12174.71095765   -11995.46358648
  entropy T*S    EENTRO =         0.00000000
  eigenvalues    EBANDS =       225.16260320
  atomic energy  EATOM  =     15501.99929693
  Solvation  Ediel_sol  =         0.00000000
  ---------------------------------------------------
  free energy    TOTEN  =      2106.16966197 eV

  energy without entropy =     2106.16966197  energy(sigma->0) =     2106.16966197


--------------------------------------------------------------------------------------------------------




--------------------------------------- Iteration      1(   2)  ---------------------------------------


     EDDAV:  cpu time     59.6962: real time     59.7338
 BZINTS: Fermi energy:    1.452374;  336.000000 electrons
         Band energy:-0.187474E+04;  BLOECHL correction:    0.000000
       DOS:  cpu time      0.0267: real time      0.0268
    --------------------------------------------
      LOOP:  cpu time     59.7230: real time     59.7606

 eigenvalue-minimisations  : 10272
 total energy-change (2. order) :-0.2099901E+04  (-0.2021714E+04)
 number of electron     336.0000000 magnetization      56.0000000
 augmentation part      336.0000000 magnetization      56.0000000

 Free energy of the ion-electron system (eV)
  ---------------------------------------------------
  alpha Z        PSCENC =       253.99581917
  Ewald energy   TEWEN  =     -9971.12987152
  -Hartree energ DENC   =     -4765.61679964
  -exchange      EXHF   =         0.00000000
  -V(xc)+E(xc)   XCENC  =       682.51124265
  PAW double counting   =     12174.71095765   -11995.46358648
  entropy T*S    EENTRO =         0.00000000
  eigenvalues    EBANDS =     -1874.73884593
  atomic energy  EATOM  =     15501.99929693
  Solvation  Ediel_sol  =         0.00000000
  ---------------------------------------------------
  free energy    TOTEN  =         6.26821284 eV

  energy without entropy =        6.26821284  energy(sigma->0) =        6.26821284


--------------------------------------------------------------------------------------------------------




--------------------------------------- Iteration      1(   3)  ---------------------------------------


     EDDAV:  cpu time     60.0370: real time     60.0738
 BZINTS: Fermi energy:    0.220887;  336.000000 electrons
         Band energy:-0.209459E+04;  BLOECHL correction:    0.000000
       DOS:  cpu time      0.0265: real time      0.0266
    --------------------------------------------
      LOOP:  cpu time     60.0635: real time     60.1004

 eigenvalue-minimisations  : 10240
 total energy-change (2. order) :-0.2198464E+03  (-0.2171600E+03)
 number of electron     336.0000000 magnetization      56.0000000
 augmentation part      336.0000000 magnetization      56.0000000

 Free energy of the ion-electron system (eV)
  ---------------------------------------------------
  alpha Z        PSCENC =       253.99581917
  Ewald energy   TEWEN  =     -9971.12987152
  -Hartree energ DENC   =     -4765.61679964
  -exchange      EXHF   =         0.00000000
  -V(xc)+E(xc)   XCENC  =       682.51124265
  PAW double counting   =     12174.71095765   -11995.46358648
  entropy T*S    EENTRO =         0.00000000
  eigenvalues    EBANDS =     -2094.58525413
  atomic energy  EATOM  =     15501.99929693
  Solvation  Ediel_sol  =         0.00000000
  ---------------------------------------------------
  free energy    TOTEN  =      -213.57819536 eV

  energy without entropy =     -213.57819536  energy(sigma->0) =     -213.57819536


--------------------------------------------------------------------------------------------------------




--------------------------------------- Iteration      1(   4)  ---------------------------------------


     EDDAV:  cpu time     66.7971: real time     66.8408
 BZINTS: Fermi energy:    0.192751;  336.000000 electrons
         Band energy:-0.209948E+04;  BLOECHL correction:    0.000000
       DOS:  cpu time      0.0283: real time      0.0283
    --------------------------------------------
      LOOP:  cpu time     66.8254: real time     66.8692

 eigenvalue-minimisations  : 10304
 total energy-change (2. order) :-0.4896190E+01  (-0.4877836E+01)
 number of electron     336.0000000 magnetization      56.0000000
 augmentation part      336.0000000 magnetization      56.0000000

 Free energy of the ion-electron system (eV)
  ---------------------------------------------------
  alpha Z        PSCENC =       253.99581917
  Ewald energy   TEWEN  =     -9971.12987152
  -Hartree energ DENC   =     -4765.61679964
  -exchange      EXHF   =         0.00000000
  -V(xc)+E(xc)   XCENC  =       682.51124265
  PAW double counting   =     12174.71095765   -11995.46358648
  entropy T*S    EENTRO =         0.00000000
  eigenvalues    EBANDS =     -2099.48144405
  atomic energy  EATOM  =     15501.99929693
  Solvation  Ediel_sol  =         0.00000000
  ---------------------------------------------------
  free energy    TOTEN  =      -218.47438528 eV

  energy without entropy =     -218.47438528  energy(sigma->0) =     -218.47438528


--------------------------------------------------------------------------------------------------------




--------------------------------------- Iteration      1(   5)  ---------------------------------------


     EDDAV:  cpu time     58.3937: real time     58.4303
 BZINTS: Fermi energy:    0.192564;  336.000000 electrons
         Band energy:-0.209962E+04;  BLOECHL correction:    0.000000
       DOS:  cpu time      0.0264: real time      0.0265
    CHARGE:  cpu time      7.1766: real time      7.1816
    MIXING:  cpu time      0.0115: real time      0.0115
    --------------------------------------------
      LOOP:  cpu time     65.6082: real time     65.6499

 eigenvalue-minimisations  : 10048
 total energy-change (2. order) :-0.1371683E+00  (-0.1371019E+00)
 number of electron     335.9999997 magnetization      44.9918631
 augmentation part      -47.3218167 magnetization      44.8836788

 Broyden mixing:
  rms(total) = 0.82928E+01    rms(broyden)= 0.82928E+01
  rms(prec ) = 0.83128E+01
  weight for this iteration     100.00

 Free energy of the ion-electron system (eV)
  ---------------------------------------------------
  alpha Z        PSCENC =       253.99581917
  Ewald energy   TEWEN  =     -9971.12987152
  -Hartree energ DENC   =     -4765.61679964
  -exchange      EXHF   =         0.00000000
  -V(xc)+E(xc)   XCENC  =       682.51124265
  PAW double counting   =     12174.71095765   -11995.46358648
  entropy T*S    EENTRO =         0.00000000
  eigenvalues    EBANDS =     -2099.61861231
  atomic energy  EATOM  =     15501.99929693
  Solvation  Ediel_sol  =         0.00000000
  ---------------------------------------------------
  free energy    TOTEN  =      -218.61155354 eV

  energy without entropy =     -218.61155354  energy(sigma->0) =     -218.61155354


--------------------------------------------------------------------------------------------------------




--------------------------------------- Iteration      1(   6)  ---------------------------------------


    POTLOK:  cpu time      0.4427: real time      0.4449
    SETDIJ:  cpu time     13.7362: real time     13.7429
     EDDAV:  cpu time     59.0750: real time     59.1119
 BZINTS: Fermi energy:    0.410182;  336.000000 electrons
         Band energy:-0.201415E+04;  BLOECHL correction:    0.000000
       DOS:  cpu time      0.0258: real time      0.0258
    CHARGE:  cpu time      5.6201: real time      5.6234
    MIXING:  cpu time      0.0179: real time      0.0179
    --------------------------------------------
      LOOP:  cpu time     78.9178: real time     78.9668

 eigenvalue-minimisations  :  9632
 total energy-change (2. order) : 0.1022860E+03  (-0.2667957E+02)
 number of electron     335.9999997 magnetization      26.4973992
 augmentation part      -47.6483003 magnetization      27.5558708

 Broyden mixing:
  rms(total) = 0.49362E+01    rms(broyden)= 0.49362E+01
  rms(prec ) = 0.49585E+01
  weight for this iteration     100.00

 eigenvalues of (default mixing * dielectric matrix)
  average eigenvalue GAMMA=   1.6661
  1.6661

 Free energy of the ion-electron system (eV)
  ---------------------------------------------------
  alpha Z        PSCENC =       253.99581917
  Ewald energy   TEWEN  =     -9971.12987152
  -Hartree energ DENC   =     -4809.91494389
  -exchange      EXHF   =         0.00000000
  -V(xc)+E(xc)   XCENC  =       746.09674527
  PAW double counting   =     20734.88710326   -20558.10832931
  entropy T*S    EENTRO =         0.00000000
  eigenvalues    EBANDS =     -2014.15139281
  atomic energy  EATOM  =     15501.99929693
  Solvation  Ediel_sol  =         0.00000000
  ---------------------------------------------------
  free energy    TOTEN  =      -116.32557289 eV

  energy without entropy =     -116.32557289  energy(sigma->0) =     -116.32557289


--------------------------------------------------------------------------------------------------------




--------------------------------------- Iteration      1(   7)  ---------------------------------------


    POTLOK:  cpu time      0.5072: real time      0.5110
    SETDIJ:  cpu time      6.5431: real time      6.5460
     EDDAV:  cpu time     58.1776: real time     58.2130
 BZINTS: Fermi energy:    0.739248;  336.000000 electrons
         Band energy:-0.186785E+04;  BLOECHL correction:    0.000000
       DOS:  cpu time      0.0264: real time      0.0265
    CHARGE:  cpu time     11.8721: real time     11.8787
    MIXING:  cpu time      0.0178: real time      0.0178
    --------------------------------------------
      LOOP:  cpu time     77.1441: real time     77.1930

 eigenvalue-minimisations  : 10144
 total energy-change (2. order) :-0.1114389E+02  (-0.2695780E+01)
 number of electron     335.9999997 magnetization      19.7209063
 augmentation part      -47.3165970 magnetization      20.9265529

 Broyden mixing:
  rms(total) = 0.13983E+01    rms(broyden)= 0.13983E+01
  rms(prec ) = 0.14020E+01
  weight for this iteration     100.00

 eigenvalues of (default mixing * dielectric matrix)
  average eigenvalue GAMMA=   1.4856
  0.7904  2.1809

 Free energy of the ion-electron system (eV)
  ---------------------------------------------------
  alpha Z        PSCENC =       253.99581917
  Ewald energy   TEWEN  =     -9971.12987152
  -Hartree energ DENC   =     -4969.28235656
  -exchange      EXHF   =         0.00000000
  -V(xc)+E(xc)   XCENC  =       751.42981491
  PAW double counting   =     37032.01845414   -36858.65040047
  entropy T*S    EENTRO =         0.00000000
  eigenvalues    EBANDS =     -1867.85021829
  atomic energy  EATOM  =     15501.99929693
  Solvation  Ediel_sol  =         0.00000000
  ---------------------------------------------------
  free energy    TOTEN  =      -127.46946169 eV

  energy without entropy =     -127.46946169  energy(sigma->0) =     -127.46946169


--------------------------------------------------------------------------------------------------------




--------------------------------------- Iteration      1(   8)  ---------------------------------------


    POTLOK:  cpu time      0.4964: real time      0.4976
    SETDIJ:  cpu time      5.9741: real time      5.9787
     EDDAV:  cpu time     54.2217: real time     54.2552
 BZINTS: Fermi energy:    0.706990;  336.000000 electrons
         Band energy:-0.185529E+04;  BLOECHL correction:    0.000000
       DOS:  cpu time      0.0269: real time      0.0270
    CHARGE:  cpu time     14.3360: real time     14.3434
    MIXING:  cpu time      0.0189: real time      0.0189
    --------------------------------------------
      LOOP:  cpu time     75.0738: real time     75.1207

 eigenvalue-minimisations  :  9312
 total energy-change (2. order) :-0.4275170E+02  (-0.1979882E+01)
 number of electron     335.9999997 magnetization      16.0633664
 augmentation part      -47.0115881 magnetization      17.1078673

 Broyden mixing:
  rms(total) = 0.78201E+00    rms(broyden)= 0.78201E+00
  rms(prec ) = 0.78715E+00
  weight for this iteration     100.00

 eigenvalues of (default mixing * dielectric matrix)
  average eigenvalue GAMMA=   1.3384
  2.4898  0.9420  0.5835

 Free energy of the ion-electron system (eV)
  ---------------------------------------------------
  alpha Z        PSCENC =       253.99581917
  Ewald energy   TEWEN  =     -9971.12987152
  -Hartree energ DENC   =     -4998.93778020
  -exchange      EXHF   =         0.00000000
  -V(xc)+E(xc)   XCENC  =       726.53727677
  PAW double counting   =     40181.12113832   -40008.52008679
  entropy T*S    EENTRO =         0.00000000
  eigenvalues    EBANDS =     -1855.28695692
  atomic energy  EATOM  =     15501.99929693
  Solvation  Ediel_sol  =         0.00000000
  ---------------------------------------------------
  free energy    TOTEN  =      -170.22116423 eV

  energy without entropy =     -170.22116423  energy(sigma->0) =     -170.22116423


--------------------------------------------------------------------------------------------------------




--------------------------------------- Iteration      1(   9)  ---------------------------------------


    POTLOK:  cpu time      0.5420: real time      0.5435
    SETDIJ:  cpu time      5.5374: real time      5.5401
     EDDAV:  cpu time     62.0165: real time     62.0556
 BZINTS: Fermi energy:    0.629609;  336.000000 electrons
         Band energy:-0.186654E+04;  BLOECHL correction:    0.000000
       DOS:  cpu time      0.0261: real time      0.0262
    CHARGE:  cpu time      9.8974: real time      9.9025
    MIXING:  cpu time      0.0190: real time      0.0190
    --------------------------------------------
      LOOP:  cpu time     78.0385: real time     78.0869

 eigenvalue-minimisations  : 10240
 total energy-change (2. order) :-0.1673441E+02  (-0.6406357E+00)
 number of electron     335.9999997 magnetization      11.5342529
 augmentation part      -46.9153254 magnetization      12.3719382

 Broyden mixing:
  rms(total) = 0.43626E+00    rms(broyden)= 0.43626E+00
  rms(prec ) = 0.44831E+00
  weight for this iteration     100.00

 eigenvalues of (default mixing * dielectric matrix)
  average eigenvalue GAMMA=   1.3244
  2.5742  1.3009  0.7112  0.7112

 Free energy of the ion-electron system (eV)
  ---------------------------------------------------
  alpha Z        PSCENC =       253.99581917
  Ewald energy   TEWEN  =     -9971.12987152
  -Hartree energ DENC   =     -4995.12533138
  -exchange      EXHF   =         0.00000000
  -V(xc)+E(xc)   XCENC  =       717.22370295
  PAW double counting   =     40958.83751520   -40786.21800142
  entropy T*S    EENTRO =         0.00000000
  eigenvalues    EBANDS =     -1866.53870099
  atomic energy  EATOM  =     15501.99929693
  Solvation  Ediel_sol  =         0.00000000
  ---------------------------------------------------
  free energy    TOTEN  =      -186.95557106 eV

  energy without entropy =     -186.95557106  energy(sigma->0) =     -186.95557106


--------------------------------------------------------------------------------------------------------




--------------------------------------- Iteration      1(  10)  ---------------------------------------


    POTLOK:  cpu time      0.5040: real time      0.5054
    SETDIJ:  cpu time     15.4763: real time     15.4838
     EDDAV:  cpu time     55.6529: real time     55.6891
 BZINTS: Fermi energy:    0.476228;  336.000000 electrons
         Band energy:-0.190103E+04;  BLOECHL correction:    0.000000
       DOS:  cpu time      0.0283: real time      0.0284
    CHARGE:  cpu time     12.9735: real time     12.9809
    MIXING:  cpu time      0.0192: real time      0.0192
    --------------------------------------------
      LOOP:  cpu time     84.6543: real time     84.7068

 eigenvalue-minimisations  :  9984
 total energy-change (2. order) :-0.2006457E+02  (-0.1301504E+01)
 number of electron     335.9999997 magnetization       5.3071038
 augmentation part      -46.8734978 magnetization       5.8418363

 Broyden mixing:
  rms(total) = 0.32428E+00    rms(broyden)= 0.32427E+00
  rms(prec ) = 0.33723E+00
  weight for this iteration     100.00

 eigenvalues of (default mixing * dielectric matrix)
  average eigenvalue GAMMA=   1.4488
  2.4862  2.4862  0.9417  0.7281  0.6021

 Free energy of the ion-electron system (eV)
  ---------------------------------------------------
  alpha Z        PSCENC =       253.99581917
  Ewald energy   TEWEN  =     -9971.12987152
  -Hartree energ DENC   =     -4969.77633221
  -exchange      EXHF   =         0.00000000
  -V(xc)+E(xc)   XCENC  =       705.64382360
  PAW double counting   =     40968.60078404   -40795.32700186
  entropy T*S    EENTRO =         0.00000000
  eigenvalues    EBANDS =     -1901.02665674
  atomic energy  EATOM  =     15501.99929693
  Solvation  Ediel_sol  =         0.00000000
  ---------------------------------------------------
  free energy    TOTEN  =      -207.02013859 eV

  energy without entropy =     -207.02013859  energy(sigma->0) =     -207.02013859


--------------------------------------------------------------------------------------------------------




--------------------------------------- Iteration      1(  11)  ---------------------------------------


    POTLOK:  cpu time      0.5181: real time      0.5194
    SETDIJ:  cpu time     16.9386: real time     16.9466
     EDDAV:  cpu time     59.1336: real time     59.1712
 BZINTS: Fermi energy:    0.258318;  336.000000 electrons
         Band energy:-0.195840E+04;  BLOECHL correction:    0.000000
       DOS:  cpu time      0.0263: real time      0.0264
    CHARGE:  cpu time     13.2477: real time     13.2552
    MIXING:  cpu time      0.0132: real time      0.0132
    --------------------------------------------
      LOOP:  cpu time     89.8774: real time     89.9319

 eigenvalue-minimisations  :  9952
 total energy-change (2. order) :-0.1785479E+02  (-0.2165819E+01)
 number of electron     335.9999997 magnetization       3.5750367
 augmentation part      -46.9051113 magnetization       3.7583302

 Broyden mixing:
  rms(total) = 0.18664E+00    rms(broyden)= 0.18663E+00
  rms(prec ) = 0.20033E+00
  weight for this iteration     100.00

 eigenvalues of (default mixing * dielectric matrix)
  average eigenvalue GAMMA=   1.4663
  2.7966  2.7966  1.0264  0.8892  0.6992  0.5899

 Free energy of the ion-electron system (eV)
  ---------------------------------------------------
  alpha Z        PSCENC =       253.99581917
  Ewald energy   TEWEN  =     -9971.12987152
  -Hartree energ DENC   =     -4920.20329241
  -exchange      EXHF   =         0.00000000
  -V(xc)+E(xc)   XCENC  =       694.53169682
  PAW double counting   =     40396.27428494   -40221.94097370
  entropy T*S    EENTRO =         0.00000000
  eigenvalues    EBANDS =     -1958.40189251
  atomic energy  EATOM  =     15501.99929693
  Solvation  Ediel_sol  =         0.00000000
  ---------------------------------------------------
  free energy    TOTEN  =      -224.87493228 eV

  energy without entropy =     -224.87493228  energy(sigma->0) =     -224.87493228


--------------------------------------------------------------------------------------------------------




--------------------------------------- Iteration      1(  12)  ---------------------------------------


    POTLOK:  cpu time      0.4448: real time      0.4460
    SETDIJ:  cpu time     15.8582: real time     15.8658
     EDDAV:  cpu time     59.3713: real time     59.4113
 BZINTS: Fermi energy:    0.185290;  336.000000 electrons
         Band energy:-0.197902E+04;  BLOECHL correction:    0.000000
       DOS:  cpu time      0.0259: real time      0.0260
    CHARGE:  cpu time      9.8818: real time      9.8875
    MIXING:  cpu time      0.0173: real time      0.0173
    --------------------------------------------
      LOOP:  cpu time     85.5995: real time     85.6538

 eigenvalue-minimisations  : 10048
 total energy-change (2. order) :-0.3385804E+01  (-0.3875819E+00)
 number of electron     335.9999997 magnetization       2.3930226
 augmentation part      -46.9151149 magnetization       2.4762214

 Broyden mixing:
  rms(total) = 0.15983E+00    rms(broyden)= 0.15982E+00
  rms(prec ) = 0.17238E+00
  weight for this iteration     100.00

 eigenvalues of (default mixing * dielectric matrix)
  average eigenvalue GAMMA=   1.4912
  3.1002  3.1002  1.0544  1.0544  0.7809  0.7809  0.5677

 Free energy of the ion-electron system (eV)
  ---------------------------------------------------
  alpha Z        PSCENC =       253.99581917
  Ewald energy   TEWEN  =     -9971.12987152
  -Hartree energ DENC   =     -4900.75590063
  -exchange      EXHF   =         0.00000000
  -V(xc)+E(xc)   XCENC  =       692.08149432
  PAW double counting   =     39964.85840999   -39790.28882794
  entropy T*S    EENTRO =         0.00000000
  eigenvalues    EBANDS =     -1979.02115657
  atomic energy  EATOM  =     15501.99929693
  Solvation  Ediel_sol  =         0.00000000
  ---------------------------------------------------
  free energy    TOTEN  =      -228.26073624 eV

  energy without entropy =     -228.26073624  energy(sigma->0) =     -228.26073624


--------------------------------------------------------------------------------------------------------




--------------------------------------- Iteration      1(  13)  ---------------------------------------


    POTLOK:  cpu time      0.5811: real time      0.5822
    SETDIJ:  cpu time     14.0240: real time     14.0310
     EDDAV:  cpu time     56.5535: real time     56.5882
 BZINTS: Fermi energy:    0.117166;  336.000000 electrons
         Band energy:-0.200148E+04;  BLOECHL correction:    0.000000
       DOS:  cpu time      0.0269: real time      0.0269
    CHARGE:  cpu time      6.5739: real time      6.5775
    MIXING:  cpu time      0.0205: real time      0.0205
    --------------------------------------------
      LOOP:  cpu time     77.7798: real time     77.8262

 eigenvalue-minimisations  :  9504
 total energy-change (2. order) :-0.1053958E+01  (-0.1336980E+00)
 number of electron     335.9999997 magnetization       0.8914007
 augmentation part      -46.9734883 magnetization       0.9175258

 Broyden mixing:
  rms(total) = 0.93110E-01    rms(broyden)= 0.93110E-01
  rms(prec ) = 0.99926E-01
  weight for this iteration     100.00

 eigenvalues of (default mixing * dielectric matrix)
  average eigenvalue GAMMA=   1.5510
  3.3212  3.3212  1.5829  1.2841  0.9273  0.6994  0.6994  0.5720

 Free energy of the ion-electron system (eV)
  ---------------------------------------------------
  alpha Z        PSCENC =       253.99581917
  Ewald energy   TEWEN  =     -9971.12987152
  -Hartree energ DENC   =     -4877.61010827
  -exchange      EXHF   =         0.00000000
  -V(xc)+E(xc)   XCENC  =       690.09753547
  PAW double counting   =     39144.37900376   -38969.56958520
  entropy T*S    EENTRO =         0.00000000
  eigenvalues    EBANDS =     -2001.47678462
  atomic energy  EATOM  =     15501.99929693
  Solvation  Ediel_sol  =         0.00000000
  ---------------------------------------------------
  free energy    TOTEN  =      -229.31469428 eV

  energy without entropy =     -229.31469428  energy(sigma->0) =     -229.31469428


--------------------------------------------------------------------------------------------------------




--------------------------------------- Iteration      1(  14)  ---------------------------------------


    POTLOK:  cpu time      0.5182: real time      0.5195
    SETDIJ:  cpu time     12.8635: real time     12.8707
     EDDAV:  cpu time     54.4838: real time     54.5208
 BZINTS: Fermi energy:    0.081578;  336.000000 electrons
         Band energy:-0.201194E+04;  BLOECHL correction:    0.000000
       DOS:  cpu time      0.0260: real time      0.0263
    CHARGE:  cpu time     13.0221: real time     13.0290
    MIXING:  cpu time      0.0211: real time      0.0211
    --------------------------------------------
      LOOP:  cpu time     80.9346: real time     80.9873

 eigenvalue-minimisations  :  9024
 total energy-change (2. order) :-0.6522888E-01  (-0.1624502E-01)
 number of electron     335.9999997 magnetization       0.4165658
 augmentation part      -47.0004331 magnetization       0.4236443

 Broyden mixing:
  rms(total) = 0.43739E-01    rms(broyden)= 0.43739E-01
  rms(prec ) = 0.46440E-01
  weight for this iteration     100.00

 eigenvalues of (default mixing * dielectric matrix)
  average eigenvalue GAMMA=   1.5782
  4.1310  2.5558  2.5558  1.0964  1.0964  0.7711  0.7711  0.5746  0.6522

 Free energy of the ion-electron system (eV)
  ---------------------------------------------------
  alpha Z        PSCENC =       253.99581917
  Ewald energy   TEWEN  =     -9971.12987152
  -Hartree energ DENC   =     -4866.25601316
  -exchange      EXHF   =         0.00000000
  -V(xc)+E(xc)   XCENC  =       689.18503414
  PAW double counting   =     39082.37729480   -38907.61330865
  entropy T*S    EENTRO =         0.00000000
  eigenvalues    EBANDS =     -2011.93817487
  atomic energy  EATOM  =     15501.99929693
  Solvation  Ediel_sol  =         0.00000000
  ---------------------------------------------------
  free energy    TOTEN  =      -229.37992315 eV

  energy without entropy =     -229.37992315  energy(sigma->0) =     -229.37992315


--------------------------------------------------------------------------------------------------------




--------------------------------------- Iteration      1(  15)  ---------------------------------------


    POTLOK:  cpu time      0.5346: real time      0.5354
    SETDIJ:  cpu time      5.9828: real time      5.9860
     EDDAV:  cpu time     55.6561: real time     55.6911
 BZINTS: Fermi energy:    0.079554;  336.000000 electrons
         Band energy:-0.201167E+04;  BLOECHL correction:    0.000000
       DOS:  cpu time      0.0262: real time      0.0263
    CHARGE:  cpu time      7.0720: real time      7.0756
    MIXING:  cpu time      0.0127: real time      0.0127
    --------------------------------------------
      LOOP:  cpu time     69.2844: real time     69.3271

 eigenvalue-minimisations  :  9600
 total energy-change (2. order) : 0.1226114E-02  (-0.2075893E-02)
 number of electron     335.9999997 magnetization       0.1720898
 augmentation part      -46.9944243 magnetization       0.1763699

 Broyden mixing:
  rms(total) = 0.20189E-01    rms(broyden)= 0.20189E-01
  rms(prec ) = 0.21769E-01
  weight for this iteration     100.00

 eigenvalues of (default mixing * dielectric matrix)
  average eigenvalue GAMMA=   1.5645
  4.5539  2.5278  2.5278  1.3313  0.9974  0.9974  0.7582  0.7582  0.6240  0.5690

 Free energy of the ion-electron system (eV)
  ---------------------------------------------------
  alpha Z        PSCENC =       253.99581917
  Ewald energy   TEWEN  =     -9971.12987152
  -Hartree energ DENC   =     -4866.39160584
  -exchange      EXHF   =         0.00000000
  -V(xc)+E(xc)   XCENC  =       689.14438431
  PAW double counting   =     39167.59862707   -38992.92143618
  entropy T*S    EENTRO =         0.00000000
  eigenvalues    EBANDS =     -2011.67391099
  atomic energy  EATOM  =     15501.99929693
  Solvation  Ediel_sol  =         0.00000000
  ---------------------------------------------------
  free energy    TOTEN  =      -229.37869704 eV

  energy without entropy =     -229.37869704  energy(sigma->0) =     -229.37869704


--------------------------------------------------------------------------------------------------------




--------------------------------------- Iteration      1(  16)  ---------------------------------------


    POTLOK:  cpu time      0.4343: real time      0.4351
    SETDIJ:  cpu time      6.7391: real time      6.7438
     EDDAV:  cpu time     54.8788: real time     54.9129
 BZINTS: Fermi energy:    0.077760;  336.000000 electrons
         Band energy:-0.201213E+04;  BLOECHL correction:    0.000000
       DOS:  cpu time      0.0277: real time      0.0278
    CHARGE:  cpu time     13.0414: real time     13.0485
    MIXING:  cpu time      0.0396: real time      0.0396
    --------------------------------------------
      LOOP:  cpu time     75.1608: real time     75.2076

 eigenvalue-minimisations  :  9152
 total energy-change (2. order) : 0.3126903E-02  (-0.5511305E-03)
 number of electron     335.9999997 magnetization       0.0693978
 augmentation part      -46.9932446 magnetization       0.0702076

 Broyden mixing:
  rms(total) = 0.12286E-01    rms(broyden)= 0.12286E-01
  rms(prec ) = 0.13301E-01
  weight for this iteration     100.00

 eigenvalues of (default mixing * dielectric matrix)
  average eigenvalue GAMMA=   1.5465
  4.7588  2.4273  2.4273  1.8402  0.9954  0.9954  0.9238  0.7278  0.7278  0.5802
  0.6073

 Free energy of the ion-electron system (eV)
  ---------------------------------------------------
  alpha Z        PSCENC =       253.99581917
  Ewald energy   TEWEN  =     -9971.12987152
  -Hartree energ DENC   =     -4865.84397221
  -exchange      EXHF   =         0.00000000
  -V(xc)+E(xc)   XCENC  =       689.07717395
  PAW double counting   =     39138.41922532   -38963.76599074
  entropy T*S    EENTRO =         0.00000000
  eigenvalues    EBANDS =     -2012.12725104
  atomic energy  EATOM  =     15501.99929693
  Solvation  Ediel_sol  =         0.00000000
  ---------------------------------------------------
  free energy    TOTEN  =      -229.37557014 eV

  energy without entropy =     -229.37557014  energy(sigma->0) =     -229.37557014


--------------------------------------------------------------------------------------------------------




--------------------------------------- Iteration      1(  17)  ---------------------------------------


    POTLOK:  cpu time      0.5832: real time      0.5847
    SETDIJ:  cpu time      8.9526: real time      8.9567
     EDDAV:  cpu time     49.0686: real time     49.0973
 BZINTS: Fermi energy:    0.079717;  336.000000 electrons
         Band energy:-0.201121E+04;  BLOECHL correction:    0.000000
       DOS:  cpu time      0.0260: real time      0.0261
    CHARGE:  cpu time     13.2111: real time     13.2176
    MIXING:  cpu time      0.0236: real time      0.0236
    --------------------------------------------
      LOOP:  cpu time     71.8650: real time     71.9059

 eigenvalue-minimisations  :  9504
 total energy-change (2. order) :-0.5058740E-03  (-0.1190756E-03)
 number of electron     335.9999997 magnetization       0.0176611
 augmentation part      -46.9882022 magnetization       0.0180527

 Broyden mixing:
  rms(total) = 0.49272E-02    rms(broyden)= 0.49271E-02
  rms(prec ) = 0.55300E-02
  weight for this iteration     100.00

 eigenvalues of (default mixing * dielectric matrix)
  average eigenvalue GAMMA=   1.5759
  4.9486  2.6011  2.6011  2.2025  1.1765  0.9962  0.9962  0.7619  0.7619  0.6804
  0.5864  0.5985

 Free energy of the ion-electron system (eV)
  ---------------------------------------------------
  alpha Z        PSCENC =       253.99581917
  Ewald energy   TEWEN  =     -9971.12987152
  -Hartree energ DENC   =     -4866.79754039
  -exchange      EXHF   =         0.00000000
  -V(xc)+E(xc)   XCENC  =       689.13647256
  PAW double counting   =     39178.98555305   -39004.35646107
  entropy T*S    EENTRO =         0.00000000
  eigenvalues    EBANDS =     -2011.20934475
  atomic energy  EATOM  =     15501.99929693
  Solvation  Ediel_sol  =         0.00000000
  ---------------------------------------------------
  free energy    TOTEN  =      -229.37607601 eV

  energy without entropy =     -229.37607601  energy(sigma->0) =     -229.37607601


--------------------------------------------------------------------------------------------------------




--------------------------------------- Iteration      1(  18)  ---------------------------------------


    POTLOK:  cpu time      0.4788: real time      0.4810
    SETDIJ:  cpu time     11.8145: real time     11.8205
     EDDAV:  cpu time     55.3653: real time     55.3989
 BZINTS: Fermi energy:    0.080720;  336.000000 electrons
         Band energy:-0.201069E+04;  BLOECHL correction:    0.000000
       DOS:  cpu time      0.0268: real time      0.0269
    CHARGE:  cpu time      5.9010: real time      5.9044
    MIXING:  cpu time      0.0169: real time      0.0170
    --------------------------------------------
      LOOP:  cpu time     73.6033: real time     73.6487

 eigenvalue-minimisations  :  9440
 total energy-change (2. order) :-0.1142273E-03  (-0.3962411E-04)
 number of electron     335.9999997 magnetization       0.0050438
 augmentation part      -46.9848666 magnetization       0.0055812

 Broyden mixing:
  rms(total) = 0.44537E-02    rms(broyden)= 0.44536E-02
  rms(prec ) = 0.47069E-02
  weight for this iteration     100.00

 eigenvalues of (default mixing * dielectric matrix)
  average eigenvalue GAMMA=   1.5445
  5.0027  2.6452  2.6452  2.2646  1.1304  1.1304  0.9904  0.9904  0.7250  0.7250
  0.5780  0.6442  0.6067

 Free energy of the ion-electron system (eV)
  ---------------------------------------------------
  alpha Z        PSCENC =       253.99581917
  Ewald energy   TEWEN  =     -9971.12987152
  -Hartree energ DENC   =     -4867.34175554
  -exchange      EXHF   =         0.00000000
  -V(xc)+E(xc)   XCENC  =       689.17178074
  PAW double counting   =     39207.76534923   -39033.15110610
  entropy T*S    EENTRO =         0.00000000
  eigenvalues    EBANDS =     -2010.68570316
  atomic energy  EATOM  =     15501.99929693
  Solvation  Ediel_sol  =         0.00000000
  ---------------------------------------------------
  free energy    TOTEN  =      -229.37619024 eV

  energy without entropy =     -229.37619024  energy(sigma->0) =     -229.37619024


--------------------------------------------------------------------------------------------------------




--------------------------------------- Iteration      1(  19)  ---------------------------------------


    POTLOK:  cpu time      0.4378: real time      0.4388
    SETDIJ:  cpu time     11.2707: real time     11.2762
     EDDAV:  cpu time     57.5581: real time     57.5940
 BZINTS: Fermi energy:    0.080087;  336.000000 electrons
         Band energy:-0.201095E+04;  BLOECHL correction:    0.000000
       DOS:  cpu time      0.0264: real time      0.0265
    CHARGE:  cpu time      8.2126: real time      8.2170
    MIXING:  cpu time      0.0175: real time      0.0175
    --------------------------------------------
      LOOP:  cpu time     77.5231: real time     77.5699

 eigenvalue-minimisations  :  9824
 total energy-change (2. order) :-0.6312279E-05  (-0.6188109E-05)
 number of electron     335.9999997 magnetization      -0.0005768
 augmentation part      -46.9856949 magnetization      -0.0003350

 Broyden mixing:
  rms(total) = 0.20227E-02    rms(broyden)= 0.20226E-02
  rms(prec ) = 0.21982E-02
  weight for this iteration     100.00

 eigenvalues of (default mixing * dielectric matrix)
  average eigenvalue GAMMA=   1.5454
  5.0457  2.7067  2.7067  2.1086  1.4087  1.4087  1.0328  1.0328  0.8579  0.7539
  0.7539  0.5795  0.6094  0.6307

 Free energy of the ion-electron system (eV)
  ---------------------------------------------------
  alpha Z        PSCENC =       253.99581917
  Ewald energy   TEWEN  =     -9971.12987152
  -Hartree energ DENC   =     -4867.06819167
  -exchange      EXHF   =         0.00000000
  -V(xc)+E(xc)   XCENC  =       689.15490720
  PAW double counting   =     39206.40588962   -39031.78853203
  entropy T*S    EENTRO =         0.00000000
  eigenvalues    EBANDS =     -2010.94551426
  atomic energy  EATOM  =     15501.99929693
  Solvation  Ediel_sol  =         0.00000000
  ---------------------------------------------------
  free energy    TOTEN  =      -229.37619655 eV

  energy without entropy =     -229.37619655  energy(sigma->0) =     -229.37619655


--------------------------------------------------------------------------------------------------------




--------------------------------------- Iteration      1(  20)  ---------------------------------------


    POTLOK:  cpu time      0.4837: real time      0.4874
    SETDIJ:  cpu time      9.2495: real time      9.2543
     EDDAV:  cpu time     55.2915: real time     55.3261
 BZINTS: Fermi energy:    0.079762;  336.000000 electrons
         Band energy:-0.201108E+04;  BLOECHL correction:    0.000000
       DOS:  cpu time      0.0260: real time      0.0260
    CHARGE:  cpu time     11.7030: real time     11.7095
    MIXING:  cpu time      0.0165: real time      0.0165
    --------------------------------------------
      LOOP:  cpu time     76.7702: real time     76.8200

 eigenvalue-minimisations  :  9184
 total energy-change (2. order) :-0.1040586E-04  (-0.3446957E-05)
 number of electron     335.9999997 magnetization      -0.0016517
 augmentation part      -46.9862272 magnetization      -0.0015733

 Broyden mixing:
  rms(total) = 0.95125E-03    rms(broyden)= 0.95113E-03
  rms(prec ) = 0.10108E-02
  weight for this iteration     100.00

 eigenvalues of (default mixing * dielectric matrix)
  average eigenvalue GAMMA=   1.5470
  5.0953  2.7080  2.7080  2.0983  2.0983  1.2310  1.2310  0.9899  0.9899  0.7797
  0.7330  0.7330  0.5775  0.6158  0.6158

 Free energy of the ion-electron system (eV)
  ---------------------------------------------------
  alpha Z        PSCENC =       253.99581917
  Ewald energy   TEWEN  =     -9971.12987152
  -Hartree energ DENC   =     -4866.92435937
  -exchange      EXHF   =         0.00000000
  -V(xc)+E(xc)   XCENC  =       689.14781998
  PAW double counting   =     39211.53686637   -39036.91758777
  entropy T*S    EENTRO =         0.00000000
  eigenvalues    EBANDS =     -2011.08419075
  atomic energy  EATOM  =     15501.99929693
  Solvation  Ediel_sol  =         0.00000000
  ---------------------------------------------------
  free energy    TOTEN  =      -229.37620696 eV

  energy without entropy =     -229.37620696  energy(sigma->0) =     -229.37620696


--------------------------------------------------------------------------------------------------------




--------------------------------------- Iteration      1(  21)  ---------------------------------------


    POTLOK:  cpu time      0.4273: real time      0.4283
    SETDIJ:  cpu time      9.7117: real time      9.7166
     EDDAV:  cpu time     56.4483: real time     56.4840
 BZINTS: Fermi energy:    0.079464;  336.000000 electrons
         Band energy:-0.201114E+04;  BLOECHL correction:    0.000000
       DOS:  cpu time      0.0283: real time      0.0283
    CHARGE:  cpu time      8.4903: real time      8.4948
    MIXING:  cpu time      0.0220: real time      0.0220
    --------------------------------------------
      LOOP:  cpu time     75.1278: real time     75.1740

 eigenvalue-minimisations  :  9216
 total energy-change (2. order) : 0.1096789E-05  (-0.8818240E-06)
 number of electron     335.9999997 magnetization      -0.0013579
 augmentation part      -46.9864250 magnetization      -0.0013621

 Broyden mixing:
  rms(total) = 0.42532E-03    rms(broyden)= 0.42504E-03
  rms(prec ) = 0.44754E-03
  weight for this iteration     100.00

 eigenvalues of (default mixing * dielectric matrix)
  average eigenvalue GAMMA=   1.5118
  5.0970  2.6678  2.6678  2.5691  1.6187  1.3941  1.1552  1.1552  0.9287  0.9287
  0.7394  0.7394  0.7249  0.5772  0.6126  0.6126

 Free energy of the ion-electron system (eV)
  ---------------------------------------------------
  alpha Z        PSCENC =       253.99581917
  Ewald energy   TEWEN  =     -9971.12987152
  -Hartree energ DENC   =     -4866.86462996
  -exchange      EXHF   =         0.00000000
  -V(xc)+E(xc)   XCENC  =       689.14416075
  PAW double counting   =     39210.96634858   -39036.34624312
  entropy T*S    EENTRO =         0.00000000
  eigenvalues    EBANDS =     -2011.14108670
  atomic energy  EATOM  =     15501.99929693
  Solvation  Ediel_sol  =         0.00000000
  ---------------------------------------------------
  free energy    TOTEN  =      -229.37620586 eV

  energy without entropy =     -229.37620586  energy(sigma->0) =     -229.37620586


--------------------------------------------------------------------------------------------------------




--------------------------------------- Iteration      1(  22)  ---------------------------------------


    POTLOK:  cpu time      0.4758: real time      0.4829
    SETDIJ:  cpu time      9.2591: real time      9.2644
     EDDAV:  cpu time     60.1507: real time     60.1873
 BZINTS: Fermi energy:    0.079362;  336.000000 electrons
         Band energy:-0.201116E+04;  BLOECHL correction:    0.000000
       DOS:  cpu time      0.0289: real time      0.0290
    CHARGE:  cpu time      7.3151: real time      7.3194
    MIXING:  cpu time      0.0158: real time      0.0158
    --------------------------------------------
      LOOP:  cpu time     77.2454: real time     77.2987

 eigenvalue-minimisations  :  9856
 total energy-change (2. order) : 0.4458198E-06  (-0.1409724E-06)
 number of electron     335.9999997 magnetization      -0.0004739
 augmentation part      -46.9864945 magnetization      -0.0004957

 Broyden mixing:
  rms(total) = 0.23132E-03    rms(broyden)= 0.23082E-03
  rms(prec ) = 0.24560E-03
  weight for this iteration     100.00

 eigenvalues of (default mixing * dielectric matrix)
  average eigenvalue GAMMA=   1.5005
  5.0913  2.6562  2.6562  2.6228  1.6718  1.4406  1.4406  1.0834  1.0834  0.9006
  0.9006  0.7424  0.7424  0.6732  0.5783  0.6126  0.6126

 Free energy of the ion-electron system (eV)
  ---------------------------------------------------
  alpha Z        PSCENC =       253.99581917
  Ewald energy   TEWEN  =     -9971.12987152
  -Hartree energ DENC   =     -4866.84282646
  -exchange      EXHF   =         0.00000000
  -V(xc)+E(xc)   XCENC  =       689.14256857
  PAW double counting   =     39209.54958544   -39034.92917231
  entropy T*S    EENTRO =         0.00000000
  eigenvalues    EBANDS =     -2011.16160524
  atomic energy  EATOM  =     15501.99929693
  Solvation  Ediel_sol  =         0.00000000
  ---------------------------------------------------
  free energy    TOTEN  =      -229.37620541 eV

  energy without entropy =     -229.37620541  energy(sigma->0) =     -229.37620541


--------------------------------------------------------------------------------------------------------




--------------------------------------- Iteration      1(  23)  ---------------------------------------


    POTLOK:  cpu time      0.4366: real time      0.4378
    SETDIJ:  cpu time      6.6243: real time      6.6278
     EDDAV:  cpu time     54.1546: real time     54.1879
 BZINTS: Fermi energy:    0.079385;  336.000000 electrons
         Band energy:-0.201116E+04;  BLOECHL correction:    0.000000
       DOS:  cpu time      0.0277: real time      0.0277
    CHARGE:  cpu time     19.2273: real time     19.2371
    MIXING:  cpu time      0.0112: real time      0.0112
    --------------------------------------------
      LOOP:  cpu time     80.4817: real time     80.5296

 eigenvalue-minimisations  :  9216
 total energy-change (2. order) :-0.2333618E-06  (-0.5775500E-07)
 number of electron     335.9999997 magnetization      -0.0002593
 augmentation part      -46.9864669 magnetization      -0.0002556

 Broyden mixing:
[...]

  length of vectors
    10.314108670 16.788494411 10.846477853     0.097707938  0.059564603  0.092912216


 FORCES acting on ions
    electron-ion (+dipol)            ewald-force                    non-local-force                 convergence-correction
 -----------------------------------------------------------------------------------------------
   0.986E+02 -.105E+03 -.126E+02   -.104E+03 0.113E+03 0.112E+02   0.495E+01 -.888E+01 0.132E+01   0.174E-05 -.364E-06 0.813E-06
   0.986E+02 -.105E+03 -.124E+02   -.104E+03 0.113E+03 0.110E+02   0.495E+01 -.889E+01 0.133E+01   0.160E-05 -.399E-06 0.834E-06
   -.123E+02 0.420E+02 -.127E+03   0.126E+02 -.472E+02 0.134E+03   -.245E+00 0.519E+01 -.705E+01   0.155E-06 0.885E-07 -.112E-05
   -.124E+02 0.420E+02 -.127E+03   0.126E+02 -.472E+02 0.134E+03   -.246E+00 0.519E+01 -.705E+01   0.687E-07 0.989E-07 -.126E-05
   -.203E+02 -.894E+02 0.986E+02   0.190E+02 0.981E+02 -.104E+03   0.123E+01 -.881E+01 0.532E+01   -.295E-07 -.200E-06 0.179E-05
   -.212E+02 -.902E+02 0.981E+02   0.198E+02 0.989E+02 -.103E+03   0.134E+01 -.874E+01 0.530E+01   -.708E-07 -.148E-06 0.189E-05
   -.108E+03 0.950E+02 0.623E+01   0.114E+03 -.101E+03 -.412E+01   -.534E+01 0.592E+01 -.212E+01   -.158E-05 -.572E-07 0.666E-06
   -.108E+03 0.950E+02 0.626E+01   0.114E+03 -.101E+03 -.415E+01   -.534E+01 0.592E+01 -.212E+01   -.181E-05 0.213E-07 0.682E-06
   0.136E+03 -.540E+02 -.187E+02   -.143E+03 0.595E+02 0.192E+02   0.680E+01 -.552E+01 -.558E+00   0.164E-05 -.647E-07 -.102E-05
   0.136E+03 -.539E+02 -.187E+02   -.143E+03 0.595E+02 0.193E+02   0.680E+01 -.552E+01 -.558E+00   0.152E-05 -.139E-07 -.102E-05
   -.137E+03 0.541E+02 0.179E+02   0.143E+03 -.597E+02 -.185E+02   -.682E+01 0.553E+01 0.542E+00   -.151E-05 -.873E-07 0.102E-05
   -.136E+03 0.540E+02 0.187E+02   0.143E+03 -.595E+02 -.193E+02   -.680E+01 0.552E+01 0.558E+00   -.164E-05 -.887E-07 0.105E-05
   0.108E+03 -.950E+02 -.620E+01   -.114E+03 0.101E+03 0.408E+01   0.534E+01 -.592E+01 0.212E+01   0.172E-05 -.938E-08 -.692E-06
   0.108E+03 -.950E+02 -.626E+01   -.114E+03 0.101E+03 0.414E+01   0.534E+01 -.592E+01 0.212E+01   0.165E-05 -.472E-07 -.668E-06
   -.124E+02 -.420E+02 0.127E+03   0.126E+02 0.472E+02 -.134E+03   -.246E+00 -.519E+01 0.705E+01   0.147E-06 -.284E-07 0.123E-05
   -.123E+02 -.420E+02 0.127E+03   0.126E+02 0.472E+02 -.134E+03   -.246E+00 -.519E+01 0.705E+01   0.330E-07 0.112E-07 0.121E-05
   0.212E+02 -.902E+02 0.981E+02   -.199E+02 0.989E+02 -.103E+03   -.134E+01 -.874E+01 0.530E+01   0.943E-07 0.891E-07 0.170E-05
   0.211E+02 -.902E+02 0.981E+02   -.197E+02 0.989E+02 -.103E+03   -.134E+01 -.874E+01 0.530E+01   0.673E-07 0.781E-07 0.182E-05
   -.986E+02 -.105E+03 -.126E+02   0.104E+03 0.113E+03 0.112E+02   -.495E+01 -.888E+01 0.132E+01   -.157E-05 -.118E-06 0.818E-06
   -.987E+02 -.105E+03 -.125E+02   0.104E+03 0.113E+03 0.112E+02   -.495E+01 -.888E+01 0.132E+01   -.175E-05 -.111E-06 0.748E-06
   -.136E+03 -.539E+02 -.187E+02   0.143E+03 0.595E+02 0.192E+02   -.680E+01 -.552E+01 -.558E+00   -.158E-05 0.187E-07 -.104E-05
   -.136E+03 -.540E+02 -.187E+02   0.143E+03 0.595E+02 0.193E+02   -.680E+01 -.552E+01 -.557E+00   -.160E-05 0.702E-08 -.104E-05
   0.124E+02 0.420E+02 -.127E+03   -.127E+02 -.472E+02 0.134E+03   0.250E+00 0.520E+01 -.705E+01   -.928E-07 -.102E-06 -.108E-05
   0.123E+02 0.420E+02 -.127E+03   -.126E+02 -.472E+02 0.134E+03   0.246E+00 0.519E+01 -.705E+01   -.959E-07 -.933E-07 -.119E-05
   -.108E+03 -.950E+02 -.627E+01   0.114E+03 0.101E+03 0.416E+01   -.534E+01 -.592E+01 0.212E+01   -.167E-05 0.143E-06 -.711E-06
   -.108E+03 -.950E+02 -.625E+01   0.114E+03 0.101E+03 0.413E+01   -.534E+01 -.592E+01 0.212E+01   -.170E-05 0.133E-06 -.690E-06
   0.987E+02 0.105E+03 0.125E+02   -.104E+03 -.113E+03 -.112E+02   0.495E+01 0.888E+01 -.132E+01   0.172E-05 0.349E-06 -.754E-06
   0.986E+02 0.105E+03 0.125E+02   -.104E+03 -.113E+03 -.112E+02   0.495E+01 0.888E+01 -.132E+01   0.165E-05 0.296E-06 -.808E-06
   -.986E+02 0.105E+03 0.125E+02   0.104E+03 -.113E+03 -.112E+02   -.495E+01 0.888E+01 -.132E+01   -.165E-05 0.161E-06 -.749E-06
   -.987E+02 0.105E+03 0.125E+02   0.104E+03 -.113E+03 -.112E+02   -.495E+01 0.888E+01 -.132E+01   -.169E-05 0.179E-06 -.793E-06
   0.728E+02 0.961E+02 0.633E+02   -.755E+02 -.106E+03 -.653E+02   0.274E+01 0.971E+01 0.207E+01   0.901E-06 0.287E-06 0.596E-06
   0.728E+02 0.962E+02 0.632E+02   -.755E+02 -.106E+03 -.653E+02   0.274E+01 0.971E+01 0.207E+01   0.795E-06 0.293E-06 0.517E-06
   0.218E+02 -.937E+02 -.888E+02   -.204E+02 0.100E+03 0.939E+02   -.133E+01 -.628E+01 -.509E+01   0.331E-06 0.703E-07 -.153E-05
   0.218E+02 -.938E+02 -.889E+02   -.204E+02 0.100E+03 0.940E+02   -.133E+01 -.628E+01 -.509E+01   0.227E-06 0.721E-08 -.144E-05
   -.211E+02 0.902E+02 -.980E+02   0.198E+02 -.990E+02 0.103E+03   0.134E+01 0.874E+01 -.530E+01   -.234E-07 0.144E-06 -.192E-05
   -.211E+02 0.902E+02 -.981E+02   0.198E+02 -.989E+02 0.103E+03   0.134E+01 0.874E+01 -.530E+01   -.131E-06 0.122E-06 -.186E-05
   -.218E+02 0.937E+02 0.889E+02   0.204E+02 -.100E+03 -.940E+02   0.133E+01 0.628E+01 0.509E+01   -.214E-06 -.864E-07 0.137E-05
   -.219E+02 0.938E+02 0.889E+02   0.205E+02 -.100E+03 -.940E+02   0.133E+01 0.628E+01 0.509E+01   -.341E-06 -.391E-07 0.151E-05
   0.211E+02 0.902E+02 -.980E+02   -.197E+02 -.989E+02 0.103E+03   -.134E+01 0.874E+01 -.530E+01   0.106E-06 -.559E-07 -.185E-05
   0.210E+02 0.902E+02 -.981E+02   -.197E+02 -.990E+02 0.103E+03   -.134E+01 0.874E+01 -.530E+01   0.113E-07 -.307E-07 -.182E-05
   0.728E+02 -.961E+02 -.632E+02   -.756E+02 0.106E+03 0.653E+02   0.274E+01 -.971E+01 -.207E+01   0.829E-06 -.276E-06 -.467E-06
   0.727E+02 -.961E+02 -.633E+02   -.755E+02 0.106E+03 0.653E+02   0.274E+01 -.971E+01 -.207E+01   0.883E-06 -.289E-06 -.548E-06
   0.136E+03 0.540E+02 0.187E+02   -.143E+03 -.595E+02 -.193E+02   0.680E+01 0.552E+01 0.558E+00   0.152E-05 0.112E-06 0.996E-06
   0.136E+03 0.540E+02 0.187E+02   -.143E+03 -.595E+02 -.193E+02   0.680E+01 0.552E+01 0.558E+00   0.166E-05 0.813E-07 0.100E-05
   0.108E+03 0.950E+02 0.624E+01   -.114E+03 -.101E+03 -.412E+01   0.534E+01 0.592E+01 -.212E+01   0.174E-05 -.416E-07 0.682E-06
   0.108E+03 0.949E+02 0.640E+01   -.114E+03 -.101E+03 -.427E+01   0.536E+01 0.593E+01 -.214E+01   0.157E-05 -.954E-07 0.697E-06
   -.726E+02 -.962E+02 -.634E+02   0.754E+02 0.106E+03 0.654E+02   -.275E+01 -.969E+01 -.205E+01   -.805E-06 -.570E-06 -.438E-06
   -.728E+02 -.961E+02 -.632E+02   0.756E+02 0.106E+03 0.653E+02   -.274E+01 -.971E+01 -.207E+01   -.896E-06 -.531E-06 -.545E-06
   -.218E+02 -.938E+02 -.889E+02   0.205E+02 0.100E+03 0.940E+02   0.133E+01 -.628E+01 -.509E+01   -.253E-06 0.142E-06 -.149E-05
   -.218E+02 -.937E+02 -.889E+02   0.205E+02 0.100E+03 0.940E+02   0.133E+01 -.628E+01 -.509E+01   -.341E-06 0.194E-06 -.151E-05
   0.218E+02 0.928E+02 0.888E+02   -.205E+02 -.991E+02 -.939E+02   -.129E+01 0.635E+01 0.511E+01   0.264E-06 -.144E-06 0.138E-05
   0.218E+02 0.938E+02 0.889E+02   -.204E+02 -.100E+03 -.940E+02   -.133E+01 0.628E+01 0.509E+01   0.295E-06 -.137E-06 0.146E-05
   -.728E+02 0.962E+02 0.633E+02   0.755E+02 -.106E+03 -.653E+02   -.274E+01 0.971E+01 0.207E+01   -.832E-06 0.528E-06 0.547E-06
   -.728E+02 0.961E+02 0.633E+02   0.755E+02 -.106E+03 -.653E+02   -.274E+01 0.971E+01 0.207E+01   -.913E-06 0.532E-06 0.536E-06
   0.124E+02 -.420E+02 0.127E+03   -.126E+02 0.472E+02 -.134E+03   0.246E+00 -.519E+01 0.705E+01   -.371E-07 0.469E-07 0.128E-05
   0.123E+02 -.420E+02 0.127E+03   -.126E+02 0.472E+02 -.134E+03   0.245E+00 -.519E+01 0.705E+01   -.161E-06 -.145E-07 0.120E-05
 -----------------------------------------------------------------------------------------------
   0.755E-01 -.282E-01 -.281E-01   0.639E-13 0.114E-12 -.114E-12   -.755E-01 0.282E-01 0.281E-01   -.282E-07 -.102E-07 0.610E-08


 POSITION                                       TOTAL-FORCE (eV/Angst)
 -----------------------------------------------------------------------------------
      7.84031      7.96182     -7.59135         0.002558     -0.001210      0.000966
     16.23455      7.96182     -7.59135        -0.000240      0.001983      0.008918
      3.16872      2.44282     -6.01943         0.002286     -0.000817     -0.002518
     11.56297      2.44282     -6.01943         0.002146     -0.000839     -0.002516
      1.77685      7.82725    -10.10485        -0.079299     -0.045043     -0.020808
     10.16110      7.82725    -10.10485        -0.000093     -0.000031     -0.000461
      5.05050      1.12562     -8.40433         0.001817     -0.000645     -0.000818
     13.44475      1.12562     -8.40433         0.001591     -0.000596     -0.000712
      5.13205      1.09979     -2.45651        -0.000136      0.000500     -0.000321
     13.52630      1.09979     -2.45651        -0.000188      0.000657     -0.000274
      3.26219      7.47505     -8.62356         0.036337     -0.022142      0.011298
     11.65644      7.47505     -8.62356         0.000080     -0.000435      0.000298
      3.34375      7.44923     -2.67574        -0.001648      0.000529      0.000873
     11.73799      7.44923     -2.67574        -0.001621      0.000595      0.000667
      7.36585      0.97835     -4.87422         0.002133      0.000911      0.002518
     15.76010      0.97835     -4.87422         0.002204      0.000851      0.002475
      2.43027      2.67356     -9.91842        -0.000428      0.000427     -0.000399
     10.82452      2.67356     -9.91842         0.000084     -0.000027     -0.000477
      4.75106      2.80814     -7.40493        -0.002535     -0.001315      0.001218
     13.14531      2.80814     -7.40493        -0.002504     -0.001357      0.000941
      7.45932      6.25348     -2.64294         0.000118      0.000292     -0.000385
     15.85356      6.25348     -2.64294         0.000212      0.000606     -0.000191
      1.02840      7.59650     -6.20585        -0.004165     -0.001835     -0.006332
      9.42265      7.59650     -6.20585        -0.002120     -0.000872     -0.002492
      0.85338      2.29554     -2.48931         0.001663      0.000612      0.000754
      9.24762      2.29554     -2.48931         0.001521      0.000577      0.000700
      3.64318      5.76671     -3.67515         0.002445      0.001465     -0.000903
     12.03743      5.76671     -3.67515         0.002366      0.001246     -0.000925
      0.55394      0.61303     -3.48872        -0.002524      0.001316     -0.000965
      8.94819      0.61303     -3.48872        -0.002446      0.001275     -0.000929
      5.79350     -0.03143     -4.03202        -0.001202      0.001746      0.000250
     14.18775     -0.03143     -4.03202        -0.001233      0.001692      0.000218
      4.85766      7.53946     -1.03917        -0.003908      0.001657     -0.000170
     13.25190      7.53946     -1.03917        -0.003845      0.002005     -0.000357
      5.96398      5.90128     -1.16165         0.000029      0.000176      0.000283
     14.35822      5.90128     -1.16165         0.000027      0.000068      0.000443
      3.53659      1.03539    -10.04090         0.004291     -0.001980      0.000178
     11.93084      1.03539    -10.04090         0.003951     -0.002020      0.000273
      6.62739      0.74760     -0.97522         0.000101     -0.000080      0.000424
     15.02164      0.74760     -0.97522         0.000376     -0.000177      0.000495
      1.59638      3.45260     -6.86163        -0.001317     -0.001862     -0.000518
      9.99063      3.45260     -6.86163        -0.001199     -0.001793     -0.000195
      0.93493      2.32137     -8.43713         0.000078     -0.000427      0.000408
      9.32918      2.32137     -8.43713        -0.000118     -0.000440      0.000278
      7.54087      6.27930     -8.59076        -0.001590     -0.000684     -0.000734
     15.93512      6.27930     -8.59076         0.014238      0.009412     -0.013053
      2.60074      8.60628     -7.04805        -0.006137      0.009114      0.011385
     10.99499      8.60628     -7.04805         0.001181     -0.001791     -0.000225
      7.73371      2.38578     -0.85274         0.003975      0.002131     -0.000231
     16.12796      2.38578     -0.85274         0.003735      0.001973     -0.000261
      0.66053      6.18907    -10.22733         0.034443      0.041255      0.006104
      9.05478      6.18907    -10.22733        -0.003899     -0.002013      0.000240
      6.79787      5.12225     -4.21845         0.001445      0.001737      0.000155
     15.19211      5.12225     -4.21845         0.001298      0.001684      0.000423
      5.22552      6.13203     -5.06065        -0.002128      0.000874      0.002542
     13.61977      6.13203     -5.06065        -0.002208      0.001064      0.002444
 -----------------------------------------------------------------------------------
    total drift:                                0.000002     -0.000003     -0.000001


--------------------------------------------------------------------------------------------------------



  FREE ENERGIE OF THE ION-ELECTRON SYSTEM (eV)
  ---------------------------------------------------
  free  energy   TOTEN  =      -229.37620545 eV

  energy  without entropy=     -229.37620545  energy(sigma->0) =     -229.37620545



--------------------------------------------------------------------------------------------------------


    POTLOK:  cpu time      6.4009: real time      6.4096


--------------------------------------------------------------------------------------------------------


     LOOP+:  cpu time   2676.7259: real time   2678.3695
    4ORBIT:  cpu time      0.0000: real time      0.0000



 total charge

# of ion       s       p       d       tot
------------------------------------------
    1        1.376   2.247   0.000   3.623
    2        1.376   2.247   0.000   3.623
    3        1.376   2.258   0.000   3.635
    4        1.376   2.258   0.000   3.635
    5        1.376   2.246   0.000   3.622
    6        1.376   2.247   0.000   3.622
    7        1.375   2.262   0.000   3.638
    8        1.375   2.262   0.000   3.638
    9        1.377   2.257   0.000   3.634
   10        1.377   2.257   0.000   3.634
   11        1.377   2.259   0.000   3.635
   12        1.377   2.257   0.000   3.634
   13        1.375   2.262   0.000   3.638
   14        1.375   2.262   0.000   3.638
   15        1.376   2.258   0.000   3.635
   16        1.376   2.258   0.000   3.635
   17        1.376   2.247   0.000   3.622
   18        1.376   2.247   0.000   3.623
   19        1.376   2.247   0.000   3.623
   20        1.376   2.247   0.000   3.623
   21        1.377   2.257   0.000   3.634
   22        1.377   2.257   0.000   3.634
   23        1.376   2.258   0.000   3.635
   24        1.376   2.258   0.000   3.635
   25        1.375   2.262   0.000   3.638
   26        1.375   2.262   0.000   3.638
   27        1.376   2.247   0.000   3.623
   28        1.376   2.247   0.000   3.623
   29        1.376   2.247   0.000   3.623
   30        1.376   2.247   0.000   3.623
   31        1.376   2.254   0.000   3.630
   32        1.376   2.254   0.000   3.630
   33        1.375   2.263   0.000   3.638
   34        1.375   2.263   0.000   3.638
   35        1.376   2.247   0.000   3.623
   36        1.376   2.247   0.000   3.622
   37        1.375   2.263   0.000   3.638
   38        1.375   2.263   0.000   3.638
   39        1.376   2.247   0.000   3.623
   40        1.376   2.247   0.000   3.622
   41        1.376   2.254   0.000   3.630
   42        1.376   2.254   0.000   3.630
   43        1.377   2.257   0.000   3.634
   44        1.377   2.257   0.000   3.634
   45        1.375   2.262   0.000   3.638
   46        1.375   2.262   0.000   3.637
   47        1.376   2.255   0.000   3.630
   48        1.376   2.254   0.000   3.630
   49        1.375   2.263   0.000   3.638
   50        1.375   2.263   0.000   3.638
   51        1.375   2.261   0.000   3.637
   52        1.375   2.263   0.000   3.638
   53        1.376   2.254   0.000   3.630
   54        1.376   2.254   0.000   3.630
   55        1.376   2.258   0.000   3.635
   56        1.376   2.258   0.000   3.635
--------------------------------------------------
tot         77.049 126.311   0.000 203.360



 magnetization (x)

# of ion       s       p       d       tot
------------------------------------------
    1        0.000   0.000   0.000   0.000
    2        0.000   0.000   0.000   0.000
    3        0.000   0.000   0.000   0.000
    4        0.000   0.000   0.000   0.000
    5        0.000   0.000   0.000   0.000
    6        0.000   0.000   0.000   0.000
    7        0.000   0.000   0.000   0.000
    8        0.000   0.000   0.000   0.000
    9        0.000   0.000   0.000   0.000
   10        0.000   0.000   0.000   0.000
   11        0.000   0.000   0.000   0.000
   12        0.000   0.000   0.000   0.000
   13        0.000   0.000   0.000   0.000
   14        0.000   0.000   0.000   0.000
   15        0.000   0.000   0.000   0.000
   16        0.000   0.000   0.000   0.000
   17        0.000   0.000   0.000   0.000
   18        0.000   0.000   0.000   0.000
   19        0.000   0.000   0.000   0.000
   20        0.000   0.000   0.000   0.000
   21        0.000   0.000   0.000   0.000
   22        0.000   0.000   0.000   0.000
   23        0.000   0.000   0.000   0.000
   24        0.000   0.000   0.000   0.000
   25        0.000   0.000   0.000   0.000
   26        0.000   0.000   0.000   0.000
   27        0.000   0.000   0.000   0.000
   28        0.000   0.000   0.000   0.000
   29        0.000   0.000   0.000   0.000
   30        0.000   0.000   0.000   0.000
   31        0.000   0.000   0.000   0.000
   32        0.000   0.000   0.000   0.000
   33        0.000   0.000   0.000   0.000
   34        0.000   0.000   0.000   0.000
   35        0.000   0.000   0.000   0.000
   36        0.000   0.000   0.000   0.000
   37        0.000   0.000   0.000   0.000
   38        0.000   0.000   0.000   0.000
   39        0.000   0.000   0.000   0.000
   40        0.000   0.000   0.000   0.000
   41        0.000   0.000   0.000   0.000
   42        0.000   0.000   0.000   0.000
   43        0.000   0.000   0.000   0.000
   44        0.000   0.000   0.000   0.000
   45        0.000   0.000   0.000   0.000
   46        0.000   0.000   0.000   0.000
   47        0.000   0.000   0.000   0.000
   48        0.000   0.000   0.000   0.000
   49        0.000   0.000   0.000   0.000
   50        0.000   0.000   0.000   0.000
   51        0.000   0.000   0.000   0.000
   52        0.000   0.000   0.000   0.000
   53        0.000   0.000   0.000   0.000
   54        0.000   0.000   0.000   0.000
   55        0.000   0.000   0.000   0.000
   56        0.000   0.000   0.000   0.000
--------------------------------------------------
tot          0.000   0.000   0.000   0.000

 BZINTS: Fermi energy:    0.079372;  336.000000 electrons
         Band energy:-0.201117E+04;  BLOECHL correction:    0.000000

 total amount of memory used by VASP MPI-rank0   322725. kBytes
=======================================================================

   base      :      30000. kBytes
   nonl-proj :      70692. kBytes
   fftplans  :      34504. kBytes
   grid      :      83442. kBytes
   one-center:        344. kBytes
   wavefun   :     103743. kBytes

  
  
 General timing and accounting informations for this job:
 ========================================================
  
                  Total CPU time used (sec):     2715.000
                            User time (sec):     2713.249
                          System time (sec):        1.751
                         Elapsed time (sec):     2717.129
  
                   Maximum memory used (kb):      600680.
                   Average memory used (kb):          N/A
  
                          Minor page faults:       773145
                          Major page faults:           10
                 Voluntary context switches:         3756
