  80  80   0   0
  0.2323530E+02  0.1210264E-08  0.7093817E-09  0.2165102E-08  0.1500000E-16
   1.0000000000000000E-004
  CAR 
 unknown system                          
      8.76214962    -23.27413312  301      1.19357782      1.00000000
    -23.274  0.0000E+00  0.0000E+00
    -23.167  0.0000E+00  0.0000E+00
    -23.061  0.0000E+00  0.0000E+00
    -22.954  0.0000E+00  0.0000E+00
    -22.847  0.0000E+00  0.0000E+00
    -22.740  0.0000E+00  0.0000E+00
    -22.633  0.0000E+00  0.0000E+00
    -22.527  0.0000E+00  0.0000E+00
    -22.420  0.0000E+00  0.0000E+00
    -22.313  0.0000E+00  0.0000E+00
    -22.206  0.0000E+00  0.0000E+00
    -22.099  0.4241E-16  0.4528E-17
    -21.993  0.2520E-07  0.2691E-08
    -21.886  0.2915E-02  0.3113E-03
    -21.779  0.2428E+00  0.2624E-01
    -21.672  0.2381E+00  0.5166E-01
    -21.566  0.6512E+00  0.1212E+00
    -21.459  0.6154E+00  0.1869E+00
    -21.352  0.2795E+00  0.2168E+00
    -21.245  0.2226E+00  0.2405E+00
    -21.138  0.1744E-02  0.2407E+00
    -21.032  0.1227E-07  0.2407E+00
    -20.925  0.2086E-16  0.2407E+00
    -20.818  0.0000E+00  0.2407E+00
    -20.711  0.0000E+00  0.2407E+00
    -20.604  0.0000E+00  0.2407E+00
    -20.498  0.0000E+00  0.2407E+00
    -20.391  0.0000E+00  0.2407E+00
    -20.284  0.0000E+00  0.2407E+00
    -20.177  0.0000E+00  0.2407E+00
    -20.071  0.0000E+00  0.2407E+00
    -19.964  0.0000E+00  0.2407E+00
    -19.857  0.0000E+00  0.2407E+00
    -19.750  0.0000E+00  0.2407E+00
    -19.643  0.0000E+00  0.2407E+00
    -19.537  0.0000E+00  0.2407E+00
    -19.430  0.0000E+00  0.2407E+00
    -19.323  0.0000E+00  0.2407E+00
    -19.216  0.0000E+00  0.2407E+00
    -19.109  0.0000E+00  0.2407E+00
    -19.003  0.0000E+00  0.2407E+00
    -18.896  0.0000E+00  0.2407E+00
    -18.789  0.0000E+00  0.2407E+00
    -18.682  0.0000E+00  0.2407E+00
    -18.575  0.0000E+00  0.2407E+00
    -18.469  0.0000E+00  0.2407E+00
    -18.362  0.0000E+00  0.2407E+00
    -18.255  0.0000E+00  0.2407E+00
    -18.148  0.0000E+00  0.2407E+00
    -18.042  0.0000E+00  0.2407E+00
    -17.935  0.0000E+00  0.2407E+00
    -17.828  0.0000E+00  0.2407E+00
    -17.721  0.0000E+00  0.2407E+00
    -17.614  0.0000E+00  0.2407E+00
    -17.508  0.0000E+00  0.2407E+00
    -17.401  0.0000E+00  0.2407E+00
    -17.294  0.0000E+00  0.2407E+00
    -17.187  0.0000E+00  0.2407E+00
    -17.080  0.0000E+00  0.2407E+00
    -16.974  0.0000E+00  0.2407E+00
    -16.867  0.0000E+00  0.2407E+00
    -16.760  0.0000E+00  0.2407E+00
    -16.653  0.0000E+00  0.2407E+00
    -16.547  0.0000E+00  0.2407E+00
    -16.440  0.0000E+00  0.2407E+00
    -16.333  0.0000E+00  0.2407E+00
    -16.226  0.0000E+00  0.2407E+00
    -16.119  0.0000E+00  0.2407E+00
    -16.013  0.0000E+00  0.2407E+00
    -15.906  0.0000E+00  0.2407E+00
    -15.799  0.0000E+00  0.2407E+00
    -15.692  0.0000E+00  0.2407E+00
    -15.585  0.0000E+00  0.2407E+00
    -15.479  0.0000E+00  0.2407E+00
    -15.372  0.0000E+00  0.2407E+00
    -15.265  0.0000E+00  0.2407E+00
    -15.158  0.0000E+00  0.2407E+00
    -15.051  0.0000E+00  0.2407E+00
    -14.945  0.0000E+00  0.2407E+00
    -14.838  0.0000E+00  0.2407E+00
    -14.731  0.0000E+00  0.2407E+00
    -14.624  0.0000E+00  0.2407E+00
    -14.518  0.0000E+00  0.2407E+00
    -14.411  0.0000E+00  0.2407E+00
    -14.304  0.0000E+00  0.2407E+00
    -14.197  0.0000E+00  0.2407E+00
    -14.090  0.0000E+00  0.2407E+00
    -13.984  0.0000E+00  0.2407E+00
    -13.877  0.0000E+00  0.2407E+00
    -13.770  0.0000E+00  0.2407E+00
    -13.663  0.0000E+00  0.2407E+00
    -13.556  0.0000E+00  0.2407E+00
    -13.450  0.0000E+00  0.2407E+00
    -13.343  0.0000E+00  0.2407E+00
    -13.236  0.0000E+00  0.2407E+00
    -13.129  0.0000E+00  0.2407E+00
    -13.023  0.0000E+00  0.2407E+00
    -12.916  0.0000E+00  0.2407E+00
    -12.809  0.0000E+00  0.2407E+00
    -12.702  0.0000E+00  0.2407E+00
    -12.595  0.0000E+00  0.2407E+00
    -12.489  0.0000E+00  0.2407E+00
    -12.382  0.0000E+00  0.2407E+00
    -12.275  0.0000E+00  0.2407E+00
    -12.168  0.0000E+00  0.2407E+00
    -12.061  0.0000E+00  0.2407E+00
    -11.955  0.0000E+00  0.2407E+00
    -11.848  0.0000E+00  0.2407E+00
    -11.741  0.0000E+00  0.2407E+00
    -11.634  0.0000E+00  0.2407E+00
    -11.527  0.0000E+00  0.2407E+00
    -11.421  0.0000E+00  0.2407E+00
    -11.314  0.0000E+00  0.2407E+00
    -11.207  0.0000E+00  0.2407E+00
    -11.100  0.0000E+00  0.2407E+00
    -10.994  0.0000E+00  0.2407E+00
    -10.887  0.0000E+00  0.2407E+00
    -10.780  0.0000E+00  0.2407E+00
    -10.673  0.1767E-10  0.2407E+00
    -10.566  0.1573E-04  0.2407E+00
    -10.460  0.5038E-02  0.2413E+00
    -10.353  0.4708E-01  0.2463E+00
    -10.246  0.9069E-01  0.2560E+00
    -10.139  0.7452E-02  0.2568E+00
    -10.032  0.1956E-05  0.2568E+00
     -9.926  0.7590E-06  0.2568E+00
     -9.819  0.3438E-02  0.2571E+00
     -9.712  0.7427E-01  0.2651E+00
     -9.605  0.1330E+00  0.2793E+00
     -9.499  0.1779E+00  0.2983E+00
     -9.392  0.6203E-01  0.3049E+00
     -9.285  0.1855E-03  0.3049E+00
     -9.178  0.3418E-09  0.3049E+00
     -9.071  0.0000E+00  0.3049E+00
     -8.965  0.0000E+00  0.3049E+00
     -8.858  0.0000E+00  0.3049E+00
     -8.751  0.0000E+00  0.3049E+00
     -8.644  0.0000E+00  0.3049E+00
     -8.537  0.0000E+00  0.3049E+00
     -8.431  0.0000E+00  0.3049E+00
     -8.324  0.0000E+00  0.3049E+00
     -8.217  0.0000E+00  0.3049E+00
     -8.110  0.0000E+00  0.3049E+00
     -8.004  0.0000E+00  0.3049E+00
     -7.897  0.0000E+00  0.3049E+00
     -7.790  0.0000E+00  0.3049E+00
     -7.683  0.0000E+00  0.3049E+00
     -7.576  0.0000E+00  0.3049E+00
     -7.470  0.0000E+00  0.3049E+00
     -7.363  0.0000E+00  0.3049E+00
     -7.256  0.0000E+00  0.3049E+00
     -7.149  0.0000E+00  0.3049E+00
     -7.042  0.0000E+00  0.3049E+00
     -6.936  0.0000E+00  0.3049E+00
     -6.829  0.0000E+00  0.3049E+00
     -6.722  0.0000E+00  0.3049E+00
     -6.615  0.0000E+00  0.3049E+00
     -6.508  0.0000E+00  0.3049E+00
     -6.402  0.0000E+00  0.3049E+00
     -6.295  0.0000E+00  0.3049E+00
     -6.188  0.0000E+00  0.3049E+00
     -6.081  0.0000E+00  0.3049E+00
     -5.975  0.0000E+00  0.3049E+00
     -5.868  0.0000E+00  0.3049E+00
     -5.761  0.0000E+00  0.3049E+00
     -5.654  0.0000E+00  0.3049E+00
     -5.547  0.0000E+00  0.3049E+00
     -5.441  0.0000E+00  0.3049E+00
     -5.334  0.0000E+00  0.3049E+00
     -5.227  0.0000E+00  0.3049E+00
     -5.120  0.0000E+00  0.3049E+00
     -5.013  0.0000E+00  0.3049E+00
     -4.907  0.0000E+00  0.3049E+00
     -4.800  0.0000E+00  0.3049E+00
     -4.693  0.0000E+00  0.3049E+00
     -4.586  0.0000E+00  0.3049E+00
     -4.480  0.0000E+00  0.3049E+00
     -4.373  0.0000E+00  0.3049E+00
     -4.266  0.0000E+00  0.3049E+00
     -4.159  0.0000E+00  0.3049E+00
     -4.052  0.0000E+00  0.3049E+00
     -3.946  0.0000E+00  0.3049E+00
     -3.839  0.0000E+00  0.3049E+00
     -3.732  0.0000E+00  0.3049E+00
     -3.625  0.0000E+00  0.3049E+00
     -3.518  0.0000E+00  0.3049E+00
     -3.412  0.2278E-11  0.3049E+00
     -3.305  0.6584E-05  0.3049E+00
     -3.198  0.6083E-02  0.3056E+00
     -3.091  0.4066E-01  0.3099E+00
     -2.984  0.7985E-01  0.3184E+00
     -2.878  0.2362E-01  0.3210E+00
     -2.771  0.5815E-04  0.3210E+00
     -2.664  0.7034E-10  0.3210E+00
     -2.557  0.0000E+00  0.3210E+00
     -2.451  0.0000E+00  0.3210E+00
     -2.344  0.0000E+00  0.3210E+00
     -2.237  0.0000E+00  0.3210E+00
     -2.130  0.0000E+00  0.3210E+00
     -2.023  0.0000E+00  0.3210E+00
     -1.917  0.3128E-17  0.3210E+00
     -1.810  0.1748E-08  0.3210E+00
     -1.703  0.1505E-03  0.3210E+00
     -1.596  0.1144E-01  0.3222E+00
     -1.489  0.8363E-01  0.3311E+00
     -1.383  0.1094E+00  0.3428E+00
     -1.276  0.7923E-01  0.3513E+00
     -1.169  0.7201E-01  0.3590E+00
     -1.062  0.6739E-01  0.3662E+00
     -0.956  0.2691E-01  0.3690E+00
     -0.849  0.8701E-03  0.3691E+00
     -0.742  0.2296E-01  0.3716E+00
     -0.635  0.4839E-01  0.3767E+00
     -0.528  0.6854E-01  0.3841E+00
     -0.422  0.7536E-01  0.3921E+00
     -0.315  0.4397E-01  0.3968E+00
     -0.208  0.5817E-01  0.4030E+00
     -0.101  0.5987E-01  0.4094E+00
      0.006  0.7477E-01  0.4174E+00
      0.112  0.5876E-01  0.4237E+00
      0.219  0.6801E-01  0.4309E+00
      0.326  0.8925E-01  0.4405E+00
      0.433  0.1051E+00  0.4517E+00
      0.540  0.7845E-01  0.4601E+00
      0.646  0.1193E+00  0.4728E+00
      0.753  0.1029E+00  0.4838E+00
      0.860  0.7677E-01  0.4920E+00
      0.967  0.4643E-01  0.4970E+00
      1.073  0.5049E-02  0.4975E+00
      1.180  0.1084E-05  0.4975E+00
      1.287  0.5328E-13  0.4975E+00
      1.394  0.0000E+00  0.4975E+00
      1.501  0.0000E+00  0.4975E+00
      1.607  0.0000E+00  0.4975E+00
      1.714  0.0000E+00  0.4975E+00
      1.821  0.0000E+00  0.4975E+00
      1.928  0.0000E+00  0.4975E+00
      2.035  0.0000E+00  0.4975E+00
      2.141  0.0000E+00  0.4975E+00
      2.248  0.0000E+00  0.4975E+00
      2.355  0.0000E+00  0.4975E+00
      2.462  0.0000E+00  0.4975E+00
      2.568  0.0000E+00  0.4975E+00
      2.675  0.0000E+00  0.4975E+00
      2.782  0.0000E+00  0.4975E+00
      2.889  0.0000E+00  0.4975E+00
      2.996  0.0000E+00  0.4975E+00
      3.102  0.0000E+00  0.4975E+00
      3.209  0.0000E+00  0.4975E+00
      3.316  0.5909E-16  0.4975E+00
      3.423  0.1103E-07  0.4975E+00
      3.530  0.3312E-03  0.4975E+00
      3.636  0.5428E-02  0.4981E+00
      3.743  0.5028E-03  0.4982E+00
      3.850  0.3041E-07  0.4982E+00
      3.957  0.3059E-15  0.4982E+00
      4.063  0.6813E-16  0.4982E+00
      4.170  0.1562E-07  0.4982E+00
      4.277  0.5759E-03  0.4982E+00
      4.384  0.1504E-01  0.4998E+00
      4.491  0.9376E-02  0.5008E+00
      4.597  0.5969E-04  0.5008E+00
      4.704  0.1134E-06  0.5008E+00
      4.811  0.1336E-02  0.5010E+00
      4.918  0.2031E-01  0.5031E+00
      5.025  0.1605E-01  0.5049E+00
      5.131  0.1852E-01  0.5068E+00
      5.238  0.2579E-01  0.5096E+00
      5.345  0.3076E-01  0.5129E+00
      5.452  0.6602E-01  0.5199E+00
      5.559  0.3566E-01  0.5237E+00
      5.665  0.3206E-01  0.5272E+00
      5.772  0.6472E-01  0.5341E+00
      5.879  0.6865E-01  0.5414E+00
      5.986  0.4613E-01  0.5463E+00
      6.092  0.4575E-01  0.5512E+00
      6.199  0.5103E-01  0.5567E+00
      6.306  0.4637E-01  0.5616E+00
      6.413  0.4620E-01  0.5665E+00
      6.520  0.3567E-01  0.5704E+00
      6.626  0.3374E-01  0.5740E+00
      6.733  0.4066E-01  0.5783E+00
      6.840  0.5075E-01  0.5837E+00
      6.947  0.5342E-01  0.5894E+00
      7.054  0.5956E-01  0.5958E+00
      7.160  0.6092E-01  0.6023E+00
      7.267  0.4708E-01  0.6073E+00
      7.374  0.2314E-01  0.6098E+00
      7.481  0.3873E-03  0.6098E+00
      7.587  0.4900E-08  0.6098E+00
      7.694  0.1112E-16  0.6098E+00
      7.801  0.0000E+00  0.6098E+00
      7.908  0.0000E+00  0.6098E+00
      8.015  0.0000E+00  0.6098E+00
      8.121  0.0000E+00  0.6098E+00
      8.228  0.0000E+00  0.6098E+00
      8.335  0.0000E+00  0.6098E+00
      8.442  0.0000E+00  0.6098E+00
      8.549  0.0000E+00  0.6098E+00
      8.655  0.0000E+00  0.6098E+00
      8.762  0.0000E+00  0.6098E+00
