       N       E                     dE             d eps       ncg     rms          rms(c)
DAV:   1     0.474611597611E+04    0.47461E+04   -0.20225E+05  1288   0.139E+03
DAV:   2     0.345969915600E+03   -0.44001E+04   -0.42188E+04  1328   0.397E+02
DAV:   3    -0.288965435713E+03   -0.63494E+03   -0.62724E+03  1464   0.165E+02
DAV:   4    -0.326658038429E+03   -0.37693E+02   -0.37432E+02  1408   0.374E+01
DAV:   5    -0.328275466888E+03   -0.16174E+01   -0.16147E+01  1696   0.798E+00    0.270E+01
DAV:   6    -0.310031499042E+03    0.18244E+02   -0.34945E+01  1376   0.717E+00    0.180E+01
DAV:   7    -0.308016011450E+03    0.20155E+01   -0.12522E+01  1576   0.539E+00    0.109E+01
DAV:   8    -0.308204379107E+03   -0.18837E+00   -0.15128E+00  1320   0.250E+00    0.574E+00
DAV:   9    -0.308158940197E+03    0.45439E-01   -0.18116E-01  1344   0.861E-01    0.166E+00
DAV:  10    -0.308162621656E+03   -0.36815E-02   -0.12170E-02  1656   0.175E-01    0.142E+00
DAV:  11    -0.308188671703E+03   -0.26050E-01   -0.47263E-02  1296   0.376E-01    0.140E+00
DAV:  12    -0.308186819597E+03    0.18521E-02   -0.93860E-03  1504   0.161E-01    0.636E-01
DAV:  13    -0.308186426739E+03    0.39286E-03   -0.21503E-03  1416   0.610E-02    0.417E-01
DAV:  14    -0.308186300437E+03    0.12630E-03   -0.12163E-03  1440   0.437E-02    0.260E-01
DAV:  15    -0.308186220697E+03    0.79740E-04   -0.52380E-04  1536   0.424E-02    0.824E-02
DAV:  16    -0.308186266309E+03   -0.45612E-04   -0.17844E-04  1232   0.195E-02    0.692E-02
DAV:  17    -0.308186288800E+03   -0.22490E-04   -0.15600E-05  1056   0.665E-03    0.559E-02
DAV:  18    -0.308186282322E+03    0.64777E-05   -0.91540E-05  1104   0.116E-02    0.298E-02
DAV:  19    -0.308186282383E+03   -0.60703E-07   -0.95566E-06  1136   0.660E-03
   1 F= -.30818628E+03 E0= -.30818628E+03  d E =-.121044E-13
 Found    30 degrees of freedom:
 Adding 6 more for cell shape distortion
       N       E                     dE             d eps       ncg     rms          rms(c)
DAV:   1    -0.310856704094E+03   -0.26704E+01   -0.11724E+02  1408   0.319E+01    0.121E+01
DAV:   2    -0.308665044222E+03    0.21917E+01   -0.48763E+00  1392   0.654E+00    0.624E+00
DAV:   3    -0.307931513024E+03    0.73353E+00   -0.18519E+00  1376   0.304E+00    0.247E+00
DAV:   4    -0.307889186574E+03    0.42326E-01   -0.13353E-01  1464   0.798E-01    0.168E+00
DAV:   5    -0.307866221132E+03    0.22965E-01   -0.17466E-02  1456   0.365E-01    0.803E-01
DAV:   6    -0.307862549477E+03    0.36717E-02   -0.19775E-02  1376   0.305E-01    0.349E-01
DAV:   7    -0.307862309476E+03    0.24000E-03   -0.11130E-03  1544   0.944E-02    0.259E-01
DAV:   8    -0.307862291820E+03    0.17657E-04   -0.95886E-04  1392   0.550E-02    0.526E-02
DAV:   9    -0.307862308528E+03   -0.16708E-04   -0.85162E-05  1264   0.183E-02    0.346E-02
DAV:  10    -0.307862323144E+03   -0.14616E-04   -0.30451E-05  1104   0.943E-03    0.344E-02
DAV:  11    -0.307862324887E+03   -0.17434E-05   -0.67251E-06  1176   0.447E-03    0.293E-02
DAV:  12    -0.307862322376E+03    0.25115E-05   -0.54960E-06  1144   0.375E-03    0.596E-03
DAV:  13    -0.307862323728E+03   -0.13522E-05   -0.40579E-06  1032   0.332E-03    0.129E-02
DAV:  14    -0.307862323553E+03    0.17432E-06   -0.15171E-07   696   0.128E-03
   2 F= -.30786232E+03 E0= -.30786232E+03  d E =-.174723E-14
       N       E                     dE             d eps       ncg     rms          rms(c)
DAV:   1    -0.308827606527E+03   -0.96528E+00   -0.27990E+01  1368   0.150E+01    0.620E+00
DAV:   2    -0.308296477365E+03    0.53113E+00   -0.11390E+00  1376   0.302E+00    0.314E+00
DAV:   3    -0.308122033895E+03    0.17444E+00   -0.42910E-01  1384   0.147E+00    0.134E+00
DAV:   4    -0.308112138898E+03    0.98950E-02   -0.33624E-02  1432   0.399E-01    0.902E-01
DAV:   5    -0.308105925170E+03    0.62137E-02   -0.55571E-03  1456   0.197E-01    0.380E-01
DAV:   6    -0.308105454567E+03    0.47060E-03   -0.36784E-03  1376   0.136E-01    0.155E-01
DAV:   7    -0.308105417815E+03    0.36752E-04   -0.22069E-04  1552   0.365E-02    0.119E-01
DAV:   8    -0.308105411654E+03    0.61617E-05   -0.18053E-04  1392   0.228E-02    0.233E-02
DAV:   9    -0.308105406980E+03    0.46740E-05   -0.18679E-05  1168   0.901E-03    0.219E-02
DAV:  10    -0.308105407200E+03   -0.22064E-06   -0.59003E-06  1104   0.453E-03
   3 F= -.30810541E+03 E0= -.30810541E+03  d E =-.225891E-18
       N       E                     dE             d eps       ncg     rms          rms(c)
DAV:   1    -0.311045372906E+03   -0.29400E+01   -0.11548E+02  1376   0.302E+01    0.129E+01
DAV:   2    -0.308881708595E+03    0.21637E+01   -0.47584E+00  1384   0.601E+00    0.646E+00
DAV:   3    -0.308158377754E+03    0.72333E+00   -0.16764E+00  1376   0.293E+00    0.283E+00
DAV:   4    -0.308115106779E+03    0.43271E-01   -0.13376E-01  1448   0.798E-01    0.189E+00
DAV:   5    -0.308086921995E+03    0.28185E-01   -0.25031E-02  1448   0.405E-01    0.761E-01
DAV:   6    -0.308085180517E+03    0.17415E-02   -0.12764E-02  1384   0.263E-01    0.308E-01
DAV:   7    -0.308085049247E+03    0.13127E-03   -0.88240E-04  1544   0.672E-02    0.243E-01
DAV:   8    -0.308085013373E+03    0.35874E-04   -0.72875E-04  1392   0.492E-02    0.461E-02
DAV:   9    -0.308085003452E+03    0.99212E-05   -0.80306E-05  1328   0.194E-02    0.475E-02
DAV:  10    -0.308085007269E+03   -0.38170E-05   -0.22953E-05  1096   0.992E-03    0.399E-02
DAV:  11    -0.308085006855E+03    0.41386E-06   -0.30664E-06  1112   0.491E-03
   4 F= -.30808501E+03 E0= -.30808501E+03  d E =-.323766E-18
       N       E                     dE             d eps       ncg     rms          rms(c)
DAV:   1    -0.308552271712E+03   -0.46726E+00   -0.30468E+01  1408   0.158E+01    0.654E+00
DAV:   2    -0.307987419652E+03    0.56485E+00   -0.12675E+00  1392   0.320E+00    0.330E+00
DAV:   3    -0.307796342644E+03    0.19108E+00   -0.43733E-01  1376   0.151E+00    0.141E+00
DAV:   4    -0.307784836609E+03    0.11506E-01   -0.34785E-02  1472   0.395E-01    0.928E-01
DAV:   5    -0.307777956452E+03    0.68802E-02   -0.63745E-03  1448   0.217E-01    0.402E-01
DAV:   6    -0.307777502634E+03    0.45382E-03   -0.38104E-03  1368   0.146E-01    0.167E-01
DAV:   7    -0.307777461660E+03    0.40974E-04   -0.21879E-04  1560   0.348E-02    0.132E-01
DAV:   8    -0.307777452370E+03    0.92898E-05   -0.23957E-04  1368   0.276E-02    0.269E-02
DAV:   9    -0.307777446368E+03    0.60018E-05   -0.30944E-05  1312   0.121E-02    0.231E-02
DAV:  10    -0.307777445509E+03    0.85909E-06   -0.76963E-06  1080   0.716E-03
   5 F= -.30777745E+03 E0= -.30777745E+03  d E =-.105271E-12
       N       E                     dE             d eps       ncg     rms          rms(c)
DAV:   1    -0.317395199862E+03   -0.96178E+01   -0.30287E+02  1584   0.600E+01    0.214E+01
DAV:   2    -0.309932393388E+03    0.74628E+01   -0.15750E+01  1408   0.115E+01    0.101E+01
DAV:   3    -0.308008338728E+03    0.19241E+01   -0.48522E+00  1528   0.543E+00    0.394E+00
DAV:   4    -0.307865948982E+03    0.14239E+00   -0.24641E-01  1376   0.942E-01    0.246E+00
DAV:   5    -0.307801052659E+03    0.64896E-01   -0.29333E-02  1552   0.477E-01    0.110E+00
DAV:   6    -0.307794133221E+03    0.69194E-02   -0.16543E-02  1352   0.322E-01    0.416E-01
DAV:   7    -0.307793902587E+03    0.23063E-03   -0.16944E-03  1464   0.108E-01    0.250E-01
DAV:   8    -0.307794009738E+03   -0.10715E-03   -0.10894E-03  1528   0.498E-02    0.156E-01
DAV:   9    -0.307793962180E+03    0.47558E-04   -0.24780E-04  1376   0.378E-02    0.857E-02
DAV:  10    -0.307793957498E+03    0.46828E-05   -0.42993E-05  1464   0.186E-02    0.241E-02
DAV:  11    -0.307793960979E+03   -0.34816E-05   -0.15414E-05  1176   0.814E-03    0.188E-02
DAV:  12    -0.307793961922E+03   -0.94323E-06   -0.79723E-07   848   0.253E-03
   6 F= -.30779396E+03 E0= -.30779396E+03  d E =-.250954E-13
       N       E                     dE             d eps       ncg     rms          rms(c)
DAV:   1    -0.308798800544E+03   -0.10048E+01   -0.27968E+01  1400   0.151E+01    0.629E+00
DAV:   2    -0.308271998013E+03    0.52680E+00   -0.11512E+00  1384   0.305E+00    0.315E+00
DAV:   3    -0.308101721964E+03    0.17028E+00   -0.37868E-01  1376   0.140E+00    0.138E+00
DAV:   4    -0.308088768807E+03    0.12953E-01   -0.32393E-02  1424   0.398E-01    0.863E-01
DAV:   5    -0.308082589663E+03    0.61791E-02   -0.69029E-03  1432   0.230E-01    0.422E-01
DAV:   6    -0.308082162654E+03    0.42701E-03   -0.42508E-03  1352   0.151E-01    0.181E-01
DAV:   7    -0.308082112993E+03    0.49661E-04   -0.16338E-04  1464   0.352E-02    0.143E-01
DAV:   8    -0.308082123192E+03   -0.10199E-04   -0.49944E-04  1336   0.319E-02    0.329E-02
DAV:   9    -0.308082103886E+03    0.19306E-04   -0.10087E-04  1104   0.184E-02    0.325E-02
DAV:  10    -0.308082105509E+03   -0.16232E-05   -0.49472E-05  1104   0.839E-03    0.100E-02
DAV:  11    -0.308082105032E+03    0.47652E-06   -0.21812E-06  1008   0.334E-03
   7 F= -.30808211E+03 E0= -.30808211E+03  d E =-.207312E-18
       N       E                     dE             d eps       ncg     rms          rms(c)
DAV:   1    -0.311015061758E+03   -0.29330E+01   -0.11536E+02  1392   0.304E+01    0.131E+01
DAV:   2    -0.308871856914E+03    0.21432E+01   -0.47698E+00  1400   0.611E+00    0.649E+00
DAV:   3    -0.308172612047E+03    0.69924E+00   -0.14843E+00  1376   0.273E+00    0.294E+00
DAV:   4    -0.308112351366E+03    0.60261E-01   -0.11872E-01  1448   0.724E-01    0.181E+00
DAV:   5    -0.308083915630E+03    0.28436E-01   -0.32439E-02  1432   0.472E-01    0.838E-01
DAV:   6    -0.308082448160E+03    0.14675E-02   -0.15260E-02  1376   0.303E-01    0.357E-01
DAV:   7    -0.308082278181E+03    0.16998E-03   -0.66186E-04  1472   0.635E-02    0.292E-01
DAV:   8    -0.308082292179E+03   -0.13998E-04   -0.17763E-03  1360   0.609E-02    0.635E-02
DAV:   9    -0.308082227001E+03    0.65178E-04   -0.40035E-04  1344   0.381E-02    0.765E-02
DAV:  10    -0.308082232079E+03   -0.50774E-05   -0.15854E-04  1120   0.156E-02    0.224E-02
DAV:  11    -0.308082233418E+03   -0.13390E-05   -0.52925E-06  1208   0.530E-03    0.250E-02
DAV:  12    -0.308082236050E+03   -0.26321E-05   -0.39067E-06  1024   0.311E-03    0.141E-02
DAV:  13    -0.308082236130E+03   -0.80443E-07   -0.67967E-07   864   0.234E-03
   8 F= -.30808224E+03 E0= -.30808224E+03  d E =-.734991E-18
       N       E                     dE             d eps       ncg     rms          rms(c)
DAV:   1    -0.308511263190E+03   -0.42903E+00   -0.30431E+01  1416   0.159E+01    0.668E+00
DAV:   2    -0.307953120470E+03    0.55814E+00   -0.12854E+00  1408   0.331E+00    0.331E+00
DAV:   3    -0.307768777213E+03    0.18434E+00   -0.37555E-01  1368   0.141E+00    0.147E+00
DAV:   4    -0.307752333761E+03    0.16443E-01   -0.33048E-02  1456   0.386E-01    0.883E-01
DAV:   5    -0.307745503441E+03    0.68303E-02   -0.79625E-03  1392   0.233E-01    0.437E-01
DAV:   6    -0.307745143755E+03    0.35969E-03   -0.41222E-03  1384   0.156E-01    0.189E-01
DAV:   7    -0.307745091862E+03    0.51893E-04   -0.16723E-04  1448   0.351E-02    0.154E-01
DAV:   8    -0.307745103360E+03   -0.11498E-04   -0.58598E-04  1368   0.393E-02    0.388E-02
DAV:   9    -0.307745077307E+03    0.26053E-04   -0.14746E-04  1264   0.237E-02    0.417E-02
DAV:  10    -0.307745078241E+03   -0.93343E-06   -0.61587E-05  1080   0.984E-03    0.102E-02
DAV:  11    -0.307745077464E+03    0.77641E-06   -0.27155E-06  1016   0.390E-03
   9 F= -.30774508E+03 E0= -.30774508E+03  d E =-.482570E-11
       N       E                     dE             d eps       ncg     rms          rms(c)
DAV:   1    -0.317267227545E+03   -0.95221E+01   -0.30219E+02  1576   0.602E+01    0.215E+01
DAV:   2    -0.309912212798E+03    0.73550E+01   -0.15466E+01  1368   0.115E+01    0.101E+01
DAV:   3    -0.307997530486E+03    0.19147E+01   -0.47794E+00  1528   0.542E+00    0.393E+00
DAV:   4    -0.307851467550E+03    0.14606E+00   -0.22851E-01  1376   0.934E-01    0.246E+00
DAV:   5    -0.307784035377E+03    0.67432E-01   -0.32235E-02  1576   0.458E-01    0.101E+00
DAV:   6    -0.307779147856E+03    0.48875E-02   -0.13687E-02  1376   0.311E-01    0.364E-01
DAV:   7    -0.307779006011E+03    0.14185E-03   -0.16772E-03  1504   0.964E-02    0.205E-01
DAV:   8    -0.307779106724E+03   -0.10071E-03   -0.67964E-04  1464   0.405E-02    0.134E-01
DAV:   9    -0.307779085773E+03    0.20951E-04   -0.11878E-04  1496   0.308E-02    0.594E-02
DAV:  10    -0.307779084411E+03    0.13616E-05   -0.34303E-05  1448   0.136E-02    0.148E-02
DAV:  11    -0.307779088188E+03   -0.37763E-05   -0.97528E-06  1088   0.634E-03    0.181E-02
DAV:  12    -0.307779090311E+03   -0.21233E-05   -0.10402E-06   864   0.288E-03    0.935E-03
DAV:  13    -0.307779091964E+03   -0.16528E-05   -0.15708E-06   896   0.246E-03    0.203E-03
DAV:  14    -0.307779091832E+03    0.13238E-06   -0.36884E-07   880   0.138E-03
  10 F= -.30777909E+03 E0= -.30777909E+03  d E =-.406454E-15
       N       E                     dE             d eps       ncg     rms          rms(c)
DAV:   1    -0.308785187256E+03   -0.10061E+01   -0.27805E+01  1424   0.151E+01    0.625E+00
DAV:   2    -0.308264476232E+03    0.52071E+00   -0.11547E+00  1392   0.308E+00    0.314E+00
DAV:   3    -0.308093384182E+03    0.17109E+00   -0.37747E-01  1368   0.142E+00    0.136E+00
DAV:   4    -0.308081757716E+03    0.11626E-01   -0.33661E-02  1416   0.410E-01    0.861E-01
DAV:   5    -0.308076083695E+03    0.56740E-02   -0.68081E-03  1432   0.212E-01    0.440E-01
DAV:   6    -0.308075512568E+03    0.57113E-03   -0.45974E-03  1376   0.156E-01    0.201E-01
DAV:   7    -0.308075442101E+03    0.70467E-04   -0.23532E-04  1536   0.453E-02    0.141E-01
DAV:   8    -0.308075439420E+03    0.26812E-05   -0.46517E-04  1344   0.357E-02    0.309E-02
DAV:   9    -0.308075431566E+03    0.78530E-05   -0.80416E-05  1376   0.172E-02    0.170E-02
DAV:  10    -0.308075431573E+03   -0.62573E-08   -0.19196E-05  1072   0.744E-03    0.119E-02
DAV:  11    -0.308075431378E+03    0.19508E-06   -0.29619E-06  1056   0.288E-03
  11 F= -.30807543E+03 E0= -.30807543E+03  d E =-.540453E-19
       N       E                     dE             d eps       ncg     rms          rms(c)
DAV:   1    -0.311001635774E+03   -0.29262E+01   -0.11466E+02  1424   0.304E+01    0.130E+01
DAV:   2    -0.308879440597E+03    0.21222E+01   -0.48284E+00  1424   0.615E+00    0.646E+00
DAV:   3    -0.308170156446E+03    0.70928E+00   -0.14742E+00  1368   0.279E+00    0.284E+00
DAV:   4    -0.308119112233E+03    0.51044E-01   -0.12201E-01  1448   0.748E-01    0.181E+00
DAV:   5    -0.308093538063E+03    0.25574E-01   -0.29837E-02  1440   0.463E-01    0.871E-01
DAV:   6    -0.308091577053E+03    0.19610E-02   -0.17133E-02  1376   0.315E-01    0.410E-01
DAV:   7    -0.308091322109E+03    0.25494E-03   -0.92075E-04  1520   0.812E-02    0.296E-01
DAV:   8    -0.308091272846E+03    0.49263E-04   -0.15139E-03  1384   0.669E-02    0.525E-02
DAV:   9    -0.308091260998E+03    0.11848E-04   -0.19860E-04  1312   0.289E-02    0.417E-02
DAV:  10    -0.308091262882E+03   -0.18840E-05   -0.49564E-05  1072   0.125E-02    0.311E-02
DAV:  11    -0.308091263965E+03   -0.10831E-05   -0.77050E-06  1192   0.507E-03    0.377E-02
DAV:  12    -0.308091264338E+03   -0.37289E-06   -0.14307E-06   808   0.284E-03
  12 F= -.30809126E+03 E0= -.30809126E+03  d E =-.141618E-16
       N       E                     dE             d eps       ncg     rms          rms(c)
DAV:   1    -0.308528241226E+03   -0.43698E+00   -0.30250E+01  1448   0.159E+01    0.658E+00
DAV:   2    -0.307974177768E+03    0.55406E+00   -0.12709E+00  1416   0.327E+00    0.330E+00
DAV:   3    -0.307786417975E+03    0.18776E+00   -0.39114E-01  1384   0.147E+00    0.142E+00
DAV:   4    -0.307773513443E+03    0.12905E-01   -0.34519E-02  1448   0.435E-01    0.892E-01
DAV:   5    -0.307767240701E+03    0.62727E-02   -0.75272E-03  1440   0.226E-01    0.446E-01
DAV:   6    -0.307766770577E+03    0.47012E-03   -0.45202E-03  1368   0.166E-01    0.214E-01
DAV:   7    -0.307766708227E+03    0.62350E-04   -0.26696E-04  1528   0.474E-02    0.154E-01
DAV:   8    -0.307766695981E+03    0.12246E-04   -0.45712E-04  1352   0.428E-02    0.291E-02
DAV:   9    -0.307766689737E+03    0.62445E-05   -0.73390E-05  1336   0.185E-02    0.234E-02
DAV:  10    -0.307766689097E+03    0.63967E-06   -0.20540E-05  1072   0.718E-03    0.125E-02
DAV:  11    -0.307766688894E+03    0.20318E-06   -0.14917E-06   856   0.280E-03
  13 F= -.30776669E+03 E0= -.30776669E+03  d E =-.299684E-19
       N       E                     dE             d eps       ncg     rms          rms(c)
DAV:   1    -0.311737562316E+03   -0.39709E+01   -0.16728E+02  1360   0.369E+01    0.139E+01
DAV:   2    -0.309171341404E+03    0.25662E+01   -0.64253E+00  1352   0.769E+00    0.739E+00
DAV:   3    -0.308164790532E+03    0.10066E+01   -0.21007E+00  1384   0.334E+00    0.287E+00
DAV:   4    -0.308107565230E+03    0.57225E-01   -0.19929E-01  1480   0.989E-01    0.182E+00
DAV:   5    -0.308081979270E+03    0.25586E-01   -0.25066E-02  1456   0.422E-01    0.934E-01
DAV:   6    -0.308078367744E+03    0.36115E-02   -0.21547E-02  1368   0.317E-01    0.442E-01
DAV:   7    -0.308078013069E+03    0.35468E-03   -0.12379E-03  1528   0.101E-01    0.379E-01
DAV:   8    -0.308077889303E+03    0.12377E-03   -0.19825E-03  1424   0.775E-02    0.986E-02
DAV:   9    -0.308077904851E+03   -0.15548E-04   -0.38921E-04  1328   0.381E-02    0.797E-02
DAV:  10    -0.308077926309E+03   -0.21458E-04   -0.70029E-05  1224   0.155E-02    0.599E-02
DAV:  11    -0.308077927629E+03   -0.13195E-05   -0.10632E-05  1352   0.735E-03    0.483E-02
DAV:  12    -0.308077923997E+03    0.36316E-05   -0.12134E-05  1152   0.557E-03    0.112E-02
DAV:  13    -0.308077925372E+03   -0.13747E-05   -0.59621E-06  1040   0.525E-03    0.129E-02
DAV:  14    -0.308077925278E+03    0.94049E-07   -0.34473E-07   768   0.166E-03
  14 F= -.30807793E+03 E0= -.30807793E+03  d E =-.185841E-12
       N       E                     dE             d eps       ncg     rms          rms(c)
DAV:   1    -0.308309445262E+03   -0.23152E+00   -0.10866E+01  1272   0.721E+00    0.299E+00
DAV:   2    -0.308219767257E+03    0.89678E-01   -0.24671E-01  1384   0.130E+00    0.179E+00
DAV:   3    -0.308162675708E+03    0.57092E-01   -0.37713E-02  1664   0.504E-01    0.613E-01
DAV:   4    -0.308159173442E+03    0.35023E-02   -0.18260E-02  1624   0.294E-01    0.245E-01
DAV:   5    -0.308159128381E+03    0.45061E-04   -0.16829E-03  1368   0.131E-01    0.172E-01
DAV:   6    -0.308159142089E+03   -0.13708E-04   -0.53816E-04  1608   0.409E-02    0.436E-02
DAV:   7    -0.308159154908E+03   -0.12820E-04   -0.42749E-05  1512   0.153E-02    0.568E-02
DAV:   8    -0.308159160852E+03   -0.59434E-05   -0.15499E-05  1248   0.681E-03    0.347E-02
DAV:   9    -0.308159158956E+03    0.18955E-05   -0.10741E-05  1248   0.586E-03    0.796E-03
DAV:  10    -0.308159160229E+03   -0.12733E-05   -0.86864E-06  1096   0.423E-03    0.155E-02
DAV:  11    -0.308159159969E+03    0.25996E-06   -0.35143E-07   704   0.201E-03
  15 F= -.30815916E+03 E0= -.30815916E+03  d E =-.815396E-13
       N       E                     dE             d eps       ncg     rms          rms(c)
DAV:   1    -0.308758664746E+03   -0.59950E+00   -0.43446E+01  1264   0.144E+01    0.599E+00
DAV:   2    -0.308401934410E+03    0.35673E+00   -0.10064E+00  1392   0.257E+00    0.357E+00
DAV:   3    -0.308174461241E+03    0.22747E+00   -0.15039E-01  1608   0.933E-01    0.123E+00
DAV:   4    -0.308159215730E+03    0.15246E-01   -0.67203E-02  1616   0.545E-01    0.459E-01
DAV:   5    -0.308159041089E+03    0.17464E-03   -0.67150E-03  1368   0.262E-01    0.337E-01
DAV:   6    -0.308159086370E+03   -0.45281E-04   -0.21929E-03  1608   0.849E-02    0.859E-02
DAV:   7    -0.308159136255E+03   -0.49885E-04   -0.17156E-04  1488   0.356E-02    0.110E-01
DAV:   8    -0.308159163645E+03   -0.27391E-04   -0.66854E-05  1312   0.144E-02    0.666E-02
DAV:   9    -0.308159155559E+03    0.80865E-05   -0.33565E-05  1304   0.119E-02    0.157E-02
DAV:  10    -0.308159160682E+03   -0.51232E-05   -0.37632E-05  1136   0.871E-03    0.226E-02
DAV:  11    -0.308159160245E+03    0.43703E-06   -0.17810E-06   840   0.385E-03
  16 F= -.30815916E+03 E0= -.30815916E+03  d E =-.823736E-13
       N       E                     dE             d eps       ncg     rms          rms(c)
DAV:   1    -0.308227977706E+03   -0.68817E-01   -0.10862E+01  1248   0.721E+00    0.299E+00
DAV:   2    -0.308138527116E+03    0.89451E-01   -0.24960E-01  1400   0.132E+00    0.179E+00
DAV:   3    -0.308081604773E+03    0.56922E-01   -0.37922E-02  1616   0.515E-01    0.621E-01
DAV:   4    -0.308077923723E+03    0.36810E-02   -0.18523E-02  1544   0.306E-01    0.238E-01
DAV:   5    -0.308077891498E+03    0.32225E-04   -0.18697E-03  1344   0.138E-01    0.171E-01
DAV:   6    -0.308077907366E+03   -0.15869E-04   -0.57654E-04  1632   0.454E-02    0.440E-02
DAV:   7    -0.308077919207E+03   -0.11841E-04   -0.43261E-05  1432   0.157E-02    0.564E-02
DAV:   8    -0.308077926142E+03   -0.69344E-05   -0.16990E-05  1216   0.686E-03    0.340E-02
DAV:   9    -0.308077924054E+03    0.20877E-05   -0.10307E-05  1240   0.632E-03    0.800E-03
DAV:  10    -0.308077925453E+03   -0.13989E-05   -0.95756E-06  1112   0.442E-03    0.135E-02
DAV:  11    -0.308077925281E+03    0.17172E-06   -0.32884E-07   704   0.193E-03
  17 F= -.30807793E+03 E0= -.30807793E+03  d E =-.196970E-12
       N       E                     dE             d eps       ncg     rms          rms(c)
DAV:   1    -0.309255540855E+03   -0.11776E+01   -0.87091E+01  1248   0.204E+01    0.830E+00
DAV:   2    -0.308591259257E+03    0.66428E+00   -0.21466E+00  1384   0.392E+00    0.499E+00
DAV:   3    -0.308106696173E+03    0.48456E+00   -0.28570E-01  1472   0.125E+00    0.157E+00
DAV:   4    -0.308064970803E+03    0.41725E-01   -0.13457E-01  1552   0.826E-01    0.637E-01
DAV:   5    -0.308064545686E+03    0.42512E-03   -0.15014E-02  1432   0.363E-01    0.529E-01
DAV:   6    -0.308063807224E+03    0.73846E-03   -0.26909E-03  1632   0.107E-01    0.222E-01
DAV:   7    -0.308063108604E+03    0.69862E-03   -0.14811E-03  1536   0.129E-01    0.742E-02
DAV:   8    -0.308063068137E+03    0.40468E-04   -0.77932E-04  1608   0.585E-02    0.157E-01
DAV:   9    -0.308063025695E+03    0.42442E-04   -0.12920E-04  1616   0.260E-02    0.920E-02
DAV:  10    -0.308063006119E+03    0.19575E-04   -0.35940E-05  1512   0.130E-02    0.401E-02
DAV:  11    -0.308062993646E+03    0.12473E-04   -0.21305E-05  1240   0.135E-02    0.119E-02
DAV:  12    -0.308062988186E+03    0.54607E-05   -0.22852E-05  1296   0.153E-02    0.189E-02
DAV:  13    -0.308062988168E+03    0.17113E-07   -0.90182E-06  1256   0.713E-03
  18 F= -.30806299E+03 E0= -.30806299E+03  d E =-.450903E-12
       N       E                     dE             d eps       ncg     rms          rms(c)
DAV:   1    -0.308306529766E+03   -0.24354E+00   -0.10934E+01  1272   0.736E+00    0.304E+00
DAV:   2    -0.308216585155E+03    0.89945E-01   -0.25825E-01  1352   0.132E+00    0.179E+00
DAV:   3    -0.308161383929E+03    0.55201E-01   -0.34495E-02  1568   0.496E-01    0.718E-01
DAV:   4    -0.308155483214E+03    0.59007E-02   -0.21573E-02  1624   0.319E-01    0.250E-01
DAV:   5    -0.308155447036E+03    0.36178E-04   -0.24770E-03  1400   0.154E-01    0.216E-01
DAV:   6    -0.308155424542E+03    0.22494E-04   -0.66918E-04  1648   0.449E-02    0.821E-02
DAV:   7    -0.308155430091E+03   -0.55485E-05   -0.71624E-05  1480   0.198E-02    0.368E-02
DAV:   8    -0.308155440006E+03   -0.99152E-05   -0.29108E-05  1544   0.108E-02    0.374E-02
DAV:   9    -0.308155437955E+03    0.20510E-05   -0.92180E-06  1344   0.792E-03    0.172E-02
DAV:  10    -0.308155439049E+03   -0.10943E-05   -0.13697E-05  1200   0.540E-03    0.822E-03
DAV:  11    -0.308155439002E+03    0.46930E-07   -0.11924E-06   776   0.272E-03
  19 F= -.30815544E+03 E0= -.30815544E+03  d E =-.139299E-12
       N       E                     dE             d eps       ncg     rms          rms(c)
DAV:   1    -0.308757358763E+03   -0.60192E+00   -0.43707E+01  1288   0.147E+01    0.610E+00
DAV:   2    -0.308400453229E+03    0.35691E+00   -0.10635E+00  1336   0.268E+00    0.359E+00
DAV:   3    -0.308180518926E+03    0.21993E+00   -0.13733E-01  1568   0.893E-01    0.145E+00
DAV:   4    -0.308155506725E+03    0.25012E-01   -0.79415E-02  1656   0.673E-01    0.494E-01
DAV:   5    -0.308155569288E+03   -0.62563E-04   -0.10841E-02  1384   0.310E-01    0.454E-01
DAV:   6    -0.308155390844E+03    0.17844E-03   -0.23801E-03  1568   0.928E-02    0.198E-01
DAV:   7    -0.308155396724E+03   -0.58804E-05   -0.37224E-04  1480   0.507E-02    0.789E-02
DAV:   8    -0.308155444134E+03   -0.47409E-04   -0.18831E-04  1712   0.298E-02    0.883E-02
DAV:   9    -0.308155434457E+03    0.96770E-05   -0.59677E-05  1384   0.186E-02    0.512E-02
DAV:  10    -0.308155438674E+03   -0.42175E-05   -0.63500E-05  1264   0.117E-02    0.206E-02
DAV:  11    -0.308155438601E+03    0.73567E-07   -0.53177E-06  1104   0.510E-03
  20 F= -.30815544E+03 E0= -.30815544E+03  d E =-.134872E-12
       N       E                     dE             d eps       ncg     rms          rms(c)
DAV:   1    -0.308213644687E+03   -0.58206E-01   -0.10928E+01  1280   0.736E+00    0.305E+00
DAV:   2    -0.308124108098E+03    0.89537E-01   -0.26382E-01  1344   0.139E+00    0.180E+00
DAV:   3    -0.308069144775E+03    0.54963E-01   -0.34476E-02  1592   0.535E-01    0.734E-01
DAV:   4    -0.308062989300E+03    0.61555E-02   -0.22351E-02  1584   0.360E-01    0.249E-01
DAV:   5    -0.308062995836E+03   -0.65355E-05   -0.29339E-03  1384   0.164E-01    0.219E-01
DAV:   6    -0.308062972587E+03    0.23249E-04   -0.64448E-04  1568   0.469E-02    0.897E-02
DAV:   7    -0.308062976342E+03   -0.37558E-05   -0.72293E-05  1440   0.231E-02    0.306E-02
DAV:   8    -0.308062987295E+03   -0.10952E-04   -0.35985E-05  1536   0.135E-02    0.309E-02
DAV:   9    -0.308062986315E+03    0.98006E-06   -0.10505E-05  1264   0.897E-03    0.220E-02
DAV:  10    -0.308062987156E+03   -0.84103E-06   -0.12922E-05  1224   0.516E-03    0.829E-03
DAV:  11    -0.308062987147E+03    0.82218E-08   -0.13945E-06   776   0.244E-03
  21 F= -.30806299E+03 E0= -.30806299E+03  d E =-.447769E-12
       N       E                     dE             d eps       ncg     rms          rms(c)
DAV:   1    -0.309255655656E+03   -0.11927E+01   -0.87402E+01  1280   0.206E+01    0.836E+00
DAV:   2    -0.308579446097E+03    0.67621E+00   -0.20508E+00  1344   0.364E+00    0.500E+00
DAV:   3    -0.308095242171E+03    0.48420E+00   -0.28686E-01  1512   0.125E+00    0.157E+00
DAV:   4    -0.308050441875E+03    0.44800E-01   -0.12661E-01  1616   0.774E-01    0.529E-01
DAV:   5    -0.308050001557E+03    0.44032E-03   -0.15626E-02  1504   0.364E-01    0.383E-01
DAV:   6    -0.308049142268E+03    0.85929E-03   -0.27891E-03  1664   0.146E-01    0.940E-02
DAV:   7    -0.308048884809E+03    0.25746E-03   -0.10029E-03  1680   0.107E-01    0.136E-01
DAV:   8    -0.308048805419E+03    0.79390E-04   -0.32682E-04  1592   0.526E-02    0.384E-02
DAV:   9    -0.308048775136E+03    0.30283E-04   -0.16633E-04  1496   0.401E-02    0.468E-02
DAV:  10    -0.308048778422E+03   -0.32858E-05   -0.50941E-05  1296   0.182E-02    0.339E-02
DAV:  11    -0.308048775042E+03    0.33798E-05   -0.70072E-06  1216   0.607E-03    0.120E-02
DAV:  12    -0.308048764291E+03    0.10751E-04   -0.81881E-06  1160   0.160E-02    0.498E-03
DAV:  13    -0.308048760057E+03    0.42342E-05   -0.12819E-05  1224   0.127E-02    0.115E-02
DAV:  14    -0.308048760087E+03   -0.30246E-07   -0.67971E-06  1248   0.486E-03
  22 F= -.30804876E+03 E0= -.30804876E+03  d E =-.222190E-12
       N       E                     dE             d eps       ncg     rms          rms(c)
DAV:   1    -0.308303362460E+03   -0.25460E+00   -0.10920E+01  1304   0.725E+00    0.307E+00
DAV:   2    -0.308212642931E+03    0.90720E-01   -0.24874E-01  1352   0.129E+00    0.179E+00
DAV:   3    -0.308158100503E+03    0.54542E-01   -0.34928E-02  1656   0.483E-01    0.718E-01
DAV:   4    -0.308151838505E+03    0.62620E-02   -0.19026E-02  1672   0.307E-01    0.225E-01
DAV:   5    -0.308151876498E+03   -0.37993E-04   -0.25278E-03  1352   0.154E-01    0.162E-01
DAV:   6    -0.308151905655E+03   -0.29157E-04   -0.51132E-04  1600   0.434E-02    0.387E-02
DAV:   7    -0.308151916153E+03   -0.10498E-04   -0.36084E-05  1416   0.150E-02    0.414E-02
DAV:   8    -0.308151919852E+03   -0.36996E-05   -0.15199E-05  1248   0.655E-03    0.173E-02
DAV:   9    -0.308151920920E+03   -0.10680E-05   -0.62203E-06  1192   0.581E-03    0.669E-03
DAV:  10    -0.308151921553E+03   -0.63226E-06   -0.21715E-06   960   0.328E-03
  23 F= -.30815192E+03 E0= -.30815192E+03  d E =-.815067E-13
       N       E                     dE             d eps       ncg     rms          rms(c)
DAV:   1    -0.308756719750E+03   -0.60480E+00   -0.43665E+01  1304   0.145E+01    0.616E+00
DAV:   2    -0.308395355209E+03    0.36136E+00   -0.10102E+00  1368   0.252E+00    0.358E+00
DAV:   3    -0.308177594056E+03    0.21776E+00   -0.13926E-01  1608   0.861E-01    0.143E+00
DAV:   4    -0.308151588764E+03    0.26005E-01   -0.68559E-02  1672   0.583E-01    0.412E-01
DAV:   5    -0.308151725374E+03   -0.13661E-03   -0.10097E-02  1344   0.311E-01    0.311E-01
DAV:   6    -0.308151855832E+03   -0.13046E-03   -0.19992E-03  1560   0.891E-02    0.797E-02
DAV:   7    -0.308151897562E+03   -0.41729E-04   -0.13161E-04  1416   0.288E-02    0.778E-02
DAV:   8    -0.308151911582E+03   -0.14020E-04   -0.52352E-05  1320   0.121E-02    0.341E-02
DAV:   9    -0.308151918971E+03   -0.73895E-05   -0.25335E-05  1232   0.109E-02    0.155E-02
DAV:  10    -0.308151920862E+03   -0.18903E-05   -0.56026E-06  1128   0.537E-03    0.189E-02
DAV:  11    -0.308151920680E+03    0.18200E-06   -0.13856E-06   816   0.275E-03
  24 F= -.30815192E+03 E0= -.30815192E+03  d E =-.788617E-13
       N       E                     dE             d eps       ncg     rms          rms(c)
DAV:   1    -0.308200087179E+03   -0.48166E-01   -0.10917E+01  1304   0.724E+00    0.307E+00
DAV:   2    -0.308109525013E+03    0.90562E-01   -0.25061E-01  1368   0.131E+00    0.179E+00
DAV:   3    -0.308055049695E+03    0.54475E-01   -0.35250E-02  1624   0.474E-01    0.720E-01
DAV:   4    -0.308048656766E+03    0.63929E-02   -0.18215E-02  1680   0.306E-01    0.212E-01
DAV:   5    -0.308048706010E+03   -0.49244E-04   -0.27247E-03  1352   0.161E-01    0.151E-01
DAV:   6    -0.308048741667E+03   -0.35656E-04   -0.52169E-04  1472   0.462E-02    0.397E-02
DAV:   7    -0.308048750895E+03   -0.92282E-05   -0.32857E-05  1408   0.154E-02    0.382E-02
DAV:   8    -0.308048754669E+03   -0.37745E-05   -0.17031E-05  1192   0.695E-03    0.137E-02
DAV:   9    -0.308048756331E+03   -0.16614E-05   -0.54193E-06  1160   0.540E-03    0.897E-03
DAV:  10    -0.308048756889E+03   -0.55831E-06   -0.11990E-06   856   0.274E-03
  25 F= -.30804876E+03 E0= -.30804876E+03  d E =-.198593E-12
       N       E                     dE             d eps       ncg     rms          rms(c)
DAV:   1    -0.308780659977E+03   -0.73190E+00   -0.47142E+01  1304   0.148E+01    0.615E+00
DAV:   2    -0.308428274368E+03    0.35239E+00   -0.11030E+00  1368   0.261E+00    0.358E+00
DAV:   3    -0.308210311540E+03    0.21796E+00   -0.14250E-01  1616   0.877E-01    0.142E+00
DAV:   4    -0.308184902184E+03    0.25409E-01   -0.68453E-02  1696   0.591E-01    0.413E-01
DAV:   5    -0.308185043971E+03   -0.14179E-03   -0.98883E-03  1344   0.308E-01    0.317E-01
DAV:   6    -0.308185154310E+03   -0.11034E-03   -0.19261E-03  1544   0.833E-02    0.808E-02
DAV:   7    -0.308185202130E+03   -0.47820E-04   -0.14017E-04  1472   0.300E-02    0.802E-02
DAV:   8    -0.308185215955E+03   -0.13826E-04   -0.44651E-05  1408   0.128E-02    0.419E-02
DAV:   9    -0.308185222393E+03   -0.64376E-05   -0.24383E-05  1184   0.127E-02    0.104E-02
DAV:  10    -0.308185225177E+03   -0.27840E-05   -0.10542E-05  1184   0.714E-03    0.218E-02
DAV:  11    -0.308185224761E+03    0.41560E-06   -0.11430E-06   760   0.340E-03
  26 F= -.30818522E+03 E0= -.30818522E+03  d E =-.608864E-13
       N       E                     dE             d eps       ncg     rms          rms(c)
DAV:   1    -0.308184528369E+03    0.69681E-03   -0.86888E-01  1280   0.461E-01    0.471E-02
DAV:   2    -0.308185821900E+03   -0.12935E-02   -0.13037E-02  1312   0.685E-02    0.155E-02
DAV:   3    -0.308185863373E+03   -0.41473E-04   -0.42212E-04  1464   0.147E-02    0.117E-02
DAV:   4    -0.308185864731E+03   -0.13578E-05   -0.20691E-05   968   0.420E-03    0.844E-03
DAV:   5    -0.308185864489E+03    0.24243E-06   -0.12839E-06   880   0.271E-03
  27 F= -.30818586E+03 E0= -.30818586E+03  d E =-.581203E-13
       N       E                     dE             d eps       ncg     rms          rms(c)
DAV:   1    -0.308180940482E+03    0.49242E-02   -0.34940E+00  1272   0.956E-01    0.965E-02
DAV:   2    -0.308186255945E+03   -0.53155E-02   -0.53731E-02  1304   0.141E-01    0.254E-02
DAV:   3    -0.308186424235E+03   -0.16829E-03   -0.17328E-03  1568   0.291E-02    0.226E-02
DAV:   4    -0.308186429802E+03   -0.55667E-05   -0.84900E-05  1256   0.908E-03    0.188E-02
DAV:   5    -0.308186428664E+03    0.11375E-05   -0.46580E-06   944   0.464E-03    0.145E-02
DAV:   6    -0.308186426563E+03    0.21017E-05   -0.10169E-05  1272   0.217E-02    0.103E-02
DAV:   7    -0.308186426701E+03   -0.13805E-06   -0.52709E-06  1232   0.420E-03
  28 F= -.30818643E+03 E0= -.30818643E+03  d E =-.599451E-13
       N       E                     dE             d eps       ncg     rms          rms(c)
DAV:   1    -0.308184951649E+03    0.14749E-02   -0.86920E-01  1272   0.507E-01    0.494E-02
DAV:   2    -0.308186233747E+03   -0.12821E-02   -0.12934E-02  1296   0.713E-02    0.131E-02
DAV:   3    -0.308186262216E+03   -0.28469E-04   -0.29629E-04  1480   0.144E-02    0.105E-02
DAV:   4    -0.308186262889E+03   -0.67355E-06   -0.14191E-05   984   0.440E-03    0.796E-03
DAV:   5    -0.308186262568E+03    0.32163E-06   -0.93541E-07   880   0.265E-03
  29 F= -.30818626E+03 E0= -.30818626E+03  d E =-.713576E-13
       N       E                     dE             d eps       ncg     rms          rms(c)
DAV:   1    -0.308174148052E+03    0.12115E-01   -0.70383E+00  1264   0.142E+00    0.141E-01
DAV:   2    -0.308185477348E+03   -0.11329E-01   -0.11445E-01  1280   0.206E-01    0.336E-02
DAV:   3    -0.308185846444E+03   -0.36910E-03   -0.37797E-03  1560   0.399E-02    0.351E-02
DAV:   4    -0.308185858869E+03   -0.12425E-04   -0.19322E-04  1280   0.119E-02    0.278E-02
DAV:   5    -0.308185856882E+03    0.19871E-05   -0.10213E-05   944   0.425E-03    0.228E-02
DAV:   6    -0.308185856068E+03    0.81416E-06   -0.18349E-05  1192   0.198E-02    0.976E-03
DAV:   7    -0.308185856588E+03   -0.51997E-06   -0.90351E-06  1296   0.517E-03
  30 F= -.30818586E+03 E0= -.30818586E+03  d E =-.532126E-13
       N       E                     dE             d eps       ncg     rms          rms(c)
DAV:   1    -0.308184926487E+03    0.92958E-03   -0.87021E-01  1240   0.466E-01    0.464E-02
DAV:   2    -0.308186150383E+03   -0.12239E-02   -0.12313E-02  1288   0.685E-02    0.106E-02
DAV:   3    -0.308186185215E+03   -0.34832E-04   -0.35550E-04  1408   0.150E-02    0.122E-02
DAV:   4    -0.308186186453E+03   -0.12379E-05   -0.16836E-05   936   0.353E-03    0.954E-03
DAV:   5    -0.308186186409E+03    0.43525E-07   -0.96724E-07   760   0.149E-03
  31 F= -.30818619E+03 E0= -.30818619E+03  d E =-.526425E-13
       N       E                     dE             d eps       ncg     rms          rms(c)
DAV:   1    -0.308180687290E+03    0.54992E-02   -0.34969E+00  1232   0.108E+00    0.966E-02
DAV:   2    -0.308185961422E+03   -0.52741E-02   -0.53010E-02  1312   0.174E-01    0.214E-02
DAV:   3    -0.308186130583E+03   -0.16916E-03   -0.17011E-03  1488   0.254E-02    0.227E-02
DAV:   4    -0.308186137432E+03   -0.68495E-05   -0.81838E-05  1168   0.717E-03    0.174E-02
DAV:   5    -0.308186137514E+03   -0.81600E-07   -0.43092E-06   872   0.263E-03
  32 F= -.30818614E+03 E0= -.30818614E+03  d E =-.583480E-13
       N       E                     dE             d eps       ncg     rms          rms(c)
DAV:   1    -0.308184395242E+03    0.17422E-02   -0.86984E-01  1240   0.482E-01    0.478E-02
DAV:   2    -0.308185678743E+03   -0.12835E-02   -0.12870E-02  1280   0.714E-02    0.113E-02
DAV:   3    -0.308185720201E+03   -0.41458E-04   -0.40980E-04  1416   0.130E-02    0.106E-02
DAV:   4    -0.308185722105E+03   -0.19038E-05   -0.19367E-05   920   0.352E-03    0.781E-03
DAV:   5    -0.308185722421E+03   -0.31694E-06   -0.13151E-06   848   0.214E-03
  33 F= -.30818572E+03 E0= -.30818572E+03  d E =-.605935E-13
       N       E                     dE             d eps       ncg     rms          rms(c)
DAV:   1    -0.308172839690E+03    0.12882E-01   -0.70408E+00  1264   0.138E+00    0.142E-01
DAV:   2    -0.308183887399E+03   -0.11048E-01   -0.11174E-01  1392   0.204E-01    0.349E-02
DAV:   3    -0.308184252561E+03   -0.36516E-03   -0.37753E-03  1624   0.441E-02    0.362E-02
DAV:   4    -0.308184264678E+03   -0.12117E-04   -0.19053E-04  1360   0.143E-02    0.286E-02
DAV:   5    -0.308184262243E+03    0.24355E-05   -0.10568E-05  1024   0.496E-03    0.239E-02
DAV:   6    -0.308184257715E+03    0.45284E-05   -0.17389E-05  1216   0.266E-02    0.114E-02
DAV:   7    -0.308184257982E+03   -0.26735E-06   -0.11669E-05  1352   0.912E-03    0.133E-02
DAV:   8    -0.308184258076E+03   -0.94195E-07   -0.70731E-06  1224   0.538E-03
  34 F= -.30818426E+03 E0= -.30818426E+03  d E =-.103748E-12
       N       E                     dE             d eps       ncg     rms          rms(c)
DAV:   1    -0.308184464754E+03   -0.20677E-03   -0.87285E-01  1240   0.470E-01    0.492E-02
DAV:   2    -0.308185480155E+03   -0.10154E-02   -0.10282E-02  1336   0.634E-02    0.136E-02
DAV:   3    -0.308185511676E+03   -0.31521E-04   -0.35045E-04  1568   0.162E-02    0.145E-02
DAV:   4    -0.308185511442E+03    0.23399E-06   -0.10988E-05  1280   0.490E-03    0.106E-02
DAV:   5    -0.308185510926E+03    0.51591E-06   -0.56665E-07   832   0.208E-03
  35 F= -.30818551E+03 E0= -.30818551E+03  d E =-.744937E-13
       N       E                     dE             d eps       ncg     rms          rms(c)
DAV:   1    -0.308181191015E+03    0.43204E-02   -0.34994E+00  1256   0.971E-01    0.105E-01
DAV:   2    -0.308186395120E+03   -0.52041E-02   -0.52627E-02  1472   0.147E-01    0.333E-02
DAV:   3    -0.308186553428E+03   -0.15831E-03   -0.17521E-03  1680   0.403E-02    0.275E-02
DAV:   4    -0.308186557160E+03   -0.37321E-05   -0.98228E-05  1392   0.167E-02    0.207E-02
DAV:   5    -0.308186554906E+03    0.22543E-05   -0.66500E-06  1064   0.652E-03    0.165E-02
DAV:   6    -0.308186548030E+03    0.68759E-05   -0.12543E-05  1248   0.331E-02    0.109E-02
DAV:   7    -0.308186548116E+03   -0.85834E-07   -0.11418E-05  1344   0.812E-03    0.108E-02
DAV:   8    -0.308186548242E+03   -0.12601E-06   -0.48991E-06  1168   0.449E-03
  36 F= -.30818655E+03 E0= -.30818655E+03  d E =-.463361E-13
       N       E                     dE             d eps       ncg     rms          rms(c)
DAV:   1    -0.308185085218E+03    0.14629E-02   -0.87074E-01  1240   0.470E-01    0.544E-02
DAV:   2    -0.308186319233E+03   -0.12340E-02   -0.12453E-02  1424   0.679E-02    0.160E-02
DAV:   3    -0.308186356701E+03   -0.37468E-04   -0.41453E-04  1600   0.188E-02    0.132E-02
DAV:   4    -0.308186356670E+03    0.31483E-07   -0.14815E-05  1296   0.589E-03    0.919E-03
DAV:   5    -0.308186356080E+03    0.58963E-06   -0.96671E-07   880   0.258E-03
  37 F= -.30818636E+03 E0= -.30818636E+03  d E =-.423068E-13
       N       E                     dE             d eps       ncg     rms          rms(c)
DAV:   1    -0.308174477141E+03    0.11880E-01   -0.69948E+00  1368   0.170E+00    0.151E-01
DAV:   2    -0.308185016042E+03   -0.10539E-01   -0.10696E-01  1392   0.277E-01    0.400E-02
DAV:   3    -0.308185339871E+03   -0.32383E-03   -0.35124E-03  1640   0.584E-02    0.367E-02
DAV:   4    -0.308185349560E+03   -0.96883E-05   -0.19588E-04  1440   0.180E-02    0.274E-02
DAV:   5    -0.308185346057E+03    0.35023E-05   -0.10275E-05  1120   0.686E-03    0.218E-02
DAV:   6    -0.308185338560E+03    0.74979E-05   -0.13315E-05  1256   0.270E-02    0.850E-03
DAV:   7    -0.308185337676E+03    0.88344E-06   -0.11931E-05  1448   0.143E-02    0.111E-02
DAV:   8    -0.308185338058E+03   -0.38210E-06   -0.86221E-06  1256   0.630E-03
  38 F= -.30818534E+03 E0= -.30818534E+03  d E =-.647375E-13
       N       E                     dE             d eps       ncg     rms          rms(c)
DAV:   1    -0.308184772441E+03    0.56524E-03   -0.86993E-01  1272   0.520E-01    0.503E-02
DAV:   2    -0.308186004946E+03   -0.12325E-02   -0.12456E-02  1368   0.701E-02    0.123E-02
DAV:   3    -0.308186041946E+03   -0.37000E-04   -0.39089E-04  1528   0.145E-02    0.126E-02
DAV:   4    -0.308186043007E+03   -0.10615E-05   -0.19556E-05  1032   0.404E-03    0.999E-03
DAV:   5    -0.308186042617E+03    0.39019E-06   -0.11323E-06   824   0.241E-03
  39 F= -.30818604E+03 E0= -.30818604E+03  d E =-.602498E-13
       N       E                     dE             d eps       ncg     rms          rms(c)
DAV:   1    -0.308180806529E+03    0.52365E-02   -0.34982E+00  1272   0.100E+00    0.110E-01
DAV:   2    -0.308185899512E+03   -0.50930E-02   -0.51670E-02  1416   0.146E-01    0.281E-02
DAV:   3    -0.308186054268E+03   -0.15476E-03   -0.16580E-03  1680   0.323E-02    0.254E-02
DAV:   4    -0.308186058827E+03   -0.45596E-05   -0.90367E-05  1456   0.103E-02    0.194E-02
DAV:   5    -0.308186056736E+03    0.20914E-05   -0.44999E-06   960   0.590E-03    0.150E-02
DAV:   6    -0.308186051619E+03    0.51163E-05   -0.12381E-05  1264   0.286E-02    0.103E-02
DAV:   7    -0.308186051932E+03   -0.31251E-06   -0.90058E-06  1400   0.550E-03
  40 F= -.30818605E+03 E0= -.30818605E+03  d E =-.555043E-13
       N       E                     dE             d eps       ncg     rms          rms(c)
DAV:   1    -0.308184068141E+03    0.19835E-02   -0.87034E-01  1288   0.577E-01    0.565E-02
DAV:   2    -0.308185263181E+03   -0.11950E-02   -0.12145E-02  1400   0.760E-02    0.135E-02
DAV:   3    -0.308185298980E+03   -0.35799E-04   -0.38840E-04  1552   0.167E-02    0.117E-02
DAV:   4    -0.308185299799E+03   -0.81945E-06   -0.20941E-05  1064   0.524E-03    0.865E-03
DAV:   5    -0.308185299086E+03    0.71359E-06   -0.12499E-06   936   0.333E-03
  41 F= -.30818530E+03 E0= -.30818530E+03  d E =-.615994E-13
       N       E                     dE             d eps       ncg     rms          rms(c)
DAV:   1    -0.308173661357E+03    0.11638E-01   -0.70421E+00  1264   0.148E+00    0.149E-01
DAV:   2    -0.308185029840E+03   -0.11368E-01   -0.11553E-01  1392   0.233E-01    0.388E-02
DAV:   3    -0.308185393410E+03   -0.36357E-03   -0.38429E-03  1720   0.430E-02    0.377E-02
DAV:   4    -0.308185404023E+03   -0.10613E-04   -0.18527E-04  1408   0.124E-02    0.292E-02
DAV:   5    -0.308185401075E+03    0.29479E-05   -0.90823E-06   960   0.538E-03    0.223E-02
DAV:   6    -0.308185397615E+03    0.34598E-05   -0.17058E-05  1232   0.211E-02    0.973E-03
DAV:   7    -0.308185398016E+03   -0.40103E-06   -0.95514E-06  1424   0.599E-03
  42 F= -.30818540E+03 E0= -.30818540E+03  d E =-.550942E-13
       N       E                     dE             d eps       ncg     rms          rms(c)
DAV:   1    -0.308184877856E+03    0.51976E-03   -0.87156E-01  1256   0.509E-01    0.508E-02
DAV:   2    -0.308186062484E+03   -0.11846E-02   -0.11953E-02  1288   0.719E-02    0.122E-02
DAV:   3    -0.308186096440E+03   -0.33956E-04   -0.35853E-04  1496   0.137E-02    0.135E-02
DAV:   4    -0.308186097454E+03   -0.10144E-05   -0.17137E-05   880   0.358E-03    0.992E-03
DAV:   5    -0.308186097286E+03    0.16896E-06   -0.10233E-06   792   0.187E-03
  43 F= -.30818610E+03 E0= -.30818610E+03  d E =-.536453E-13
       N       E                     dE             d eps       ncg     rms          rms(c)
DAV:   1    -0.308180850306E+03    0.52471E-02   -0.35035E+00  1256   0.104E+00    0.108E-01
DAV:   2    -0.308185827319E+03   -0.49770E-02   -0.50298E-02  1320   0.146E-01    0.258E-02
DAV:   3    -0.308185973494E+03   -0.14618E-03   -0.15428E-03  1616   0.296E-02    0.258E-02
DAV:   4    -0.308185978660E+03   -0.51655E-05   -0.79525E-05  1304   0.830E-03    0.185E-02
DAV:   5    -0.308185978156E+03    0.50307E-06   -0.39420E-06   824   0.379E-03
  44 F= -.30818598E+03 E0= -.30818598E+03  d E =-.532441E-13
       N       E                     dE             d eps       ncg     rms          rms(c)
DAV:   1    -0.308183925993E+03    0.20527E-02   -0.87109E-01  1264   0.646E-01    0.551E-02
DAV:   2    -0.308185178499E+03   -0.12525E-02   -0.12628E-02  1360   0.693E-02    0.136E-02
DAV:   3    -0.308185215230E+03   -0.36730E-04   -0.38172E-04  1528   0.151E-02    0.128E-02
DAV:   4    -0.308185216499E+03   -0.12691E-05   -0.18668E-05   888   0.387E-03    0.889E-03
DAV:   5    -0.308185216482E+03    0.16611E-07   -0.13102E-06   832   0.251E-03
  45 F= -.30818522E+03 E0= -.30818522E+03  d E =-.557285E-13
       N       E                     dE             d eps       ncg     rms          rms(c)
DAV:   1    -0.308173966753E+03    0.11250E-01   -0.70587E+00  1280   0.140E+00    0.150E-01
DAV:   2    -0.308184113672E+03   -0.10147E-01   -0.10301E-01  1264   0.245E-01    0.369E-02
DAV:   3    -0.308184421774E+03   -0.30810E-03   -0.32928E-03  1672   0.449E-02    0.377E-02
DAV:   4    -0.308184432201E+03   -0.10427E-04   -0.17935E-04  1432   0.129E-02    0.284E-02
DAV:   5    -0.308184429540E+03    0.26606E-05   -0.77112E-06   960   0.517E-03    0.216E-02
DAV:   6    -0.308184427765E+03    0.17752E-05   -0.18195E-05  1224   0.190E-02    0.821E-03
DAV:   7    -0.308184428292E+03   -0.52665E-06   -0.75596E-06  1240   0.514E-03
  46 F= -.30818443E+03 E0= -.30818443E+03  d E =-.630943E-13
       N       E                     dE             d eps       ncg     rms          rms(c)
DAV:   1    -0.308184336417E+03    0.91348E-04   -0.87128E-01  1264   0.489E-01    0.500E-02
DAV:   2    -0.308185526756E+03   -0.11903E-02   -0.12002E-02  1296   0.710E-02    0.119E-02
DAV:   3    -0.308185562764E+03   -0.36008E-04   -0.37295E-04  1488   0.146E-02    0.122E-02
DAV:   4    -0.308185563935E+03   -0.11714E-05   -0.18972E-05  1104   0.434E-03    0.926E-03
DAV:   5    -0.308185563693E+03    0.24196E-06   -0.11326E-06   824   0.259E-03
  47 F= -.30818556E+03 E0= -.30818556E+03  d E =-.587124E-13
       N       E                     dE             d eps       ncg     rms          rms(c)
DAV:   1    -0.308181266279E+03    0.42977E-02   -0.35015E+00  1264   0.102E+00    0.105E-01
DAV:   2    -0.308186379521E+03   -0.51132E-02   -0.51674E-02  1288   0.143E-01    0.254E-02
DAV:   3    -0.308186538708E+03   -0.15919E-03   -0.16512E-03  1680   0.324E-02    0.246E-02
DAV:   4    -0.308186544130E+03   -0.54218E-05   -0.86900E-05  1400   0.108E-02    0.191E-02
DAV:   5    -0.308186543005E+03    0.11250E-05   -0.44638E-06   928   0.492E-03    0.137E-02
DAV:   6    -0.308186542481E+03    0.52332E-06   -0.94026E-06  1256   0.181E-02
  48 F= -.30818654E+03 E0= -.30818654E+03  d E =-.587877E-13
       N       E                     dE             d eps       ncg     rms          rms(c)
DAV:   1    -0.308185089214E+03    0.14538E-02   -0.87105E-01  1264   0.495E-01    0.538E-02
DAV:   2    -0.308186352780E+03   -0.12636E-02   -0.12710E-02  1296   0.686E-02    0.125E-02
DAV:   3    -0.308186391539E+03   -0.38759E-04   -0.39528E-04  1504   0.166E-02    0.117E-02
DAV:   4    -0.308186392882E+03   -0.13428E-05   -0.20337E-05  1144   0.473E-03    0.899E-03
DAV:   5    -0.308186392700E+03    0.18215E-06   -0.11529E-06   848   0.266E-03
  49 F= -.30818639E+03 E0= -.30818639E+03  d E =-.657851E-13
       N       E                     dE             d eps       ncg     rms          rms(c)
DAV:   1    -0.308173402281E+03    0.12991E-01   -0.69910E+00  1376   0.188E+00    0.141E-01
DAV:   2    -0.308184277813E+03   -0.10876E-01   -0.11016E-01  1304   0.277E-01    0.371E-02
DAV:   3    -0.308184622678E+03   -0.34487E-03   -0.36379E-03  1680   0.698E-02    0.360E-02
DAV:   4    -0.308184632000E+03   -0.93211E-05   -0.17278E-04  1472   0.171E-02    0.272E-02
DAV:   5    -0.308184629131E+03    0.28684E-05   -0.61875E-06  1080   0.742E-03    0.202E-02
DAV:   6    -0.308184627519E+03    0.16125E-05   -0.18280E-05  1336   0.278E-02    0.995E-03
DAV:   7    -0.308184628261E+03   -0.74212E-06   -0.11274E-05  1360   0.646E-03    0.750E-03
DAV:   8    -0.308184628230E+03    0.30581E-07   -0.13149E-06   904   0.282E-03
  50 F= -.30818463E+03 E0= -.30818463E+03  d E =-.766116E-13
       N       E                     dE             d eps       ncg     rms          rms(c)
DAV:   1    -0.308184364164E+03    0.26410E-03   -0.86982E-01  1248   0.571E-01    0.491E-02
DAV:   2    -0.308185621715E+03   -0.12576E-02   -0.12657E-02  1328   0.863E-02    0.128E-02
DAV:   3    -0.308185656910E+03   -0.35195E-04   -0.36522E-04  1560   0.161E-02    0.120E-02
DAV:   4    -0.308185658437E+03   -0.15273E-05   -0.20716E-05  1008   0.451E-03    0.822E-03
DAV:   5    -0.308185658319E+03    0.11870E-06   -0.11201E-06   872   0.254E-03
  51 F= -.30818566E+03 E0= -.30818566E+03  d E =-.652312E-13
       N       E                     dE             d eps       ncg     rms          rms(c)
DAV:   1    -0.308181028955E+03    0.46295E-02   -0.34959E+00  1248   0.120E+00    0.105E-01
DAV:   2    -0.308186361923E+03   -0.53330E-02   -0.53832E-02  1336   0.176E-01    0.282E-02
DAV:   3    -0.308186527288E+03   -0.16536E-03   -0.17771E-03  1640   0.424E-02    0.249E-02
DAV:   4    -0.308186537133E+03   -0.98451E-05   -0.12730E-04  1400   0.128E-02    0.185E-02
DAV:   5    -0.308186535900E+03    0.12330E-05   -0.35292E-06  1048   0.573E-03    0.137E-02
DAV:   6    -0.308186535502E+03    0.39819E-06   -0.10132E-05  1208   0.230E-02    0.667E-03
DAV:   7    -0.308186535836E+03   -0.33365E-06   -0.53587E-06  1256   0.433E-03
  52 F= -.30818654E+03 E0= -.30818654E+03  d E =-.526233E-13
       N       E                     dE             d eps       ncg     rms          rms(c)
DAV:   1    -0.308185165216E+03    0.13703E-02   -0.87003E-01  1256   0.604E-01    0.528E-02
DAV:   2    -0.308186419345E+03   -0.12541E-02   -0.12591E-02  1336   0.837E-02    0.121E-02
DAV:   3    -0.308186457665E+03   -0.38320E-04   -0.39659E-04  1552   0.187E-02    0.119E-02
DAV:   4    -0.308186459444E+03   -0.17789E-05   -0.23551E-05  1064   0.482E-03    0.858E-03
DAV:   5    -0.308186459317E+03    0.12694E-06   -0.11996E-06   904   0.267E-03
  53 F= -.30818646E+03 E0= -.30818646E+03  d E =-.552922E-13
       N       E                     dE             d eps       ncg     rms          rms(c)
DAV:   1    -0.308172295657E+03    0.14164E-01   -0.70463E+00  1272   0.165E+00    0.156E-01
DAV:   2    -0.308183262611E+03   -0.10967E-01   -0.11182E-01  1432   0.267E-01    0.444E-02
DAV:   3    -0.308183613271E+03   -0.35066E-03   -0.39571E-03  1712   0.676E-02    0.376E-02
DAV:   4    -0.308183629013E+03   -0.15742E-04   -0.24277E-04  1496   0.171E-02    0.278E-02
DAV:   5    -0.308183625353E+03    0.36602E-05   -0.82220E-06  1048   0.723E-03    0.194E-02
DAV:   6    -0.308183623557E+03    0.17957E-05   -0.18638E-05  1288   0.200E-02    0.739E-03
DAV:   7    -0.308183624272E+03   -0.71518E-06   -0.86819E-06  1288   0.530E-03
  54 F= -.30818362E+03 E0= -.30818362E+03  d E =-.518430E-13
       N       E                     dE             d eps       ncg     rms          rms(c)
DAV:   1    -0.308184013370E+03   -0.38981E-03   -0.87063E-01  1288   0.630E-01    0.556E-02
DAV:   2    -0.308185277884E+03   -0.12645E-02   -0.12725E-02  1312   0.906E-02    0.146E-02
DAV:   3    -0.308185314382E+03   -0.36497E-04   -0.39282E-04  1584   0.160E-02    0.147E-02
DAV:   4    -0.308185315676E+03   -0.12947E-05   -0.21500E-05  1152   0.467E-03    0.891E-03
DAV:   5    -0.308185315578E+03    0.98436E-07   -0.11007E-06   816   0.237E-03
  55 F= -.30818532E+03 E0= -.30818532E+03  d E =-.513925E-13
       N       E                     dE             d eps       ncg     rms          rms(c)
DAV:   1    -0.308181150324E+03    0.41654E-02   -0.35011E+00  1280   0.132E+00    0.119E-01
DAV:   2    -0.308186391624E+03   -0.52413E-02   -0.52879E-02  1328   0.181E-01    0.299E-02
DAV:   3    -0.308186544393E+03   -0.15277E-03   -0.16665E-03  1632   0.375E-02    0.287E-02
DAV:   4    -0.308186551587E+03   -0.71944E-05   -0.10499E-04  1328   0.108E-02    0.181E-02
DAV:   5    -0.308186551118E+03    0.46895E-06   -0.42752E-06   960   0.533E-03
  56 F= -.30818655E+03 E0= -.30818655E+03  d E =-.560960E-13
       N       E                     dE             d eps       ncg     rms          rms(c)
DAV:   1    -0.308184836345E+03    0.17152E-02   -0.87087E-01  1288   0.617E-01    0.594E-02
DAV:   2    -0.308186131216E+03   -0.12949E-02   -0.13013E-02  1320   0.859E-02    0.148E-02
DAV:   3    -0.308186169179E+03   -0.37963E-04   -0.40302E-04  1584   0.173E-02    0.133E-02
DAV:   4    -0.308186171090E+03   -0.19109E-05   -0.24088E-05  1152   0.500E-03    0.866E-03
DAV:   5    -0.308186171191E+03   -0.10122E-06   -0.12230E-06   840   0.273E-03
  57 F= -.30818617E+03 E0= -.30818617E+03  d E =-.630990E-13
       N       E                     dE             d eps       ncg     rms          rms(c)
DAV:   1    -0.308173259253E+03    0.12912E-01   -0.70456E+00  1240   0.178E+00    0.169E-01
DAV:   2    -0.308184159896E+03   -0.10901E-01   -0.11045E-01  1336   0.251E-01    0.495E-02
DAV:   3    -0.308184479678E+03   -0.31978E-03   -0.36508E-03  1624   0.650E-02    0.433E-02
DAV:   4    -0.308184494440E+03   -0.14762E-04   -0.26815E-04  1472   0.198E-02    0.267E-02
DAV:   5    -0.308184490415E+03    0.40250E-05   -0.90279E-06  1192   0.877E-03    0.193E-02
DAV:   6    -0.308184486404E+03    0.40102E-05   -0.14509E-05  1400   0.239E-02    0.648E-03
DAV:   7    -0.308184487070E+03   -0.66548E-06   -0.13852E-05  1392   0.839E-03    0.731E-03
DAV:   8    -0.308184487103E+03   -0.33207E-07   -0.42511E-06  1152   0.428E-03
  58 F= -.30818449E+03 E0= -.30818449E+03  d E =-.515555E-13
       N       E                     dE             d eps       ncg     rms          rms(c)
DAV:   1    -0.308184557204E+03   -0.70134E-04   -0.87037E-01  1288   0.600E-01    0.510E-02
DAV:   2    -0.308185733917E+03   -0.11767E-02   -0.11859E-02  1304   0.795E-02    0.158E-02
DAV:   3    -0.308185768262E+03   -0.34346E-04   -0.37376E-04  1584   0.171E-02    0.130E-02
DAV:   4    -0.308185769304E+03   -0.10417E-05   -0.20172E-05  1272   0.553E-03    0.774E-03
DAV:   5    -0.308185769019E+03    0.28542E-06   -0.11763E-06   912   0.252E-03
  59 F= -.30818577E+03 E0= -.30818577E+03  d E =-.528763E-13
       N       E                     dE             d eps       ncg     rms          rms(c)
DAV:   1    -0.308180542225E+03    0.52271E-02   -0.34950E+00  1264   0.126E+00    0.109E-01
DAV:   2    -0.308185934191E+03   -0.53920E-02   -0.54455E-02  1320   0.197E-01    0.323E-02
DAV:   3    -0.308186097107E+03   -0.16292E-03   -0.18001E-03  1640   0.467E-02    0.260E-02
DAV:   4    -0.308186103821E+03   -0.67139E-05   -0.11453E-04  1408   0.157E-02    0.182E-02
DAV:   5    -0.308186102066E+03    0.17552E-05   -0.62186E-06  1056   0.642E-03    0.142E-02
DAV:   6    -0.308186098966E+03    0.30993E-05   -0.84211E-06  1232   0.232E-02    0.599E-03
DAV:   7    -0.308186099143E+03   -0.17695E-06   -0.83380E-06  1344   0.692E-03
  60 F= -.30818610E+03 E0= -.30818610E+03  d E =-.598413E-13
       N       E                     dE             d eps       ncg     rms          rms(c)
DAV:   1    -0.308184003808E+03    0.20952E-02   -0.86933E-01  1280   0.577E-01    0.554E-02
DAV:   2    -0.308185309106E+03   -0.13053E-02   -0.13116E-02  1320   0.813E-02    0.147E-02
DAV:   3    -0.308185347701E+03   -0.38595E-04   -0.41807E-04  1616   0.195E-02    0.123E-02
DAV:   4    -0.308185348909E+03   -0.12086E-05   -0.24140E-05  1288   0.646E-03    0.865E-03
DAV:   5    -0.308185348542E+03    0.36729E-06   -0.14641E-06   872   0.264E-03
  61 F= -.30818535E+03 E0= -.30818535E+03  d E =-.686040E-13
       N       E                     dE             d eps       ncg     rms          rms(c)
DAV:   1    -0.308174028319E+03    0.11321E-01   -0.69862E+00  1424   0.224E+00    0.158E-01
DAV:   2    -0.308185196567E+03   -0.11168E-01   -0.11373E-01  1360   0.349E-01    0.466E-02
DAV:   3    -0.308185530038E+03   -0.33347E-03   -0.37822E-03  1648   0.886E-02    0.380E-02
DAV:   4    -0.308185543830E+03   -0.13793E-04   -0.25080E-04  1536   0.230E-02    0.278E-02
DAV:   5    -0.308185538956E+03    0.48746E-05   -0.89161E-06  1176   0.901E-03    0.202E-02
DAV:   6    -0.308185532552E+03    0.64039E-05   -0.21437E-05  1424   0.364E-02    0.959E-03
DAV:   7    -0.308185533629E+03   -0.10775E-05   -0.17663E-05  1432   0.746E-03    0.851E-03
DAV:   8    -0.308185533455E+03    0.17486E-06   -0.19475E-06   960   0.344E-03
  62 F= -.30818553E+03 E0= -.30818553E+03  d E =-.612521E-13
       N       E                     dE             d eps       ncg     rms          rms(c)
DAV:   1    -0.308184715176E+03    0.81845E-03   -0.86922E-01  1232   0.651E-01    0.464E-02
DAV:   2    -0.308186008617E+03   -0.12934E-02   -0.13024E-02  1224   0.958E-02    0.121E-02
DAV:   3    -0.308186048751E+03   -0.40134E-04   -0.41689E-04  1496   0.198E-02    0.112E-02
DAV:   4    -0.308186050702E+03   -0.19511E-05   -0.25335E-05  1000   0.562E-03    0.876E-03
DAV:   5    -0.308186050452E+03    0.24969E-06   -0.12073E-06   872   0.310E-03
  63 F= -.30818605E+03 E0= -.30818605E+03  d E =-.575159E-13
       N       E                     dE             d eps       ncg     rms          rms(c)
DAV:   1    -0.308180487436E+03    0.55633E-02   -0.34929E+00  1232   0.130E+00    0.101E-01
DAV:   2    -0.308186017967E+03   -0.55305E-02   -0.56015E-02  1272   0.221E-01    0.290E-02
DAV:   3    -0.308186188549E+03   -0.17058E-03   -0.18727E-03  1576   0.504E-02    0.237E-02
DAV:   4    -0.308186198732E+03   -0.10184E-04   -0.13530E-04  1320   0.161E-02    0.187E-02
DAV:   5    -0.308186197105E+03    0.16272E-05   -0.39285E-06  1032   0.741E-03    0.137E-02
DAV:   6    -0.308186195207E+03    0.18978E-05   -0.10448E-05  1272   0.246E-02    0.667E-03
DAV:   7    -0.308186195580E+03   -0.37299E-06   -0.66899E-06  1272   0.500E-03
  64 F= -.30818620E+03 E0= -.30818620E+03  d E =-.510281E-13
       N       E                     dE             d eps       ncg     rms          rms(c)
DAV:   1    -0.308184435892E+03    0.17593E-02   -0.86963E-01  1232   0.705E-01    0.502E-02
DAV:   2    -0.308185704529E+03   -0.12686E-02   -0.12791E-02  1232   0.949E-02    0.120E-02
DAV:   3    -0.308185743635E+03   -0.39106E-04   -0.41027E-04  1520   0.219E-02    0.110E-02
DAV:   4    -0.308185745597E+03   -0.19627E-05   -0.25621E-05  1024   0.580E-03    0.840E-03
DAV:   5    -0.308185745362E+03    0.23514E-06   -0.12776E-06   888   0.296E-03
  65 F= -.30818575E+03 E0= -.30818575E+03  d E =-.500651E-13
       N       E                     dE             d eps       ncg     rms          rms(c)
DAV:   1    -0.308174214191E+03    0.11531E-01   -0.70412E+00  1264   0.192E+00    0.150E-01
DAV:   2    -0.308185549761E+03   -0.11336E-01   -0.11510E-01  1256   0.315E-01    0.418E-02
DAV:   3    -0.308185886128E+03   -0.33637E-03   -0.37158E-03  1584   0.741E-02    0.352E-02
DAV:   4    -0.308185906562E+03   -0.20433E-04   -0.28262E-04  1384   0.202E-02    0.260E-02
DAV:   5    -0.308185903326E+03    0.32358E-05   -0.65096E-06  1080   0.864E-03    0.190E-02
DAV:   6    -0.308185901733E+03    0.15931E-05   -0.18630E-05  1272   0.254E-02    0.653E-03
DAV:   7    -0.308185902556E+03   -0.82315E-06   -0.10677E-05  1320   0.604E-03    0.529E-03
DAV:   8    -0.308185902608E+03   -0.51841E-07   -0.55973E-07   888   0.305E-03
  66 F= -.30818590E+03 E0= -.30818590E+03  d E =-.513171E-13
       N       E                     dE             d eps       ncg     rms          rms(c)
DAV:   1    -0.308184950475E+03    0.95208E-03   -0.86999E-01  1248   0.683E-01    0.475E-02
DAV:   2    -0.308186204578E+03   -0.12541E-02   -0.12615E-02  1248   0.964E-02    0.115E-02
DAV:   3    -0.308186237352E+03   -0.32773E-04   -0.33638E-04  1472   0.196E-02    0.106E-02
DAV:   4    -0.308186239006E+03   -0.16539E-05   -0.19288E-05   976   0.499E-03    0.731E-03
DAV:   5    -0.308186239120E+03   -0.11416E-06   -0.10630E-06   872   0.266E-03
  67 F= -.30818624E+03 E0= -.30818624E+03  d E =-.522044E-13
       N       E                     dE             d eps       ncg     rms          rms(c)
DAV:   1    -0.308180708665E+03    0.55303E-02   -0.34987E+00  1248   0.138E+00    0.996E-02
DAV:   2    -0.308185879694E+03   -0.51710E-02   -0.52222E-02  1248   0.231E-01    0.254E-02
DAV:   3    -0.308186031404E+03   -0.15171E-03   -0.16168E-03  1592   0.495E-02    0.218E-02
DAV:   4    -0.308186041014E+03   -0.96102E-05   -0.11001E-04  1264   0.122E-02    0.164E-02
DAV:   5    -0.308186040850E+03    0.16457E-06   -0.29597E-06   904   0.455E-03
  68 F= -.30818604E+03 E0= -.30818604E+03  d E =-.548608E-13
       N       E                     dE             d eps       ncg     rms          rms(c)
DAV:   1    -0.308184243038E+03    0.17980E-02   -0.87083E-01  1256   0.642E-01    0.488E-02
DAV:   2    -0.308185449082E+03   -0.12060E-02   -0.12096E-02  1232   0.931E-02    0.112E-02
DAV:   3    -0.308185488108E+03   -0.39025E-04   -0.38961E-04  1456   0.181E-02    0.101E-02
DAV:   4    -0.308185490468E+03   -0.23607E-05   -0.22343E-05   976   0.490E-03    0.731E-03
DAV:   5    -0.308185490812E+03   -0.34414E-06   -0.12537E-06   944   0.268E-03
  69 F= -.30818549E+03 E0= -.30818549E+03  d E =-.588057E-13
       N       E                     dE             d eps       ncg     rms          rms(c)
DAV:   1    -0.308173541686E+03    0.11949E-01   -0.70396E+00  1256   0.182E+00    0.147E-01
DAV:   2    -0.308185029089E+03   -0.11487E-01   -0.11664E-01  1344   0.320E-01    0.467E-02
DAV:   3    -0.308185260818E+03   -0.23173E-03   -0.28218E-03  1664   0.798E-02    0.353E-02
DAV:   4    -0.308185271325E+03   -0.10507E-04   -0.18142E-04  1472   0.187E-02    0.252E-02
DAV:   5    -0.308185267763E+03    0.35618E-05   -0.55045E-06  1056   0.999E-03    0.171E-02
DAV:   6    -0.308185264470E+03    0.32929E-05   -0.18064E-05  1288   0.292E-02    0.855E-03
DAV:   7    -0.308185265821E+03   -0.13513E-05   -0.17402E-05  1328   0.788E-03    0.641E-03
DAV:   8    -0.308185265742E+03    0.79366E-07   -0.75469E-07  1000   0.386E-03
  70 F= -.30818527E+03 E0= -.30818527E+03  d E =-.950268E-13
       N       E                     dE             d eps       ncg     rms          rms(c)
DAV:   1    -0.308184791799E+03    0.47402E-03   -0.87111E-01  1264   0.678E-01    0.528E-02
DAV:   2    -0.308186007756E+03   -0.12160E-02   -0.12280E-02  1280   0.107E-01    0.165E-02
DAV:   3    -0.308186043182E+03   -0.35426E-04   -0.40261E-04  1544   0.232E-02    0.132E-02
DAV:   4    -0.308186044405E+03   -0.12232E-05   -0.26610E-05  1280   0.764E-03    0.815E-03
DAV:   5    -0.308186043742E+03    0.66271E-06   -0.12621E-06   952   0.378E-03
  71 F= -.30818604E+03 E0= -.30818604E+03  d E =-.740772E-13
       N       E                     dE             d eps       ncg     rms          rms(c)
DAV:   1    -0.308180463228E+03    0.55812E-02   -0.35006E+00  1272   0.142E+00    0.114E-01
DAV:   2    -0.308185749726E+03   -0.52865E-02   -0.53797E-02  1360   0.239E-01    0.362E-02
DAV:   3    -0.308185905960E+03   -0.15623E-03   -0.18761E-03  1624   0.591E-02    0.273E-02
DAV:   4    -0.308185913921E+03   -0.79608E-05   -0.14964E-04  1416   0.185E-02    0.195E-02
DAV:   5    -0.308185910667E+03    0.32536E-05   -0.41517E-06  1016   0.797E-03    0.149E-02
DAV:   6    -0.308185903653E+03    0.70144E-05   -0.11958E-05  1288   0.357E-02    0.792E-03
DAV:   7    -0.308185904255E+03   -0.60192E-06   -0.14551E-05  1344   0.727E-03    0.740E-03
DAV:   8    -0.308185904245E+03    0.95897E-08   -0.31756E-06  1096   0.356E-03
  72 F= -.30818590E+03 E0= -.30818590E+03  d E =-.545984E-13
       N       E                     dE             d eps       ncg     rms          rms(c)
DAV:   1    -0.308183610703E+03    0.22936E-02   -0.87110E-01  1272   0.751E-01    0.578E-02
DAV:   2    -0.308184835656E+03   -0.12250E-02   -0.12393E-02  1320   0.104E-01    0.153E-02
DAV:   3    -0.308184871095E+03   -0.35440E-04   -0.40839E-04  1592   0.285E-02    0.132E-02
DAV:   4    -0.308184872636E+03   -0.15405E-05   -0.29511E-05  1288   0.886E-03    0.918E-03
DAV:   5    -0.308184872063E+03    0.57292E-06   -0.14216E-06   944   0.364E-03
  73 F= -.30818487E+03 E0= -.30818487E+03  d E =-.568136E-13
       N       E                     dE             d eps       ncg     rms          rms(c)
DAV:   1    -0.308174198604E+03    0.10674E-01   -0.69919E+00  1416   0.274E+00    0.174E-01
DAV:   2    -0.308185341305E+03   -0.11143E-01   -0.11427E-01  1456   0.465E-01    0.614E-02
DAV:   3    -0.308185535258E+03   -0.19395E-03   -0.29918E-03  1624   0.117E-01    0.435E-02
DAV:   4    -0.308185542726E+03   -0.74681E-05   -0.24030E-04  1552   0.272E-02    0.281E-02
DAV:   5    -0.308185535195E+03    0.75315E-05   -0.82991E-06  1168   0.146E-02    0.182E-02
DAV:   6    -0.308185526619E+03    0.85758E-05   -0.25583E-05  1424   0.412E-02    0.927E-03
DAV:   7    -0.308185527971E+03   -0.13521E-05   -0.21948E-05  1376   0.927E-03    0.846E-03
DAV:   8    -0.308185527521E+03    0.44979E-06   -0.10841E-06   944   0.437E-03
  74 F= -.30818553E+03 E0= -.30818553E+03  d E =-.519365E-13
       N       E                     dE             d eps       ncg     rms          rms(c)
DAV:   1    -0.308184869814E+03    0.65816E-03   -0.86969E-01  1280   0.724E-01    0.536E-02
DAV:   2    -0.308186155807E+03   -0.12860E-02   -0.13011E-02  1288   0.110E-01    0.163E-02
DAV:   3    -0.308186193873E+03   -0.38066E-04   -0.42347E-04  1520   0.252E-02    0.129E-02
DAV:   4    -0.308186196024E+03   -0.21510E-05   -0.31096E-05  1104   0.743E-03    0.845E-03
DAV:   5    -0.308186195552E+03    0.47171E-06   -0.14502E-06   928   0.498E-03
  75 F= -.30818620E+03 E0= -.30818620E+03  d E =-.531108E-13
       N       E                     dE             d eps       ncg     rms          rms(c)
DAV:   1    -0.308180091900E+03    0.61041E-02   -0.34959E+00  1304   0.157E+00    0.117E-01
DAV:   2    -0.308185645878E+03   -0.55540E-02   -0.56635E-02  1400   0.277E-01    0.360E-02
DAV:   3    -0.308185788074E+03   -0.14220E-03   -0.17520E-03  1608   0.534E-02    0.270E-02
DAV:   4    -0.308185795440E+03   -0.73664E-05   -0.13447E-04  1448   0.153E-02    0.186E-02
DAV:   5    -0.308185792642E+03    0.27982E-05   -0.40290E-06  1104   0.960E-03    0.122E-02
DAV:   6    -0.308185789785E+03    0.28572E-05   -0.12030E-05  1368   0.246E-02    0.732E-03
DAV:   7    -0.308185790435E+03   -0.65052E-06   -0.84779E-06  1344   0.567E-03
  76 F= -.30818579E+03 E0= -.30818579E+03  d E =-.593278E-13
       N       E                     dE             d eps       ncg     rms          rms(c)
DAV:   1    -0.308183578130E+03    0.22117E-02   -0.87194E-01  1320   0.784E-01    0.587E-02
DAV:   2    -0.308184666682E+03   -0.10886E-02   -0.11045E-02  1256   0.103E-01    0.148E-02
DAV:   3    -0.308184698492E+03   -0.31810E-04   -0.36230E-04  1520   0.218E-02    0.138E-02
DAV:   4    -0.308184700065E+03   -0.15729E-05   -0.26814E-05  1144   0.659E-03    0.957E-03
DAV:   5    -0.308184699484E+03    0.58101E-06   -0.12385E-06   936   0.386E-03
  77 F= -.30818470E+03 E0= -.30818470E+03  d E =-.697602E-13
       N       E                     dE             d eps       ncg     rms          rms(c)
DAV:   1    -0.308173639263E+03    0.11061E-01   -0.70365E+00  1296   0.196E+00    0.159E-01
DAV:   2    -0.308185332296E+03   -0.11693E-01   -0.11876E-01  1432   0.348E-01    0.451E-02
DAV:   3    -0.308185656480E+03   -0.32418E-03   -0.36957E-03  1640   0.637E-02    0.383E-02
DAV:   4    -0.308185669509E+03   -0.13029E-04   -0.21692E-04  1568   0.169E-02    0.265E-02
DAV:   5    -0.308185666589E+03    0.29195E-05   -0.62178E-06  1056   0.874E-03    0.173E-02
DAV:   6    -0.308185665670E+03    0.91940E-06   -0.17750E-05  1320   0.234E-02    0.721E-03
DAV:   7    -0.308185666414E+03   -0.74394E-06   -0.94562E-06  1328   0.594E-03
  78 F= -.30818567E+03 E0= -.30818567E+03  d E =-.525019E-13
       N       E                     dE             d eps       ncg     rms          rms(c)
DAV:   1    -0.308184924330E+03    0.74134E-03   -0.86989E-01  1320   0.676E-01    0.499E-02
DAV:   2    -0.308186174963E+03   -0.12506E-02   -0.12576E-02  1240   0.984E-02    0.124E-02
DAV:   3    -0.308186214912E+03   -0.39949E-04   -0.41103E-04  1504   0.184E-02    0.119E-02
DAV:   4    -0.308186216692E+03   -0.17799E-05   -0.22386E-05  1000   0.507E-03    0.778E-03
DAV:   5    -0.308186216701E+03   -0.85784E-08   -0.12175E-06   816   0.241E-03
  79 F= -.30818622E+03 E0= -.30818622E+03  d E =-.526186E-13
       N       E                     dE             d eps       ncg     rms          rms(c)
DAV:   1    -0.308180021397E+03    0.61953E-02   -0.34931E+00  1288   0.141E+00    0.109E-01
DAV:   2    -0.308185698429E+03   -0.56770E-02   -0.57294E-02  1312   0.236E-01    0.295E-02
DAV:   3    -0.308185867231E+03   -0.16880E-03   -0.18158E-03  1568   0.480E-02    0.251E-02
DAV:   4    -0.308185877588E+03   -0.10357E-04   -0.12543E-04  1336   0.138E-02    0.173E-02
DAV:   5    -0.308185877378E+03    0.21017E-06   -0.39881E-06   984   0.583E-03
  80 F= -.30818588E+03 E0= -.30818588E+03  d E =-.538897E-13
       N       E                     dE             d eps       ncg     rms          rms(c)
DAV:   1    -0.308183636930E+03    0.22407E-02   -0.86950E-01  1288   0.831E-01    0.551E-02
DAV:   2    -0.308184974588E+03   -0.13377E-02   -0.13445E-02  1272   0.101E-01    0.138E-02
DAV:   3    -0.308185017554E+03   -0.42966E-04   -0.44421E-04  1520   0.253E-02    0.121E-02
DAV:   4    -0.308185020303E+03   -0.27497E-05   -0.29022E-05  1024   0.641E-03    0.821E-03
DAV:   5    -0.308185020489E+03   -0.18560E-06   -0.14650E-06   896   0.304E-03
  81 F= -.30818502E+03 E0= -.30818502E+03  d E =-.588145E-13
       N       E                     dE             d eps       ncg     rms          rms(c)
DAV:   1    -0.308173533471E+03    0.11487E-01   -0.70318E+00  1272   0.185E+00    0.148E-01
DAV:   2    -0.308185000952E+03   -0.11467E-01   -0.11630E-01  1336   0.290E-01    0.411E-02
DAV:   3    -0.308185381009E+03   -0.38006E-03   -0.41219E-03  1656   0.635E-02    0.359E-02
DAV:   4    -0.308185399147E+03   -0.18137E-04   -0.25314E-04  1432   0.177E-02    0.258E-02
DAV:   5    -0.308185397049E+03    0.20977E-05   -0.91512E-06  1040   0.605E-03    0.202E-02
DAV:   6    -0.308185395743E+03    0.13062E-05   -0.15843E-05  1288   0.252E-02    0.737E-03
DAV:   7    -0.308185396380E+03   -0.63726E-06   -0.10191E-05  1312   0.617E-03    0.594E-03
DAV:   8    -0.308185396498E+03   -0.11783E-06   -0.21896E-06   968   0.348E-03
  82 F= -.30818540E+03 E0= -.30818540E+03  d E =-.696988E-13
       N       E                     dE             d eps       ncg     rms          rms(c)
DAV:   1    -0.308184711652E+03    0.68473E-03   -0.86901E-01  1296   0.694E-01    0.505E-02
DAV:   2    -0.308186024999E+03   -0.13133E-02   -0.13237E-02  1288   0.991E-02    0.149E-02
DAV:   3    -0.308186065773E+03   -0.40774E-04   -0.43591E-04  1552   0.222E-02    0.123E-02
DAV:   4    -0.308186067352E+03   -0.15794E-05   -0.25910E-05  1304   0.687E-03    0.855E-03
DAV:   5    -0.308186066978E+03    0.37436E-06   -0.11739E-06   888   0.331E-03
  83 F= -.30818607E+03 E0= -.30818607E+03  d E =-.628819E-13
       N       E                     dE             d eps       ncg     rms          rms(c)
DAV:   1    -0.308180010263E+03    0.60571E-02   -0.34913E+00  1296   0.147E+00    0.110E-01
DAV:   2    -0.308185777356E+03   -0.57671E-02   -0.58584E-02  1368   0.238E-01    0.359E-02
DAV:   3    -0.308185944476E+03   -0.16712E-03   -0.19064E-03  1608   0.541E-02    0.265E-02
DAV:   4    -0.308185951213E+03   -0.67375E-05   -0.12191E-04  1344   0.160E-02    0.187E-02
DAV:   5    -0.308185948649E+03    0.25645E-05   -0.40033E-06  1032   0.965E-03    0.134E-02
DAV:   6    -0.308185944877E+03    0.37712E-05   -0.10243E-05  1264   0.276E-02    0.778E-03
DAV:   7    -0.308185945593E+03   -0.71601E-06   -0.12410E-05  1288   0.681E-03    0.570E-03
DAV:   8    -0.308185945519E+03    0.74782E-07   -0.15264E-06   912   0.323E-03
  84 F= -.30818595E+03 E0= -.30818595E+03  d E =-.581596E-13
       N       E                     dE             d eps       ncg     rms          rms(c)
DAV:   1    -0.308183566422E+03    0.23792E-02   -0.86872E-01  1288   0.748E-01    0.553E-02
DAV:   2    -0.308184917995E+03   -0.13516E-02   -0.13681E-02  1296   0.113E-01    0.150E-02
DAV:   3    -0.308184960128E+03   -0.42132E-04   -0.46376E-04  1576   0.253E-02    0.130E-02
DAV:   4    -0.308184962059E+03   -0.19309E-05   -0.30217E-05  1304   0.742E-03    0.970E-03
DAV:   5    -0.308184961620E+03    0.43894E-06   -0.12263E-06   872   0.317E-03
  85 F= -.30818496E+03 E0= -.30818496E+03  d E =-.634267E-13
       N       E                     dE             d eps       ncg     rms          rms(c)
DAV:   1    -0.308175115968E+03    0.98461E-02   -0.35960E+00  1248   0.159E+00    0.492E-01
DAV:   2    -0.308181085570E+03   -0.59696E-02   -0.64840E-02  1456   0.302E-01    0.116E-01
DAV:   3    -0.308181153325E+03   -0.67755E-04   -0.26345E-03  1584   0.866E-02    0.854E-02
DAV:   4    -0.308181129145E+03    0.24180E-04   -0.27453E-04  1528   0.270E-02    0.488E-02
DAV:   5    -0.308181090765E+03    0.38380E-04   -0.68239E-05  1520   0.366E-02    0.194E-02
DAV:   6    -0.308181086092E+03    0.46736E-05   -0.34506E-05  1584   0.202E-02    0.266E-02
DAV:   7    -0.308181085678E+03    0.41377E-06   -0.23568E-05  1504   0.105E-02    0.183E-02
DAV:   8    -0.308181085820E+03   -0.14175E-06   -0.44571E-06  1080   0.509E-03
  86 F= -.30818109E+03 E0= -.30818109E+03  d E =-.401230E-13
       N       E                     dE             d eps       ncg     rms          rms(c)
DAV:   1    -0.308185040049E+03   -0.39544E-02   -0.26695E-02  1216   0.197E-01    0.220E-01
DAV:   2    -0.308185135627E+03   -0.95578E-04   -0.20689E-03  1392   0.656E-02    0.557E-02
DAV:   3    -0.308185111417E+03    0.24210E-04   -0.18297E-04  1608   0.252E-02    0.351E-02
DAV:   4    -0.308185102073E+03    0.93440E-05   -0.26983E-05  1480   0.919E-03    0.192E-02
DAV:   5    -0.308185093965E+03    0.81088E-05   -0.19066E-05  1288   0.149E-02    0.114E-02
DAV:   6    -0.308185093732E+03    0.23215E-06   -0.73737E-06  1480   0.553E-03
  87 F= -.30818509E+03 E0= -.30818509E+03  d E =-.456170E-13
       N       E                     dE             d eps       ncg     rms          rms(c)
DAV:   1    -0.308184287880E+03    0.80608E-03   -0.10768E-01  1216   0.400E-01    0.467E-01
DAV:   2    -0.308184705713E+03   -0.41783E-03   -0.87032E-03  1560   0.138E-01    0.122E-01
DAV:   3    -0.308184598481E+03    0.10723E-03   -0.77198E-04  1704   0.564E-02    0.718E-02
DAV:   4    -0.308184558878E+03    0.39603E-04   -0.11562E-04  1592   0.254E-02    0.409E-02
DAV:   5    -0.308184521124E+03    0.37754E-04   -0.87017E-05  1552   0.399E-02    0.233E-02
DAV:   6    -0.308184520560E+03    0.56433E-06   -0.36350E-05  1512   0.124E-02    0.269E-02
DAV:   7    -0.308184519509E+03    0.10503E-05   -0.92073E-06  1552   0.636E-03    0.184E-02
DAV:   8    -0.308184519308E+03    0.20154E-06   -0.13865E-06   960   0.444E-03
  88 F= -.30818452E+03 E0= -.30818452E+03  d E =-.945110E-13
       N       E                     dE             d eps       ncg     rms          rms(c)
DAV:   1    -0.308179611841E+03    0.49077E-02   -0.27123E-02  1216   0.204E-01    0.249E-01
DAV:   2    -0.308179742166E+03   -0.13033E-03   -0.24499E-03  1352   0.684E-02    0.563E-02
DAV:   3    -0.308179709948E+03    0.32218E-04   -0.19935E-04  1616   0.259E-02    0.431E-02
DAV:   4    -0.308179699978E+03    0.99705E-05   -0.31406E-05  1472   0.898E-03    0.228E-02
DAV:   5    -0.308179689052E+03    0.10925E-04   -0.26316E-05  1312   0.175E-02    0.116E-02
DAV:   6    -0.308179688757E+03    0.29560E-06   -0.80753E-06  1512   0.583E-03
  89 F= -.30817969E+03 E0= -.30817969E+03  d E =-.187763E-12
       N       E                     dE             d eps       ncg     rms          rms(c)
DAV:   1    -0.308180737973E+03   -0.10489E-02   -0.21485E-01  1200   0.557E-01    0.708E-01
DAV:   2    -0.308181769314E+03   -0.10313E-02   -0.19065E-02  1496   0.183E-01    0.165E-01
DAV:   3    -0.308181553373E+03    0.21594E-03   -0.15527E-03  1592   0.678E-02    0.125E-01
DAV:   4    -0.308181487304E+03    0.66069E-04   -0.22168E-04  1528   0.231E-02    0.668E-02
DAV:   5    -0.308181417874E+03    0.69430E-04   -0.18645E-04  1512   0.396E-02    0.310E-02
DAV:   6    -0.308181416215E+03    0.16581E-05   -0.49374E-05  1552   0.150E-02    0.381E-02
DAV:   7    -0.308181413967E+03    0.22485E-05   -0.13380E-05  1536   0.809E-03    0.260E-02
DAV:   8    -0.308181413600E+03    0.36691E-06   -0.36039E-06  1176   0.582E-03
  90 F= -.30818141E+03 E0= -.30818141E+03  d E =-.553446E-13
       N       E                     dE             d eps       ncg     rms          rms(c)
DAV:   1    -0.308185166453E+03   -0.37525E-02   -0.27000E-02  1216   0.200E-01    0.247E-01
DAV:   2    -0.308185287502E+03   -0.12105E-03   -0.22978E-03  1456   0.632E-02    0.608E-02
DAV:   3    -0.308185265475E+03    0.22027E-04   -0.18467E-04  1576   0.219E-02    0.411E-02
DAV:   4    -0.308185258364E+03    0.71107E-05   -0.28945E-05  1392   0.771E-03    0.218E-02
DAV:   5    -0.308185252455E+03    0.59094E-05   -0.18328E-05  1256   0.108E-02    0.108E-02
DAV:   6    -0.308185252370E+03    0.84285E-07   -0.42787E-06  1344   0.441E-03
  91 F= -.30818525E+03 E0= -.30818525E+03  d E =-.535970E-13
       N       E                     dE             d eps       ncg     rms          rms(c)
DAV:   1    -0.308184300482E+03    0.95197E-03   -0.10708E-01  1216   0.403E-01    0.479E-01
DAV:   2    -0.308184769659E+03   -0.46918E-03   -0.89427E-03  1480   0.127E-01    0.118E-01
DAV:   3    -0.308184688681E+03    0.80978E-04   -0.71775E-04  1616   0.461E-02    0.779E-02
DAV:   4    -0.308184661291E+03    0.27390E-04   -0.10871E-04  1512   0.188E-02    0.438E-02
DAV:   5    -0.308184637723E+03    0.23568E-04   -0.73103E-05  1472   0.300E-02    0.208E-02
DAV:   6    -0.308184637528E+03    0.19470E-06   -0.20784E-05  1488   0.979E-03    0.254E-02
DAV:   7    -0.308184637120E+03    0.40863E-06   -0.56841E-06  1424   0.453E-03
  92 F= -.30818464E+03 E0= -.30818464E+03  d E =-.701926E-13
       N       E                     dE             d eps       ncg     rms          rms(c)
DAV:   1    -0.308180259916E+03    0.43776E-02   -0.26464E-02  1216   0.203E-01    0.236E-01
DAV:   2    -0.308180373792E+03   -0.11388E-03   -0.21888E-03  1432   0.632E-02    0.548E-02
DAV:   3    -0.308180355668E+03    0.18124E-04   -0.17446E-04  1608   0.221E-02    0.372E-02
DAV:   4    -0.308180349291E+03    0.63766E-05   -0.25405E-05  1488   0.773E-03    0.214E-02
DAV:   5    -0.308180343532E+03    0.57596E-05   -0.17831E-05  1232   0.128E-02    0.102E-02
DAV:   6    -0.308180343492E+03    0.39654E-07   -0.50151E-06  1392   0.477E-03
  93 F= -.30818034E+03 E0= -.30818034E+03  d E =-.109639E-12
       N       E                     dE             d eps       ncg     rms          rms(c)
DAV:   1    -0.308180653829E+03   -0.31030E-03   -0.21058E-01  1208   0.560E-01    0.644E-01
[...]
DAV:   4    -0.308183958089E+03    0.51644E-04   -0.17425E-04  1376   0.309E-02    0.339E-02
DAV:   5    -0.308183966037E+03   -0.79478E-05   -0.90121E-05  1392   0.138E-02    0.136E-02
DAV:   6    -0.308183965171E+03    0.86568E-06   -0.32084E-06  1216   0.372E-03
 121 F= -.30818397E+03 E0= -.30818397E+03  d E =-.135306E-12
       N       E                     dE             d eps       ncg     rms          rms(c)
DAV:   1    -0.308174338462E+03    0.96276E-02   -0.20052E+00  1232   0.137E+00    0.723E-01
DAV:   2    -0.308182299689E+03   -0.79612E-02   -0.95435E-02  1536   0.476E-01    0.272E-01
DAV:   3    -0.308181717870E+03    0.58182E-03   -0.25431E-03  1552   0.106E-01    0.213E-01
DAV:   4    -0.308181313046E+03    0.40482E-03   -0.13536E-03  1472   0.782E-02    0.102E-01
DAV:   5    -0.308181356325E+03   -0.43279E-04   -0.56159E-04  1448   0.392E-02    0.530E-02
DAV:   6    -0.308181351282E+03    0.50426E-05   -0.20453E-05  1336   0.101E-02    0.466E-02
DAV:   7    -0.308181345243E+03    0.60397E-05   -0.50057E-06  1176   0.773E-03    0.342E-02
DAV:   8    -0.308181339680E+03    0.55624E-05   -0.14793E-05  1200   0.189E-02    0.178E-02
DAV:   9    -0.308181339890E+03   -0.20953E-06   -0.36739E-06  1264   0.445E-03
 122 F= -.30818134E+03 E0= -.30818134E+03  d E =-.556354E-13
       N       E                     dE             d eps       ncg     rms          rms(c)
DAV:   1    -0.308184258477E+03   -0.29188E-02   -0.24941E-01  1168   0.452E-01    0.314E-01
DAV:   2    -0.308185003189E+03   -0.74471E-03   -0.10057E-02  1424   0.154E-01    0.857E-02
DAV:   3    -0.308184933087E+03    0.70103E-04   -0.32825E-04  1472   0.345E-02    0.692E-02
DAV:   4    -0.308184897174E+03    0.35912E-04   -0.12748E-04  1352   0.200E-02    0.312E-02
DAV:   5    -0.308184898328E+03   -0.11539E-05   -0.41008E-05  1432   0.102E-02    0.166E-02
DAV:   6    -0.308184897845E+03    0.48293E-06   -0.19916E-06  1032   0.279E-03
 123 F= -.30818490E+03 E0= -.30818490E+03  d E =-.557903E-13
       N       E                     dE             d eps       ncg     rms          rms(c)
DAV:   1    -0.308182957798E+03    0.19405E-02   -0.10022E+00  1176   0.912E-01    0.708E-01
DAV:   2    -0.308185872966E+03   -0.29152E-02   -0.40401E-02  1472   0.302E-01    0.171E-01
DAV:   3    -0.308185570272E+03    0.30269E-03   -0.13471E-03  1504   0.715E-02    0.146E-01
DAV:   4    -0.308185426823E+03    0.14345E-03   -0.50317E-04  1432   0.455E-02    0.614E-02
DAV:   5    -0.308185424176E+03    0.26469E-05   -0.15836E-04  1528   0.246E-02    0.325E-02
DAV:   6    -0.308185422118E+03    0.20586E-05   -0.13607E-05  1392   0.717E-03    0.284E-02
DAV:   7    -0.308185419326E+03    0.27916E-05   -0.10567E-06   888   0.482E-03    0.206E-02
DAV:   8    -0.308185413836E+03    0.54897E-05   -0.17444E-05  1264   0.240E-02    0.190E-02
DAV:   9    -0.308185413821E+03    0.15047E-07   -0.45036E-06  1320   0.463E-03
 124 F= -.30818541E+03 E0= -.30818541E+03  d E =-.644170E-13
       N       E                     dE             d eps       ncg     rms          rms(c)
DAV:   1    -0.308181497818E+03    0.39160E-02   -0.25120E-01  1168   0.458E-01    0.317E-01
DAV:   2    -0.308182277183E+03   -0.77937E-03   -0.10568E-02  1416   0.150E-01    0.874E-02
DAV:   3    -0.308182198355E+03    0.78828E-04   -0.35059E-04  1496   0.339E-02    0.689E-02
DAV:   4    -0.308182158331E+03    0.40024E-04   -0.14780E-04  1336   0.212E-02    0.301E-02
DAV:   5    -0.308182160391E+03   -0.20602E-05   -0.47509E-05  1432   0.106E-02    0.182E-02
DAV:   6    -0.308182159664E+03    0.72664E-06   -0.19929E-06  1032   0.276E-03
 125 F= -.30818216E+03 E0= -.30818216E+03  d E =-.803287E-13
       N       E                     dE             d eps       ncg     rms          rms(c)
DAV:   1    -0.308177001226E+03    0.51592E-02   -0.20163E+00  1184   0.129E+00    0.612E-01
DAV:   2    -0.308183936219E+03   -0.69350E-02   -0.82498E-02  1424   0.425E-01    0.252E-01
DAV:   3    -0.308183582841E+03    0.35338E-03   -0.24427E-03  1552   0.951E-02    0.190E-01
DAV:   4    -0.308183226830E+03    0.35601E-03   -0.13317E-03  1480   0.669E-02    0.884E-02
DAV:   5    -0.308183270008E+03   -0.43178E-04   -0.47035E-04  1360   0.317E-02    0.387E-02
DAV:   6    -0.308183266646E+03    0.33617E-05   -0.13002E-05  1336   0.769E-03    0.349E-02
DAV:   7    -0.308183258799E+03    0.78470E-05   -0.13343E-05  1192   0.104E-02    0.178E-02
DAV:   8    -0.308183257174E+03    0.16248E-05   -0.94435E-06  1168   0.122E-02    0.869E-03
DAV:   9    -0.308183257301E+03   -0.12657E-06   -0.26252E-06  1112   0.317E-03
 126 F= -.30818326E+03 E0= -.30818326E+03  d E =-.660233E-13
       N       E                     dE             d eps       ncg     rms          rms(c)
DAV:   1    -0.308184524671E+03   -0.12675E-02   -0.25417E-01  1168   0.457E-01    0.214E-01
DAV:   2    -0.308185363163E+03   -0.83849E-03   -0.96662E-03  1416   0.150E-01    0.101E-01
DAV:   3    -0.308185325139E+03    0.38023E-04   -0.25071E-04  1472   0.285E-02    0.736E-02
DAV:   4    -0.308185284835E+03    0.40304E-04   -0.10439E-04  1304   0.175E-02    0.423E-02
DAV:   5    -0.308185286580E+03   -0.17446E-05   -0.47516E-05  1392   0.978E-03    0.102E-02
DAV:   6    -0.308185286079E+03    0.50061E-06   -0.27980E-06  1120   0.318E-03
 127 F= -.30818529E+03 E0= -.30818529E+03  d E =-.585943E-13
       N       E                     dE             d eps       ncg     rms          rms(c)
DAV:   1    -0.308183029461E+03    0.22571E-02   -0.10135E+00  1168   0.917E-01    0.449E-01
DAV:   2    -0.308186502969E+03   -0.34735E-02   -0.39962E-02  1432   0.301E-01    0.203E-01
DAV:   3    -0.308186336987E+03    0.16598E-03   -0.98357E-04  1568   0.591E-02    0.154E-01
DAV:   4    -0.308186191727E+03    0.14526E-03   -0.32010E-04  1416   0.345E-02    0.970E-02
DAV:   5    -0.308186183527E+03    0.81996E-05   -0.16167E-04  1536   0.207E-02    0.203E-02
DAV:   6    -0.308186182307E+03    0.12204E-05   -0.98965E-06  1568   0.800E-03    0.800E-03
DAV:   7    -0.308186181848E+03    0.45857E-06   -0.33840E-06  1072   0.399E-03
 128 F= -.30818618E+03 E0= -.30818618E+03  d E =-.549964E-13
       N       E                     dE             d eps       ncg     rms          rms(c)
DAV:   1    -0.308184301617E+03    0.18807E-02   -0.25384E-01  1176   0.458E-01    0.213E-01
DAV:   2    -0.308185140967E+03   -0.83935E-03   -0.97107E-03  1440   0.148E-01    0.989E-02
DAV:   3    -0.308185103304E+03    0.37663E-04   -0.26506E-04  1464   0.290E-02    0.724E-02
DAV:   4    -0.308185061991E+03    0.41314E-04   -0.11455E-04  1312   0.173E-02    0.405E-02
DAV:   5    -0.308185064458E+03   -0.24672E-05   -0.46615E-05  1400   0.921E-03    0.101E-02
DAV:   6    -0.308185063925E+03    0.53240E-06   -0.22342E-06  1056   0.281E-03
 129 F= -.30818506E+03 E0= -.30818506E+03  d E =-.594204E-13
       N       E                     dE             d eps       ncg     rms          rms(c)
DAV:   1    -0.308178919086E+03    0.61454E-02   -0.20321E+00  1208   0.130E+00    0.605E-01
DAV:   2    -0.308184958087E+03   -0.60390E-02   -0.71101E-02  1464   0.415E-01    0.250E-01
DAV:   3    -0.308184719908E+03    0.23818E-03   -0.21838E-03  1512   0.859E-02    0.190E-01
DAV:   4    -0.308184431243E+03    0.28866E-03   -0.69770E-04  1488   0.534E-02    0.108E-01
DAV:   5    -0.308184444595E+03   -0.13353E-04   -0.39182E-04  1528   0.310E-02    0.291E-02
DAV:   6    -0.308184440626E+03    0.39691E-05   -0.30554E-05  1312   0.105E-02    0.220E-02
DAV:   7    -0.308184437353E+03    0.32737E-05   -0.74360E-06  1208   0.107E-02    0.941E-03
DAV:   8    -0.308184436375E+03    0.97744E-06   -0.46754E-06  1232   0.913E-03
 130 F= -.30818444E+03 E0= -.30818444E+03  d E =-.136104E-12
       N       E                     dE             d eps       ncg     rms          rms(c)
DAV:   1    -0.308184990052E+03   -0.55270E-03   -0.25196E-01  1176   0.451E-01    0.196E-01
DAV:   2    -0.308185757015E+03   -0.76696E-03   -0.90418E-03  1440   0.149E-01    0.855E-02
DAV:   3    -0.308185727927E+03    0.29088E-04   -0.29869E-04  1456   0.312E-02    0.647E-02
DAV:   4    -0.308185685570E+03    0.42357E-04   -0.12772E-04  1312   0.244E-02    0.319E-02
DAV:   5    -0.308185690710E+03   -0.51400E-05   -0.61932E-05  1368   0.112E-02    0.113E-02
DAV:   6    -0.308185690044E+03    0.66624E-06   -0.26562E-06  1120   0.341E-03
 131 F= -.30818569E+03 E0= -.30818569E+03  d E =-.881908E-13
       N       E                     dE             d eps       ncg     rms          rms(c)
DAV:   1    -0.308183366069E+03    0.23246E-02   -0.10060E+00  1200   0.904E-01    0.400E-01
DAV:   2    -0.308186529075E+03   -0.31630E-02   -0.37311E-02  1480   0.300E-01    0.180E-01
DAV:   3    -0.308186384375E+03    0.14470E-03   -0.10439E-03  1536   0.621E-02    0.136E-01
DAV:   4    -0.308186216167E+03    0.16821E-03   -0.43860E-04  1448   0.560E-02    0.726E-02
DAV:   5    -0.308186230143E+03   -0.13976E-04   -0.24797E-04  1472   0.243E-02    0.222E-02
DAV:   6    -0.308186227846E+03    0.22967E-05   -0.18656E-05  1296   0.801E-03    0.207E-02
DAV:   7    -0.308186226093E+03    0.17528E-05   -0.21721E-06  1024   0.491E-03    0.147E-02
DAV:   8    -0.308186223485E+03    0.26086E-05   -0.95786E-06  1208   0.128E-02    0.107E-02
DAV:   9    -0.308186223426E+03    0.58237E-07   -0.15533E-06   976   0.308E-03
 132 F= -.30818622E+03 E0= -.30818622E+03  d E =-.665292E-13
       N       E                     dE             d eps       ncg     rms          rms(c)
DAV:   1    -0.308184675136E+03    0.15483E-02   -0.25178E-01  1176   0.452E-01    0.189E-01
DAV:   2    -0.308185442803E+03   -0.76767E-03   -0.90410E-03  1448   0.147E-01    0.874E-02
DAV:   3    -0.308185414823E+03    0.27980E-04   -0.30051E-04  1440   0.305E-02    0.663E-02
DAV:   4    -0.308185372008E+03    0.42816E-04   -0.11877E-04  1312   0.232E-02    0.335E-02
DAV:   5    -0.308185376421E+03   -0.44139E-05   -0.61108E-05  1400   0.113E-02    0.102E-02
DAV:   6    -0.308185375597E+03    0.82419E-06   -0.41468E-06  1208   0.387E-03
 133 F= -.30818538E+03 E0= -.30818538E+03  d E =-.853219E-13
       N       E                     dE             d eps       ncg     rms          rms(c)
DAV:   1    -0.308177185390E+03    0.81910E-02   -0.19974E+00  1208   0.135E+00    0.625E-01
DAV:   2    -0.308184908454E+03   -0.77231E-02   -0.89666E-02  1496   0.455E-01    0.266E-01
DAV:   3    -0.308184524023E+03    0.38443E-03   -0.25410E-03  1544   0.994E-02    0.210E-01
DAV:   4    -0.308184140987E+03    0.38304E-03   -0.10498E-03  1432   0.662E-02    0.110E-01
DAV:   5    -0.308184170185E+03   -0.29198E-04   -0.46728E-04  1512   0.351E-02    0.380E-02
DAV:   6    -0.308184166175E+03    0.40106E-05   -0.19524E-05  1376   0.990E-03    0.341E-02
DAV:   7    -0.308184162299E+03    0.38752E-05   -0.19631E-06  1008   0.743E-03    0.232E-02
DAV:   8    -0.308184158316E+03    0.39831E-05   -0.84853E-06  1184   0.192E-02    0.122E-02
DAV:   9    -0.308184158488E+03   -0.17219E-06   -0.30475E-06  1152   0.413E-03
 134 F= -.30818416E+03 E0= -.30818416E+03  d E =-.104284E-12
       N       E                     dE             d eps       ncg     rms          rms(c)
DAV:   1    -0.308185005280E+03   -0.84696E-03   -0.25102E-01  1120   0.458E-01    0.229E-01
DAV:   2    -0.308185776356E+03   -0.77108E-03   -0.92509E-03  1328   0.141E-01    0.887E-02
DAV:   3    -0.308185738661E+03    0.37695E-04   -0.29639E-04  1440   0.334E-02    0.664E-02
DAV:   4    -0.308185696924E+03    0.41737E-04   -0.13004E-04  1280   0.231E-02    0.340E-02
DAV:   5    -0.308185701453E+03   -0.45292E-05   -0.57048E-05  1376   0.112E-02    0.137E-02
DAV:   6    -0.308185700999E+03    0.45409E-06   -0.21332E-06   960   0.284E-03
 135 F= -.30818570E+03 E0= -.30818570E+03  d E =-.760730E-13
       N       E                     dE             d eps       ncg     rms          rms(c)
DAV:   1    -0.308183265430E+03    0.24360E-02   -0.10074E+00  1136   0.924E-01    0.491E-01
DAV:   2    -0.308186187473E+03   -0.29220E-02   -0.35479E-02  1384   0.284E-01    0.179E-01
DAV:   3    -0.308186040607E+03    0.14687E-03   -0.11747E-03  1488   0.686E-02    0.133E-01
DAV:   4    -0.308185875921E+03    0.16469E-03   -0.47174E-04  1400   0.547E-02    0.697E-02
DAV:   5    -0.308185891005E+03   -0.15084E-04   -0.22922E-04  1456   0.267E-02    0.277E-02
DAV:   6    -0.308185889503E+03    0.15023E-05   -0.13866E-05  1376   0.747E-03    0.265E-02
DAV:   7    -0.308185888213E+03    0.12894E-05   -0.53619E-07   792   0.238E-03    0.228E-02
DAV:   8    -0.308185883758E+03    0.44549E-05   -0.33573E-05  1296   0.249E-02    0.229E-02
DAV:   9    -0.308185882945E+03    0.81304E-06   -0.68484E-06  1264   0.516E-03
 136 F= -.30818588E+03 E0= -.30818588E+03  d E =-.427788E-13
       N       E                     dE             d eps       ncg     rms          rms(c)
DAV:   1    -0.308183772220E+03    0.21115E-02   -0.25131E-01  1136   0.465E-01    0.242E-01
DAV:   2    -0.308184558619E+03   -0.78640E-03   -0.94074E-03  1336   0.141E-01    0.948E-02
DAV:   3    -0.308184517973E+03    0.40647E-04   -0.30187E-04  1440   0.329E-02    0.719E-02
DAV:   4    -0.308184474372E+03    0.43601E-04   -0.12812E-04  1288   0.228E-02    0.370E-02
DAV:   5    -0.308184478286E+03   -0.39148E-05   -0.57684E-05  1424   0.118E-02    0.132E-02
DAV:   6    -0.308184477730E+03    0.55651E-06   -0.28672E-06  1048   0.330E-03
 137 F= -.30818448E+03 E0= -.30818448E+03  d E =-.347700E-13
       N       E                     dE             d eps       ncg     rms          rms(c)
DAV:   1    -0.308178733015E+03    0.57453E-02   -0.20156E+00  1168   0.132E+00    0.609E-01
DAV:   2    -0.308185622039E+03   -0.68890E-02   -0.82350E-02  1416   0.414E-01    0.240E-01
DAV:   3    -0.308185256522E+03    0.36552E-03   -0.24607E-03  1416   0.959E-02    0.191E-01
DAV:   4    -0.308184917848E+03    0.33867E-03   -0.11262E-03  1400   0.615E-02    0.923E-02
DAV:   5    -0.308184951511E+03   -0.33663E-04   -0.40087E-04  1400   0.316E-02    0.442E-02
DAV:   6    -0.308184948150E+03    0.33617E-05   -0.13778E-05  1416   0.856E-03    0.389E-02
DAV:   7    -0.308184943662E+03    0.44876E-05   -0.47376E-06  1152   0.816E-03    0.260E-02
DAV:   8    -0.308184941693E+03    0.19688E-05   -0.53973E-06  1176   0.121E-02    0.115E-02
DAV:   9    -0.308184941778E+03   -0.84481E-07   -0.22837E-06   992   0.350E-03
 138 F= -.30818494E+03 E0= -.30818494E+03  d E =-.742725E-13
       N       E                     dE             d eps       ncg     rms          rms(c)
DAV:   1    -0.308185380176E+03   -0.43848E-03   -0.25420E-01  1136   0.459E-01    0.220E-01
DAV:   2    -0.308186115111E+03   -0.73493E-03   -0.85459E-03  1360   0.143E-01    0.965E-02
DAV:   3    -0.308186094067E+03    0.21044E-04   -0.31660E-04  1456   0.312E-02    0.697E-02
DAV:   4    -0.308186054710E+03    0.39357E-04   -0.13388E-04  1240   0.207E-02    0.345E-02
DAV:   5    -0.308186059075E+03   -0.43646E-05   -0.45541E-05  1384   0.954E-03    0.106E-02
DAV:   6    -0.308186058817E+03    0.25756E-06   -0.13043E-06   920   0.253E-03
 139 F= -.30818606E+03 E0= -.30818606E+03  d E =-.630694E-13
       N       E                     dE             d eps       ncg     rms          rms(c)
DAV:   1    -0.308182970645E+03    0.30884E-02   -0.10196E+00  1152   0.925E-01    0.473E-01
DAV:   2    -0.308185890418E+03   -0.29198E-02   -0.34071E-02  1440   0.279E-01    0.194E-01
DAV:   3    -0.308185802142E+03    0.88275E-04   -0.12517E-03  1464   0.646E-02    0.141E-01
DAV:   4    -0.308185648409E+03    0.15373E-03   -0.47129E-04  1336   0.485E-02    0.726E-02
DAV:   5    -0.308185664362E+03   -0.15952E-04   -0.18848E-04  1408   0.210E-02    0.226E-02
DAV:   6    -0.308185663703E+03    0.65842E-06   -0.79762E-06  1320   0.632E-03
 140 F= -.30818566E+03 E0= -.30818566E+03  d E =-.477113E-13
       N       E                     dE             d eps       ncg     rms          rms(c)
DAV:   1    -0.308183599074E+03    0.20653E-02   -0.25494E-01  1136   0.465E-01    0.223E-01
DAV:   2    -0.308184347983E+03   -0.74891E-03   -0.88084E-03  1472   0.142E-01    0.990E-02
DAV:   3    -0.308184322925E+03    0.25058E-04   -0.26830E-04  1432   0.302E-02    0.714E-02
DAV:   4    -0.308184284538E+03    0.38387E-04   -0.14794E-04  1280   0.235E-02    0.331E-02
DAV:   5    -0.308184289378E+03   -0.48399E-05   -0.47269E-05  1392   0.102E-02    0.121E-02
DAV:   6    -0.308184289081E+03    0.29681E-06   -0.13314E-06   904   0.265E-03
 141 F= -.30818429E+03 E0= -.30818429E+03  d E =-.436824E-13
       N       E                     dE             d eps       ncg     rms          rms(c)
DAV:   1    -0.308176727679E+03    0.75617E-02   -0.20155E+00  1184   0.136E+00    0.723E-01
DAV:   2    -0.308183657599E+03   -0.69299E-02   -0.87638E-02  1472   0.449E-01    0.255E-01
DAV:   3    -0.308183119652E+03    0.53795E-03   -0.28963E-03  1488   0.107E-01    0.209E-01
DAV:   4    -0.308182770143E+03    0.34951E-03   -0.10684E-03  1480   0.701E-02    0.107E-01
DAV:   5    -0.308182792676E+03   -0.22533E-04   -0.45687E-04  1552   0.396E-02    0.515E-02
DAV:   6    -0.308182785212E+03    0.74649E-05   -0.29100E-05  1408   0.147E-02    0.375E-02
DAV:   7    -0.308182782897E+03    0.23150E-05   -0.66816E-06  1360   0.660E-03    0.258E-02
DAV:   8    -0.308182780763E+03    0.21331E-05   -0.55955E-06  1176   0.131E-02    0.878E-03
DAV:   9    -0.308182780910E+03   -0.14619E-06   -0.20377E-06   984   0.402E-03
 142 F= -.30818278E+03 E0= -.30818278E+03  d E =-.798587E-13
       N       E                     dE             d eps       ncg     rms          rms(c)
DAV:   1    -0.308184862177E+03   -0.20814E-02   -0.25102E-01  1144   0.460E-01    0.281E-01
DAV:   2    -0.308185646466E+03   -0.78429E-03   -0.10332E-02  1368   0.161E-01    0.837E-02
DAV:   3    -0.308185575889E+03    0.70577E-04   -0.35015E-04  1432   0.385E-02    0.654E-02
DAV:   4    -0.308185534891E+03    0.40998E-04   -0.14605E-04  1376   0.275E-02    0.309E-02
DAV:   5    -0.308185540114E+03   -0.52236E-05   -0.70311E-05  1320   0.135E-02    0.192E-02
DAV:   6    -0.308185539395E+03    0.71953E-06   -0.31947E-06  1224   0.372E-03
 143 F= -.30818554E+03 E0= -.30818554E+03  d E =-.668668E-13
       N       E                     dE             d eps       ncg     rms          rms(c)
DAV:   1    -0.308182470268E+03    0.30698E-02   -0.10087E+00  1184   0.935E-01    0.610E-01
DAV:   2    -0.308185403818E+03   -0.29335E-02   -0.39794E-02  1464   0.316E-01    0.166E-01
DAV:   3    -0.308185115642E+03    0.28818E-03   -0.13819E-03  1536   0.789E-02    0.130E-01
DAV:   4    -0.308184949162E+03    0.16648E-03   -0.58573E-04  1416   0.650E-02    0.602E-02
DAV:   5    -0.308184972240E+03   -0.23078E-04   -0.31975E-04  1392   0.299E-02    0.428E-02
DAV:   6    -0.308184969971E+03    0.22689E-05   -0.15997E-05  1376   0.779E-03    0.386E-02
DAV:   7    -0.308184968700E+03    0.12710E-05   -0.82023E-07   848   0.236E-03    0.355E-02
DAV:   8    -0.308184963935E+03    0.47653E-05   -0.63676E-05  1312   0.334E-02    0.370E-02
DAV:   9    -0.308184961417E+03    0.25180E-05   -0.59088E-06  1280   0.618E-03    0.307E-02
DAV:  10    -0.308184960941E+03    0.47626E-06   -0.24742E-06  1072   0.236E-03
 144 F= -.30818496E+03 E0= -.30818496E+03  d E =-.702888E-13
       N       E                     dE             d eps       ncg     rms          rms(c)
DAV:   1    -0.308180871406E+03    0.40900E-02   -0.25250E-01  1112   0.472E-01    0.294E-01
DAV:   2    -0.308181599438E+03   -0.72803E-03   -0.99236E-03  1328   0.160E-01    0.863E-02
DAV:   3    -0.308181526400E+03    0.73038E-04   -0.36890E-04  1400   0.377E-02    0.654E-02
DAV:   4    -0.308181486048E+03    0.40352E-04   -0.14267E-04  1288   0.262E-02    0.300E-02
DAV:   5    -0.308181489956E+03   -0.39082E-05   -0.66105E-05  1376   0.133E-02    0.198E-02
DAV:   6    -0.308181489013E+03    0.94288E-06   -0.33153E-06  1200   0.384E-03
 145 F= -.30818149E+03 E0= -.30818149E+03  d E =-.975208E-13
