 LAMMPS data file. written by m.shahbabaei@gmail.com 2015
10171 atoms
 6040 bonds
 3020 angles
 
12 atom types
 1 bond types
 1 angle types

-1.300000 49.200000  xlo xhi
 -0.0400000  49.70000  ylo yhi
 -55.050000 50.050000  zlo zhi
                                         
 Masses
                                           
  1    107.9000    
  2    12.01111    
  3    35.45000    
  4    51.99600    
  5    63.54600    
  6    1.008000    
  7    58.69340    
  8    15.99900    
  9    15.99900    
  10    207.2000    
  11    121.7600    
  12    65.38000    
                                          
 Atoms
                                           
    1   1   2  0.0067   0.0000   0.0000   0.0000 #C  
    2   1   2  0.0067  -1.2280   0.7090   0.0000 #C  
    3   1   2  0.0067  -1.2280   2.1270   0.0000 #C  
    4   1   2  0.0067   0.0000   2.8360   0.0000 #C  
    5   1   2  0.0067   2.4560   0.0000   0.0000 #C  
    6   1   2  0.0067   1.2280   0.7090   0.0000 #C  
    7   1   2  0.0067   1.2280   2.1270   0.0000 #C  
    8   1   2  0.0067   2.4560   2.8360   0.0000 #C  
    9   1   2  0.0067   4.9120   0.0000   0.0000 #C  
   10   1   2  0.0067   3.6840   0.7090   0.0000 #C  
   11   1   2  0.0067   3.6840   2.1270   0.0000 #C  
   12   1   2  0.0067   4.9120   2.8360   0.0000 #C  
   13   1   2  0.0067   7.3680   0.0000   0.0000 #C  
   14   1   2  0.0067   6.1400   0.7090   0.0000 #C  
   15   1   2  0.0067   6.1400   2.1270   0.0000 #C  
   16   1   2  0.0067   7.3680   2.8360   0.0000 #C  
   17   1   2  0.0067   9.8240   0.0000   0.0000 #C  
   18   1   2  0.0067   8.5960   0.7090   0.0000 #C  
   19   1   2  0.0067   8.5960   2.1270   0.0000 #C  
   20   1   2  0.0067   9.8240   2.8360   0.0000 #C  
   21   1   2  0.0067  12.2800   0.0000   0.0000 #C  
   22   1   2  0.0067  11.0520   0.7090   0.0000 #C  
   23   1   2  0.0067  11.0520   2.1270   0.0000 #C  
   24   1   2  0.0067  12.2800   2.8360   0.0000 #C  
   25   1   2  0.0067  14.7360   0.0000   0.0000 #C  
   26   1   2  0.0067  13.5080   0.7090   0.0000 #C  
   27   1   2  0.0067  13.5080   2.1270   0.0000 #C  
   28   1   2  0.0067  14.7360   2.8360   0.0000 #C  
   29   1   2  0.0067  17.1920   0.0000   0.0000 #C  
   30   1   2  0.0067  15.9640   0.7090   0.0000 #C  
   31   1   2  0.0067  15.9640   2.1270   0.0000 #C  
   32   1   2  0.0067  17.1920   2.8360   0.0000 #C  
   33   1   2  0.0067  19.6480   0.0000   0.0000 #C  
   34   1   2  0.0067  18.4200   0.7090   0.0000 #C  
   35   1   2  0.0067  18.4200   2.1270   0.0000 #C  
   36   1   2  0.0067  19.6480   2.8360   0.0000 #C  
   37   1   2  0.0067  22.1040   0.0000   0.0000 #C  
   38   1   2  0.0067  20.8760   0.7090   0.0000 #C  
   39   1   2  0.0067  20.8760   2.1270   0.0000 #C  
   40   1   2  0.0067  22.1040   2.8360   0.0000 #C  
   41   1   2  0.0067  24.5600   0.0000   0.0000 #C  
   42   1   2  0.0067  23.3320   0.7090   0.0000 #C  
   43   1   2  0.0067  23.3320   2.1270   0.0000 #C  
   44   1   2  0.0067  24.5600   2.8360   0.0000 #C  
   45   1   2  0.0067  27.0170   0.0000   0.0000 #C  
   46   1   2  0.0067  25.7890   0.7090   0.0000 #C  
   47   1   2  0.0067  25.7890   2.1270   0.0000 #C  
   48   1   2  0.0067  27.0170   2.8360   0.0000 #C  
   49   1   2  0.0067  29.4730   0.0000   0.0000 #C  
   50   1   2  0.0067  28.2450   0.7090   0.0000 #C  
   51   1   2  0.0067  28.2450   2.1270   0.0000 #C  
   52   1   2  0.0067  29.4730   2.8360   0.0000 #C  
   53   1   2  0.0067  31.9290   0.0000   0.0000 #C  
   54   1   2  0.0067  30.7010   0.7090   0.0000 #C  
   55   1   2  0.0067  30.7010   2.1270   0.0000 #C  
   56   1   2  0.0067  31.9290   2.8360   0.0000 #C  
   57   1   2  0.0067  34.3850   0.0000   0.0000 #C  
   58   1   2  0.0067  33.1570   0.7090   0.0000 #C  
   59   1   2  0.0067  33.1570   2.1270   0.0000 #C  
   60   1   2  0.0067  34.3850   2.8360   0.0000 #C  
   61   1   2  0.0067  36.8410   0.0000   0.0000 #C  
   62   1   2  0.0067  35.6130   0.7090   0.0000 #C  
   63   1   2  0.0067  35.6130   2.1270   0.0000 #C  
   64   1   2  0.0067  36.8410   2.8360   0.0000 #C  
   65   1   2  0.0067  39.2970   0.0000   0.0000 #C  
   66   1   2  0.0067  38.0690   0.7090   0.0000 #C  
   67   1   2  0.0067  38.0690   2.1270   0.0000 #C  
   68   1   2  0.0067  39.2970   2.8360   0.0000 #C  
   69   1   2  0.0067  41.7530   0.0000   0.0000 #C  
   70   1   2  0.0067  40.5250   0.7090   0.0000 #C  
   71   1   2  0.0067  40.5250   2.1270   0.0000 #C  
   72   1   2  0.0067  41.7530   2.8360   0.0000 #C  
   73   1   2  0.0067  44.2090   0.0000   0.0000 #C  
   74   1   2  0.0067  42.9810   0.7090   0.0000 #C  
   75   1   2  0.0067  42.9810   2.1270   0.0000 #C  
   76   1   2  0.0067  44.2090   2.8360   0.0000 #C  
   77   1   2  0.0067  46.6650   0.0000   0.0000 #C  
   78   1   2  0.0067  45.4370   0.7090   0.0000 #C  
   79   1   2  0.0067  45.4370   2.1270   0.0000 #C  
   80   1   2  0.0067  46.6650   2.8360   0.0000 #C  
   81   1   2  0.0067  49.1210   0.0000   0.0000 #C  
   82   1   2  0.0067  47.8930   0.7090   0.0000 #C  
   83   1   2  0.0067  47.8930   2.1270   0.0000 #C  
   84   1   2  0.0067  49.1210   2.8360   0.0000 #C  
   85   1   2  0.0067   0.0000   4.2540   0.0000 #C  
   86   1   2  0.0067  -1.2280   4.9630   0.0000 #C  
   87   1   2  0.0067  -1.2280   6.3810   0.0000 #C  
   88   1   2  0.0067   0.0000   7.0900   0.0000 #C  
   89   1   2  0.0067   2.4560   4.2540   0.0000 #C  
   90   1   2  0.0067   1.2280   4.9630   0.0000 #C  
   91   1   2  0.0067   1.2280   6.3810   0.0000 #C  
   92   1   2  0.0067   2.4560   7.0900   0.0000 #C  
   93   1   2  0.0067   4.9120   4.2540   0.0000 #C  
   94   1   2  0.0067   3.6840   4.9630   0.0000 #C  
   95   1   2  0.0067   3.6840   6.3810   0.0000 #C  
   96   1   2  0.0067   4.9120   7.0900   0.0000 #C  
   97   1   2  0.0067   7.3680   4.2540   0.0000 #C  
   98   1   2  0.0067   6.1400   4.9630   0.0000 #C  
   99   1   2  0.0067   6.1400   6.3810   0.0000 #C  
  100   2   2  0.0067   7.3680   7.0900   0.0000 #C  
  101   2   2  0.0067   9.8240   4.2540   0.0000 #C  
  102   2   2  0.0067   8.5960   4.9630   0.0000 #C  
  103   2   2  0.0067   8.5960   6.3810   0.0000 #C  
  104   2   2  0.0067   9.8240   7.0900   0.0000 #C  
  105   2   2  0.0067  12.2800   4.2540   0.0000 #C  
  106   2   2  0.0067  11.0520   4.9630   0.0000 #C  
  107   2   2  0.0067  11.0520   6.3810   0.0000 #C  
  108   2   2  0.0067  12.2800   7.0900   0.0000 #C  
  109   2   2  0.0067  14.7360   4.2540   0.0000 #C  
  110   2   2  0.0067  13.5080   4.9630   0.0000 #C  
  111   2   2  0.0067  13.5080   6.3810   0.0000 #C  
  112   2   2  0.0067  14.7360   7.0900   0.0000 #C  
  113   2   2  0.0067  17.1920   4.2540   0.0000 #C  
  114   2   2  0.0067  15.9640   4.9630   0.0000 #C  
  115   2   2  0.0067  15.9640   6.3810   0.0000 #C  
  116   2   2  0.0067  17.1920   7.0900   0.0000 #C  
  117   2   2  0.0067  19.6480   4.2540   0.0000 #C  
  118   2   2  0.0067  18.4200   4.9630   0.0000 #C  
  119   2   2  0.0067  18.4200   6.3810   0.0000 #C  
  120   2   2  0.0067  19.6480   7.0900   0.0000 #C  
  121   2   2  0.0067  22.1040   4.2540   0.0000 #C  
  122   2   2  0.0067  20.8760   4.9630   0.0000 #C  
  123   2   2  0.0067  20.8760   6.3810   0.0000 #C  
  124   2   2  0.0067  22.1040   7.0900   0.0000 #C  
  125   2   2  0.0067  24.5600   4.2540   0.0000 #C  
  126   2   2  0.0067  23.3320   4.9630   0.0000 #C  
  127   2   2  0.0067  23.3320   6.3810   0.0000 #C  
  128   2   2  0.0067  24.5600   7.0900   0.0000 #C  
  129   2   2  0.0067  27.0170   4.2540   0.0000 #C  
  130   2   2  0.0067  25.7890   4.9630   0.0000 #C  
  131   2   2  0.0067  25.7890   6.3810   0.0000 #C  
  132   2   2  0.0067  27.0170   7.0900   0.0000 #C  
  133   2   2  0.0067  29.4730   4.2540   0.0000 #C  
  134   2   2  0.0067  28.2450   4.9630   0.0000 #C  
  135   2   2  0.0067  28.2450   6.3810   0.0000 #C  
  136   2   2  0.0067  29.4730   7.0900   0.0000 #C  
  137   2   2  0.0067  31.9290   4.2540   0.0000 #C  
  138   2   2  0.0067  30.7010   4.9630   0.0000 #C  
  139   2   2  0.0067  30.7010   6.3810   0.0000 #C  
  140   2   2  0.0067  31.9290   7.0900   0.0000 #C  
  141   2   2  0.0067  34.3850   4.2540   0.0000 #C  
  142   2   2  0.0067  33.1570   4.9630   0.0000 #C  
  143   2   2  0.0067  33.1570   6.3810   0.0000 #C  
  144   2   8 -0.5300  34.3850   7.0900   0.0000 #O  
  145   2   2  0.0067  36.8410   4.2540   0.0000 #C  
  146   2   2  0.0067  35.6130   4.9630   0.0000 #C  
  147   2   2  0.0067  35.6130   6.3810   0.0000 #C  
  148   2   2  0.0067  36.8410   7.0900   0.0000 #C  
  149   2   2  0.0067  39.2970   4.2540   0.0000 #C  
  150   2   2  0.0067  38.0690   4.9630   0.0000 #C  
  151   2   2  0.0067  38.0690   6.3810   0.0000 #C  
  152   2   2  0.0067  39.2970   7.0900   0.0000 #C  
  153   2   2  0.0067  41.7530   4.2540   0.0000 #C  
  154   2   2  0.0067  40.5250   4.9630   0.0000 #C  
  155   2   2  0.0067  40.5250   6.3810   0.0000 #C  
  156   2   2  0.0067  41.7530   7.0900   0.0000 #C  
  157   2   2  0.0067  44.2090   4.2540   0.0000 #C  
  158   2   2  0.0067  42.9810   4.9630   0.0000 #C  
  159   2   2  0.0067  42.9810   6.3810   0.0000 #C  
  160   2   2  0.0067  44.2090   7.0900   0.0000 #C  
  161   2   2  0.0067  46.6650   4.2540   0.0000 #C  
  162   2   2  0.0067  45.4370   4.9630   0.0000 #C  
  163   2   2  0.0067  45.4370   6.3810   0.0000 #C  
  164   2   2  0.0067  46.6650   7.0900   0.0000 #C  
  165   2   2  0.0067  49.1210   4.2540   0.0000 #C  
  166   2   2  0.0067  47.8930   4.9630   0.0000 #C  
  167   2   2  0.0067  47.8930   6.3810   0.0000 #C  
  168   2   2  0.0067  49.1210   7.0900   0.0000 #C  
  169   2   2  0.0067   0.0000   8.5080   0.0000 #C  
  170   2   2  0.0067  -1.2280   9.2170   0.0000 #C  
  171   2   2  0.0067  -1.2280  10.6350   0.0000 #C  
  172   2   2  0.0067   0.0000  11.3440   0.0000 #C  
  173   2   2  0.0067   2.4560   8.5080   0.0000 #C  
  174   2   2  0.0067   1.2280   9.2170   0.0000 #C  
  175   2   2  0.0067   1.2280  10.6350   0.0000 #C  
  176   2   2  0.0067   2.4560  11.3440   0.0000 #C  
  177   2   2  0.0067   4.9120   8.5080   0.0000 #C  
  178   2   2  0.0067   3.6840   9.2170   0.0000 #C  
  179   2   2  0.0067   3.6840  10.6350   0.0000 #C  
  180   2   2  0.0067   4.9120  11.3440   0.0000 #C  
  181   2   2  0.0067   7.3680   8.5080   0.0000 #C  
  182   2   2  0.0067   6.1400   9.2170   0.0000 #C  
  183   2   2  0.0067   6.1400  10.6350   0.0000 #C  
  184   2   2  0.0067   7.3680  11.3440   0.0000 #C  
  185   2   2  0.0067   9.8240   8.5080   0.0000 #C  
  186   2   2  0.0067   8.5960   9.2170   0.0000 #C  
  187   2   2  0.0067   8.5960  10.6350   0.0000 #C  
  188   2   2  0.0067   9.8240  11.3440   0.0000 #C  
  189   2   2  0.0067  12.2800   8.5080   0.0000 #C  
  190   2   2  0.0067  11.0520   9.2170   0.0000 #C  
  191   2   2  0.0067  11.0520  10.6350   0.0000 #C  
  192   2   2  0.0067  12.2800  11.3440   0.0000 #C  
  193   2   2  0.0067  14.7360   8.5080   0.0000 #C  
  194   2   2  0.0067  13.5080   9.2170   0.0000 #C  
  195   2   2  0.0067  13.5080  10.6350   0.0000 #C  
  196   2   2  0.0067  14.7360  11.3440   0.0000 #C  
  197   2   2  0.0067  17.1920   8.5080   0.0000 #C  
  198   2   2  0.0067  15.9640   9.2170   0.0000 #C  
  199   2   2  0.0067  15.9640  10.6350   0.0000 #C  
  200   3   2  0.0067  17.1920  11.3440   0.0000 #C  
  201   3   2  0.0067  19.6480   8.5080   0.0000 #C  
  202   3   2  0.0067  18.4200   9.2170   0.0000 #C  
  203   3   2  0.0067  18.4200  10.6350   0.0000 #C  
  204   3   2  0.0067  19.6480  11.3440   0.0000 #C  
  205   3   2  0.0067  22.1040   8.5080   0.0000 #C  
  206   3   2  0.0067  20.8760   9.2170   0.0000 #C  
  207   3   2  0.0067  20.8760  10.6350   0.0000 #C  
  208   3   2  0.0067  22.1040  11.3440   0.0000 #C  
  209   3   2  0.0067  24.5600   8.5080   0.0000 #C  
  210   3   2  0.0067  23.3320   9.2170   0.0000 #C  
  211   3   2  0.0067  23.3320  10.6350   0.0000 #C  
  212   3   2  0.0067  24.5600  11.3440   0.0000 #C  
  213   3   2  0.0067  27.0170   8.5080   0.0000 #C  
  214   3   2  0.0067  25.7890   9.2170   0.0000 #C  
  215   3   2  0.0067  25.7890  10.6350   0.0000 #C  
  216   3   2  0.0067  27.0170  11.3440   0.0000 #C  
  217   3   2  0.0067  29.4730   8.5080   0.0000 #C  
  218   3   2  0.0067  28.2450   9.2170   0.0000 #C  
  219   3   2  0.0067  28.2450  10.6350   0.0000 #C  
  220   3   2  0.0067  29.4730  11.3440   0.0000 #C  
  221   3   2  0.0067  31.9290   8.5080   0.0000 #C  
  222   3   2  0.0067  30.7010   9.2170   0.0000 #C  
  223   3   2  0.0067  30.7010  10.6350   0.0000 #C  
  224   3   2  0.0067  39.2970   8.5080   0.0000 #C  
  225   3   2  0.0067  39.2970  11.3440   0.0000 #C  
  226   3   2  0.0067  41.7530   8.5080   0.0000 #C  
  227   3   2  0.0067  40.5250   9.2170   0.0000 #C  
  228   3   2  0.0067  40.5250  10.6350   0.0000 #C  
  229   3   2  0.0067  41.7530  11.3440   0.0000 #C  
  230   3   2  0.0067  44.2090   8.5080   0.0000 #C  
  231   3   2  0.0067  42.9810   9.2170   0.0000 #C  
  232   3   2  0.0067  42.9810  10.6350   0.0000 #C  
  233   3   2  0.0067  44.2090  11.3440   0.0000 #C  
  234   3   2  0.0067  46.6650   8.5080   0.0000 #C  
  235   3   2  0.0067  45.4370   9.2170   0.0000 #C  
  236   3   2  0.0067  45.4370  10.6350   0.0000 #C  
  237   3   2  0.0067  46.6650  11.3440   0.0000 #C  
  238   3   2  0.0067  49.1210   8.5080   0.0000 #C  
  239   3   2  0.0067  47.8930   9.2170   0.0000 #C  
  240   3   2  0.0067  47.8930  10.6350   0.0000 #C  
  241   3   2  0.0067  49.1210  11.3440   0.0000 #C  
  242   3   2  0.0067   0.0000  12.7620   0.0000 #C  
  243   3   2  0.0067  -1.2280  13.4710   0.0000 #C  
  244   3   2  0.0067  -1.2280  14.8890   0.0000 #C  
  245   3   2  0.0067   0.0000  15.5980   0.0000 #C  
  246   3   2  0.0067   2.4560  12.7620   0.0000 #C  
  247   3   2  0.0067   1.2280  13.4710   0.0000 #C  
  248   3   2  0.0067   1.2280  14.8890   0.0000 #C  
  249   3   2  0.0067   2.4560  15.5980   0.0000 #C  
  250   3   2  0.0067   4.9120  12.7620   0.0000 #C  
  251   3   2  0.0067   3.6840  13.4710   0.0000 #C  
  252   3   2  0.0067   3.6840  14.8890   0.0000 #C  
  253   3   2  0.0067   4.9120  15.5980   0.0000 #C  
  254   3   2  0.0067   7.3680  12.7620   0.0000 #C  
  255   3   2  0.0067   6.1400  13.4710   0.0000 #C  
  256   3   2  0.0067   6.1400  14.8890   0.0000 #C  
  257   3   2  0.0067   7.3680  15.5980   0.0000 #C  
  258   3   2  0.0067   9.8240  12.7620   0.0000 #C  
  259   3   2  0.0067   8.5960  13.4710   0.0000 #C  
  260   3   2  0.0067   8.5960  14.8890   0.0000 #C  
  261   3   2  0.0067   9.8240  15.5980   0.0000 #C  
  262   3   8 -0.5300  12.2800  12.7620   0.0000 #O  
  263   3   2  0.0067  11.0520  13.4710   0.0000 #C  
  264   3   2  0.0067  11.0520  14.8890   0.0000 #C  
  265   3   2  0.0067  19.6480  12.7620   0.0000 #C  
  266   3   2  0.0067  22.1040  12.7620   0.0000 #C  
  267   3   2  0.0067  20.8760  13.4710   0.0000 #C  
  268   3   2  0.0067  20.8760  14.8890   0.0000 #C  
  269   3   8 -0.5300  22.1040  15.5980   0.0000 #O  
  270   3   2  0.0067  24.5600  12.7620   0.0000 #C  
  271   3   2  0.0067  23.3320  13.4710   0.0000 #C  
  272   3   2  0.0067  23.3320  14.8890   0.0000 #C  
  273   3   2  0.0067  24.5600  15.5980   0.0000 #C  
  274   3   2  0.0067  27.0170  12.7620   0.0000 #C  
  275   3   2  0.0067  25.7890  13.4710   0.0000 #C  
  276   3   2  0.0067  25.7890  14.8890   0.0000 #C  
  277   3   2  0.0067  27.0170  15.5980   0.0000 #C  
  278   3   2  0.0067  29.4730  12.7620   0.0000 #C  
  279   3   2  0.0067  28.2450  13.4710   0.0000 #C  
  280   3   2  0.0067  28.2450  14.8890   0.0000 #C  
  281   3   2  0.0067  29.4730  15.5980   0.0000 #C  
  282   3   8 -0.5300  30.7010  13.4710   0.0000 #O  
  283   3   2  0.0067  30.7010  14.8890   0.0000 #C  
  284   3   2  0.0067  39.2970  12.7620   0.0000 #C  
  285   3   2  0.0067  39.2970  15.5980   0.0000 #C  
  286   3   2  0.0067  41.7530  12.7620   0.0000 #C  
  287   3   2  0.0067  40.5250  13.4710   0.0000 #C  
  288   3   2  0.0067  40.5250  14.8890   0.0000 #C  
  289   3   2  0.0067  41.7530  15.5980   0.0000 #C  
  290   3   2  0.0067  44.2090  12.7620   0.0000 #C  
  291   3   2  0.0067  42.9810  13.4710   0.0000 #C  
  292   3   2  0.0067  42.9810  14.8890   0.0000 #C  
  293   3   2  0.0067  44.2090  15.5980   0.0000 #C  
  294   3   2  0.0067  46.6650  12.7620   0.0000 #C  
  295   3   2  0.0067  45.4370  13.4710   0.0000 #C  
  296   3   2  0.0067  45.4370  14.8890   0.0000 #C  
  297   3   2  0.0067  46.6650  15.5980   0.0000 #C  
  298   3   2  0.0067  49.1210  12.7620   0.0000 #C  
  299   3   2  0.0067  47.8930  13.4710   0.0000 #C  
  300   4   2  0.0067  47.8930  14.8890   0.0000 #C  
  301   4   2  0.0067  49.1210  15.5980   0.0000 #C  
  302   4   2  0.0067   0.0000  17.0160   0.0000 #C  
  303   4   2  0.0067  -1.2280  17.7250   0.0000 #C  
  304   4   2  0.0067  -1.2280  19.1430   0.0000 #C  
  305   4   2  0.0067   0.0000  19.8520   0.0000 #C  
  306   4   2  0.0067   2.4560  17.0160   0.0000 #C  
  307   4   2  0.0067   1.2280  17.7250   0.0000 #C  
  308   4   2  0.0067   1.2280  19.1430   0.0000 #C  
  309   4   2  0.0067   2.4560  19.8520   0.0000 #C  
  310   4   2  0.0067   4.9120  17.0160   0.0000 #C  
  311   4   2  0.0067   3.6840  17.7250   0.0000 #C  
  312   4   2  0.0067   3.6840  19.1430   0.0000 #C  
  313   4   2  0.0067   4.9120  19.8520   0.0000 #C  
  314   4   2  0.0067   7.3680  17.0160   0.0000 #C  
  315   4   2  0.0067   6.1400  17.7250   0.0000 #C  
  316   4   2  0.0067   6.1400  19.1430   0.0000 #C  
  317   4   2  0.0067   7.3680  19.8520   0.0000 #C  
  318   4   2  0.0067   9.8240  17.0160   0.0000 #C  
  319   4   2  0.0067   8.5960  17.7250   0.0000 #C  
  320   4   2  0.0067   8.5960  19.1430   0.0000 #C  
  321   4   2  0.0067   9.8240  19.8520   0.0000 #C  
  322   4   2  0.0067  11.0520  17.7250   0.0000 #C  
  323   4   2  0.0067  11.0520  19.1430   0.0000 #C  
  324   4   2  0.0067  22.1040  17.0160   0.0000 #C  
  325   4   2  0.0067  20.8760  17.7250   0.0000 #C  
  326   4   2  0.0067  20.8760  19.1430   0.0000 #C  
  327   4   2  0.0067  22.1040  19.8520   0.0000 #C  
  328   4   2  0.0067  24.5600  17.0160   0.0000 #C  
  329   4   2  0.0067  23.3320  17.7250   0.0000 #C  
  330   4   2  0.0067  23.3320  19.1430   0.0000 #C  
  331   4   2  0.0067  24.5600  19.8520   0.0000 #C  
  332   4   2  0.0067  27.0170  17.0160   0.0000 #C  
  333   4   2  0.0067  25.7890  17.7250   0.0000 #C  
  334   4   2  0.0067  25.7890  19.1430   0.0000 #C  
  335   4   8 -0.5300  27.0170  19.8520   0.0000 #O  
  336   4   2  0.0067  29.4730  17.0160   0.0000 #C  
  337   4   2  0.0067  28.2450  17.7250   0.0000 #C  
  338   4   2  0.0067  28.2450  19.1430   0.0000 #C  
  339   4   2  0.0067  29.4730  19.8520   0.0000 #C  
  340   4   2  0.0067  31.9290  17.0160   0.0000 #C  
  341   4   2  0.0067  30.7010  17.7250   0.0000 #C  
  342   4   2  0.0067  30.7010  19.1430   0.0000 #C  
  343   4   2  0.0067  31.9290  19.8520   0.0000 #C  
  344   4   2  0.0067  34.3850  17.0160   0.0000 #C  
  345   4   2  0.0067  33.1570  17.7250   0.0000 #C  
  346   4   2  0.0067  33.1570  19.1430   0.0000 #C  
  347   4   2  0.0067  34.3850  19.8520   0.0000 #C  
  348   4   8 -0.5300  36.8410  17.0160   0.0000 #O  
  349   4   2  0.0067  35.6130  17.7250   0.0000 #C  
  350   4   2  0.0067  35.6130  19.1430   0.0000 #C  
  351   4   2  0.0067  36.8410  19.8520   0.0000 #C  
  352   4   2  0.0067  39.2970  17.0160   0.0000 #C  
  353   4   2  0.0067  38.0690  17.7250   0.0000 #C  
  354   4   2  0.0067  38.0690  19.1430   0.0000 #C  
  355   4   2  0.0067  39.2970  19.8520   0.0000 #C  
  356   4   2  0.0067  41.7530  17.0160   0.0000 #C  
  357   4   2  0.0067  40.5250  17.7250   0.0000 #C  
  358   4   2  0.0067  40.5250  19.1430   0.0000 #C  
  359   4   2  0.0067  41.7530  19.8520   0.0000 #C  
  360   4   2  0.0067  44.2090  17.0160   0.0000 #C  
  361   4   2  0.0067  42.9810  17.7250   0.0000 #C  
  362   4   2  0.0067  42.9810  19.1430   0.0000 #C  
  363   4   2  0.0067  44.2090  19.8520   0.0000 #C  
  364   4   2  0.0067  46.6650  17.0160   0.0000 #C  
  365   4   2  0.0067  45.4370  17.7250   0.0000 #C  
  366   4   2  0.0067  45.4370  19.1430   0.0000 #C  
  367   4   2  0.0067  46.6650  19.8520   0.0000 #C  
  368   4   2  0.0067  49.1210  17.0160   0.0000 #C  
  369   4   2  0.0067  47.8930  17.7250   0.0000 #C  
  370   4   2  0.0067  47.8930  19.1430   0.0000 #C  
  371   4   2  0.0067  49.1210  19.8520   0.0000 #C  
  372   4   2  0.0067   0.0000  21.2700   0.0000 #C  
  373   4   2  0.0067  -1.2280  21.9790   0.0000 #C  
  374   4   2  0.0067  -1.2280  23.3970   0.0000 #C  
  375   4   2  0.0067   0.0000  24.1060   0.0000 #C  
  376   4   2  0.0067   2.4560  21.2700   0.0000 #C  
  377   4   2  0.0067   1.2280  21.9790   0.0000 #C  
  378   4   2  0.0067   1.2280  23.3970   0.0000 #C  
  379   4   2  0.0067   2.4560  24.1060   0.0000 #C  
  380   4   2  0.0067   4.9120  21.2700   0.0000 #C  
  381   4   2  0.0067   3.6840  21.9790   0.0000 #C  
  382   4   2  0.0067   3.6840  23.3970   0.0000 #C  
  383   4   2  0.0067   4.9120  24.1060   0.0000 #C  
  384   4   2  0.0067   7.3680  21.2700   0.0000 #C  
  385   4   2  0.0067   6.1400  21.9790   0.0000 #C  
  386   4   2  0.0067   6.1400  23.3970   0.0000 #C  
  387   4   2  0.0067   7.3680  24.1060   0.0000 #C  
  388   4   2  0.0067   9.8240  21.2700   0.0000 #C  
  389   4   2  0.0067   8.5960  21.9790   0.0000 #C  
  390   4   2  0.0067   8.5960  23.3970   0.0000 #C  
  391   4   2  0.0067   9.8240  24.1060   0.0000 #C  
  392   4   2  0.0067  12.2800  21.2700   0.0000 #C  
  393   4   2  0.0067  11.0520  21.9790   0.0000 #C  
  394   4   2  0.0067  11.0520  23.3970   0.0000 #C  
  395   4   2  0.0067  12.2800  24.1060   0.0000 #C  
  396   4   8 -0.5300  14.7360  21.2700   0.0000 #O  
  397   4   2  0.0067  13.5080  21.9790   0.0000 #C  
  398   4   2  0.0067  13.5080  23.3970   0.0000 #C  
  399   4   2  0.0067  14.7360  24.1060   0.0000 #C  
  400   5   2  0.0067  17.1920  21.2700   0.0000 #C  
  401   5   2  0.0067  15.9640  21.9790   0.0000 #C  
  402   5   2  0.0067  15.9640  23.3970   0.0000 #C  
  403   5   2  0.0067  17.1920  24.1060   0.0000 #C  
  404   5   2  0.0067  19.6480  21.2700   0.0000 #C  
  405   5   2  0.0067  18.4200  21.9790   0.0000 #C  
  406   5   2  0.0067  18.4200  23.3970   0.0000 #C  
  407   5   2  0.0067  19.6480  24.1060   0.0000 #C  
  408   5   2  0.0067  20.8760  21.9790   0.0000 #C  
  409   5   2  0.0067  20.8760  23.3970   0.0000 #C  
  410   5   2  0.0067  29.4730  24.1060   0.0000 #C  
  411   5   2  0.0067  31.9290  21.2700   0.0000 #C  
  412   5   2  0.0067  30.7010  21.9790   0.0000 #C  
  413   5   2  0.0067  30.7010  23.3970   0.0000 #C  
  414   5   2  0.0067  31.9290  24.1060   0.0000 #C  
  415   5   2  0.0067  34.3850  21.2700   0.0000 #C  
  416   5   2  0.0067  33.1570  21.9790   0.0000 #C  
  417   5   2  0.0067  33.1570  23.3970   0.0000 #C  
  418   5   2  0.0067  34.3850  24.1060   0.0000 #C  
  419   5   2  0.0067  36.8410  21.2700   0.0000 #C  
  420   5   2  0.0067  35.6130  21.9790   0.0000 #C  
  421   5   2  0.0067  35.6130  23.3970   0.0000 #C  
  422   5   2  0.0067  36.8410  24.1060   0.0000 #C  
  423   5   2  0.0067  39.2970  21.2700   0.0000 #C  
  424   5   2  0.0067  38.0690  21.9790   0.0000 #C  
  425   5   2  0.0067  38.0690  23.3970   0.0000 #C  
  426   5   2  0.0067  39.2970  24.1060   0.0000 #C  
  427   5   2  0.0067  41.7530  21.2700   0.0000 #C  
  428   5   2  0.0067  40.5250  21.9790   0.0000 #C  
  429   5   2  0.0067  40.5250  23.3970   0.0000 #C  
  430   5   2  0.0067  41.7530  24.1060   0.0000 #C  
  431   5   2  0.0067  44.2090  21.2700   0.0000 #C  
  432   5   2  0.0067  42.9810  21.9790   0.0000 #C  
  433   5   2  0.0067  42.9810  23.3970   0.0000 #C  
  434   5   2  0.0067  44.2090  24.1060   0.0000 #C  
  435   5   2  0.0067  46.6650  21.2700   0.0000 #C  
  436   5   2  0.0067  45.4370  21.9790   0.0000 #C  
  437   5   2  0.0067  45.4370  23.3970   0.0000 #C  
  438   5   2  0.0067  46.6650  24.1060   0.0000 #C  
  439   5   2  0.0067  49.1210  21.2700   0.0000 #C  
  440   5   2  0.0067  47.8930  21.9790   0.0000 #C  
  441   5   2  0.0067  47.8930  23.3970   0.0000 #C  
  442   5   2  0.0067  49.1210  24.1060   0.0000 #C  
  443   5   2  0.0067   0.0000  25.5240   0.0000 #C  
  444   5   2  0.0067  -1.2280  26.2330   0.0000 #C  
  445   5   2  0.0067  -1.2280  27.6510   0.0000 #C  
  446   5   2  0.0067   0.0000  28.3600   0.0000 #C  
  447   5   2  0.0067   2.4560  25.5240   0.0000 #C  
  448   5   2  0.0067   1.2280  26.2330   0.0000 #C  
  449   5   2  0.0067   1.2280  27.6510   0.0000 #C  
  450   5   2  0.0067   2.4560  28.3600   0.0000 #C  
  451   5   2  0.0067   4.9120  25.5240   0.0000 #C  
  452   5   2  0.0067   3.6840  26.2330   0.0000 #C  
  453   5   2  0.0067   3.6840  27.6510   0.0000 #C  
  454   5   2  0.0067   4.9120  28.3600   0.0000 #C  
  455   5   2  0.0067   7.3680  25.5240   0.0000 #C  
  456   5   2  0.0067   6.1400  26.2330   0.0000 #C  
  457   5   2  0.0067   6.1400  27.6510   0.0000 #C  
  458   5   2  0.0067   7.3680  28.3600   0.0000 #C  
  459   5   2  0.0067   9.8240  25.5240   0.0000 #C  
  460   5   2  0.0067   8.5960  26.2330   0.0000 #C  
  461   5   2  0.0067   8.5960  27.6510   0.0000 #C  
  462   5   2  0.0067   9.8240  28.3600   0.0000 #C  
  463   5   2  0.0067  12.2800  25.5240   0.0000 #C  
  464   5   2  0.0067  11.0520  26.2330   0.0000 #C  
  465   5   2  0.0067  11.0520  27.6510   0.0000 #C  
  466   5   2  0.0067  12.2800  28.3600   0.0000 #C  
  467   5   2  0.0067  14.7360  25.5240   0.0000 #C  
  468   5   2  0.0067  13.5080  26.2330   0.0000 #C  
  469   5   2  0.0067  13.5080  27.6510   0.0000 #C  
  470   5   2  0.0067  14.7360  28.3600   0.0000 #C  
  471   5   2  0.0067  17.1920  25.5240   0.0000 #C  
  472   5   2  0.0067  15.9640  26.2330   0.0000 #C  
  473   5   2  0.0067  15.9640  27.6510   0.0000 #C  
  474   5   2  0.0067  17.1920  28.3600   0.0000 #C  
  475   5   2  0.0067  19.6480  25.5240   0.0000 #C  
  476   5   2  0.0067  18.4200  26.2330   0.0000 #C  
  477   5   2  0.0067  18.4200  27.6510   0.0000 #C  
  478   5   2  0.0067  19.6480  28.3600   0.0000 #C  
  479   5   8 -0.5300  20.8760  26.2330   0.0000 #O  
  480   5   2  0.0067  20.8760  27.6510   0.0000 #C  
  481   5   2  0.0067  29.4730  25.5240   0.0000 #C  
  482   5   2  0.0067  29.4730  28.3600   0.0000 #C  
  483   5   2  0.0067  31.9290  25.5240   0.0000 #C  
  484   5   2  0.0067  30.7010  26.2330   0.0000 #C  
  485   5   2  0.0067  30.7010  27.6510   0.0000 #C  
  486   5   2  0.0067  31.9290  28.3600   0.0000 #C  
  487   5   2  0.0067  34.3850  25.5240   0.0000 #C  
  488   5   2  0.0067  33.1570  26.2330   0.0000 #C  
  489   5   2  0.0067  33.1570  27.6510   0.0000 #C  
  490   5   2  0.0067  34.3850  28.3600   0.0000 #C  
  491   5   2  0.0067  36.8410  25.5240   0.0000 #C  
  492   5   2  0.0067  35.6130  26.2330   0.0000 #C  
  493   5   2  0.0067  35.6130  27.6510   0.0000 #C  
  494   5   2  0.0067  36.8410  28.3600   0.0000 #C  
  495   5   2  0.0067  39.2970  25.5240   0.0000 #C  
  496   5   2  0.0067  38.0690  26.2330   0.0000 #C  
  497   5   2  0.0067  38.0690  27.6510   0.0000 #C  
  498   5   2  0.0067  39.2970  28.3600   0.0000 #C  
  499   5   2  0.0067  41.7530  25.5240   0.0000 #C  
  500   6   2  0.0067  40.5250  26.2330   0.0000 #C  
  501   6   2  0.0067  40.5250  27.6510   0.0000 #C  
  502   6   2  0.0067  41.7530  28.3600   0.0000 #C  
  503   6   2  0.0067  44.2090  25.5240   0.0000 #C  
  504   6   2  0.0067  42.9810  26.2330   0.0000 #C  
  505   6   2  0.0067  42.9810  27.6510   0.0000 #C  
  506   6   2  0.0067  44.2090  28.3600   0.0000 #C  
  507   6   2  0.0067  46.6650  25.5240   0.0000 #C  
  508   6   2  0.0067  45.4370  26.2330   0.0000 #C  
  509   6   2  0.0067  45.4370  27.6510   0.0000 #C  
  510   6   2  0.0067  46.6650  28.3600   0.0000 #C  
  511   6   2  0.0067  49.1210  25.5240   0.0000 #C  
  512   6   2  0.0067  47.8930  26.2330   0.0000 #C  
  513   6   2  0.0067  47.8930  27.6510   0.0000 #C  
  514   6   2  0.0067  49.1210  28.3600   0.0000 #C  
  515   6   2  0.0067   0.0000  29.7780   0.0000 #C  
  516   6   2  0.0067  -1.2280  30.4870   0.0000 #C  
  517   6   2  0.0067  -1.2280  31.9050   0.0000 #C  
  518   6   2  0.0067   0.0000  32.6140   0.0000 #C  
  519   6   2  0.0067   2.4560  29.7780   0.0000 #C  
  520   6   2  0.0067   1.2280  30.4870   0.0000 #C  
  521   6   2  0.0067   1.2280  31.9050   0.0000 #C  
  522   6   2  0.0067   2.4560  32.6140   0.0000 #C  
  523   6   2  0.0067   4.9120  29.7780   0.0000 #C  
  524   6   2  0.0067   3.6840  30.4870   0.0000 #C  
  525   6   2  0.0067   3.6840  31.9050   0.0000 #C  
  526   6   2  0.0067   4.9120  32.6140   0.0000 #C  
  527   6   2  0.0067   7.3680  29.7780   0.0000 #C  
  528   6   2  0.0067   6.1400  30.4870   0.0000 #C  
  529   6   2  0.0067   6.1400  31.9050   0.0000 #C  
  530   6   2  0.0067   7.3680  32.6140   0.0000 #C  
  531   6   2  0.0067   9.8240  29.7780   0.0000 #C  
  532   6   2  0.0067   8.5960  30.4870   0.0000 #C  
  533   6   2  0.0067   8.5960  31.9050   0.0000 #C  
  534   6   2  0.0067   9.8240  32.6140   0.0000 #C  
  535   6   2  0.0067  12.2800  29.7780   0.0000 #C  
  536   6   2  0.0067  11.0520  30.4870   0.0000 #C  
  537   6   8 -0.5300  11.0520  31.9050   0.0000 #O  
  538   6   2  0.0067  14.7360  29.7780   0.0000 #C  
  539   6   2  0.0067  13.5080  30.4870   0.0000 #C  
  540   6   2  0.0067  17.1920  29.7780   0.0000 #C  
  541   6   2  0.0067  15.9640  30.4870   0.0000 #C  
  542   6   2  0.0067  19.6480  29.7780   0.0000 #C  
  543   6   2  0.0067  18.4200  30.4870   0.0000 #C  