(written by ASE)

180 atoms
2 atom types

0.0      3.1800000000000002  xlo xhi
0.0      55.079215680690304  ylo yhi
0.0                   29.57  zlo zhi
    -31.800000000000001                       0                       0  xy xz yz

Atoms # atomic

     1   1      10.122254380644543   1.876276911616514e-15     -3.1900000000000173
     2   2      11.958228236667553   1.876276911616514e-15     -1.5950000000000184
     3   2      10.904317617916384      1.7270742430346686     -4.7850000000000179
     4   1      10.122254380644543   1.876276911616514e-15 -1.7763568394002505e-14
     5   2      11.958228236667553   1.876276911616514e-15      1.5949999999999811
     6   2      10.904317617916384      1.7270742430346686     -1.5950000000000184
     7   1      10.122254380644543   1.876276911616514e-15      3.1899999999999835
     8   2      11.958228236667553   1.876276911616514e-15      4.7849999999999824
     9   2      10.904317617916384      1.7270742430346686      1.5949999999999811
    10   1       9.626835988309157      3.1279486250054225     -3.1900000000000173
    11   2      11.372950887827379      3.6952957477446353     -1.5950000000000184
    12   2      9.8369270346264628      5.0121646689619483     -4.7850000000000179
    13   1       9.626835988309157      3.1279486250054225 -1.7763568394002505e-14
    14   2      11.372950887827379      3.6952957477446353      1.5949999999999811
    15   2      9.8369270346264628      5.0121646689619483     -1.5950000000000184
    16   1       9.626835988309157      3.1279486250054225      3.1899999999999835
    17   2      11.372950887827379      3.6952957477446353      4.7849999999999824
    18   2      9.8369270346264628      5.0121646689619483      1.5949999999999811
    19   1      8.1890758153276924      5.9497118448957451     -3.1900000000000173
    20   2      9.6744098660784097      7.0288702010606139     -1.5950000000000184
    21   2      7.8066294952865345      7.8066294952865345     -4.7850000000000179
    22   1      8.1890758153276924      5.9497118448957451 -1.7763568394002505e-14
    23   2      9.6744098660784097      7.0288702010606139      1.5949999999999811
    24   2      7.8066294952865345      7.8066294952865345     -1.5950000000000184
    25   1      8.1890758153276924      5.9497118448957451      3.1899999999999835
    26   2      9.6744098660784097      7.0288702010606139      4.7849999999999824
    27   2      7.8066294952865345      7.8066294952865345      1.5949999999999811
    28   1      5.9497118448957416      8.1890758153276941     -3.1900000000000173
    29   2      7.0288702010606112      9.6744098660784115     -1.5950000000000184
    30   2      5.0121646689619466      9.8369270346264646     -4.7850000000000179
    31   1      5.9497118448957416      8.1890758153276941 -1.7763568394002505e-14
    32   2      7.0288702010606112      9.6744098660784115      1.5949999999999811
    33   2      5.0121646689619466      9.8369270346264646     -1.5950000000000184
    34   1      5.9497118448957416      8.1890758153276941      3.1899999999999835
    35   2      7.0288702010606112      9.6744098660784115      4.7849999999999824
    36   2      5.0121646689619466      9.8369270346264646      1.5949999999999811
    37   1      3.1279486250054203       9.626835988309157     -3.1900000000000173
    38   2      3.6952957477446327      11.372950887827379     -1.5950000000000184
    39   2      1.7270742430346657      10.904317617916384     -4.7850000000000179
    40   1      3.1279486250054203       9.626835988309157 -1.7763568394002505e-14
    41   2      3.6952957477446327      11.372950887827379      1.5949999999999811
    42   2      1.7270742430346657      10.904317617916384     -1.5950000000000184
    43   1      3.1279486250054203       9.626835988309157      3.1899999999999835
    44   2      3.6952957477446327      11.372950887827379      4.7849999999999824
    45   2      1.7270742430346657      10.904317617916384      1.5949999999999811
    46   1 -1.3359903297734328e-15      10.122254380644543     -3.1900000000000173
    47   2 -1.6338013942304196e-15      11.958228236667553     -1.5950000000000184
    48   2     -1.7270742430346688      10.904317617916384     -4.7850000000000179
    49   1 -1.3359903297734328e-15      10.122254380644543 -1.7763568394002505e-14
    50   2 -1.6338013942304196e-15      11.958228236667553      1.5949999999999811
    51   2     -1.7270742430346688      10.904317617916384     -1.5950000000000184
    52   1 -1.3359903297734328e-15      10.122254380644543      3.1899999999999835
    53   2 -1.6338013942304196e-15      11.958228236667553      4.7849999999999824
    54   2     -1.7270742430346688      10.904317617916384      1.5949999999999811
    55   1     -3.1279486250054251       9.626835988309157     -3.1900000000000173
    56   2      -3.695295747744638      11.372950887827379     -1.5950000000000184
    57   2     -5.0121646689619483      9.8369270346264646     -4.7850000000000179
    58   1     -3.1279486250054251       9.626835988309157 -1.7763568394002505e-14
    59   2      -3.695295747744638      11.372950887827379      1.5949999999999811
    60   2     -5.0121646689619483      9.8369270346264646     -1.5950000000000184
    61   1     -3.1279486250054251       9.626835988309157      3.1899999999999835
    62   2      -3.695295747744638      11.372950887827379      4.7849999999999824
    63   2     -5.0121646689619483      9.8369270346264646      1.5949999999999811
    64   1     -5.9497118448957451      8.1890758153276941     -3.1900000000000173
    65   2     -7.0288702010606148      9.6744098660784115     -1.5950000000000184
    66   2     -7.8066294952865363      7.8066294952865363     -4.7850000000000179
    67   1     -5.9497118448957451      8.1890758153276941 -1.7763568394002505e-14
    68   2     -7.0288702010606148      9.6744098660784115      1.5949999999999811
    69   2     -7.8066294952865363      7.8066294952865363     -1.5950000000000184
    70   1     -5.9497118448957451      8.1890758153276941      3.1899999999999835
    71   2     -7.0288702010606148      9.6744098660784115      4.7849999999999824
    72   2     -7.8066294952865363      7.8066294952865363      1.5949999999999811
    73   1     -8.1890758153276941       5.949711844895746     -3.1900000000000173
    74   2     -9.6744098660784115      7.0288702010606157     -1.5950000000000184
    75   2     -9.8369270346264646      5.0121646689619492     -4.7850000000000179
    76   1     -8.1890758153276941       5.949711844895746 -1.7763568394002505e-14
    77   2     -9.6744098660784115      7.0288702010606157      1.5949999999999811
    78   2     -9.8369270346264646      5.0121646689619492     -1.5950000000000184
    79   1     -8.1890758153276941       5.949711844895746      3.1899999999999835
    80   2     -9.6744098660784115      7.0288702010606157      4.7849999999999824
    81   2     -9.8369270346264646      5.0121646689619492      1.5949999999999811
    82   1      -9.626835988309157      3.1279486250054234     -3.1900000000000173
    83   2     -11.372950887827379      3.6952957477446366     -1.5950000000000184
    84   2     -10.904317617916384      1.7270742430346699     -4.7850000000000179
    85   1      -9.626835988309157      3.1279486250054234 -1.7763568394002505e-14
    86   2     -11.372950887827379      3.6952957477446366      1.5949999999999811
    87   2     -10.904317617916384      1.7270742430346699     -1.5950000000000184
    88   1      -9.626835988309157      3.1279486250054234      3.1899999999999835
    89   2     -11.372950887827379      3.6952957477446366      4.7849999999999824
    90   2     -10.904317617916384      1.7270742430346699      1.5949999999999811
    91   1     -10.122254380644543  3.1158955543576748e-15     -3.1900000000000173
    92   2     -11.958228236667553  3.3407375049673553e-15     -1.5950000000000184
    93   2     -10.904317617916384     -1.7270742430346635     -4.7850000000000179
    94   1     -10.122254380644543  3.1158955543576748e-15 -1.7763568394002505e-14
    95   2     -11.958228236667553  3.3407375049673553e-15      1.5949999999999811
    96   2     -10.904317617916384     -1.7270742430346635     -1.5950000000000184
    97   1     -10.122254380644543  3.1158955543576748e-15      3.1899999999999835
    98   2     -11.958228236667553  3.3407375049673553e-15      4.7849999999999824
    99   2     -10.904317617916384     -1.7270742430346635      1.5949999999999811
   100   1      -9.626835988309157      -3.127948625005422     -3.1900000000000173
   101   2     -11.372950887827379     -3.6952957477446353     -1.5950000000000184
   102   2     -9.8369270346264592     -5.0121646689619483     -4.7850000000000179
   103   1      -9.626835988309157      -3.127948625005422 -1.7763568394002505e-14
   104   2     -11.372950887827379     -3.6952957477446353      1.5949999999999811
   105   2     -9.8369270346264592     -5.0121646689619483     -1.5950000000000184
   106   1      -9.626835988309157      -3.127948625005422      3.1899999999999835
   107   2     -11.372950887827379     -3.6952957477446353      4.7849999999999824
   108   2     -9.8369270346264592     -5.0121646689619483      1.5949999999999811
   109   1     -8.1890758153276888     -5.9497118448957442     -3.1900000000000173
   110   2     -9.6744098660784044     -7.0288702010606112     -1.5950000000000184
   111   2     -7.8066294952865318     -7.8066294952865336     -4.7850000000000179
   112   1     -8.1890758153276888     -5.9497118448957442 -1.7763568394002505e-14
   113   2     -9.6744098660784044     -7.0288702010606112      1.5949999999999811
   114   2     -7.8066294952865318     -7.8066294952865336     -1.5950000000000184
   115   1     -8.1890758153276888     -5.9497118448957442      3.1899999999999835
   116   2     -9.6744098660784044     -7.0288702010606112      4.7849999999999824
   117   2     -7.8066294952865318     -7.8066294952865336      1.5949999999999811
   118   1     -5.9497118448957433     -8.1890758153276888     -3.1900000000000173
   119   2     -7.0288702010606139     -9.6744098660784061     -1.5950000000000184
   120   2     -5.0121646689619475     -9.8369270346264592     -4.7850000000000179
   121   1     -5.9497118448957433     -8.1890758153276888 -1.7763568394002505e-14
   122   2     -7.0288702010606139     -9.6744098660784061      1.5949999999999811
   123   2     -5.0121646689619475     -9.8369270346264592     -1.5950000000000184
   124   1     -5.9497118448957433     -8.1890758153276888      3.1899999999999835
   125   2     -7.0288702010606139     -9.6744098660784061      4.7849999999999824
   126   2     -5.0121646689619475     -9.8369270346264592      1.5949999999999811
   127   1     -3.1279486250054207     -9.6268359883091534     -3.1900000000000173
   128   2     -3.6952957477446331     -11.372950887827376     -1.5950000000000184
   129   2     -1.7270742430346664      -10.90431761791638     -4.7850000000000179
   130   1     -3.1279486250054207     -9.6268359883091534 -1.7763568394002505e-14
   131   2     -3.6952957477446331     -11.372950887827376      1.5949999999999811
   132   2     -1.7270742430346664      -10.90431761791638     -1.5950000000000184
   133   1     -3.1279486250054207     -9.6268359883091534      3.1899999999999835
   134   2     -3.6952957477446331     -11.372950887827376      4.7849999999999824
   135   2     -1.7270742430346664      -10.90431761791638      1.5949999999999811
   136   1  7.0822793171457917e-16      -10.12225438064454     -3.1900000000000173
   137   2  7.8119704556188589e-16     -11.958228236667546     -1.5950000000000184
   138   2      1.7270742430346673     -10.904317617916378     -4.7850000000000179
   139   1  7.0822793171457917e-16      -10.12225438064454 -1.7763568394002505e-14
   140   2  7.8119704556188589e-16     -11.958228236667546      1.5949999999999811
   141   2      1.7270742430346673     -10.904317617916378     -1.5950000000000184
   142   1  7.0822793171457917e-16      -10.12225438064454      3.1899999999999835
   143   2  7.8119704556188589e-16     -11.958228236667546      4.7849999999999824
   144   2      1.7270742430346673     -10.904317617916378      1.5949999999999811
   145   1      3.1279486250054225     -9.6268359883091534     -3.1900000000000173
   146   2      3.6952957477446344     -11.372950887827374     -1.5950000000000184
   147   2      5.0121646689619475      -9.836927034626461     -4.7850000000000179
   148   1      3.1279486250054225     -9.6268359883091534 -1.7763568394002505e-14
   149   2      3.6952957477446344     -11.372950887827374      1.5949999999999811
   150   2      5.0121646689619475      -9.836927034626461     -1.5950000000000184
   151   1      3.1279486250054225     -9.6268359883091534      3.1899999999999835
   152   2      3.6952957477446344     -11.372950887827374      4.7849999999999824
   153   2      5.0121646689619475      -9.836927034626461      1.5949999999999811
   154   1      5.9497118448957442     -8.1890758153276906     -3.1900000000000173
   155   2       7.028870201060613     -9.6744098660784097     -1.5950000000000184
   156   2      7.8066294952865354     -7.8066294952865336     -4.7850000000000179
   157   1      5.9497118448957442     -8.1890758153276906 -1.7763568394002505e-14
   158   2       7.028870201060613     -9.6744098660784097      1.5949999999999811
   159   2      7.8066294952865354     -7.8066294952865336     -1.5950000000000184
   160   1      5.9497118448957442     -8.1890758153276906      3.1899999999999835
   161   2       7.028870201060613     -9.6744098660784097      4.7849999999999824
   162   2      7.8066294952865354     -7.8066294952865336      1.5949999999999811
   163   1      8.1890758153276941     -5.9497118448957442     -3.1900000000000173
   164   2      9.6744098660784115      -7.028870201060613     -1.5950000000000184
   165   2      9.8369270346264646     -5.0121646689619466     -4.7850000000000179
   166   1      8.1890758153276941     -5.9497118448957442 -1.7763568394002505e-14
   167   2      9.6744098660784115      -7.028870201060613      1.5949999999999811
   168   2      9.8369270346264646     -5.0121646689619466     -1.5950000000000184
   169   1      8.1890758153276941     -5.9497118448957442      3.1899999999999835
   170   2      9.6744098660784115      -7.028870201060613      4.7849999999999824
   171   2      9.8369270346264646     -5.0121646689619466      1.5949999999999811
   172   1       9.626835988309157     -3.1279486250054216     -3.1900000000000173
   173   2      11.372950887827377      -3.695295747744634     -1.5950000000000184
   174   2      10.904317617916384     -1.7270742430346677     -4.7850000000000179
   175   1       9.626835988309157     -3.1279486250054216 -1.7763568394002505e-14
   176   2      11.372950887827377      -3.695295747744634      1.5949999999999811
   177   2      10.904317617916384     -1.7270742430346677     -1.5950000000000184
   178   1       9.626835988309157     -3.1279486250054216      3.1899999999999835
   179   2      11.372950887827377      -3.695295747744634      4.7849999999999824
   180   2      10.904317617916384     -1.7270742430346677      1.5949999999999811
