(written by ASE)

900 atoms
2 atom types

0.0      3.1800000000000002  xlo xhi
0.0       275.3960784034515  ylo yhi
0.0                   29.57  zlo zhi
                   -159                       0                       0  xy xz yz

Atoms # atomic

     1   1      50.611271903222715 -4.3599691758168362e-15     -3.1899999999999356
     2   2      52.447245759245725 -4.3599691758168362e-15     -1.5949999999999367
     3   2      51.503832252602415      1.6185731346224084     -4.7849999999999362
     4   1      50.611271903222715 -4.3599691758168362e-15  6.3948846218409017e-14
     5   2      52.447245759245725 -4.3599691758168362e-15      1.5950000000000628
     6   2      51.503832252602415      1.6185731346224084     -1.5949999999999367
     7   1      50.611271903222715 -4.3599691758168362e-15      3.1900000000000652
     8   2      52.447245759245725 -4.3599691758168362e-15      4.7850000000000641
     9   2      51.503832252602415      1.6185731346224084      1.5950000000000628
    10   1      50.511402119167066      3.1779080568426905     -3.1899999999999356
    11   2      52.343753100173551      3.2931898091046121     -1.5949999999999367
    12   2      51.300570156564156      4.8493316351606071     -4.7849999999999362
    13   1      50.511402119167066      3.1779080568426905  6.3948846218409017e-14
    14   2      52.343753100173551      3.2931898091046121      1.5950000000000628
    15   2      51.300570156564156      4.8493316351606071     -1.5949999999999367
    16   1      50.511402119167066      3.1779080568426905      3.1900000000000652
    17   2      52.343753100173551      3.2931898091046121      4.7850000000000641
    18   2      51.300570156564156      4.8493316351606071      1.5950000000000628
    19   1      50.212186907411628      6.3432743624331174     -3.1899999999999356
    20   2      52.033683561201087      6.5733829025480057     -1.5949999999999367
    21   2      50.894848147119077      8.0609520391837144     -4.7849999999999362
    22   1      50.212186907411628      6.3432743624331174  6.3948846218409017e-14
    23   2      52.033683561201087      6.5733829025480057      1.5950000000000628
    24   2      50.894848147119077      8.0609520391837144     -1.5949999999999367
    25   1      50.212186907411628      6.3432743624331174      3.1900000000000652
    26   2      52.033683561201087      6.5733829025480057      4.7850000000000641
    27   2      50.894848147119077      8.0609520391837144      1.5950000000000628
    28   1       49.71480713369877      9.4836066620814172     -3.1899999999999356
    29   2      51.518260845141363      9.8276338567680313     -1.5949999999999367
    30   2      50.288267423681702      11.240759548206846     -4.7849999999999362
    31   1       49.71480713369877      9.4836066620814172  6.3948846218409017e-14
    32   2      51.518260845141363      9.8276338567680313      1.5950000000000628
    33   2      50.288267423681702      11.240759548206846     -1.5949999999999367
    34   1       49.71480713369877      9.4836066620814172      3.1900000000000652
    35   2      51.518260845141363      9.8276338567680313      4.7850000000000641
    36   2      50.288267423681702      11.240759548206846      1.5950000000000628
    37   1      49.021225728764115      12.586511498882238     -3.1899999999999356
    38   2      50.799519089980407      13.043099629974225     -1.5949999999999367
    39   2      49.483221883247076      14.376204914707756     -4.7849999999999362
    40   1      49.021225728764115      12.586511498882238  6.3948846218409017e-14
    41   2      50.799519089980407      13.043099629974225      1.5950000000000628
    42   2      49.483221883247076      14.376204914707756     -1.5949999999999367
    43   1      49.021225728764115      12.586511498882238      3.1900000000000652
    44   2      50.799519089980407      13.043099629974225      4.7850000000000641
    45   2      49.483221883247076      14.376204914707756      1.5950000000000628
    46   1      48.134179941545774      15.639743125027104     -3.1899999999999356
    47   2      49.880294841063993      16.207090247766313     -1.5949999999999367
    48   2      48.482888672772958      17.454913968273591     -4.7849999999999362
    49   1      48.134179941545774      15.639743125027104  6.3948846218409017e-14
    50   2      49.880294841063993      16.207090247766313      1.5950000000000628
    51   2      48.482888672772958      17.454913968273591     -1.5949999999999367
    52   1      48.134179941545774      15.639743125027104      3.1900000000000652
    53   2      49.880294841063993      16.207090247766313      4.7850000000000641
    54   2      48.482888672772958      17.454913968273591      1.5950000000000628
    55   1      47.057170536513198      18.631251830176467     -3.1899999999999356
    56   2      48.764215856548972      19.307118884665702     -1.5949999999999367
    57   2      47.291215650432335      20.464736450798309     -4.7849999999999362
    58   1      47.057170536513198      18.631251830176467  6.3948846218409017e-14
    59   2      48.764215856548972      19.307118884665702      1.5950000000000628
    60   2      47.291215650432335      20.464736450798309     -1.5949999999999367
    61   1      47.057170536513198      18.631251830176467      3.1900000000000652
    62   2      48.764215856548972      19.307118884665702      4.7850000000000641
    63   2      47.291215650432335      20.464736450798309      1.5950000000000628
    64   1      45.794447977749272      21.549231496161433     -3.1899999999999356
    65   2      47.455686790299239      22.330951143910905     -1.5949999999999367
    66   2       45.91290580522076      23.393793968000477     -4.7849999999999362
    67   1      45.794447977749272      21.549231496161433  6.3948846218409017e-14
    68   2      47.455686790299239      22.330951143910905      1.5950000000000628
    69   2       45.91290580522076      23.393793968000477     -1.5949999999999367
    70   1      45.794447977749272      21.549231496161433      3.1900000000000652
    71   2      47.455686790299239      22.330951143910905      4.7850000000000641
    72   2       45.91290580522076      23.393793968000477      1.5950000000000628
    73   1       44.35099565431036      24.382166190338452     -3.1899999999999356
    74   2      45.959871808729218      25.266653341032232     -1.5949999999999367
    75   2      44.353398696407403      26.230526868018789     -4.7849999999999362
    76   1       44.35099565431036      24.382166190338452  6.3948846218409017e-14
    77   2      45.959871808729218      25.266653341032232      1.5950000000000628
    78   2      44.353398696407403      26.230526868018789     -1.5949999999999367
    79   1       44.35099565431036      24.382166190338452      3.1900000000000652
    80   2      45.959871808729218      25.266653341032232      4.7850000000000641
    81   2      44.353398696407403      26.230526868018789      1.5950000000000628
    82   1      42.732510213066448      27.118875613714369     -3.1899999999999356
    83   2      44.282674210198294      28.102639600652406     -1.5949999999999367
    84   2      42.618848986079733       28.96373986207686     -4.7849999999999362
    85   1      42.732510213066448      27.118875613714369  6.3948846218409017e-14
    86   2      44.282674210198294      28.102639600652406      1.5950000000000628
    87   2      42.618848986079733       28.96373986207686     -1.5949999999999367
    88   1      42.732510213066448      27.118875613714369      3.1900000000000652
    89   2      44.282674210198294      28.102639600652406      4.7850000000000641
    90   2      42.618848986079733       28.96373986207686      1.5950000000000628
    91   1       40.94537907663846      29.748559224478718     -3.1899999999999356
    92   2      42.430713127389168      30.827717580643586     -1.5949999999999367
    93   2      40.716102149504017      31.582646207173383     -4.7849999999999362
    94   1       40.94537907663846      29.748559224478718  6.3948846218409017e-14
    95   2      42.430713127389168      30.827717580643586      1.5950000000000628
    96   2      40.716102149504017      31.582646207173383     -1.5949999999999367
    97   1       40.94537907663846      29.748559224478718      3.1900000000000652
    98   2      42.430713127389168      30.827717580643586      4.7850000000000641
    99   2      40.716102149504017      31.582646207173383      1.5950000000000628
   100   1      38.996655235159302      32.260838862807972     -3.1899999999999356
   101   2      40.411297404615162      33.431132643188448     -1.5949999999999367
   102   2       38.65266745916189      34.076910276428762     -4.7849999999999362
   103   1      38.996655235159302      32.260838862807972  6.3948846218409017e-14
   104   2      40.411297404615162      33.431132643188448      1.5950000000000628
   105   2       38.65266745916189      34.076910276428762     -1.5949999999999367
   106   1      38.996655235159302      32.260838862807972      3.1900000000000652
   107   2      40.411297404615162      33.431132643188448      4.7850000000000641
   108   2       38.65266745916189      34.076910276428762      1.5950000000000628
   109   1        36.8940294113441      34.645799708721057     -3.1899999999999356
   110   2      38.232396753150788      35.902610298422346     -1.5949999999999367
   111   2      36.436688349082488      36.436688349082502     -4.7849999999999362
   112   1        36.8940294113441      34.645799708721057  6.3948846218409017e-14
   113   2      38.232396753150788      35.902610298422346      1.5950000000000628
   114   2      36.436688349082488      36.436688349082502     -1.5949999999999367
   115   1        36.8940294113441      34.645799708721057      3.1900000000000652
   116   2      38.232396753150788      35.902610298422346      4.7850000000000641
   117   2      36.436688349082488      36.436688349082502      1.5950000000000628
   118   1      34.645799708721043      36.894029411344107     -3.1899999999999356
   119   2      35.902610298422331      38.232396753150802     -1.5949999999999367
   120   2      34.076910276428741      38.652667459161897     -4.7849999999999362
   121   1      34.645799708721043      36.894029411344107  6.3948846218409017e-14
   122   2      35.902610298422331      38.232396753150802      1.5950000000000628
   123   2      34.076910276428741      38.652667459161897     -1.5949999999999367
   124   1      34.645799708721043      36.894029411344107      3.1900000000000652
   125   2      35.902610298422331      38.232396753150802      4.7850000000000641
   126   2      34.076910276428741      38.652667459161897      1.5950000000000628
   127   1      32.260838862807965      38.996655235159317     -3.1899999999999356
   128   2      33.431132643188434      40.411297404615176     -1.5949999999999367
   129   2      31.582646207173362      40.716102149504025     -4.7849999999999362
   130   1      32.260838862807965      38.996655235159317  6.3948846218409017e-14
   131   2      33.431132643188434      40.411297404615176      1.5950000000000628
   132   2      31.582646207173362      40.716102149504025     -1.5949999999999367
   133   1      32.260838862807965      38.996655235159317      3.1900000000000652
   134   2      33.431132643188434      40.411297404615176      4.7850000000000641
   135   2      31.582646207173362      40.716102149504025      1.5950000000000628
   136   1      29.748559224478694       40.94537907663846     -3.1899999999999356
   137   2      30.827717580643565      42.430713127389176     -1.5949999999999367
   138   2      28.963739862076832      42.618848986079726     -4.7849999999999362
   139   1      29.748559224478694       40.94537907663846  6.3948846218409017e-14
   140   2      30.827717580643565      42.430713127389176      1.5950000000000628
   141   2      28.963739862076832      42.618848986079726     -1.5949999999999367
   142   1      29.748559224478694       40.94537907663846      3.1900000000000652
   143   2      30.827717580643565      42.430713127389176      4.7850000000000641
   144   2      28.963739862076832      42.618848986079726      1.5950000000000628
   145   1      27.118875613714344      42.732510213066448     -3.1899999999999356
   146   2      28.102639600652385      44.282674210198294     -1.5949999999999367
   147   2      26.230526868018767      44.353398696407403     -4.7849999999999362
   148   1      27.118875613714344      42.732510213066448  6.3948846218409017e-14
   149   2      28.102639600652385      44.282674210198294      1.5950000000000628
   150   2      26.230526868018767      44.353398696407403     -1.5949999999999367
   151   1      27.118875613714344      42.732510213066448      3.1900000000000652
   152   2      28.102639600652385      44.282674210198294      4.7850000000000641
   153   2      26.230526868018767      44.353398696407403      1.5950000000000628
   154   1      24.382166190338427      44.350995654310367     -3.1899999999999356
   155   2      25.266653341032203      45.959871808729226     -1.5949999999999367
   156   2      23.393793968000448       45.91290580522076     -4.7849999999999362
   157   1      24.382166190338427      44.350995654310367  6.3948846218409017e-14
   158   2      25.266653341032203      45.959871808729226      1.5950000000000628
   159   2      23.393793968000448       45.91290580522076     -1.5949999999999367
   160   1      24.382166190338427      44.350995654310367      3.1900000000000652
   161   2      25.266653341032203      45.959871808729226      4.7850000000000641
   162   2      23.393793968000448       45.91290580522076      1.5950000000000628
   163   1      21.549231496161408      45.794447977749272     -3.1899999999999356
   164   2       22.33095114391088      47.455686790299247     -1.5949999999999367
   165   2      20.464736450798284      47.291215650432335     -4.7849999999999362
   166   1      21.549231496161408      45.794447977749272  6.3948846218409017e-14
   167   2       22.33095114391088      47.455686790299247      1.5950000000000628
   168   2      20.464736450798284      47.291215650432335     -1.5949999999999367
   169   1      21.549231496161408      45.794447977749272      3.1900000000000652
   170   2       22.33095114391088      47.455686790299247      4.7850000000000641
   171   2      20.464736450798284      47.291215650432335      1.5950000000000628
   172   1      18.631251830176442      47.057170536513205     -3.1899999999999356
   173   2      19.307118884665673      48.764215856548979     -1.5949999999999367
   174   2      17.454913968273562      48.482888672772965     -4.7849999999999362
   175   1      18.631251830176442      47.057170536513205  6.3948846218409017e-14
   176   2      19.307118884665673      48.764215856548979      1.5950000000000628
   177   2      17.454913968273562      48.482888672772965     -1.5949999999999367
   178   1      18.631251830176442      47.057170536513205      3.1900000000000652
   179   2      19.307118884665673      48.764215856548979      4.7850000000000641
   180   2      17.454913968273562      48.482888672772965      1.5950000000000628
   181   1      15.639743125027085      48.134179941545774     -3.1899999999999356
   182   2      16.207090247766295      49.880294841063993     -1.5949999999999367
   183   2      14.376204914707735      49.483221883247076     -4.7849999999999362
   184   1      15.639743125027085      48.134179941545774  6.3948846218409017e-14
   185   2      16.207090247766295      49.880294841063993      1.5950000000000628
   186   2      14.376204914707735      49.483221883247076     -1.5949999999999367
   187   1      15.639743125027085      48.134179941545774      3.1900000000000652
   188   2      16.207090247766295      49.880294841063993      4.7850000000000641
   189   2      14.376204914707735      49.483221883247076      1.5950000000000628
   190   1      12.586511498882215      49.021225728764115     -3.1899999999999356
   191   2      13.043099629974201      50.799519089980407     -1.5949999999999367
   192   2      11.240759548206821      50.288267423681702     -4.7849999999999362
   193   1      12.586511498882215      49.021225728764115  6.3948846218409017e-14
   194   2      13.043099629974201      50.799519089980407      1.5950000000000628
   195   2      11.240759548206821      50.288267423681702     -1.5949999999999367
   196   1      12.586511498882215      49.021225728764115      3.1900000000000652
   197   2      13.043099629974201      50.799519089980407      4.7850000000000641
   198   2      11.240759548206821      50.288267423681702      1.5950000000000628
   199   1      9.4836066620813906      49.714807133698763     -3.1899999999999356
   200   2      9.8276338567680046      51.518260845141356     -1.5949999999999367
   201   2      8.0609520391836824      50.894848147119063     -4.7849999999999362
   202   1      9.4836066620813906      49.714807133698763  6.3948846218409017e-14
   203   2      9.8276338567680046      51.518260845141356      1.5950000000000628
   204   2      8.0609520391836824      50.894848147119063     -1.5949999999999367
   205   1      9.4836066620813906      49.714807133698763      3.1900000000000652
   206   2      9.8276338567680046      51.518260845141356      4.7850000000000641
   207   2      8.0609520391836824      50.894848147119063      1.5950000000000628
   208   1      6.3432743624330961       50.21218690741162     -3.1899999999999356
   209   2      6.5733829025479835       52.03368356120108     -1.5949999999999367
   210   2      4.8493316351605822      51.300570156564142     -4.7849999999999362
   211   1      6.3432743624330961       50.21218690741162  6.3948846218409017e-14
   212   2      6.5733829025479835       52.03368356120108      1.5950000000000628
   213   2      4.8493316351605822      51.300570156564142     -1.5949999999999367
   214   1      6.3432743624330961       50.21218690741162      3.1900000000000652
   215   2      6.5733829025479835       52.03368356120108      4.7850000000000641
   216   2      4.8493316351605822      51.300570156564142      1.5950000000000628
   217   1      3.1779080568426643      50.511402119167059     -3.1899999999999356
   218   2      3.2931898091045855      52.343753100173544     -1.5949999999999367
   219   2      1.6185731346223793        51.5038322526024     -4.7849999999999362
   220   1      3.1779080568426643      50.511402119167059  6.3948846218409017e-14
   221   2      3.2931898091045855      52.343753100173544      1.5950000000000628
   222   2      1.6185731346223793        51.5038322526024     -1.5949999999999367
   223   1      3.1779080568426643      50.511402119167059      3.1900000000000652
   224   2      3.2931898091045855      52.343753100173544      4.7850000000000641
   225   2      1.6185731346223793        51.5038322526024      1.5950000000000628
   226   1 -2.4137092114475056e-14      50.611271903222708     -3.1899999999999356
   227   2 -2.4681042402789141e-14      52.447245759245725     -1.5949999999999367
   228   2     -1.6185731346224397        51.5038322526024     -4.7849999999999362
   229   1 -2.4137092114475056e-14      50.611271903222708  6.3948846218409017e-14
   230   2 -2.4681042402789141e-14      52.447245759245725      1.5950000000000628
   231   2     -1.6185731346224397        51.5038322526024     -1.5949999999999367
   232   1 -2.4137092114475056e-14      50.611271903222708      3.1900000000000652
   233   2 -2.4681042402789141e-14      52.447245759245725      4.7850000000000641
   234   2     -1.6185731346224397        51.5038322526024      1.5950000000000628
   235   1     -3.1779080568427358      50.511402119167059     -3.1899999999999356
   236   2     -3.2931898091046583      52.343753100173544     -1.5949999999999367
   237   2     -4.8493316351606532      51.300570156564142     -4.7849999999999362
   238   1     -3.1779080568427358      50.511402119167059  6.3948846218409017e-14
   239   2     -3.2931898091046583      52.343753100173544      1.5950000000000628
   240   2     -4.8493316351606532      51.300570156564142     -1.5949999999999367
   241   1     -3.1779080568427358      50.511402119167059      3.1900000000000652
   242   2     -3.2931898091046583      52.343753100173544      4.7850000000000641
   243   2     -4.8493316351606532      51.300570156564142      1.5950000000000628
   244   1      -6.343274362433144       50.21218690741162     -3.1899999999999356
   245   2     -6.5733829025480333       52.03368356120108     -1.5949999999999367
   246   2     -8.0609520391837428       50.89484814711907     -4.7849999999999362
   247   1      -6.343274362433144       50.21218690741162  6.3948846218409017e-14
   248   2     -6.5733829025480333       52.03368356120108      1.5950000000000628
   249   2     -8.0609520391837428       50.89484814711907     -1.5949999999999367
   250   1      -6.343274362433144       50.21218690741162      3.1900000000000652
   251   2     -6.5733829025480333       52.03368356120108      4.7850000000000641
   252   2     -8.0609520391837428       50.89484814711907      1.5950000000000628
   253   1     -9.4836066620814599      49.714807133698756     -3.1899999999999356
   254   2     -9.8276338567680739      51.518260845141349     -1.5949999999999367
   255   2      -11.24075954820689      50.288267423681695     -4.7849999999999362
   256   1     -9.4836066620814599      49.714807133698756  6.3948846218409017e-14
   257   2     -9.8276338567680739      51.518260845141349      1.5950000000000628
   258   2      -11.24075954820689      50.288267423681695     -1.5949999999999367
   259   1     -9.4836066620814599      49.714807133698756      3.1900000000000652
   260   2     -9.8276338567680739      51.518260845141349      4.7850000000000641
   261   2      -11.24075954820689      50.288267423681695      1.5950000000000628
   262   1     -12.586511498882274      49.021225728764115     -3.1899999999999356
   263   2     -13.043099629974261      50.799519089980414     -1.5949999999999367
   264   2     -14.376204914707792      49.483221883247076     -4.7849999999999362
   265   1     -12.586511498882274      49.021225728764115  6.3948846218409017e-14
   266   2     -13.043099629974261      50.799519089980414      1.5950000000000628
   267   2     -14.376204914707792      49.483221883247076     -1.5949999999999367
   268   1     -12.586511498882274      49.021225728764115      3.1900000000000652
   269   2     -13.043099629974261      50.799519089980414      4.7850000000000641
   270   2     -14.376204914707792      49.483221883247076      1.5950000000000628
   271   1     -15.639743125027143      48.134179941545774     -3.1899999999999356
   272   2     -16.207090247766359      49.880294841063993     -1.5949999999999367
   273   2      -17.45491396827363      48.482888672772951     -4.7849999999999362
   274   1     -15.639743125027143      48.134179941545774  6.3948846218409017e-14
   275   2     -16.207090247766359      49.880294841063993      1.5950000000000628
   276   2      -17.45491396827363      48.482888672772951     -1.5949999999999367
   277   1     -15.639743125027143      48.134179941545774      3.1900000000000652
   278   2     -16.207090247766359      49.880294841063993      4.7850000000000641
   279   2      -17.45491396827363      48.482888672772951      1.5950000000000628
   280   1     -18.631251830176502      47.057170536513198     -3.1899999999999356
   281   2     -19.307118884665737      48.764215856548972     -1.5949999999999367
   282   2     -20.464736450798345      47.291215650432328     -4.7849999999999362
   283   1     -18.631251830176502      47.057170536513198  6.3948846218409017e-14
   284   2     -19.307118884665737      48.764215856548972      1.5950000000000628
   285   2     -20.464736450798345      47.291215650432328     -1.5949999999999367
   286   1     -18.631251830176502      47.057170536513198      3.1900000000000652
   287   2     -19.307118884665737      48.764215856548972      4.7850000000000641
   288   2     -20.464736450798345      47.291215650432328      1.5950000000000628
   289   1     -21.549231496161468      45.794447977749272     -3.1899999999999356
   290   2     -22.330951143910941      47.455686790299239     -1.5949999999999367
   291   2     -23.393793968000505      45.912905805220753     -4.7849999999999362
   292   1     -21.549231496161468      45.794447977749272  6.3948846218409017e-14
   293   2     -22.330951143910941      47.455686790299239      1.5950000000000628
   294   2     -23.393793968000505      45.912905805220753     -1.5949999999999367
   295   1     -21.549231496161468      45.794447977749272      3.1900000000000652
   296   2     -22.330951143910941      47.455686790299239      4.7850000000000641
   297   2     -23.393793968000505      45.912905805220753      1.5950000000000628
   298   1     -24.382166190338491       44.35099565431036     -3.1899999999999356
   299   2     -25.266653341032274      45.959871808729211     -1.5949999999999367
   300   2     -26.230526868018817      44.353398696407396     -4.7849999999999362
   301   1     -24.382166190338491       44.35099565431036  6.3948846218409017e-14
   302   2     -25.266653341032274      45.959871808729211      1.5950000000000628
   303   2     -26.230526868018817      44.353398696407396     -1.5949999999999367
   304   1     -24.382166190338491       44.35099565431036      3.1900000000000652
   305   2     -25.266653341032274      45.959871808729211      4.7850000000000641
   306   2     -26.230526868018817      44.353398696407396      1.5950000000000628
   307   1     -27.118875613714412       42.73251021306644     -3.1899999999999356
   308   2     -28.102639600652456      44.282674210198294     -1.5949999999999367
   309   2     -28.963739862076892      42.618848986079719     -4.7849999999999362
   310   1     -27.118875613714412       42.73251021306644  6.3948846218409017e-14
   311   2     -28.102639600652456      44.282674210198294      1.5950000000000628
   312   2     -28.963739862076892      42.618848986079719     -1.5949999999999367
   313   1     -27.118875613714412       42.73251021306644      3.1900000000000652
   314   2     -28.102639600652456      44.282674210198294      4.7850000000000641
   315   2     -28.963739862076892      42.618848986079719      1.5950000000000628
   316   1     -29.748559224478765      40.945379076638446     -3.1899999999999356
   317   2     -30.827717580643633      42.430713127389161     -1.5949999999999367
   318   2     -31.582646207173418       40.71610214950401     -4.7849999999999362
   319   1     -29.748559224478765      40.945379076638446  6.3948846218409017e-14
   320   2     -30.827717580643633      42.430713127389161      1.5950000000000628
   321   2     -31.582646207173418       40.71610214950401     -1.5949999999999367
   322   1     -29.748559224478765      40.945379076638446      3.1900000000000652
   323   2     -30.827717580643633      42.430713127389161      4.7850000000000641
   324   2     -31.582646207173418       40.71610214950401      1.5950000000000628
   325   1     -32.260838862808008      38.996655235159317     -3.1899999999999356
   326   2     -33.431132643188484      40.411297404615176     -1.5949999999999367
   327   2     -34.076910276428784      38.652667459161904     -4.7849999999999362
   328   1     -32.260838862808008      38.996655235159317  6.3948846218409017e-14
   329   2     -33.431132643188484      40.411297404615176      1.5950000000000628
   330   2     -34.076910276428784      38.652667459161904     -1.5949999999999367
   331   1     -32.260838862808008      38.996655235159317      3.1900000000000652
   332   2     -33.431132643188484      40.411297404615176      4.7850000000000641
   333   2     -34.076910276428784      38.652667459161904      1.5950000000000628
   334   1     -34.645799708721093        36.8940294113441     -3.1899999999999356
   335   2     -35.902610298422381      38.232396753150788     -1.5949999999999367
   336   2      -36.43668834908253      36.436688349082502     -4.7849999999999362
   337   1     -34.645799708721093        36.8940294113441  6.3948846218409017e-14
   338   2     -35.902610298422381      38.232396753150788      1.5950000000000628
   339   2      -36.43668834908253      36.436688349082502     -1.5949999999999367
   340   1     -34.645799708721093        36.8940294113441      3.1900000000000652
   341   2     -35.902610298422381      38.232396753150788      4.7850000000000641
   342   2      -36.43668834908253      36.436688349082502      1.5950000000000628
   343   1     -36.894029411344142       34.64579970872105     -3.1899999999999356
   344   2     -38.232396753150837      35.902610298422331     -1.5949999999999367
   345   2     -38.652667459161933      34.076910276428755     -4.7849999999999362
   346   1     -36.894029411344142       34.64579970872105  6.3948846218409017e-14
   347   2     -38.232396753150837      35.902610298422331      1.5950000000000628
   348   2     -38.652667459161933      34.076910276428755     -1.5949999999999367
   349   1     -36.894029411344142       34.64579970872105      3.1900000000000652
   350   2     -38.232396753150837      35.902610298422331      4.7850000000000641
   351   2     -38.652667459161933      34.076910276428755      1.5950000000000628
   352   1     -38.996655235159359      32.260838862807965     -3.1899999999999356
   353   2     -40.411297404615219      33.431132643188434     -1.5949999999999367
   354   2     -40.716102149504046      31.582646207173376     -4.7849999999999362
   355   1     -38.996655235159359      32.260838862807965  6.3948846218409017e-14
   356   2     -40.411297404615219      33.431132643188434      1.5950000000000628
   357   2     -40.716102149504046      31.582646207173376     -1.5949999999999367
   358   1     -38.996655235159359      32.260838862807965      3.1900000000000652