(written by ASE)

2052 atoms
2 atom types

0.0      3.1800000000000002  xlo xhi
0.0       627.9030587598694  ylo yhi
0.0      29.390000000000001  zlo zhi
    -362.52000000000004                       0                       0  xy xz yz

Atoms # atomic

     1   1      99.933875584154009 -1.3736034185761926e-14     -3.1299999999998498
     2   2      99.929659325806199     0.91797401787161981     -1.5649999999998503
     3   2      99.929659325806199     0.91797401787161981     -4.6949999999998493
     4   1      99.933875584154009 -1.3736034185761926e-14  1.5099033134902129e-13
     5   2      99.929659325806199     0.91797401787161981      1.5650000000001487
     6   2      99.929659325806199     0.91797401787161981     -1.5649999999998503
     7   1      99.933875584154009 -1.3736034185761926e-14        3.13000000000015
     8   2      99.929659325806199     0.91797401787161981      4.6950000000001513
     9   2      99.929659325806199     0.91797401787161981      1.5650000000001487
    10   1      99.895931393625332       2.753612222023071     -3.1299999999998498
    11   2      99.866422565787687      3.6711215153828132     -1.5649999999998503
    12   2      99.866422565787687      3.6711215153828132     -4.6949999999998493
    13   1      99.895931393625332       2.753612222023071  1.5099033134902129e-13
    14   2      99.866422565787687      3.6711215153828132      1.5650000000001487
    15   2      99.866422565787687      3.6711215153828132     -1.5649999999998503
    16   1      99.895931393625332       2.753612222023071        3.13000000000015
    17   2      99.866422565787687      3.6711215153828132      4.6950000000001513
    18   2      99.866422565787687      3.6711215153828132      1.5650000000001487
    19   1      99.782127636324446      5.5051333896127357     -3.1299999999998498
    20   2       99.72734864758624      6.4214812147941256     -1.5649999999998503
    21   2       99.72734864758624      6.4214812147941256     -4.6949999999998493
    22   1      99.782127636324446      5.5051333896127357  1.5099033134902129e-13
    23   2       99.72734864758624      6.4214812147941256      1.5650000000001487
    24   2       99.72734864758624      6.4214812147941256     -1.5649999999998503
    25   1      99.782127636324446      5.5051333896127357        3.13000000000015
    26   2       99.72734864758624      6.4214812147941256      4.6950000000001513
    27   2       99.72734864758624      6.4214812147941256      1.5650000000001487
    28   1       99.59255073322575      8.2524740362529165     -3.1299999999998498
    29   2      99.512543181981357      9.1669645315921091     -1.5649999999998503
    30   2      99.512543181981357      9.1669645315921091     -4.6949999999998493
    31   1       99.59255073322575      8.2524740362529165  1.5099033134902129e-13
    32   2      99.512543181981357      9.1669645315921091      1.5650000000001487
    33   2      99.512543181981357      9.1669645315921091     -1.5649999999998503
    34   1       99.59255073322575      8.2524740362529165        3.13000000000015
    35   2      99.512543181981357      9.1669645315921091      4.6950000000001513
    36   2      99.512543181981357      9.1669645315921091      1.5650000000001487
    37   1      99.327344646365887      10.993547870056426     -3.1299999999998498
    38   2      99.222169289225661      11.905486584319766     -1.5649999999998503
    39   2      99.222169289225661      11.905486584319766     -4.6949999999998493
    40   1      99.327344646365887      10.993547870056426  1.5099033134902129e-13
    41   2      99.222169289225661      11.905486584319766      1.5650000000001487
    42   2      99.222169289225661      11.905486584319766     -1.5649999999998503
    43   1      99.327344646365887      10.993547870056426        3.13000000000015
    44   2      99.222169289225661      11.905486584319766      4.6950000000001513
    45   2      99.222169289225661      11.905486584319766      1.5650000000001487
    46   1       98.98671076952111      13.726273358065693     -3.1299999999998498
    47   2      98.856447475173539      14.634967777806217     -1.5649999999998503
    48   2      98.856447475173539      14.634967777806217     -4.6949999999998493
    49   1       98.98671076952111      13.726273358065693  1.5099033134902129e-13
    50   2      98.856447475173539      14.634967777806217      1.5650000000001487
    51   2      98.856447475173539      14.634967777806217     -1.5649999999998503
    52   1       98.98671076952111      13.726273358065693        3.13000000000015
    53   2      98.856447475173539      14.634967777806217      4.6950000000001513
    54   2      98.856447475173539      14.634967777806217      1.5650000000001487
    55   1      98.570907775271635      16.448575306939652     -3.1299999999998498
    56   2      98.415655463832266      17.353335382382074     -1.5649999999998503
    57   2      98.415655463832266      17.353335382382074     -4.6949999999998493
    58   1      98.570907775271635      16.448575306939652  1.5099033134902129e-13
    59   2      98.415655463832266      17.353335382382074      1.5650000000001487
    60   2      98.415655463832266      17.353335382382074     -1.5649999999998503
    61   1      98.570907775271635      16.448575306939652        3.13000000000015
    62   2      98.415655463832266      17.353335382382074      4.6950000000001513
    63   2      98.415655463832266      17.353335382382074      1.5650000000001487
    64   1       98.08025141856929      19.158386438826405     -3.1299999999998498
    65   2      97.900127986462152      20.058525107881231     -1.5649999999998503
    66   2      97.900127986462152      20.058525107881231     -4.6949999999998493
    67   1       98.08025141856929      19.158386438826405  1.5099033134902129e-13
    68   2      97.900127986462152      20.058525107881231      1.5650000000001487
    69   2      97.900127986462152      20.058525107881231     -1.5649999999998503
    70   1       98.08025141856929      19.158386438826405        3.13000000000015
    71   2      97.900127986462152      20.058525107881231      4.6950000000001513
    72   2      97.900127986462152      20.058525107881231      1.5650000000001487
    73   1      97.515114296957691      21.853648961224984     -3.1299999999998498
    74   2        97.3102565273864      22.748482671233788     -1.5649999999998503
    75   2        97.3102565273864      22.748482671233788     -4.6949999999998493
    76   1      97.515114296957691      21.853648961224984  1.5099033134902129e-13
    77   2        97.3102565273864      22.748482671233788      1.5650000000001487
    78   2        97.3102565273864      22.748482671233788     -1.5649999999998503
    79   1      97.515114296957691      21.853648961224984        3.13000000000015
    80   2        97.3102565273864      22.748482671233788      4.6950000000001513
    81   2        97.3102565273864      22.748482671233788      1.5650000000001487
    82   1      96.875925567626837      24.532316129644048     -3.1299999999998498
    83   2      96.646489026703392      25.421165356459781     -1.5649999999998503
    84   2      96.646489026703392      25.421165356459781     -4.6949999999998493
    85   1      96.875925567626837      24.532316129644048  1.5099033134902129e-13
    86   2      96.646489026703392      25.421165356459781      1.5650000000001487
    87   2      96.646489026703392      25.421165356459781     -1.5649999999998503
    88   1      96.875925567626837      24.532316129644048        3.13000000000015
    89   2      96.646489026703392      25.421165356459781      4.6950000000001513
    90   2      96.646489026703392      25.421165356459781      1.5650000000001487
    91   1      96.163170621517281      27.192353801870922     -3.1299999999998498
    92   2      95.909329540127288       28.07454356587899     -1.5649999999998503
    93   2      95.909329540127288       28.07454356587899     -4.6949999999998493
    94   1      96.163170621517281      27.192353801870922  1.5099033134902129e-13
    95   2      95.909329540127288       28.07454356587899      1.5650000000001487
    96   2      95.909329540127288       28.07454356587899     -1.5649999999998503
    97   1      96.163170621517281      27.192353801870922        3.13000000000015
    98   2      95.909329540127288       28.07454356587899      4.6950000000001513
    99   2      95.909329540127288       28.07454356587899      1.5650000000001487
   100   1      95.377390714720946      29.831741982670579     -3.1299999999998498
   101   2      95.099337856215172      30.706602361358861     -1.5649999999998503
   102   2      95.099337856215172      30.706602361358861     -4.6949999999998493
   103   1      95.377390714720946      29.831741982670579  1.5099033134902129e-13
   104   2      95.099337856215172      30.706602361358861      1.5650000000001487
   105   2      95.099337856215172      30.706602361358861     -1.5649999999998503
   106   1      95.377390714720946      29.831741982670579        3.13000000000015
   107   2      95.099337856215172      30.706602361358861      4.6950000000001513
   108   2      95.099337856215172      30.706602361358861      1.5650000000001487
   109   1      94.519182557458933      32.448476357741669     -3.1299999999998498
   110   2      94.217129071271501      33.315342994430296     -1.5649999999998503
   111   2      94.217129071271501      33.315342994430296     -4.6949999999998493
   112   1      94.519182557458933      32.448476357741669  1.5099033134902129e-13
   113   2      94.217129071271501      33.315342994430296      1.5650000000001487
   114   2      94.217129071271501      33.315342994430296     -1.5649999999998503
   115   1      94.519182557458933      32.448476357741669        3.13000000000015
   116   2      94.217129071271501      33.315342994430296      4.6950000000001513
   117   2      94.217129071271501      33.315342994430296      1.5650000000001487
   118   1      93.589197860948104      35.040569815764641     -3.1299999999998498
   119   2      93.263373122252602       35.89878442410911     -1.5649999999998503
   120   2      93.263373122252602       35.89878442410911     -4.6949999999998493
   121   1      93.589197860948104      35.040569815764641  1.5099033134902129e-13
   122   2      93.263373122252602       35.89878442410911      1.5650000000001487
   123   2      93.263373122252602       35.89878442410911     -1.5649999999998503
   124   1      93.589197860948104      35.040569815764641        3.13000000000015
   125   2      93.263373122252602       35.89878442410911      4.6950000000001513
   126   2      93.263373122252602       35.89878442410911      1.5650000000001487
   127   1      92.588142842500801      37.606053957386109     -3.1299999999998498
   128   2       92.23879427802602      38.454964821270678     -1.5649999999998503
   129   2       92.23879427802602      38.454964821270678     -4.6949999999998493
   130   1      92.588142842500801      37.606053957386109  1.5099033134902129e-13
   131   2       92.23879427802602      38.454964821270678      1.5650000000001487
   132   2       92.23879427802602      38.454964821270678     -1.5649999999998503
   133   1      92.588142842500801      37.606053957386109        3.13000000000015
   134   2       92.23879427802602      38.454964821270678      4.6950000000001513
   135   2       92.23879427802602      38.454964821270678      1.5650000000001487
   136   1      91.516777689233322      40.142980589993741     -3.1299999999998498
   137   2      91.144170589370773      40.981943058435483     -1.5649999999998503
   138   2      91.144170589370773      40.981943058435483     -4.6949999999998493
   139   1      91.516777689233322      40.142980589993741  1.5099033134902129e-13
   140   2      91.144170589370773      40.981943058435483      1.5650000000001487
   141   2      91.144170589370773      40.981943058435483     -1.5649999999998503
   142   1      91.516777689233322      40.142980589993741        3.13000000000015
   143   2      91.144170589370773      40.981943058435483      4.6950000000001513
   144   2      91.144170589370773      40.981943058435483      1.5650000000001487
   145   1      90.375915980790467       42.64942320714632     -3.1299999999998498
   146   2      89.980333298136713      43.477800183834049     -1.5649999999998503
   147   2      89.980333298136713      43.477800183834049     -4.6949999999998493
   148   1      90.375915980790467       42.64942320714632  1.5099033134902129e-13
   149   2      89.980333298136713      43.477800183834049      1.5650000000001487
   150   2      89.980333298136713      43.477800183834049     -1.5649999999998503
   151   1      90.375915980790467       42.64942320714632        3.13000000000015
   152   2      89.980333298136713      43.477800183834049      4.6950000000001513
   153   2      89.980333298136713      43.477800183834049      1.5650000000001487
   154   1      89.166424071524631       45.12347845153564     -3.1299999999998498
   155   2      88.748166206010964      45.940640878631868     -1.5649999999998503
   156   2      88.748166206010964      45.940640878631868     -4.6949999999998493
   157   1      89.166424071524631       45.12347845153564  1.5099033134902129e-13
   158   2      88.748166206010964      45.940640878631868      1.5650000000001487
   159   2      88.748166206010964      45.940640878631868     -1.5649999999998503
   160   1      89.166424071524631       45.12347845153564        3.13000000000015
   161   2      88.748166206010964      45.940640878631868      4.6950000000001513
   162   2      88.748166206010964      45.940640878631868      1.5650000000001487
   163   1      87.889220432598478      47.563267560369347     -3.1299999999998498
   164   2      87.448605003371512      48.368594896207988     -1.5649999999998503
   165   2      87.448605003371512      48.368594896207988     -4.6949999999998493
   166   1      87.889220432598478      47.563267560369347  1.5099033134902129e-13
   167   2      87.448605003371512      48.368594896207988      1.5650000000001487
   168   2      87.448605003371512      48.368594896207988     -1.5649999999998503
   169   1      87.889220432598478      47.563267560369347        3.13000000000015
   170   2      87.448605003371512      48.368594896207988      4.6950000000001513
   171   2      87.448605003371512      48.368594896207988      1.5650000000001487
   172   1      86.545274954510816       49.96693779207699     -3.1299999999998498
   173   2       86.08263655873688      50.759818482393996     -1.5649999999998503
   174   2       86.08263655873688      50.759818482393996     -4.6949999999998493
   175   1      86.545274954510816       49.96693779207699  1.5099033134902129e-13
   176   2       86.08263655873688      50.759818482393996      1.5650000000001487
   177   2       86.08263655873688      50.759818482393996     -1.5649999999998503
   178   1      86.545274954510816       49.96693779207699        3.13000000000015
   179   2       86.08263655873688      50.759818482393996      4.6950000000001513
   180   2       86.08263655873688      50.759818482393996      1.5650000000001487
   181   1      85.135608210575398      52.332663833255964     -3.1299999999998498
   182   2      84.651298169352216      53.112495775594979     -1.5649999999998503
   183   2      84.651298169352216      53.112495775594979     -4.6949999999998493
   184   1      85.135608210575398      52.332663833255964  1.5099033134902129e-13
   185   2      84.651298169352216      53.112495775594979      1.5650000000001487
   186   2      84.651298169352216      53.112495775594979     -1.5649999999998503
   187   1      85.135608210575398      52.332663833255964        3.13000000000015
   188   2      84.651298169352216      53.112495775594979      4.6950000000001513
   189   2      84.651298169352216      53.112495775594979      1.5650000000001487
   190   1      83.661290681911879        54.6586491847888     -3.1299999999998498
   191   2      83.155676773480266      55.424840185729387     -1.5649999999998503
   192   2      83.155676773480266      55.424840185729387     -4.6949999999998493
   193   1      83.661290681911879        54.6586491847888  1.5099033134902129e-13
   194   2      83.155676773480266      55.424840185729387      1.5650000000001487
   195   2      83.155676773480266      55.424840185729387     -1.5649999999998503
   196   1      83.661290681911879        54.6586491847888        3.13000000000015
   197   2      83.155676773480266      55.424840185729387      4.6950000000001513
   198   2      83.155676773480266      55.424840185729387      1.5650000000001487
   199   1      82.123441944537532      56.943127526079401     -3.1299999999998498
   200   2      81.596908124995707      57.695095750940368     -1.5649999999998503
   201   2      81.596908124995707      57.695095750940368     -4.6949999999998493
   202   1      82.123441944537532      56.943127526079401  1.5099033134902129e-13
   203   2      81.596908124995707      57.695095750940368      1.5650000000001487
   204   2      81.596908124995707      57.695095750940368     -1.5649999999998503
   205   1      82.123441944537532      56.943127526079401        3.13000000000015
   206   2      81.596908124995707      57.695095750940368      4.6950000000001513
   207   2      81.596908124995707      57.695095750940368      1.5650000000001487
   208   1      80.523229819176876      59.184364056372118     -3.1299999999998498
   209   2      79.976175930909676      59.921538471048564     -1.5649999999998503
   210   2      79.976175930909676      59.921538471048564     -4.6949999999998493
   211   1      80.523229819176876      59.184364056372118  1.5099033134902129e-13
   212   2      79.976175930909676      59.921538471048564      1.5650000000001487
   213   2      79.976175930909676      59.921538471048564     -1.5649999999998503
   214   1      80.523229819176876      59.184364056372118        3.13000000000015
   215   2      79.976175930909676      59.921538471048564      4.6950000000001513
   216   2      79.976175930909676      59.921538471048564      1.5650000000001487
   217   1       78.86186948443509      61.380656812134994     -3.1299999999998498
   218   2      78.294710952479193      62.102477616733651     -1.5649999999998503
   219   2      78.294710952479193      62.102477616733651     -4.6949999999998493
   220   1       78.86186948443509      61.380656812134994  1.5099033134902129e-13
   221   2      78.294710952479193      62.102477616733651      1.5650000000001487
   222   2      78.294710952479193      62.102477616733651     -1.5649999999998503
   223   1       78.86186948443509      61.380656812134994        3.13000000000015
   224   2      78.294710952479193      62.102477616733651      4.6950000000001513
   225   2      78.294710952479193      62.102477616733651      1.5650000000001487
   226   1      77.140622554008431      63.530337959506994     -3.1299999999998498
   227   2      76.553790070584469      64.236257013450356     -1.5649999999998503
   228   2      76.553790070584469      64.236257013450356     -4.6949999999998493
   229   1      77.140622554008431      63.530337959506994  1.5099033134902129e-13
   230   2      76.553790070584469      64.236257013450356      1.5650000000001487
   231   2      76.553790070584469      64.236257013450356     -1.5649999999998503
   232   1      77.140622554008431      63.530337959506994        3.13000000000015
   233   2      76.553790070584469      64.236257013450356      4.6950000000001513
   234   2      76.553790070584469      64.236257013450356      1.5650000000001487
   235   1      75.360796118632493      65.631775060827607     -3.1299999999998498
   236   2      74.754735316083469       66.32125629910422     -1.5649999999998503
   237   2      74.754735316083469       66.32125629910422     -4.6949999999998493
   238   1      75.360796118632493      65.631775060827607  1.5099033134902129e-13
   239   2      74.754735316083469       66.32125629910422      1.5650000000001487
   240   2      74.754735316083469       66.32125629910422     -1.5649999999998503
   241   1      75.360796118632493      65.631775060827607        3.13000000000015
   242   2      74.754735316083469       66.32125629910422      4.6950000000001513
   243   2      74.754735316083469       66.32125629910422      1.5650000000001487
   244   1      73.523741753495955      67.683372314287098     -3.1299999999998498
   245   2      72.898912865880192      68.355892154531745     -1.5649999999998503
   246   2      72.898912865880192      68.355892154531745     -4.6949999999998493
   247   1      73.523741753495955      67.683372314287098  1.5099033134902129e-13
   248   2      72.898912865880192      68.355892154531745      1.5650000000001487
   249   2      72.898912865880192      68.355892154531745     -1.5649999999998503
   250   1      73.523741753495955      67.683372314287098        3.13000000000015
   251   2      72.898912865880192      68.355892154531745      4.6950000000001513
   252   2      72.898912865880192      68.355892154531745      1.5650000000001487
   253   1      71.630854491873208      69.683571765755914     -3.1299999999998498
   254   2      70.987732005469212      70.338619505850758     -1.5649999999998503
   255   2      70.987732005469212      70.338619505850758     -4.6949999999998493
   256   1      71.630854491873208      69.683571765755914  1.5099033134902129e-13
   257   2      70.987732005469212      70.338619505850758      1.5650000000001487
   258   2      70.987732005469212      70.338619505850758     -1.5649999999998503
   259   1      71.630854491873208      69.683571765755914        3.13000000000015
   260   2      70.987732005469212      70.338619505850758      4.6950000000001513
   261   2      70.987732005469212      70.338619505850758      1.5650000000001487
   262   1      69.683571765755886      71.630854491873237     -3.1299999999998498
   263   2      69.022644058743992      72.267932697767804     -1.5649999999998503
   264   2      69.022644058743992      72.267932697767804     -4.6949999999998493
   265   1      69.683571765755886      71.630854491873237  1.5099033134902129e-13
   266   2      69.022644058743992      72.267932697767804      1.5650000000001487
   267   2      69.022644058743992      72.267932697767804     -1.5649999999998503
   268   1      69.683571765755886      71.630854491873237        3.13000000000015
   269   2      69.022644058743992      72.267932697767804      4.6950000000001513
   270   2      69.022644058743992      72.267932697767804      1.5650000000001487
   271   1       67.68337231428707      73.523741753495969     -3.1299999999998498
   272   2      67.005141285882047      74.142366636951593     -1.5649999999998503
   273   2      67.005141285882047      74.142366636951593     -4.6949999999998493
   274   1       67.68337231428707      73.523741753495969  1.5099033134902129e-13
   275   2      67.005141285882047      74.142366636951593      1.5650000000001487
   276   2      67.005141285882047      74.142366636951593     -1.5649999999998503
   277   1       67.68337231428707      73.523741753495969        3.13000000000015
   278   2      67.005141285882047      74.142366636951593      4.6950000000001513
   279   2      67.005141285882047      74.142366636951593      1.5650000000001487
   280   1      65.631775060827579      75.360796118632507     -3.1299999999998498
   281   2      64.936755750143305       75.96049790460431     -1.5649999999998503
   282   2      64.936755750143305       75.96049790460431     -4.6949999999998493
   283   1      65.631775060827579      75.360796118632507  1.5099033134902129e-13
   284   2      64.936755750143305       75.96049790460431      1.5650000000001487
   285   2      64.936755750143305       75.96049790460431     -1.5649999999998503
   286   1      65.631775060827579      75.360796118632507        3.13000000000015
   287   2      64.936755750143305       75.96049790460431      4.6950000000001513
   288   2      64.936755750143305       75.96049790460431      1.5650000000001487
   289   1      63.530337959506966      77.140622554008445     -3.1299999999998498
   290   2      62.819058154442992      77.720945837385926     -1.5649999999998503
   291   2      62.819058154442992      77.720945837385926     -4.6949999999998493
   292   1      63.530337959506966      77.140622554008445  1.5099033134902129e-13
   293   2      62.819058154442992      77.720945837385926      1.5650000000001487
   294   2      62.819058154442992      77.720945837385926     -1.5649999999998503
   295   1      63.530337959506966      77.140622554008445        3.13000000000015
   296   2      62.819058154442992      77.720945837385926      4.6950000000001513
   297   2      62.819058154442992      77.720945837385926      1.5650000000001487
   298   1      61.380656812134966      78.861869484435104     -3.1299999999998498
   299   2       60.65365664858188      79.422373575870338     -1.5649999999998503
   300   2       60.65365664858188      79.422373575870338     -4.6949999999998493
   301   1      61.380656812134966      78.861869484435104  1.5099033134902129e-13
   302   2       60.65365664858188      79.422373575870338      1.5650000000001487
   303   2       60.65365664858188      79.422373575870338     -1.5649999999998503
   304   1      61.380656812134966      78.861869484435104        3.13000000000015
   305   2       60.65365664858188      79.422373575870338      4.6950000000001513
   306   2       60.65365664858188      79.422373575870338      1.5650000000001487
   307   1      59.184364056372083       80.52322981917689     -3.1299999999998498
   308   2      58.442195608039789      81.063489079737877     -1.5649999999998503
   309   2      58.442195608039789      81.063489079737877     -4.6949999999998493
   310   1      59.184364056372083       80.52322981917689  1.5099033134902129e-13
   311   2      58.442195608039789      81.063489079737877      1.5650000000001487
   312   2      58.442195608039789      81.063489079737877     -1.5649999999998503
   313   1      59.184364056372083       80.52322981917689        3.13000000000015
   314   2      58.442195608039789      81.063489079737877      4.6950000000001513
   315   2      58.442195608039789      81.063489079737877      1.5650000000001487
   316   1      56.943127526079387      82.123441944537532     -3.1299999999998498
   317   2      56.186354385260159      82.643046108932381     -1.5649999999998503
   318   2      56.186354385260159      82.643046108932381     -4.6949999999998493
   319   1      56.943127526079387      82.123441944537532  1.5099033134902129e-13
   320   2      56.186354385260159      82.643046108932381      1.5650000000001487
   321   2      56.186354385260159      82.643046108932381     -1.5649999999998503
   322   1      56.943127526079387      82.123441944537532        3.13000000000015
   323   2      56.186354385260159      82.643046108932381      4.6950000000001513
   324   2      56.186354385260159      82.643046108932381      1.5650000000001487
   325   1      54.658649184788764      83.661290681911893     -3.1299999999998498
   326   2      53.887846034373162      84.159845170038551     -1.5649999999998503
   327   2      53.887846034373162      84.159845170038551     -4.6949999999998493
   328   1      54.658649184788764      83.661290681911893  1.5099033134902129e-13
   329   2      53.887846034373162      84.159845170038551      1.5650000000001487
   330   2      53.887846034373162      84.159845170038551     -1.5649999999998503
   331   1      54.658649184788764      83.661290681911893        3.13000000000015
   332   2      53.887846034373162      84.159845170038551      4.6950000000001513
   333   2      53.887846034373162      84.159845170038551      1.5650000000001487
   334   1      52.332663833255914      85.135608210575413     -3.1299999999998498
   335   2      51.548416010326669       85.61273442716022     -1.5649999999998503
   336   2      51.548416010326669       85.61273442716022     -4.6949999999998493
   337   1      52.332663833255914      85.135608210575413  1.5099033134902129e-13
   338   2      51.548416010326669       85.61273442716022      1.5650000000001487
   339   2      51.548416010326669       85.61273442716022     -1.5649999999998503
   340   1      52.332663833255914      85.135608210575413        3.13000000000015
   341   2      51.548416010326669       85.61273442716022      4.6950000000001513
   342   2      51.548416010326669       85.61273442716022      1.5650000000001487
   343   1      49.966937792076976      86.545274954510816     -3.1299999999998498
   344   2      49.169840843412182      87.000610576608494     -1.5649999999998503
   345   2      49.169840843412182      87.000610576608494     -4.6949999999998493
   346   1      49.966937792076976      86.545274954510816  1.5099033134902129e-13
   347   2      49.169840843412182      87.000610576608494      1.5650000000001487
   348   2      49.169840843412182      87.000610576608494     -1.5649999999998503
   349   1      49.966937792076976      86.545274954510816        3.13000000000015
   350   2      49.169840843412182      87.000610576608494      4.6950000000001513
   351   2      49.169840843412182      87.000610576608494      1.5650000000001487
   352   1      47.563267560369326      87.889220432598492     -3.1299999999998498
   353   2      46.753926790192658      88.322419684735053     -1.5649999999998503
   354   2      46.753926790192658      88.322419684735053     -4.6949999999998493
   355   1      47.563267560369326      87.889220432598492  1.5099033134902129e-13
   356   2      46.753926790192658      88.322419684735053      1.5650000000001487
   357   2      46.753926790192658      88.322419684735053     -1.5649999999998503
   358   1      47.563267560369326      87.889220432598492        3.13000000000015