(written by ASE)

414 atoms
2 atom types

0.0      3.1800000000000002  xlo xhi
0.0      126.68219606558768  ylo yhi
0.0      29.390000000000001  zlo zhi
    -73.140000000000001                       0                       0  xy xz yz

Atoms # atomic

     1   1      20.162097705574936  6.6020551143145857e-16     -3.1300000000000328
     2   2      20.141203192385394     0.91766979474888877     -1.5650000000000333
     3   2      20.141203192385394     0.91766979474888877     -4.6950000000000323
     4   1      20.162097705574936  6.6020551143145857e-16 -3.1974423109204508e-14
     5   2      20.141203192385394     0.91766979474888877      1.5649999999999658
     6   2      20.141203192385394     0.91766979474888877     -1.5650000000000333
     7   1      20.162097705574936  6.6020551143145857e-16       3.129999999999967
     8   2      20.141203192385394     0.91766979474888877      4.6949999999999683
     9   2      20.141203192385394     0.91766979474888877      1.5649999999999658
    10   1      19.974306839524438      2.7454052833192613     -3.1300000000000328
    11   2      19.828650918030494      3.6516827162335117     -1.5650000000000333
    12   2      19.828650918030494      3.6516827162335117     -4.6950000000000323
    13   1      19.974306839524438      2.7454052833192613 -3.1974423109204508e-14
    14   2      19.828650918030494      3.6516827162335117      1.5649999999999658
    15   2      19.828650918030494      3.6516827162335117     -1.5650000000000333
    16   1      19.974306839524438      2.7454052833192613       3.129999999999967
    17   2      19.828650918030494      3.6516827162335117      4.6949999999999683
    18   2      19.828650918030494      3.6516827162335117      1.5649999999999658
    19   1      19.414432429893505      5.4396688607165657     -3.1300000000000328
    20   2      19.146728394321002        6.31767169796374     -1.5650000000000333
    21   2      19.146728394321002        6.31767169796374     -4.6950000000000323
    22   1      19.414432429893505      5.4396688607165657 -3.1974423109204508e-14
    23   2      19.146728394321002        6.31767169796374      1.5649999999999658
    24   2      19.146728394321002        6.31767169796374     -1.5650000000000333
    25   1      19.414432429893505      5.4396688607165657       3.129999999999967
    26   2      19.146728394321002        6.31767169796374      4.6949999999999683
    27   2      19.146728394321002        6.31767169796374      1.5649999999999658
    28   1      18.492903877610498      8.0326016994874561     -3.1300000000000328
    29   2      18.108138547626659      8.8659744094548074     -1.5650000000000333
    30   2      18.108138547626659      8.8659744094548074     -4.6950000000000323
    31   1      18.492903877610498      8.0326016994874561 -3.1974423109204508e-14
    32   2      18.108138547626659      8.8659744094548074      1.5649999999999658
    33   2      18.108138547626659      8.8659744094548074     -1.5650000000000333
    34   1      18.492903877610498      8.0326016994874561       3.129999999999967
    35   2      18.108138547626659      8.8659744094548074      4.6949999999999683
    36   2      18.108138547626659      8.8659744094548074      1.5649999999999658
    37   1      17.226887516005458      10.475902366862975     -3.1300000000000328
    38   2      16.732228341703927      11.249120792765529     -1.5650000000000333
    39   2      16.732228341703927      11.249120792765529     -4.6950000000000323
    40   1      17.226887516005458      10.475902366862975 -3.1974423109204508e-14
    41   2      16.732228341703927      11.249120792765529      1.5649999999999658
    42   2      16.732228341703927      11.249120792765529     -1.5650000000000333
    43   1      17.226887516005458      10.475902366862975       3.129999999999967
    44   2      16.732228341703927      11.249120792765529      4.6949999999999683
    45   2      16.732228341703927      11.249120792765529      1.5649999999999658
    46   1      15.639966834500152      12.724056794312309     -3.1300000000000328
    47   2      15.044628380367067      13.422717339860949     -1.5650000000000333
    48   2      15.044628380367067      13.422717339860949     -4.6950000000000323
    49   1      15.639966834500152      12.724056794312309 -3.1974423109204508e-14
    50   2      15.044628380367067      13.422717339860949      1.5649999999999658
    51   2      15.044628380367067      13.422717339860949     -1.5650000000000333
    52   1      15.639966834500152      12.724056794312309       3.129999999999967
    53   2      15.044628380367067      13.422717339860949      4.6949999999999683
    54   2      15.044628380367067      13.422717339860949      1.5649999999999658
    55   1      13.761703162821783      14.735186118523609     -3.1300000000000328
    56   2      13.076775457834026      15.346274059671281     -1.5650000000000333
    57   2      13.076775457834026      15.346274059671281     -4.6950000000000323
    58   1      13.761703162821783      14.735186118523609 -3.1974423109204508e-14
    59   2      13.076775457834026      15.346274059671281      1.5649999999999658
    60   2      13.076775457834026      15.346274059671281     -1.5650000000000333
    61   1      13.761703162821783      14.735186118523609       3.129999999999967
    62   2      13.076775457834026      15.346274059671281      4.6949999999999683
    63   2      13.076775457834026      15.346274059671281      1.5649999999999658
    64   1      11.627084999362372      16.471826805389632     -3.1300000000000328
    65   2      10.865326950730882      16.983958730015541     -1.5650000000000333
    66   2      10.865326950730882      16.983958730015541     -4.6950000000000323
    67   1      11.627084999362372      16.471826805389632 -3.1974423109204508e-14
    68   2      10.865326950730882      16.983958730015541      1.5649999999999658
    69   2      10.865326950730882      16.983958730015541     -1.5650000000000333
    70   1      11.627084999362372      16.471826805389632       3.129999999999967
    71   2      10.865326950730882      16.983958730015541      4.6949999999999683
    72   2      10.865326950730882      16.983958730015541      1.5649999999999658
    73   1      9.2758762416545029       17.90162852476443     -3.1300000000000328
    74   2       8.451477960523702      18.305264384103609     -1.5650000000000333
    75   2       8.451477960523702      18.305264384103609     -4.6950000000000323
    76   1      9.2758762416545029       17.90162852476443 -3.1974423109204508e-14
    77   2       8.451477960523702      18.305264384103609      1.5649999999999658
    78   2       8.451477960523702      18.305264384103609     -1.5650000000000333
    79   1      9.2758762416545029       17.90162852476443       3.129999999999967
    80   2       8.451477960523702      18.305264384103609      4.6949999999999683
    81   2       8.451477960523702      18.305264384103609      1.5649999999999658
    82   1      6.7518754601964597      18.997956775904793     -3.1300000000000328
    83   2      5.8801939267223666      19.285577597606128     -1.5650000000000333
    84   2      5.8801939267223666      19.285577597606128     -4.6950000000000323
    85   1      6.7518754601964597      18.997956775904793 -3.1974423109204508e-14
    86   2      5.8801939267223666      19.285577597606128      1.5649999999999658
    87   2      5.8801939267223666      19.285577597606128     -1.5650000000000333
    88   1      6.7518754601964597      18.997956775904793       3.129999999999967
    89   2      5.8801939267223666      19.285577597606128      4.6949999999999683
    90   2      5.8801939267223666      19.285577597606128      1.5649999999999658
    91   1      4.1021000139539234      19.740389037824684     -3.1300000000000328
    92   2      3.1993730058203624      19.906636990179376     -1.5650000000000333
    93   2      3.1993730058203624      19.906636990179376     -4.6950000000000323
    94   1      4.1021000139539234      19.740389037824684 -3.1974423109204508e-14
    95   2      3.1993730058203624      19.906636990179376      1.5649999999999658
    96   2      3.1993730058203624      19.906636990179376     -1.5650000000000333
    97   1      4.1021000139539234      19.740389037824684       3.129999999999967
    98   2      3.1993730058203624      19.906636990179376      4.6949999999999683
    99   2      3.1993730058203624      19.906636990179376      1.5649999999999658
   100   1      1.3759102059227208      20.115095202220335     -3.1300000000000328
   101   2     0.45895381926612777      20.156873400429216     -1.5650000000000333
   102   2     0.45895381926612777      20.156873400429216     -4.6950000000000323
   103   1      1.3759102059227208      20.115095202220335 -3.1974423109204508e-14
   104   2     0.45895381926612777      20.156873400429216      1.5649999999999658
   105   2     0.45895381926612777      20.156873400429216     -1.5650000000000333
   106   1      1.3759102059227208      20.115095202220335       3.129999999999967
   107   2     0.45895381926612777      20.156873400429216      4.6949999999999683
   108   2     0.45895381926612777      20.156873400429216      1.5649999999999658
   109   1     -1.3759102059227357      20.115095202220335     -3.1300000000000328
   110   2     -2.2900148085670562      20.031625397498164     -1.5650000000000333
   111   2     -2.2900148085670562      20.031625397498164     -4.6950000000000323
   112   1     -1.3759102059227357      20.115095202220335 -3.1974423109204508e-14
   113   2     -2.2900148085670562      20.031625397498164      1.5649999999999658
   114   2     -2.2900148085670562      20.031625397498164     -1.5650000000000333
   115   1     -1.3759102059227357      20.115095202220335       3.129999999999967
   116   2     -2.2900148085670562      20.031625397498164      4.6949999999999683
   117   2     -2.2900148085670562      20.031625397498164      1.5649999999999658
   118   1     -4.1021000139539456      19.740389037824684     -3.1300000000000328
   119   2     -4.9963247933910626      19.533226114702497     -1.5650000000000333
   120   2     -4.9963247933910626      19.533226114702497     -4.6950000000000323
   121   1     -4.1021000139539456      19.740389037824684 -3.1974423109204508e-14
   122   2     -4.9963247933910626      19.533226114702497      1.5649999999999658
   123   2     -4.9963247933910626      19.533226114702497     -1.5650000000000333
   124   1     -4.1021000139539456      19.740389037824684       3.129999999999967
   125   2     -4.9963247933910626      19.533226114702497      4.6949999999999683
   126   2     -4.9963247933910626      19.533226114702497      1.5649999999999658
   127   1      -6.751875460196473      18.997956775904786     -3.1300000000000328
   128   2      -7.609562700723739      18.670959787673048     -1.5650000000000333
   129   2      -7.609562700723739      18.670959787673048     -4.6950000000000323
   130   1      -6.751875460196473      18.997956775904786 -3.1974423109204508e-14
   131   2      -7.609562700723739      18.670959787673048      1.5649999999999658
   132   2      -7.609562700723739      18.670959787673048     -1.5650000000000333
   133   1      -6.751875460196473      18.997956775904786       3.129999999999967
   134   2      -7.609562700723739      18.670959787673048      4.6949999999999683
   135   2      -7.609562700723739      18.670959787673048      1.5649999999999658
   136   1     -9.2758762416545117      17.901628524764423     -3.1300000000000328
   137   2     -10.081048852787468      17.460888806611834     -1.5650000000000333
   138   2     -10.081048852787468      17.460888806611834     -4.6950000000000323
   139   1     -9.2758762416545117      17.901628524764423 -3.1974423109204508e-14
   140   2     -10.081048852787468      17.460888806611834      1.5649999999999658
   141   2     -10.081048852787468      17.460888806611834     -1.5650000000000333
   142   1     -9.2758762416545117      17.901628524764423       3.129999999999967
   143   2     -10.081048852787468      17.460888806611834      4.6949999999999683
   144   2     -10.081048852787468      17.460888806611834      1.5649999999999658
   145   1     -11.627084999362387      16.471826805389622     -3.1300000000000328
   146   2     -12.364744138800722      15.925554504353789     -1.5650000000000333
   147   2     -12.364744138800722      15.925554504353789     -4.6950000000000323
   148   1     -11.627084999362387      16.471826805389622 -3.1974423109204508e-14
   149   2     -12.364744138800722      15.925554504353789      1.5649999999999658
   150   2     -12.364744138800722      15.925554504353789     -1.5650000000000333
   151   1     -11.627084999362387      16.471826805389622       3.129999999999967
   152   2     -12.364744138800722      15.925554504353789      4.6949999999999683
   153   2     -12.364744138800722      15.925554504353789      1.5649999999999658
   154   1     -13.761703162821794        14.7351861185236     -3.1300000000000328
   155   2     -14.418107636502468      14.093557253985924     -1.5650000000000333
   156   2     -14.418107636502468      14.093557253985924     -4.6950000000000323
   157   1     -13.761703162821794        14.7351861185236 -3.1974423109204508e-14
   158   2     -14.418107636502468      14.093557253985924      1.5649999999999658
   159   2     -14.418107636502468      14.093557253985924     -1.5650000000000333
   160   1     -13.761703162821794        14.7351861185236       3.129999999999967
   161   2     -14.418107636502468      14.093557253985924      4.6949999999999683
   162   2     -14.418107636502468      14.093557253985924      1.5649999999999658
   163   1     -15.639966834500159      12.724056794312302     -3.1300000000000328
   164   2     -16.202889069043451      11.999023698010697     -1.5650000000000333
   165   2     -16.202889069043451      11.999023698010697     -4.6950000000000323
   166   1     -15.639966834500159      12.724056794312302 -3.1974423109204508e-14
   167   2     -16.202889069043451      11.999023698010697      1.5649999999999658
   168   2     -16.202889069043451      11.999023698010697     -1.5650000000000333
   169   1     -15.639966834500159      12.724056794312302       3.129999999999967
   170   2     -16.202889069043451      11.999023698010697      4.6949999999999683
   171   2     -16.202889069043451      11.999023698010697      1.5649999999999658
   172   1     -17.226887516005466       10.47590236686297     -3.1300000000000328
   173   2     -17.685841335271601      9.6809710335662409     -1.5650000000000333
   174   2     -17.685841335271601      9.6809710335662409     -4.6950000000000323
   175   1     -17.226887516005466       10.47590236686297 -3.1974423109204508e-14
   176   2     -17.685841335271601      9.6809710335662409      1.5649999999999658
   177   2     -17.685841335271601      9.6809710335662409     -1.5650000000000333
   178   1     -17.226887516005466       10.47590236686297       3.129999999999967
   179   2     -17.685841335271601      9.6809710335662409      4.6949999999999683
   180   2     -17.685841335271601      9.6809710335662409      1.5649999999999658
   181   1     -18.492903877610502      8.0326016994874454     -3.1300000000000328
   182   2     -18.839339840320527      7.1825801958670663     -1.5650000000000333
   183   2     -18.839339840320527      7.1825801958670663     -4.6950000000000323
   184   1     -18.492903877610502      8.0326016994874454 -3.1974423109204508e-14
   185   2     -18.839339840320527      7.1825801958670663      1.5649999999999658
   186   2     -18.839339840320527      7.1825801958670663     -1.5650000000000333
   187   1     -18.492903877610502      8.0326016994874454       3.129999999999967
   188   2     -18.839339840320527      7.1825801958670663      4.6949999999999683
   189   2     -18.839339840320527      7.1825801958670663      1.5649999999999658
   190   1     -19.414432429893512      5.4396688607165435     -3.1300000000000328
   191   2     -19.641897089544162      4.5503914790825091     -1.5650000000000333
   192   2     -19.641897089544162      4.5503914790825091     -4.6950000000000323
   193   1     -19.414432429893512      5.4396688607165435 -3.1974423109204508e-14
   194   2     -19.641897089544162      4.5503914790825091      1.5649999999999658
   195   2     -19.641897089544162      4.5503914790825091     -1.5650000000000333
   196   1     -19.414432429893512      5.4396688607165435       3.129999999999967
   197   2     -19.641897089544162      4.5503914790825091      4.6949999999999683
   198   2     -19.641897089544162      4.5503914790825091      1.5649999999999658
   199   1     -19.974306839524438      2.7454052833192502     -3.1300000000000328
   200   2     -20.078562959886089      1.8334375787139598     -1.5650000000000333
   201   2     -20.078562959886089      1.8334375787139598     -4.6950000000000323
   202   1     -19.974306839524438      2.7454052833192502 -3.1974423109204508e-14
   203   2     -20.078562959886089      1.8334375787139598      1.5649999999999658
   204   2     -20.078562959886089      1.8334375787139598     -1.5650000000000333
   205   1     -19.974306839524438      2.7454052833192502       3.129999999999967
   206   2     -20.078562959886089      1.8334375787139598      4.6949999999999683
   207   2     -20.078562959886089      1.8334375787139598      1.5649999999999658
   208   1     -20.162097705574936 -9.0756533600191481e-15     -3.1300000000000328
   209   2     -20.141203192385394    -0.91766979474889376     -1.5650000000000333
   210   2     -20.141203192385394    -0.91766979474889376     -4.6950000000000323
   211   1     -20.162097705574936 -9.0756533600191481e-15 -3.1974423109204508e-14
   212   2     -20.141203192385394    -0.91766979474889376      1.5649999999999658
   213   2     -20.141203192385394    -0.91766979474889376     -1.5650000000000333
   214   1     -20.162097705574936 -9.0756533600191481e-15       3.129999999999967
   215   2     -20.141203192385394    -0.91766979474889376      4.6949999999999683
   216   2     -20.141203192385394    -0.91766979474889376      1.5649999999999658
   217   1     -19.974306839524438     -2.7454052833192679     -3.1300000000000328
   218   2     -19.828650918030494     -3.6516827162335241     -1.5650000000000333
   219   2     -19.828650918030494     -3.6516827162335241     -4.6950000000000323
   220   1     -19.974306839524438     -2.7454052833192679 -3.1974423109204508e-14
   221   2     -19.828650918030494     -3.6516827162335241      1.5649999999999658
   222   2     -19.828650918030494     -3.6516827162335241     -1.5650000000000333
   223   1     -19.974306839524438     -2.7454052833192679       3.129999999999967
   224   2     -19.828650918030494     -3.6516827162335241      4.6949999999999683
   225   2     -19.828650918030494     -3.6516827162335241      1.5649999999999658
   226   1     -19.414432429893502     -5.4396688607165782     -3.1300000000000328
   227   2     -19.146728394320998     -6.3176716979637497     -1.5650000000000333
   228   2     -19.146728394320998     -6.3176716979637497     -4.6950000000000323
   229   1     -19.414432429893502     -5.4396688607165782 -3.1974423109204508e-14
   230   2     -19.146728394320998     -6.3176716979637497      1.5649999999999658
   231   2     -19.146728394320998     -6.3176716979637497     -1.5650000000000333
   232   1     -19.414432429893502     -5.4396688607165782       3.129999999999967
   233   2     -19.146728394320998     -6.3176716979637497      4.6949999999999683
   234   2     -19.146728394320998     -6.3176716979637497      1.5649999999999658
   235   1     -18.492903877610487     -8.0326016994874774     -3.1300000000000328
   236   2     -18.108138547626655     -8.8659744094548163     -1.5650000000000333
   237   2     -18.108138547626655     -8.8659744094548163     -4.6950000000000323
   238   1     -18.492903877610487     -8.0326016994874774 -3.1974423109204508e-14
   239   2     -18.108138547626655     -8.8659744094548163      1.5649999999999658
   240   2     -18.108138547626655     -8.8659744094548163     -1.5650000000000333
   241   1     -18.492903877610487     -8.0326016994874774       3.129999999999967
   242   2     -18.108138547626655     -8.8659744094548163      4.6949999999999683
   243   2     -18.108138547626655     -8.8659744094548163      1.5649999999999658
   244   1     -17.226887516005458     -10.475902366862979     -3.1300000000000328
   245   2      -16.73222834170393     -11.249120792765531     -1.5650000000000333
   246   2      -16.73222834170393     -11.249120792765531     -4.6950000000000323
   247   1     -17.226887516005458     -10.475902366862979 -3.1974423109204508e-14
   248   2      -16.73222834170393     -11.249120792765531      1.5649999999999658
   249   2      -16.73222834170393     -11.249120792765531     -1.5650000000000333
   250   1     -17.226887516005458     -10.475902366862979       3.129999999999967
   251   2      -16.73222834170393     -11.249120792765531      4.6949999999999683
   252   2      -16.73222834170393     -11.249120792765531      1.5649999999999658
   253   1      -15.63996683450015     -12.724056794312318     -3.1300000000000328
   254   2     -15.044628380367065     -13.422717339860956     -1.5650000000000333
   255   2     -15.044628380367065     -13.422717339860956     -4.6950000000000323
   256   1      -15.63996683450015     -12.724056794312318 -3.1974423109204508e-14
   257   2     -15.044628380367065     -13.422717339860956      1.5649999999999658
   258   2     -15.044628380367065     -13.422717339860956     -1.5650000000000333
   259   1      -15.63996683450015     -12.724056794312318       3.129999999999967
   260   2     -15.044628380367065     -13.422717339860956      4.6949999999999683
   261   2     -15.044628380367065     -13.422717339860956      1.5649999999999658
   262   1     -13.761703162821771     -14.735186118523623     -3.1300000000000328
   263   2     -13.076775457834023     -15.346274059671284     -1.5650000000000333
   264   2     -13.076775457834023     -15.346274059671284     -4.6950000000000323
   265   1     -13.761703162821771     -14.735186118523623 -3.1974423109204508e-14
   266   2     -13.076775457834023     -15.346274059671284      1.5649999999999658
   267   2     -13.076775457834023     -15.346274059671284     -1.5650000000000333
   268   1     -13.761703162821771     -14.735186118523623       3.129999999999967
   269   2     -13.076775457834023     -15.346274059671284      4.6949999999999683
   270   2     -13.076775457834023     -15.346274059671284      1.5649999999999658
   271   1     -11.627084999362376     -16.471826805389632     -3.1300000000000328
   272   2     -10.865326950730887     -16.983958730015537     -1.5650000000000333
   273   2     -10.865326950730887     -16.983958730015537     -4.6950000000000323
   274   1     -11.627084999362376     -16.471826805389632 -3.1974423109204508e-14
   275   2     -10.865326950730887     -16.983958730015537      1.5649999999999658
   276   2     -10.865326950730887     -16.983958730015537     -1.5650000000000333
   277   1     -11.627084999362376     -16.471826805389632       3.129999999999967
   278   2     -10.865326950730887     -16.983958730015537      4.6949999999999683
   279   2     -10.865326950730887     -16.983958730015537      1.5649999999999658
   280   1     -9.2758762416545011      -17.90162852476443     -3.1300000000000328
   281   2     -8.4514779605237038     -18.305264384103609     -1.5650000000000333
   282   2     -8.4514779605237038     -18.305264384103609     -4.6950000000000323
   283   1     -9.2758762416545011      -17.90162852476443 -3.1974423109204508e-14
   284   2     -8.4514779605237038     -18.305264384103609      1.5649999999999658
   285   2     -8.4514779605237038     -18.305264384103609     -1.5650000000000333
   286   1     -9.2758762416545011      -17.90162852476443       3.129999999999967
   287   2     -8.4514779605237038     -18.305264384103609      4.6949999999999683
   288   2     -8.4514779605237038     -18.305264384103609      1.5649999999999658
   289   1      -6.751875460196449     -18.997956775904797     -3.1300000000000328
   290   2     -5.8801939267223604     -19.285577597606128     -1.5650000000000333
   291   2     -5.8801939267223604     -19.285577597606128     -4.6950000000000323
   292   1      -6.751875460196449     -18.997956775904797 -3.1974423109204508e-14
   293   2     -5.8801939267223604     -19.285577597606128      1.5649999999999658
   294   2     -5.8801939267223604     -19.285577597606128     -1.5650000000000333
   295   1      -6.751875460196449     -18.997956775904797       3.129999999999967
   296   2     -5.8801939267223604     -19.285577597606128      4.6949999999999683
   297   2     -5.8801939267223604     -19.285577597606128      1.5649999999999658
   298   1     -4.1021000139539083     -19.740389037824691     -3.1300000000000328
   299   2     -3.1993730058203522     -19.906636990179376     -1.5650000000000333
   300   2     -3.1993730058203522     -19.906636990179376     -4.6950000000000323
   301   1     -4.1021000139539083     -19.740389037824691 -3.1974423109204508e-14
   302   2     -3.1993730058203522     -19.906636990179376      1.5649999999999658
   303   2     -3.1993730058203522     -19.906636990179376     -1.5650000000000333
   304   1     -4.1021000139539083     -19.740389037824691       3.129999999999967
   305   2     -3.1993730058203522     -19.906636990179376      4.6949999999999683
   306   2     -3.1993730058203522     -19.906636990179376      1.5649999999999658
   307   1     -1.3759102059227148     -20.115095202220335     -3.1300000000000328
   308   2    -0.45895381926610807     -20.156873400429216     -1.5650000000000333
   309   2    -0.45895381926610807     -20.156873400429216     -4.6950000000000323
   310   1     -1.3759102059227148     -20.115095202220335 -3.1974423109204508e-14
   311   2    -0.45895381926610807     -20.156873400429216      1.5649999999999658
   312   2    -0.45895381926610807     -20.156873400429216     -1.5650000000000333
   313   1     -1.3759102059227148     -20.115095202220335       3.129999999999967
   314   2    -0.45895381926610807     -20.156873400429216      4.6949999999999683
   315   2    -0.45895381926610807     -20.156873400429216      1.5649999999999658
   316   1      1.3759102059227508     -20.115095202220335     -3.1300000000000328
   317   2      2.2900148085670535     -20.031625397498164     -1.5650000000000333
   318   2      2.2900148085670535     -20.031625397498164     -4.6950000000000323
   319   1      1.3759102059227508     -20.115095202220335 -3.1974423109204508e-14
   320   2      2.2900148085670535     -20.031625397498164      1.5649999999999658
   321   2      2.2900148085670535     -20.031625397498164     -1.5650000000000333
   322   1      1.3759102059227508     -20.115095202220335       3.129999999999967
   323   2      2.2900148085670535     -20.031625397498164      4.6949999999999683
   324   2      2.2900148085670535     -20.031625397498164      1.5649999999999658
   325   1       4.102100013953943     -19.740389037824684     -3.1300000000000328
   326   2      4.9963247933910599     -19.533226114702497     -1.5650000000000333
   327   2      4.9963247933910599     -19.533226114702497     -4.6950000000000323
   328   1       4.102100013953943     -19.740389037824684 -3.1974423109204508e-14
   329   2      4.9963247933910599     -19.533226114702497      1.5649999999999658
   330   2      4.9963247933910599     -19.533226114702497     -1.5650000000000333
   331   1       4.102100013953943     -19.740389037824684       3.129999999999967
   332   2      4.9963247933910599     -19.533226114702497      4.6949999999999683
   333   2      4.9963247933910599     -19.533226114702497      1.5649999999999658
   334   1      6.7518754601964837     -18.997956775904782     -3.1300000000000328
   335   2      7.6095627007237407     -18.670959787673048     -1.5650000000000333
   336   2      7.6095627007237407     -18.670959787673048     -4.6950000000000323
   337   1      6.7518754601964837     -18.997956775904782 -3.1974423109204508e-14
   338   2      7.6095627007237407     -18.670959787673048      1.5649999999999658
   339   2      7.6095627007237407     -18.670959787673048     -1.5650000000000333
   340   1      6.7518754601964837     -18.997956775904782       3.129999999999967
   341   2      7.6095627007237407     -18.670959787673048      4.6949999999999683
   342   2      7.6095627007237407     -18.670959787673048      1.5649999999999658
   343   1      9.2758762416545171     -17.901628524764423     -3.1300000000000328
   344   2      10.081048852787474      -17.46088880661183     -1.5650000000000333
   345   2      10.081048852787474      -17.46088880661183     -4.6950000000000323
   346   1      9.2758762416545171     -17.901628524764423 -3.1974423109204508e-14
   347   2      10.081048852787474      -17.46088880661183      1.5649999999999658
   348   2      10.081048852787474      -17.46088880661183     -1.5650000000000333
   349   1      9.2758762416545171     -17.901628524764423       3.129999999999967
   350   2      10.081048852787474      -17.46088880661183      4.6949999999999683
   351   2      10.081048852787474      -17.46088880661183      1.5649999999999658
   352   1      11.627084999362392     -16.471826805389622     -3.1300000000000328
   353   2      12.364744138800727     -15.925554504353787     -1.5650000000000333
   354   2      12.364744138800727     -15.925554504353787     -4.6950000000000323
   355   1      11.627084999362392     -16.471826805389622 -3.1974423109204508e-14
   356   2      12.364744138800727     -15.925554504353787      1.5649999999999658
   357   2      12.364744138800727     -15.925554504353787     -1.5650000000000333
   358   1      11.627084999362392     -16.471826805389622       3.129999999999967