  39  39   0   0
  0.2439952E+02  0.6834254E-09  0.1767185E-08  0.7880486E-09  0.0000000E+00
   1.0000000000000000E-004
  CAR 
 NEB                                     
      9.52651650    -23.88242542  301      1.10212917      1.00000000
    -23.882  0.0000E+00  0.0000E+00
    -23.771  0.0000E+00  0.0000E+00
    -23.660  0.0000E+00  0.0000E+00
    -23.548 -0.1638E-30 -0.1824E-31
    -23.437 -0.1257E-26 -0.1400E-27
    -23.326 -0.5108E-23 -0.5689E-24
    -23.214 -0.1115E-19 -0.1242E-20
    -23.103 -0.1306E-16 -0.1456E-17
    -22.992 -0.7949E-14 -0.8867E-15
    -22.880 -0.2661E-11 -0.2973E-12
    -22.769 -0.4753E-09 -0.5323E-10
    -22.657 -0.4508E-07 -0.5074E-08
    -22.546 -0.2253E-05 -0.2560E-06
    -22.435 -0.5842E-04 -0.6762E-05
    -22.323 -0.7610E-03 -0.9151E-04
    -22.212 -0.4583E-02 -0.6019E-03
    -22.101 -0.8832E-02 -0.1585E-02
    -21.989  0.2185E-01  0.8484E-03
    -21.878  0.1217E+00  0.1440E-01
    -21.767  0.2154E+00  0.3838E-01
    -21.655  0.2010E+00  0.6077E-01
    -21.544  0.1537E+00  0.7788E-01
    -21.432  0.3249E+00  0.1141E+00
    -21.321  0.7185E+00  0.1941E+00
    -21.210  0.9092E+00  0.2953E+00
    -21.098  0.6240E+00  0.3648E+00
    -20.987  0.1840E+00  0.3853E+00
    -20.876 -0.1647E-01  0.3835E+00
    -20.764 -0.2451E-01  0.3808E+00
    -20.653 -0.6054E-02  0.3801E+00
    -20.542 -0.6723E-03  0.3800E+00
    -20.430 -0.3782E-04  0.3800E+00
    -20.319 -0.1117E-05  0.3800E+00
    -20.207 -0.1755E-07  0.3800E+00
    -20.096 -0.1477E-09  0.3800E+00
    -19.985 -0.6669E-12  0.3800E+00
    -19.873 -0.1622E-14  0.3800E+00
    -19.762  0.0000E+00  0.3800E+00
    -19.651  0.0000E+00  0.3800E+00
    -19.539  0.0000E+00  0.3800E+00
    -19.428  0.0000E+00  0.3800E+00
    -19.317  0.0000E+00  0.3800E+00
    -19.205  0.0000E+00  0.3800E+00
    -19.094  0.0000E+00  0.3800E+00
    -18.982  0.0000E+00  0.3800E+00
    -18.871  0.0000E+00  0.3800E+00
    -18.760  0.0000E+00  0.3800E+00
    -18.648  0.0000E+00  0.3800E+00
    -18.537  0.0000E+00  0.3800E+00
    -18.426  0.0000E+00  0.3800E+00
    -18.314  0.0000E+00  0.3800E+00
    -18.203  0.0000E+00  0.3800E+00
    -18.092  0.0000E+00  0.3800E+00
    -17.980  0.0000E+00  0.3800E+00
    -17.869  0.0000E+00  0.3800E+00
    -17.757  0.0000E+00  0.3800E+00
    -17.646  0.0000E+00  0.3800E+00
    -17.535  0.0000E+00  0.3800E+00
    -17.423  0.0000E+00  0.3800E+00
    -17.312  0.0000E+00  0.3800E+00
    -17.201  0.0000E+00  0.3800E+00
    -17.089  0.0000E+00  0.3800E+00
    -16.978  0.0000E+00  0.3800E+00
    -16.867  0.0000E+00  0.3800E+00
    -16.755  0.0000E+00  0.3800E+00
    -16.644  0.0000E+00  0.3800E+00
    -16.532  0.0000E+00  0.3800E+00
    -16.421  0.0000E+00  0.3800E+00
    -16.310  0.0000E+00  0.3800E+00
    -16.198  0.0000E+00  0.3800E+00
    -16.087  0.0000E+00  0.3800E+00
    -15.976  0.0000E+00  0.3800E+00
    -15.864  0.0000E+00  0.3800E+00
    -15.753  0.0000E+00  0.3800E+00
    -15.642  0.0000E+00  0.3800E+00
    -15.530  0.0000E+00  0.3800E+00
    -15.419  0.0000E+00  0.3800E+00
    -15.307  0.0000E+00  0.3800E+00
    -15.196  0.0000E+00  0.3800E+00
    -15.085  0.0000E+00  0.3800E+00
    -14.973  0.0000E+00  0.3800E+00
    -14.862  0.0000E+00  0.3800E+00
    -14.751  0.0000E+00  0.3800E+00
    -14.639  0.0000E+00  0.3800E+00
    -14.528  0.0000E+00  0.3800E+00
    -14.417  0.0000E+00  0.3800E+00
    -14.305  0.0000E+00  0.3800E+00
    -14.194 -0.1081E-31  0.3800E+00
    -14.082 -0.1046E-27  0.3800E+00
    -13.971 -0.5179E-24  0.3800E+00
    -13.860 -0.1375E-20  0.3800E+00
    -13.748 -0.1959E-17  0.3800E+00
    -13.637 -0.1453E-14  0.3800E+00
    -13.526 -0.5899E-12  0.3800E+00
    -13.414 -0.1279E-09  0.3800E+00
    -13.303 -0.1477E-07  0.3800E+00
    -13.192 -0.9019E-06  0.3800E+00
    -13.080 -0.2885E-04  0.3800E+00
    -12.969 -0.4728E-03  0.3799E+00
    -12.857 -0.3766E-02  0.3795E+00
    -12.746 -0.1211E-01  0.3782E+00
    -12.635  0.3995E-02  0.3786E+00
    -12.523  0.1143E+00  0.3913E+00
    -12.412  0.2802E+00  0.4226E+00
    -12.301  0.3454E+00  0.4610E+00
    -12.189  0.2814E+00  0.4924E+00
    -12.078  0.1576E+00  0.5099E+00
    -11.967  0.4394E-01  0.5148E+00
    -11.855 -0.4723E-02  0.5143E+00
    -11.744 -0.6588E-02  0.5135E+00
    -11.632 -0.1670E-02  0.5134E+00
    -11.521 -0.1890E-03  0.5133E+00
    -11.410 -0.1071E-04  0.5133E+00
    -11.298 -0.3147E-06  0.5133E+00
    -11.187 -0.4867E-08  0.5133E+00
    -11.076 -0.1350E-09  0.5133E+00
    -10.964 -0.9270E-08  0.5133E+00
    -10.853 -0.4726E-06  0.5133E+00
    -10.742 -0.1244E-04  0.5133E+00
    -10.630 -0.1648E-03  0.5133E+00
    -10.519 -0.1031E-02  0.5132E+00
    -10.407 -0.2348E-02  0.5129E+00
    -10.296  0.3256E-02  0.5133E+00
    -10.185  0.2759E-01  0.5164E+00
    -10.073  0.6285E-01  0.5234E+00
     -9.962  0.7787E-01  0.5320E+00
     -9.851  0.5512E-01  0.5382E+00
     -9.739  0.1616E-01  0.5400E+00
     -9.628 -0.9917E-02  0.5389E+00
     -9.517  0.1213E-02  0.5390E+00
     -9.405  0.9455E-01  0.5495E+00
     -9.294  0.2229E+00  0.5744E+00
     -9.182  0.2377E+00  0.6008E+00
     -9.071  0.1397E+00  0.6164E+00
     -8.960  0.4156E-01  0.6210E+00
     -8.848 -0.1871E-02  0.6208E+00
     -8.737 -0.5552E-02  0.6202E+00
     -8.626 -0.1585E-02  0.6200E+00
     -8.514 -0.1944E-03  0.6200E+00
     -8.403 -0.1172E-04  0.6200E+00
     -8.292 -0.3628E-06  0.6200E+00
     -8.180 -0.5870E-08  0.6200E+00
     -8.069 -0.5018E-10  0.6200E+00
     -7.957 -0.2279E-12  0.6200E+00
     -7.846 -0.5583E-15  0.6200E+00
     -7.735  0.0000E+00  0.6200E+00
     -7.623  0.0000E+00  0.6200E+00
     -7.512  0.0000E+00  0.6200E+00
     -7.401  0.0000E+00  0.6200E+00
     -7.289  0.0000E+00  0.6200E+00
     -7.178  0.0000E+00  0.6200E+00
     -7.067  0.0000E+00  0.6200E+00
     -6.955  0.0000E+00  0.6200E+00
     -6.844  0.0000E+00  0.6200E+00
     -6.733  0.0000E+00  0.6200E+00
     -6.621  0.0000E+00  0.6200E+00
     -6.510  0.0000E+00  0.6200E+00
     -6.398  0.0000E+00  0.6200E+00
     -6.287  0.0000E+00  0.6200E+00
     -6.176  0.0000E+00  0.6200E+00
     -6.064  0.0000E+00  0.6200E+00
     -5.953  0.0000E+00  0.6200E+00
     -5.842  0.0000E+00  0.6200E+00
     -5.730  0.0000E+00  0.6200E+00
     -5.619  0.0000E+00  0.6200E+00
     -5.508  0.0000E+00  0.6200E+00
     -5.396  0.0000E+00  0.6200E+00
     -5.285  0.0000E+00  0.6200E+00
     -5.173  0.0000E+00  0.6200E+00
     -5.062  0.0000E+00  0.6200E+00
     -4.951 -0.2625E-30  0.6200E+00
     -4.839 -0.1801E-26  0.6200E+00
     -4.728 -0.6610E-23  0.6200E+00
     -4.617 -0.1297E-19  0.6200E+00
     -4.505 -0.1359E-16  0.6200E+00
     -4.394 -0.7346E-14  0.6200E+00
     -4.283 -0.2167E-11  0.6200E+00
     -4.171 -0.3378E-09  0.6200E+00
     -4.060 -0.2768E-07  0.6200E+00
     -3.948 -0.1179E-05  0.6200E+00
     -3.837 -0.2560E-04  0.6200E+00
     -3.726 -0.2729E-03  0.6200E+00
     -3.614 -0.1285E-02  0.6198E+00
     -3.503 -0.1480E-02  0.6197E+00
     -3.392  0.7224E-02  0.6205E+00
     -3.280  0.2984E-01  0.6238E+00
     -3.169  0.5830E-01  0.6303E+00
     -3.058  0.7423E-01  0.6385E+00
     -2.946  0.5627E-01  0.6448E+00
     -2.835  0.1991E-01  0.6470E+00
     -2.723 -0.2119E-03  0.6470E+00
     -2.612 -0.2301E-02  0.6467E+00
     -2.501 -0.6596E-03  0.6467E+00
     -2.389 -0.7970E-04  0.6467E+00
     -2.278 -0.4722E-05  0.6467E+00
     -2.167 -0.4635E-06  0.6467E+00
     -2.055 -0.8944E-05  0.6467E+00
     -1.944 -0.1244E-03  0.6467E+00
     -1.833 -0.8054E-03  0.6466E+00
     -1.721 -0.1891E-02  0.6464E+00
     -1.610  0.1850E-02  0.6466E+00
     -1.498  0.1708E-01  0.6485E+00
     -1.387  0.4465E-01  0.6534E+00
     -1.276  0.8928E-01  0.6634E+00
     -1.164  0.1309E+00  0.6779E+00
     -1.053  0.1321E+00  0.6927E+00
     -0.942  0.9027E-01  0.7027E+00
     -0.830  0.4119E-01  0.7073E+00
     -0.719  0.3841E-01  0.7116E+00
     -0.608  0.6161E-01  0.7184E+00
     -0.496  0.4946E-01  0.7239E+00
     -0.385  0.2091E-01  0.7263E+00
     -0.273  0.4140E-01  0.7309E+00
     -0.162  0.1054E+00  0.7426E+00
     -0.051  0.1605E+00  0.7605E+00
      0.061  0.2037E+00  0.7832E+00
      0.172  0.2053E+00  0.8060E+00
      0.283  0.1633E+00  0.8242E+00
      0.395  0.1631E+00  0.8424E+00
      0.506  0.1881E+00  0.8633E+00
      0.617  0.1670E+00  0.8819E+00
      0.729  0.1278E+00  0.8962E+00
      0.840  0.1170E+00  0.9092E+00
      0.952  0.1226E+00  0.9228E+00
      1.063  0.1006E+00  0.9341E+00
      1.174  0.4935E-01  0.9395E+00
      1.286  0.9416E-02  0.9406E+00
      1.397 -0.2912E-02  0.9403E+00
      1.508 -0.1979E-02  0.9401E+00
      1.620 -0.4147E-03  0.9400E+00
      1.731 -0.4049E-04  0.9400E+00
      1.842 -0.1988E-05  0.9400E+00
      1.954 -0.5040E-07  0.9400E+00
      2.065 -0.6685E-09  0.9400E+00
      2.177 -0.1483E-10  0.9400E+00
      2.288 -0.1312E-08  0.9400E+00
      2.399 -0.8868E-07  0.9400E+00
      2.511 -0.3094E-05  0.9400E+00
      2.622 -0.5416E-04  0.9400E+00
      2.733 -0.4446E-03  0.9399E+00
      2.845 -0.1335E-02  0.9398E+00
      2.956  0.1469E-02  0.9400E+00
      3.067  0.1520E-01  0.9417E+00
      3.179  0.2698E-01  0.9447E+00
      3.290  0.1744E-01  0.9466E+00
      3.402  0.2604E-02  0.9469E+00
      3.513 -0.1365E-02  0.9467E+00
      3.624 -0.5889E-03  0.9467E+00
      3.736 -0.4924E-03  0.9466E+00
      3.847 -0.1901E-02  0.9464E+00
      3.958 -0.1444E-02  0.9462E+00
      4.070  0.1450E-01  0.9479E+00
      4.181  0.4586E-01  0.9530E+00
      4.292  0.5940E-01  0.9596E+00
      4.404  0.4419E-01  0.9645E+00
      4.515  0.1965E-01  0.9667E+00
      4.627  0.2447E-02  0.9670E+00
      4.738 -0.1768E-02  0.9668E+00
      4.849 -0.7563E-03  0.9667E+00
      4.961 -0.1587E-03  0.9667E+00
      5.072 -0.4923E-03  0.9666E+00
      5.183 -0.2380E-02  0.9663E+00
      5.295 -0.2968E-02  0.9660E+00
      5.406  0.1511E-01  0.9677E+00
      5.517  0.6035E-01  0.9744E+00
      5.629  0.9174E-01  0.9846E+00
      5.740  0.8615E-01  0.9942E+00
      5.852  0.7980E-01  0.1003E+01
      5.963  0.8534E-01  0.1013E+01
      6.074  0.8253E-01  0.1022E+01
      6.186  0.6005E-01  0.1028E+01
      6.297  0.3159E-01  0.1032E+01
      6.408  0.1535E-01  0.1034E+01
      6.520  0.2613E-01  0.1037E+01
      6.631  0.4828E-01  0.1042E+01
      6.742  0.5883E-01  0.1049E+01
      6.854  0.6806E-01  0.1056E+01
      6.965  0.7655E-01  0.1065E+01
      7.077  0.8203E-01  0.1074E+01
      7.188  0.1004E+00  0.1085E+01
      7.299  0.1092E+00  0.1097E+01
      7.411  0.9033E-01  0.1107E+01
      7.522  0.6889E-01  0.1115E+01
      7.633  0.4118E-01  0.1119E+01
      7.745  0.9565E-02  0.1121E+01
      7.856 -0.2658E-02  0.1120E+01
      7.967 -0.1730E-02  0.1120E+01
      8.079 -0.3140E-03  0.1120E+01
      8.190 -0.2573E-04  0.1120E+01
      8.302 -0.1049E-05  0.1120E+01
      8.413 -0.2204E-07  0.1120E+01
      8.524 -0.2431E-09  0.1120E+01
      8.636 -0.1419E-11  0.1120E+01
      8.747 -0.4400E-14  0.1120E+01
      8.858 -0.1329E-16  0.1120E+01
      8.970  0.0000E+00  0.1120E+01
      9.081  0.0000E+00  0.1120E+01
      9.192  0.0000E+00  0.1120E+01
      9.304  0.0000E+00  0.1120E+01
      9.415  0.0000E+00  0.1120E+01
      9.527  0.0000E+00  0.1120E+01
