 vasp.6.3.2 27Jun22 (build Mar 25 2024 10:42:18) complex                         
 executed on             LinuxGNU date 2024.03.31  16:35:27
 running on   32 total cores
 distrk:  each k-point on   32 cores,    1 groups
 distr:  one band on NCORE=   1 cores,   32 groups


--------------------------------------------------------------------------------------------------------


 INCAR:
   ISTART = 0
   ICHARG = 2
   PREC = Accurate
   IBRION = -1
   EDIFF = 0.000000001
   EDIFFG = -0.0005
   NSW = 0
   NELM = 100
   ENCUT = 520
   ISMEAR = -5
   SIGMA = 0.05
   ISPIN = 2
   ISYM = 0
   LWAVE = False
   LCHARG = False
   LASPH = True
   LORBIT = 11
   ADDGRID = TRUE

 POTCAR:    PAW_PBE S 06Sep2000                   
 -----------------------------------------------------------------------------
|                                                                             |
|           W    W    AA    RRRRR   N    N  II  N    N   GGGG   !!!           |
|           W    W   A  A   R    R  NN   N  II  NN   N  G    G  !!!           |
|           W    W  A    A  R    R  N N  N  II  N N  N  G       !!!           |
|           W WW W  AAAAAA  RRRRR   N  N N  II  N  N N  G  GGG   !            |
|           WW  WW  A    A  R   R   N   NN  II  N   NN  G    G                |
|           W    W  A    A  R    R  N    N  II  N    N   GGGG   !!!           |
|                                                                             |
|     You use a magnetic or noncollinear calculation, but did not specify     |
|     the initial magnetic moment with the MAGMOM tag. Note that a            |
|     default of 1 will be used for all atoms. This ferromagnetic setup       |
|     may break the symmetry of the crystal, in particular it may rule        |
|     out finding an antiferromagnetic solution. Thence, we recommend         |
|     setting the initial magnetic moment manually or verifying carefully     |
|     that this magnetic setup is desired.                                    |
|                                                                             |
 -----------------------------------------------------------------------------

 -----------------------------------------------------------------------------
|                                                                             |
|           W    W    AA    RRRRR   N    N  II  N    N   GGGG   !!!           |
|           W    W   A  A   R    R  NN   N  II  NN   N  G    G  !!!           |
|           W    W  A    A  R    R  N N  N  II  N N  N  G       !!!           |
|           W WW W  AAAAAA  RRRRR   N  N N  II  N  N N  G  GGG   !            |
|           WW  WW  A    A  R   R   N   NN  II  N   NN  G    G                |
|           W    W  A    A  R    R  N    N  II  N    N   GGGG   !!!           |
|                                                                             |
|     For optimal performance we recommend to set                             |
|       NCORE = 2 up to number-of-cores-per-socket                            |
|     NCORE specifies how many cores store one orbital (NPAR=cpu/NCORE).      |
|     This setting can greatly improve the performance of VASP for DFT.       |
|     The default, NCORE=1 might be grossly inefficient on modern             |
|     multi-core architectures or massively parallel machines. Do your        |
|     own testing! More info at https://www.vasp.at/wiki/index.php/NCORE      |
|     Unfortunately you need to use the default for GW and RPA                |
|     calculations (for HF NCORE is supported but not extensively tested      |
|     yet).                                                                   |
|                                                                             |
 -----------------------------------------------------------------------------

 POTCAR:    PAW_PBE S 06Sep2000                   
   SHA256 =  0fc7481fb0695f01bdc6462160264c5c84044ae9ec85a907d398b887a2bc3132 S/POTCAR              
   COPYR  = (c) Copyright 06Sep2000 Georg Kresse                                                    
   COPYR  = This file is part of the software VASP. Any use, copying, and all other rights are regul
   COPYR  = If you do not have a valid VASP license, you may not use, copy or distribute this file. 
   VRHFIN =S : s2p4                                                                                 
   LEXCH  = PE                                                                                      
   EATOM  =   276.8230 eV,   20.3459 Ry                                                             
                                                                                                    
   TITEL  = PAW_PBE S 06Sep2000                                                                     
   LULTRA =        F    use ultrasoft PP ?                                                          
   IUNSCR =        1    unscreen: 0-lin 1-nonlin 2-no                                               
   RPACOR =    1.500    partial core radius                                                         
   POMASS =   32.066; ZVAL   =    6.000    mass and valenz                                          
   RCORE  =    1.900    outmost cutoff radius                                                       
   RWIGS  =    2.200; RWIGS  =    1.164    wigner-seitz radius (au A)                               
   ENMAX  =  258.689; ENMIN  =  194.016 eV                                                          
   ICORE  =        2    local potential                                                             
   LCOR   =        T    correct aug charges                                                         
   LPAW   =        T    paw PP                                                                      
   EAUG   =  335.092                                                                                
   DEXC   =    0.000                                                                                
   RMAX   =    1.942    core radius for proj-oper                                                   
   RAUG   =    1.300    factor for augmentation sphere                                              
   RDEP   =    1.954    radius for radial grids                                                     
   RDEPT  =    1.744    core radius for aug-charge                                                  
                                                                                                    
   Atomic configuration                                                                             
    6 entries                                                                                       
     n  l   j            E        occ.                                                              
     1  0  0.50     -2405.8406   2.0000                                                             
     2  0  0.50      -211.7007   2.0000                                                             
     2  1  1.50      -156.4958   6.0000                                                             
     3  0  0.50       -17.2562   2.0000                                                             
     3  1  0.50        -7.0085   4.0000                                                             
     3  2  1.50        -6.8029   0.0000                                                             
   Description                                                                                      
     l       E           TYP  RCUT    TYP  RCUT                                                     
     0    -17.2561641     23  1.900                                                                 
     0    -15.8743224     23  1.900                                                                 
     1     -7.0085400     23  1.900                                                                 
     1     -2.7779785     23  1.900                                                                 
     2     -6.8029130     23  1.900                                                                 
  local pseudopotential read in
  partial core-charges read in
  partial kinetic energy density read in
  atomic valenz-charges read in
  non local Contribution for L=           0  read in
    real space projection operators read in
  non local Contribution for L=           0  read in
    real space projection operators read in
  non local Contribution for L=           1  read in
    real space projection operators read in
  non local Contribution for L=           1  read in
    real space projection operators read in
    PAW grid and wavefunctions read in

   number of l-projection  operators is LMAX  =           4
   number of lm-projection operators is LMMAX =           8

 -----------------------------------------------------------------------------
|                                                                             |
|               ----> ADVICE to this user running VASP <----                  |
|                                                                             |
|     You have a (more or less) 'large supercell' and for larger cells it     |
|     might be more efficient to use real-space projection operators.         |
|     Therefore, try LREAL= Auto in the INCAR file.                           |
|     Mind: For very accurate calculation, you might also keep the            |
|     reciprocal projection scheme (i.e. LREAL=.FALSE.).                      |
|                                                                             |
 -----------------------------------------------------------------------------

  PAW_PBE S 06Sep2000                   :
 energy of atom  1       EATOM= -276.8230
 kinetic energy error for atom=    0.0016 (will be added to EATOM!!)


 POSCAR: generated by phonopy
  positions in direct lattice
  No initial velocities read in
 exchange correlation table for  LEXCH =        8
   RHO(1)=    0.500       N(1)  =     2000
   RHO(2)=  100.500       N(2)  =     4000



--------------------------------------------------------------------------------------------------------


 ion  position               nearest neighbor table
   1  0.886  0.467  0.678-  45 1.98  24 2.13
   2  0.886  0.967  0.678-  46 1.98  23 2.13
   3  0.330  0.189  0.551-  41 2.05  19 2.13
   4  0.330  0.689  0.551-  42 2.05  20 2.13
   5  0.913  0.105  0.912-  51 1.98  11 2.13
   6  0.913  0.605  0.912-  52 1.98  12 2.13
   7  0.240  0.301  0.777-  19 1.98  37 2.23
   8  0.240  0.801  0.777-  20 1.98  38 2.23
   9  0.144  0.306  0.224-  31 2.04  39 2.13
  10  0.144  0.806  0.224-  32 2.05  40 2.13
  11  0.856  0.194  0.776-  47 2.05   5 2.13
  12  0.856  0.694  0.776-  48 2.05   6 2.13
  13  0.760  0.199  0.223-  27 1.98  33 2.23
  14  0.760  0.699  0.223-  28 1.98  34 2.23
  15  0.170  0.439  0.449-  31 2.04  30 2.13
  16  0.170  0.939  0.449-  32 2.05  29 2.13
  17  0.413  0.145  0.912-  37 1.98  43 2.13
  18  0.413  0.645  0.912-  38 1.98  44 2.13
  19  0.386  0.283  0.678-   7 1.98   3 2.13
  20  0.386  0.783  0.678-   8 1.98   4 2.13
  21  0.644  0.444  0.224-  53 2.05  35 2.13
  22  0.644  0.944  0.224-  54 2.05  36 2.13
  23  0.830  0.061  0.551-  47 2.05   2 2.13
  24  0.830  0.561  0.551-  48 2.05   1 2.13
  25  0.260  0.051  0.223-  29 1.98  50 2.23
  26  0.260  0.551  0.223-  30 1.98  49 2.23
  27  0.614  0.217  0.322-  13 1.98  55 2.13
  28  0.614  0.717  0.322-  14 1.98  56 2.13
  29  0.114  0.033  0.322-  25 1.98  16 2.13
  30  0.114  0.533  0.322-  26 1.98  15 2.13
  31  0.061  0.345  0.374-   9 2.04  15 2.04
  32  0.060  0.845  0.374-  10 2.05  16 2.05
  33  0.743  0.289  0.071-  35 1.98  13 2.23
  34  0.743  0.789  0.071-  36 1.98  14 2.23
  35  0.587  0.355  0.088-  33 1.98  21 2.13
  36  0.587  0.855  0.088-  34 1.98  22 2.13
  37  0.257  0.211  0.929-  17 1.98   7 2.23
  38  0.257  0.711  0.929-  18 1.98   8 2.23
  39  0.087  0.395  0.088-  49 1.98   9 2.13
  40  0.087  0.895  0.088-  50 1.98  10 2.13
  41  0.440  0.095  0.626-  43 2.05   3 2.05
  42  0.440  0.595  0.626-  44 2.05   4 2.05
  43  0.356  0.056  0.776-  41 2.05  17 2.13
  44  0.356  0.556  0.776-  42 2.05  18 2.13
  45  0.740  0.449  0.777-   1 1.98  52 2.23
  46  0.740  0.949  0.777-   2 1.98  51 2.23
  47  0.940  0.155  0.626-  11 2.05  23 2.05
  48  0.940  0.655  0.626-  12 2.05  24 2.05
  49  0.243  0.461  0.071-  39 1.98  26 2.23
  50  0.243  0.961  0.071-  40 1.98  25 2.23
  51  0.757  0.039  0.929-   5 1.98  46 2.23
  52  0.757  0.539  0.929-   6 1.98  45 2.23
  53  0.560  0.405  0.374-  21 2.05  55 2.05
  54  0.560  0.905  0.374-  22 2.05  56 2.05
  55  0.670  0.311  0.449-  53 2.05  27 2.13
  56  0.670  0.811  0.449-  54 2.05  28 2.13


IMPORTANT INFORMATION: All symmetrisations will be switched off!
NOSYMM: (Re-)initialisation of all symmetry stuff for point group C_1.


----------------------------------------------------------------------------------------

                                     Primitive cell                                     

  volume of cell :    1863.6770

  direct lattice vectors                    reciprocal lattice vectors
     0.000000000 10.307367086 -0.372855731     0.000000000  0.096453423 -0.015606996
    16.788494411  0.000000000  0.000000000     0.059564603  0.000000000  0.000000000
     0.000000000 -1.732519801-10.707215182     0.000000000 -0.003358783 -0.092851486

  length of vectors
    10.314108670 16.788494411 10.846477853     0.097707938  0.059564603  0.092912216

  position of ions in fractional coordinates (direct lattice)
     0.886423141  0.467004751  0.678126386
     0.886423141  0.967004751  0.678126386
     0.329563264  0.188743823  0.550707721
     0.329563264  0.688743823  0.550707721
     0.912671285  0.105241885  0.911960471
     0.912671285  0.605241885  0.911960471
     0.239736405  0.300831047  0.776574189
     0.239736405  0.800831047  0.776574189
     0.144417516  0.305688762  0.224396680
     0.144417516  0.805688762  0.224396680
     0.855582484  0.194311238  0.775603320
     0.855582484  0.694311238  0.775603320
     0.760263595  0.199168953  0.223425811
     0.760263595  0.699168953  0.223425811
     0.170436736  0.438743823  0.449292279
     0.170436736  0.938743823  0.449292279
     0.412671285  0.144758115  0.911960471
     0.412671285  0.644758115  0.911960471
     0.386423141  0.282995249  0.678126386
     0.386423141  0.782995249  0.678126386
     0.644417516  0.444311238  0.224396680
     0.644417516  0.944311238  0.224396680
     0.829563264  0.061256177  0.550707721
     0.829563264  0.561256177  0.550707721
     0.260263595  0.050831047  0.223425811
     0.260263595  0.550831047  0.223425811
     0.613576859  0.217004751  0.321873614
     0.613576859  0.717004751  0.321873614
     0.113576859  0.032995249  0.321873614
     0.113576859  0.532995249  0.321873614
     0.060865246  0.345087734  0.374484367
     0.059895700  0.845087734  0.374484367
     0.743425210  0.289344343  0.071165234
     0.743425210  0.789344343  0.071165234
     0.587328715  0.355241885  0.088039529
     0.587328715  0.855241885  0.088039529
     0.256574790  0.210655657  0.928834766
     0.256574790  0.710655657  0.928834766
     0.087328715  0.394758115  0.088039529
     0.087328715  0.894758115  0.088039529
     0.440104300  0.095087734  0.625515633
     0.440104300  0.595087734  0.625515633
     0.355582484  0.055688762  0.775603320
     0.355582484  0.555688762  0.775603320
     0.739736405  0.449168953  0.776574189
     0.739736405  0.949168953  0.776574189
     0.940104300  0.154912266  0.625515633
     0.940104300  0.654912266  0.625515633
     0.243425210  0.460655657  0.071165234
     0.243425210  0.960655657  0.071165234
     0.756574790  0.039344343  0.928834766
     0.756574790  0.539344343  0.928834766
     0.559895700  0.404912266  0.374484367
     0.559895700  0.904912266  0.374484367
     0.670436736  0.311256177  0.449292279
     0.670436736  0.811256177  0.449292279

  ion indices of the primitive-cell ions
   primitive index   ion index
                 1           1
                 2           2
                 3           3
                 4           4
                 5           5
                 6           6
                 7           7
                 8           8
                 9           9
                10          10
                11          11
                12          12
                13          13
                14          14
                15          15
                16          16
                17          17
                18          18
                19          19
                20          20
                21          21
                22          22
                23          23
                24          24
                25          25
                26          26
                27          27
                28          28
                29          29
                30          30
                31          31
                32          32
                33          33
                34          34
                35          35
                36          36
                37          37
                38          38
                39          39
                40          40
                41          41
                42          42
                43          43
                44          44
                45          45
                46          46
                47          47
                48          48
                49          49
                50          50
                51          51
                52          52
                53          53
                54          54
                55          55
                56          56

----------------------------------------------------------------------------------------



 KPOINTS: pymatgen with grid density = 595 / numbe

Automatic generation of k-mesh.
 Grid dimensions read from file:
 generate k-points for:    2    2    2

 Generating k-lattice:

  Cartesian coordinates                     Fractional coordinates (reciprocal lattice)
     0.000000000  0.048226712 -0.007803498     0.500000000  0.000000000 -0.000000000
     0.029782301  0.000000000  0.000000000     0.000000000  0.500000000  0.000000000
     0.000000000 -0.001679391 -0.046425743    -0.000000000  0.000000000  0.500000000

  Length of vectors
     0.048853969  0.029782301  0.046456108

  Shift w.r.t. Gamma in fractional coordinates (k-lattice)
     0.000000000  0.000000000  0.000000000

 TETIRR: Found     24 inequivalent tetrahedra from       48
 
 Subroutine IBZKPT returns following result:
 ===========================================
 
 Found      8 irreducible k-points:
 
 Following reciprocal coordinates:
            Coordinates               Weight
  0.000000  0.000000  0.000000      1.000000
  0.500000  0.000000  0.000000      1.000000
  0.000000  0.500000  0.000000      1.000000
  0.500000  0.500000  0.000000      1.000000
  0.000000  0.000000  0.500000      1.000000
  0.500000  0.000000  0.500000      1.000000
  0.000000  0.500000  0.500000      1.000000
  0.500000  0.500000  0.500000      1.000000
 
 Following cartesian coordinates:
            Coordinates               Weight
  0.000000  0.000000 -0.000000      1.000000
  0.000000  0.048227 -0.007803      1.000000
  0.029782  0.000000 -0.000000      1.000000
  0.029782  0.048227 -0.007803      1.000000
  0.000000 -0.001679 -0.046426      1.000000
  0.000000  0.046547 -0.054229      1.000000
  0.029782 -0.001679 -0.046426      1.000000
  0.029782  0.046547 -0.054229      1.000000
 


--------------------------------------------------------------------------------------------------------




 Dimension of arrays:
   k-points           NKPTS =      8   k-points in BZ     NKDIM =      8   number of bands    NBANDS=    256
   number of dos      NEDOS =    301   number of ions     NIONS =     56
   non local maximal  LDIM  =      4   non local SUM 2l+1 LMDIM =      8
   total plane-waves  NPLWV = 846720
   max r-space proj   IRMAX =      1   max aug-charges    IRDMAX= 114695
   dimension x,y,z NGX =    80 NGY =  126 NGZ =   84
   dimension x,y,z NGXF=   160 NGYF=  252 NGZF=  168
   support grid    NGXF=   320 NGYF=  504 NGZF=  336
   ions per type =              56
   NGX,Y,Z   is equivalent  to a cutoff of  12.89, 12.48, 12.87 a.u.
   NGXF,Y,Z  is equivalent  to a cutoff of  25.79, 24.95, 25.75 a.u.

 SYSTEM =  unknown system                          
 POSCAR =  generated by phonopy                    

 Startparameter for this run:
   NWRITE =      2    write-flag & timer
   PREC   = accura    normal or accurate (medium, high low for compatibility)
   ISTART =      0    job   : 0-new  1-cont  2-samecut
   ICHARG =      2    charge: 1-file 2-atom 10-const
   ISPIN  =      2    spin polarized calculation?
   LNONCOLLINEAR =      F non collinear calculations
   LSORBIT =      F    spin-orbit coupling
   INIWAV =      1    electr: 0-lowe 1-rand  2-diag
   LASPH  =      T    aspherical Exc in radial PAW
 Electronic Relaxation 1
   ENCUT  =  520.0 eV  38.22 Ry    6.18 a.u.  19.18 31.22 20.17*2*pi/ulx,y,z
   ENINI  =  520.0     initial cutoff
   ENAUG  =  335.1 eV  augmentation charge cutoff
   NELM   =    100;   NELMIN=  2; NELMDL= -5     # of ELM steps 
   EDIFF  = 0.1E-08   stopping-criterion for ELM
   LREAL  =      F    real-space projection
   NLSPLINE    = F    spline interpolate recip. space projectors
   LCOMPAT=      F    compatible to vasp.4.4
   GGA_COMPAT  = T    GGA compatible to vasp.4.4-vasp.4.6
   LMAXPAW     = -100 max onsite density
   LMAXMIX     =    2 max onsite mixed and CHGCAR
   VOSKOWN=      0    Vosko Wilk Nusair interpolation
   ROPT   =    0.00000
 Ionic relaxation
   EDIFFG = -.5E-03   stopping-criterion for IOM
   NSW    =      0    number of steps for IOM
   NBLOCK =      1;   KBLOCK =      1    inner block; outer block 
   IBRION =     -1    ionic relax: 0-MD 1-quasi-New 2-CG
   NFREE  =      0    steps in history (QN), initial steepest desc. (CG)
   ISIF   =      2    stress and relaxation
   IWAVPR =     10    prediction:  0-non 1-charg 2-wave 3-comb
   ISYM   =      0    0-nonsym 1-usesym 2-fastsym
   LCORR  =      T    Harris-Foulkes like correction to forces

   POTIM  = 0.5000    time-step for ionic-motion
   TEIN   =    0.0    initial temperature
   TEBEG  =    0.0;   TEEND  =   0.0 temperature during run
   SMASS  =  -3.00    Nose mass-parameter (am)
   estimated Nose-frequenzy (Omega)   =  0.10E-29 period in steps = 0.13E+47 mass=  -0.243E-26a.u.
   SCALEE = 1.0000    scale energy and forces
   NPACO  =    256;   APACO  = 10.0  distance and # of slots for P.C.
   PSTRESS=    0.0 pullay stress

  Mass of Ions in am
   POMASS =  32.07
  Ionic Valenz
   ZVAL   =   6.00
  Atomic Wigner-Seitz radii
   RWIGS  =  -1.00
  virtual crystal weights 
   VCA    =   1.00
   NELECT =     336.0000    total number of electrons
   NUPDOWN=      -1.0000    fix difference up-down

 DOS related values:
   EMIN   =  10.00;   EMAX   =-10.00  energy-range for DOS
   EFERMI =   0.00
   ISMEAR =    -5;   SIGMA  =   0.05  broadening in eV -4-tet -1-fermi 0-gaus

 Electronic relaxation 2 (details)
   IALGO  =     38    algorithm
   LDIAG  =      T    sub-space diagonalisation (order eigenvalues)
   LSUBROT=      F    optimize rotation matrix (better conditioning)
   TURBO    =      0    0=normal 1=particle mesh
   IRESTART =      0    0=no restart 2=restart with 2 vectors
   NREBOOT  =      0    no. of reboots
   NMIN     =      0    reboot dimension
   EREF     =   0.00    reference energy to select bands
   IMIX   =      4    mixing-type and parameters
     AMIX     =   0.40;   BMIX     =  1.00
     AMIX_MAG =   1.60;   BMIX_MAG =  1.00
     AMIN     =   0.10
     WC   =   100.;   INIMIX=   1;  MIXPRE=   1;  MAXMIX= -45

 Intra band minimization:
   WEIMIN = 0.0000     energy-eigenvalue tresh-hold
   EBREAK =  0.98E-12  absolut break condition
   DEPER  =   0.30     relativ break condition  

   TIME   =   0.40     timestep for ELM

  volume/ion in A,a.u.               =      33.28       224.58
  Fermi-wavevector in a.u.,A,eV,Ry     =   0.924835  1.747685 11.637339  0.855320
  Thomas-Fermi vector in A             =   2.050624

 Write flags
   LWAVE        =      F    write WAVECAR
   LDOWNSAMPLE  =      F    k-point downsampling of WAVECAR
   LCHARG       =      F    write CHGCAR
   LVTOT        =      F    write LOCPOT, total local potential
   LVHAR        =      F    write LOCPOT, Hartree potential only
   LELF         =      F    write electronic localiz. function (ELF)
   LORBIT       =     11    0 simple, 1 ext, 2 COOP (PROOUT), +10 PAW based schemes


 Dipole corrections
   LMONO  =      F    monopole corrections only (constant potential shift)
   LDIPOL =      F    correct potential (dipole corrections)
   IDIPOL =      0    1-x, 2-y, 3-z, 4-all directions 
   EPSILON=  1.0000000 bulk dielectric constant

 Exchange correlation treatment:
   GGA     =    --    GGA type
   LEXCH   =     8    internal setting for exchange type
   LIBXC   =     F    Libxc                    
   VOSKOWN =     0    Vosko Wilk Nusair interpolation
   LHFCALC =     F    Hartree Fock is set to
   LHFONE  =     F    Hartree Fock one center treatment
   AEXX    =    0.0000 exact exchange contribution

 Linear response parameters
   LEPSILON=     F    determine dielectric tensor
   LRPA    =     F    only Hartree local field effects (RPA)
   LNABLA  =     F    use nabla operator in PAW spheres
   LVEL    =     F    velocity operator in full k-point grid
   CSHIFT  =0.1000    complex shift for real part using Kramers Kronig
   OMEGAMAX=  -1.0    maximum frequency
   DEG_THRESHOLD= 0.2000000E-02 threshold for treating states as degnerate
   RTIME   =   -0.100 relaxation time in fs
  (WPLASMAI=    0.000 imaginary part of plasma frequency in eV, 0.658/RTIME)
   DFIELD  = 0.0000000 0.0000000 0.0000000 field for delta impulse in time

  Optional k-point grid parameters
   LKPOINTS_OPT  =     F    use optional k-point grid
   KPOINTS_OPT_MODE=     1    mode for optional k-point grid

 Orbital magnetization related:
   ORBITALMAG=     F  switch on orbital magnetization
   LCHIMAG   =     F  perturbation theory with respect to B field
   DQ        =  0.001000  dq finite difference perturbation B field
   LLRAUG    =     F  two centre corrections for induced B field



--------------------------------------------------------------------------------------------------------


 Static calculation
 charge density and potential will be updated during run
 spin polarized calculation
 Variant of blocked Davidson
 Davidson routine will perform the subspace rotation
 perform sub-space diagonalisation
    after iterative eigenvector-optimisation
 modified Broyden-mixing scheme, WC =      100.0
 initial mixing is a Kerker type mixing with AMIX =  0.4000 and BMIX =      1.0000
 Hartree-type preconditioning will be used
 using additional bands           88
 reciprocal scheme for non local part
 use partial core corrections
 calculate Harris-corrections to forces   (improved forces if not selfconsistent)
 use gradient corrections 
 use of overlap-Matrix (Vanderbilt PP)
 Fermi weights with tetrahedron method with Bloechl corrections


--------------------------------------------------------------------------------------------------------


  energy-cutoff  :      520.00
  volume of cell :     1863.68
      direct lattice vectors                 reciprocal lattice vectors
     0.000000000 10.307367086 -0.372855731     0.000000000  0.096453423 -0.015606996
    16.788494411  0.000000000  0.000000000     0.059564603  0.000000000  0.000000000
     0.000000000 -1.732519801-10.707215182     0.000000000 -0.003358783 -0.092851486

  length of vectors
    10.314108670 16.788494411 10.846477853     0.097707938  0.059564603  0.092912216



 k-points in units of 2pi/SCALE and weight: pymatgen with grid density = 595 / numbe
   0.00000000  0.00000000 -0.00000000       0.125
   0.00000000  0.04822671 -0.00780350       0.125
   0.02978230  0.00000000 -0.00000000       0.125
   0.02978230  0.04822671 -0.00780350       0.125
   0.00000000 -0.00167939 -0.04642574       0.125
   0.00000000  0.04654732 -0.05422924       0.125
   0.02978230 -0.00167939 -0.04642574       0.125
   0.02978230  0.04654732 -0.05422924       0.125

 k-points in reciprocal lattice and weights: pymatgen with grid density = 595 / numbe
   0.00000000  0.00000000  0.00000000       0.125
   0.50000000  0.00000000  0.00000000       0.125
   0.00000000  0.50000000  0.00000000       0.125
   0.50000000  0.50000000  0.00000000       0.125
   0.00000000  0.00000000  0.50000000       0.125
   0.50000000  0.00000000  0.50000000       0.125
   0.00000000  0.50000000  0.50000000       0.125
   0.50000000  0.50000000  0.50000000       0.125

 position of ions in fractional coordinates (direct lattice) 
   0.88642314  0.46700475  0.67812639
   0.88642314  0.96700475  0.67812639
   0.32956326  0.18874382  0.55070772
   0.32956326  0.68874382  0.55070772
   0.91267129  0.10524188  0.91196047
   0.91267129  0.60524188  0.91196047
   0.23973640  0.30083105  0.77657419
   0.23973640  0.80083105  0.77657419
   0.14441752  0.30568876  0.22439668
   0.14441752  0.80568876  0.22439668
   0.85558248  0.19431124  0.77560332
   0.85558248  0.69431124  0.77560332
   0.76026360  0.19916895  0.22342581
   0.76026360  0.69916895  0.22342581
   0.17043674  0.43874382  0.44929228
   0.17043674  0.93874382  0.44929228
   0.41267129  0.14475812  0.91196047
   0.41267129  0.64475812  0.91196047
   0.38642314  0.28299525  0.67812639
   0.38642314  0.78299525  0.67812639
   0.64441752  0.44431124  0.22439668
   0.64441752  0.94431124  0.22439668
   0.82956326  0.06125618  0.55070772
   0.82956326  0.56125618  0.55070772
   0.26026360  0.05083105  0.22342581
   0.26026360  0.55083105  0.22342581
   0.61357686  0.21700475  0.32187361
   0.61357686  0.71700475  0.32187361
   0.11357686  0.03299525  0.32187361
   0.11357686  0.53299525  0.32187361
   0.06086525  0.34508773  0.37448437
   0.05989570  0.84508773  0.37448437
   0.74342521  0.28934434  0.07116523
   0.74342521  0.78934434  0.07116523
   0.58732871  0.35524188  0.08803953
   0.58732871  0.85524188  0.08803953
   0.25657479  0.21065566  0.92883477
   0.25657479  0.71065566  0.92883477
   0.08732871  0.39475812  0.08803953
   0.08732871  0.89475812  0.08803953
   0.44010430  0.09508773  0.62551563
   0.44010430  0.59508773  0.62551563
   0.35558248  0.05568876  0.77560332
   0.35558248  0.55568876  0.77560332
   0.73973640  0.44916895  0.77657419
   0.73973640  0.94916895  0.77657419
   0.94010430  0.15491227  0.62551563
   0.94010430  0.65491227  0.62551563
   0.24342521  0.46065566  0.07116523
   0.24342521  0.96065566  0.07116523
   0.75657479  0.03934434  0.92883477
   0.75657479  0.53934434  0.92883477
   0.55989570  0.40491227  0.37448437
   0.55989570  0.90491227  0.37448437
   0.67043674  0.31125618  0.44929228
   0.67043674  0.81125618  0.44929228

 position of ions in cartesian coordinates  (Angst):
   7.84030666  7.96182132 -7.59135308
  16.23455387  7.96182132 -7.59135308
   3.16872461  2.44281751 -6.01942562
  11.56297182  2.44281751 -6.01942562
   1.76685280  7.82724839-10.10485172
  10.16110000  7.82724839-10.10485172
   5.05050035  1.12562097 -8.40433404
  13.44474755  1.12562097 -8.40433404
   5.13205407  1.09979266 -2.45651044
  13.52630128  1.09979266 -2.45651044
   3.26219313  7.47505463 -8.62356047
  11.65644034  7.47505463 -8.62356047
   3.34374686  7.44922632 -2.67573688
  11.73799406  7.44922632 -2.67573688
   7.36584822  0.97834624 -4.87421742
  15.76009542  0.97834624 -4.87421742
   2.43027081  2.67356485 -9.91842386
  10.82451801  2.67356485 -9.91842386
   4.75106415  2.80813777 -7.40492521
  13.14531135  2.80813777 -7.40492521
   7.45931673  6.25347620 -2.64293831
  15.85356394  6.25347620 -2.64293831
   1.02839899  7.59650105 -6.20585349
   9.42264619  7.59650105 -6.20585349
   0.85337674  2.29554277 -2.48930901
   9.24762395  2.29554277 -2.48930901
   3.64318306  5.76670951 -3.67514570
  12.03743026  5.76670951 -3.67514570
   0.55394055  0.61302597 -3.48871783
   8.94818775  0.61302597 -3.48871783
   5.79350349 -0.02144115 -4.03237865
  14.18775070 -0.03143461 -4.03201715
   4.85765589  7.53946136 -1.03917182
  13.25190310  7.53946136 -1.03917182
   5.96397640  5.90128244 -1.16164705
  14.35822361  5.90128244 -1.16164705
   3.53659131  1.03538593-10.04089909
  11.93083852  1.03538593-10.04089909
   6.62739441  0.74759889 -0.97521919
  15.02164161  0.74759889 -0.97521919
   1.59637989  3.45259836 -6.86162589
   9.99062710  3.45259836 -6.86162589
   0.93493047  2.32137108 -8.43713261
   9.32917768  2.32137108 -8.43713261
   7.54087046  6.27930451 -8.59076190
  15.93511767  6.27930451 -8.59076190
   2.60074371  8.60628190 -7.04805376
  10.99499092  8.60628190 -7.04805376
   7.73371492  2.38577782 -0.85274396
  16.12796212  2.38577782 -0.85274396
   0.66053229  6.18906947-10.22732695
   9.05477950  6.18906947-10.22732695
   6.79786731  5.12224893 -4.21844502
  15.19211452  5.12224893 -4.21844502
   5.22552259  6.13202978 -5.06064529
  13.61976980  6.13202978 -5.06064529



--------------------------------------------------------------------------------------------------------


 k-point   1 :   0.0000 0.0000 0.0000  plane waves:   50179
 k-point   2 :   0.5000 0.0000 0.0000  plane waves:   50160
 k-point   3 :   0.0000 0.5000 0.0000  plane waves:   50162
 k-point   4 :   0.5000 0.5000 0.0000  plane waves:   50192
 k-point   5 :   0.0000 0.0000 0.5000  plane waves:   50190
 k-point   6 :   0.5000 0.0000 0.5000  plane waves:   50190
 k-point   7 :   0.0000 0.5000 0.5000  plane waves:   50172
 k-point   8 :   0.5000 0.5000 0.5000  plane waves:   50200

 maximum and minimum number of plane-waves per node :     50200    50160

 maximum number of plane-waves:     50200
 maximum index in each direction: 
   IXMAX=   19   IYMAX=   31   IZMAX=   20
   IXMIN=  -19   IYMIN=  -31   IZMIN=  -20


 serial   3D FFT for wavefunctions
 parallel 3D FFT for charge:
    minimum data exchange during FFTs selected (reduces bandwidth)


 total amount of memory used by VASP MPI-rank0   322725. kBytes
=======================================================================

   base      :      30000. kBytes
   nonl-proj :      70692. kBytes
   fftplans  :      34504. kBytes
   grid      :      83442. kBytes
   one-center:        344. kBytes
   wavefun   :     103743. kBytes

     INWAV:  cpu time      0.0000: real time      0.0002
 Broyden mixing: mesh for mixing (old mesh)
   NGX = 39   NGY = 63   NGZ = 41
  (NGX  =160   NGY  =252   NGZ  =168)
  gives a total of 100737 points

 initial charge density was supplied:
 charge density of overlapping atoms calculated
 number of electron     336.0000000 magnetization      56.0000000
 keeping initial charge density in first step


--------------------------------------------------------------------------------------------------------


 Maximum index for augmentation-charges         3947 (set IRDMAX)


--------------------------------------------------------------------------------------------------------


 First call to EWALD:  gamma=   0.144
 Maximum number of real-space cells 3x 2x 3
 Maximum number of reciprocal cells 2x 4x 2

    FEWALD:  cpu time      0.0027: real time      0.0027


--------------------------------------- Iteration      1(   1)  ---------------------------------------


    POTLOK:  cpu time      0.6915: real time      0.6948
    SETDIJ:  cpu time      9.1473: real time      9.1769
     EDDAV:  cpu time     57.4400: real time     57.6298
 BZINTS: Fermi energy:   10.166610;  336.000000 electrons
         Band energy: 0.225060E+03;  BLOECHL correction:   -0.008978
       DOS:  cpu time      0.0713: real time      0.0715
    --------------------------------------------
      LOOP:  cpu time     67.3501: real time     67.5731

 eigenvalue-minimisations  :  8192
 total energy-change (2. order) : 0.2106337E+04  (-0.1330937E+05)
 number of electron     336.0000000 magnetization      56.0000000
 augmentation part      336.0000000 magnetization      56.0000000

 Free energy of the ion-electron system (eV)
  ---------------------------------------------------
  alpha Z        PSCENC =       253.99581917
  Ewald energy   TEWEN  =     -9969.89998555
  -Hartree energ DENC   =     -4766.59732556
  -exchange      EXHF   =         0.00000000
  -V(xc)+E(xc)   XCENC  =       682.53227833
  PAW double counting   =     12174.71095765   -11995.46358648
  entropy T*S    EENTRO =         0.00000000
  eigenvalues    EBANDS =       225.05986620
  atomic energy  EATOM  =     15501.99929693
  Solvation  Ediel_sol  =         0.00000000
  ---------------------------------------------------
  free energy    TOTEN  =      2106.33732070 eV

  energy without entropy =     2106.33732070  energy(sigma->0) =     2106.33732070


--------------------------------------------------------------------------------------------------------




--------------------------------------- Iteration      1(   2)  ---------------------------------------


     EDDAV:  cpu time     58.8865: real time     59.1020
 BZINTS: Fermi energy:    1.451072;  336.000000 electrons
         Band energy:-0.187500E+04;  BLOECHL correction:    0.000000
       DOS:  cpu time      0.0282: real time      0.0282
    --------------------------------------------
      LOOP:  cpu time     58.9147: real time     59.1302

 eigenvalue-minimisations  : 10272
 total energy-change (2. order) :-0.2100055E+04  (-0.2021864E+04)
 number of electron     336.0000000 magnetization      56.0000000
 augmentation part      336.0000000 magnetization      56.0000000

 Free energy of the ion-electron system (eV)
  ---------------------------------------------------
  alpha Z        PSCENC =       253.99581917
  Ewald energy   TEWEN  =     -9969.89998555
  -Hartree energ DENC   =     -4766.59732556
  -exchange      EXHF   =         0.00000000
  -V(xc)+E(xc)   XCENC  =       682.53227833
  PAW double counting   =     12174.71095765   -11995.46358648
  entropy T*S    EENTRO =         0.00000000
  eigenvalues    EBANDS =     -1874.99506864
  atomic energy  EATOM  =     15501.99929693
  Solvation  Ediel_sol  =         0.00000000
  ---------------------------------------------------
  free energy    TOTEN  =         6.28238586 eV

  energy without entropy =        6.28238586  energy(sigma->0) =        6.28238586


--------------------------------------------------------------------------------------------------------




--------------------------------------- Iteration      1(   3)  ---------------------------------------


     EDDAV:  cpu time     66.1583: real time     66.4721
 BZINTS: Fermi energy:    0.220114;  336.000000 electrons
         Band energy:-0.209486E+04;  BLOECHL correction:    0.000000
       DOS:  cpu time      0.0347: real time      0.0348
    --------------------------------------------
      LOOP:  cpu time     66.1930: real time     66.5069

 eigenvalue-minimisations  : 10240
 total energy-change (2. order) :-0.2198606E+03  (-0.2171752E+03)
 number of electron     336.0000000 magnetization      56.0000000
 augmentation part      336.0000000 magnetization      56.0000000

 Free energy of the ion-electron system (eV)
  ---------------------------------------------------
  alpha Z        PSCENC =       253.99581917
  Ewald energy   TEWEN  =     -9969.89998555
  -Hartree energ DENC   =     -4766.59732556
  -exchange      EXHF   =         0.00000000
  -V(xc)+E(xc)   XCENC  =       682.53227833
  PAW double counting   =     12174.71095765   -11995.46358648
  entropy T*S    EENTRO =         0.00000000
  eigenvalues    EBANDS =     -2094.85570547
  atomic energy  EATOM  =     15501.99929693
  Solvation  Ediel_sol  =         0.00000000
  ---------------------------------------------------
  free energy    TOTEN  =      -213.57825097 eV

  energy without entropy =     -213.57825097  energy(sigma->0) =     -213.57825097


--------------------------------------------------------------------------------------------------------




--------------------------------------- Iteration      1(   4)  ---------------------------------------


     EDDAV:  cpu time     61.1432: real time     61.3151
 BZINTS: Fermi energy:    0.191705;  336.000000 electrons
         Band energy:-0.209975E+04;  BLOECHL correction:    0.000000
       DOS:  cpu time      0.0275: real time      0.0276
    --------------------------------------------
      LOOP:  cpu time     61.1707: real time     61.3426

 eigenvalue-minimisations  : 10336
 total energy-change (2. order) :-0.4898644E+01  (-0.4880290E+01)
 number of electron     336.0000000 magnetization      56.0000000
 augmentation part      336.0000000 magnetization      56.0000000

 Free energy of the ion-electron system (eV)
  ---------------------------------------------------
  alpha Z        PSCENC =       253.99581917
  Ewald energy   TEWEN  =     -9969.89998555
  -Hartree energ DENC   =     -4766.59732556
  -exchange      EXHF   =         0.00000000
  -V(xc)+E(xc)   XCENC  =       682.53227833
  PAW double counting   =     12174.71095765   -11995.46358648
  entropy T*S    EENTRO =         0.00000000
  eigenvalues    EBANDS =     -2099.75434914
  atomic energy  EATOM  =     15501.99929693
  Solvation  Ediel_sol  =         0.00000000
  ---------------------------------------------------
  free energy    TOTEN  =      -218.47689464 eV

  energy without entropy =     -218.47689464  energy(sigma->0) =     -218.47689464


--------------------------------------------------------------------------------------------------------




--------------------------------------- Iteration      1(   5)  ---------------------------------------


     EDDAV:  cpu time     62.0172: real time     62.2768
 BZINTS: Fermi energy:    0.191452;  336.000000 electrons
         Band energy:-0.209989E+04;  BLOECHL correction:    0.000000
       DOS:  cpu time      0.0283: real time      0.0284
    CHARGE:  cpu time      6.0295: real time      6.0370
    MIXING:  cpu time      0.0126: real time      0.0126
    --------------------------------------------
      LOOP:  cpu time     68.0876: real time     68.3548

 eigenvalue-minimisations  : 10048
 total energy-change (2. order) :-0.1351035E+00  (-0.1350372E+00)
 number of electron     335.9999997 magnetization      44.9918631
 augmentation part      -47.3227176 magnetization      44.8832593

 Broyden mixing:
  rms(total) = 0.82923E+01    rms(broyden)= 0.82923E+01
  rms(prec ) = 0.83122E+01
  weight for this iteration     100.00

 Free energy of the ion-electron system (eV)
  ---------------------------------------------------
  alpha Z        PSCENC =       253.99581917
  Ewald energy   TEWEN  =     -9969.89998555
  -Hartree energ DENC   =     -4766.59732556
  -exchange      EXHF   =         0.00000000
  -V(xc)+E(xc)   XCENC  =       682.53227833
  PAW double counting   =     12174.71095765   -11995.46358648
  entropy T*S    EENTRO =         0.00000000
  eigenvalues    EBANDS =     -2099.88945266
  atomic energy  EATOM  =     15501.99929693
  Solvation  Ediel_sol  =         0.00000000
  ---------------------------------------------------
  free energy    TOTEN  =      -218.61199816 eV

  energy without entropy =     -218.61199816  energy(sigma->0) =     -218.61199816


--------------------------------------------------------------------------------------------------------




--------------------------------------- Iteration      1(   6)  ---------------------------------------


    POTLOK:  cpu time      0.4447: real time      0.4537
    SETDIJ:  cpu time      7.4445: real time      7.4673
     EDDAV:  cpu time     55.5123: real time     55.5897
 BZINTS: Fermi energy:    0.408504;  336.000000 electrons
         Band energy:-0.201436E+04;  BLOECHL correction:   -0.000000
       DOS:  cpu time      0.0276: real time      0.0276
    CHARGE:  cpu time     13.7370: real time     13.7636
    MIXING:  cpu time      0.0240: real time      0.0241
    --------------------------------------------
      LOOP:  cpu time     77.1901: real time     77.3260

 eigenvalue-minimisations  :  9632
 total energy-change (2. order) : 0.1022917E+03  (-0.2667628E+02)
 number of electron     335.9999997 magnetization      26.4787073
 augmentation part      -47.6487241 magnetization      27.5369173

 Broyden mixing:
  rms(total) = 0.49389E+01    rms(broyden)= 0.49389E+01
  rms(prec ) = 0.49612E+01
  weight for this iteration     100.00

 eigenvalues of (default mixing * dielectric matrix)
  average eigenvalue GAMMA=   1.6680
  1.6680

 Free energy of the ion-electron system (eV)
  ---------------------------------------------------
  alpha Z        PSCENC =       253.99581917
  Ewald energy   TEWEN  =     -9969.89998555
  -Hartree energ DENC   =     -4810.96005581
  -exchange      EXHF   =         0.00000000
  -V(xc)+E(xc)   XCENC  =       746.12956025
  PAW double counting   =     20735.87761711   -20559.10116394
  entropy T*S    EENTRO =         0.00000000
  eigenvalues    EBANDS =     -2014.36141694
  atomic energy  EATOM  =     15501.99929693
  Solvation  Ediel_sol  =         0.00000000
  ---------------------------------------------------
  free energy    TOTEN  =      -116.32032879 eV

  energy without entropy =     -116.32032879  energy(sigma->0) =     -116.32032879


--------------------------------------------------------------------------------------------------------




--------------------------------------- Iteration      1(   7)  ---------------------------------------


    POTLOK:  cpu time      0.6070: real time      0.6130
    SETDIJ:  cpu time      2.6439: real time      2.6510
     EDDAV:  cpu time     63.8107: real time     63.8657
 BZINTS: Fermi energy:    0.738159;  336.000000 electrons
         Band energy:-0.186784E+04;  BLOECHL correction:   -0.000000
       DOS:  cpu time      0.0461: real time      0.0461
    CHARGE:  cpu time      3.6714: real time      3.6720
    MIXING:  cpu time      0.0151: real time      0.0151
    --------------------------------------------
      LOOP:  cpu time     70.7942: real time     70.8630

 eigenvalue-minimisations  : 10144
 total energy-change (2. order) :-0.1115375E+02  (-0.2697468E+01)
 number of electron     335.9999997 magnetization      19.7286980
 augmentation part      -47.3158337 magnetization      20.9341376

 Broyden mixing:
  rms(total) = 0.14019E+01    rms(broyden)= 0.14019E+01
  rms(prec ) = 0.14056E+01
  weight for this iteration     100.00

 eigenvalues of (default mixing * dielectric matrix)
  average eigenvalue GAMMA=   1.4837
  0.7882  2.1793

 Free energy of the ion-electron system (eV)
  ---------------------------------------------------
  alpha Z        PSCENC =       253.99581917
  Ewald energy   TEWEN  =     -9969.89998555
  -Hartree energ DENC   =     -4970.56236625
  -exchange      EXHF   =         0.00000000
  -V(xc)+E(xc)   XCENC  =       751.47027172
  PAW double counting   =     37063.82384469   -36890.46383634
  entropy T*S    EENTRO =         0.00000000
  eigenvalues    EBANDS =     -1867.83711903
  atomic energy  EATOM  =     15501.99929693
  Solvation  Ediel_sol  =         0.00000000
  ---------------------------------------------------
  free energy    TOTEN  =      -127.47407466 eV

  energy without entropy =     -127.47407466  energy(sigma->0) =     -127.47407466


--------------------------------------------------------------------------------------------------------




--------------------------------------- Iteration      1(   8)  ---------------------------------------


    POTLOK:  cpu time      0.4828: real time      0.4837
    SETDIJ:  cpu time     14.0364: real time     14.0542
     EDDAV:  cpu time     59.4244: real time     60.0229
 BZINTS: Fermi energy:    0.705804;  336.000000 electrons
         Band energy:-0.185542E+04;  BLOECHL correction:    0.000000
       DOS:  cpu time      0.0270: real time      0.0271
    CHARGE:  cpu time      6.8718: real time      6.8786
    MIXING:  cpu time      0.0181: real time      0.0181
    --------------------------------------------
      LOOP:  cpu time     80.8604: real time     81.4846

 eigenvalue-minimisations  :  9312
 total energy-change (2. order) :-0.4267509E+02  (-0.1971713E+01)
 number of electron     335.9999997 magnetization      16.0570052
 augmentation part      -47.0120437 magnetization      17.1015781

 Broyden mixing:
  rms(total) = 0.78378E+00    rms(broyden)= 0.78378E+00
  rms(prec ) = 0.78891E+00
  weight for this iteration     100.00

 eigenvalues of (default mixing * dielectric matrix)
  average eigenvalue GAMMA=   1.3390
  2.4912  0.9433  0.5825

 Free energy of the ion-electron system (eV)
  ---------------------------------------------------
  alpha Z        PSCENC =       253.99581917
  Ewald energy   TEWEN  =     -9969.89998555
  -Hartree energ DENC   =     -5000.02193285
  -exchange      EXHF   =         0.00000000
  -V(xc)+E(xc)   XCENC  =       726.60911021
  PAW double counting   =     40197.59531896   -40025.00205829
  entropy T*S    EENTRO =         0.00000000
  eigenvalues    EBANDS =     -1855.42473734
  atomic energy  EATOM  =     15501.99929693
  Solvation  Ediel_sol  =         0.00000000
  ---------------------------------------------------
  free energy    TOTEN  =      -170.14916875 eV

  energy without entropy =     -170.14916875  energy(sigma->0) =     -170.14916875


--------------------------------------------------------------------------------------------------------




--------------------------------------- Iteration      1(   9)  ---------------------------------------


    POTLOK:  cpu time      0.5182: real time      0.5200
    SETDIJ:  cpu time      5.2358: real time      5.2405
     EDDAV:  cpu time     62.0421: real time     62.1121
 BZINTS: Fermi energy:    0.628136;  336.000000 electrons
         Band energy:-0.186667E+04;  BLOECHL correction:    0.000000
       DOS:  cpu time      0.0270: real time      0.0271
    CHARGE:  cpu time      3.6455: real time      3.6463
    MIXING:  cpu time      0.0198: real time      0.0198
    --------------------------------------------
      LOOP:  cpu time     71.4884: real time     71.5658

 eigenvalue-minimisations  : 10240
 total energy-change (2. order) :-0.1682738E+02  (-0.6454270E+00)
 number of electron     335.9999997 magnetization      11.5294395
 augmentation part      -46.9151034 magnetization      12.3670669

 Broyden mixing:
  rms(total) = 0.43645E+00    rms(broyden)= 0.43645E+00
  rms(prec ) = 0.44852E+00
  weight for this iteration     100.00

 eigenvalues of (default mixing * dielectric matrix)
  average eigenvalue GAMMA=   1.3243
  2.5747  1.3003  0.7110  0.7110

 Free energy of the ion-electron system (eV)
  ---------------------------------------------------
  alpha Z        PSCENC =       253.99581917
  Ewald energy   TEWEN  =     -9969.89998555
  -Hartree energ DENC   =     -4996.26171936
  -exchange      EXHF   =         0.00000000
  -V(xc)+E(xc)   XCENC  =       717.24223084
  PAW double counting   =     40982.78795525   -40810.17486239
  entropy T*S    EENTRO =         0.00000000
  eigenvalues    EBANDS =     -1866.66528461
  atomic energy  EATOM  =     15501.99929693
  Solvation  Ediel_sol  =         0.00000000
  ---------------------------------------------------
  free energy    TOTEN  =      -186.97654972 eV

  energy without entropy =     -186.97654972  energy(sigma->0) =     -186.97654972


--------------------------------------------------------------------------------------------------------




--------------------------------------- Iteration      1(  10)  ---------------------------------------


    POTLOK:  cpu time      0.4621: real time      0.4628
    SETDIJ:  cpu time      7.6809: real time      7.7239
     EDDAV:  cpu time     66.2010: real time     71.3213
 BZINTS: Fermi energy:    0.474680;  336.000000 electrons
         Band energy:-0.190120E+04;  BLOECHL correction:    0.000000
       DOS:  cpu time      0.0388: real time      0.0388
    CHARGE:  cpu time      7.6049: real time      8.3974
    MIXING:  cpu time      0.0114: real time      0.0114
    --------------------------------------------
      LOOP:  cpu time     81.9990: real time     87.9557

 eigenvalue-minimisations  :  9984
 total energy-change (2. order) :-0.2005523E+02  (-0.1301839E+01)
 number of electron     335.9999997 magnetization       5.3073742
 augmentation part      -46.8734538 magnetization       5.8418385

 Broyden mixing:
  rms(total) = 0.32401E+00    rms(broyden)= 0.32401E+00
  rms(prec ) = 0.33697E+00
  weight for this iteration     100.00

 eigenvalues of (default mixing * dielectric matrix)
  average eigenvalue GAMMA=   1.4491
  2.4864  2.4864  0.9413  0.7292  0.6021

 Free energy of the ion-electron system (eV)
  ---------------------------------------------------
  alpha Z        PSCENC =       253.99581917
  Ewald energy   TEWEN  =     -9969.89998555
  -Hartree energ DENC   =     -4970.85665538
  -exchange      EXHF   =         0.00000000
  -V(xc)+E(xc)   XCENC  =       705.66651560
  PAW double counting   =     40990.46932797   -40817.20136577
  entropy T*S    EENTRO =         0.00000000
  eigenvalues    EBANDS =     -1901.20472901
  atomic energy  EATOM  =     15501.99929693
  Solvation  Ediel_sol  =         0.00000000
  ---------------------------------------------------
  free energy    TOTEN  =      -207.03177604 eV

  energy without entropy =     -207.03177604  energy(sigma->0) =     -207.03177604


--------------------------------------------------------------------------------------------------------




--------------------------------------- Iteration      1(  11)  ---------------------------------------


    POTLOK:  cpu time      0.4971: real time      0.4982
    SETDIJ:  cpu time      7.3969: real time      7.4311
     EDDAV:  cpu time     68.2547: real time     68.4028
 BZINTS: Fermi energy:    0.257165;  336.000000 electrons
         Band energy:-0.195856E+04;  BLOECHL correction:    0.000000
       DOS:  cpu time      0.0440: real time      0.0440
    CHARGE:  cpu time      9.0175: real time      9.0195
    MIXING:  cpu time      0.0140: real time      0.0140
    --------------------------------------------
      LOOP:  cpu time     85.2241: real time     85.4096

 eigenvalue-minimisations  :  9920
 total energy-change (2. order) :-0.1784321E+02  (-0.2163880E+01)
 number of electron     335.9999997 magnetization       3.5715185
 augmentation part      -46.9050715 magnetization       3.7548290

 Broyden mixing:
  rms(total) = 0.18648E+00    rms(broyden)= 0.18648E+00
  rms(prec ) = 0.20018E+00
  weight for this iteration     100.00

 eigenvalues of (default mixing * dielectric matrix)
  average eigenvalue GAMMA=   1.4668
  2.7973  2.7973  1.0272  0.8890  0.6995  0.5903

 Free energy of the ion-electron system (eV)
  ---------------------------------------------------
  alpha Z        PSCENC =       253.99581917
  Ewald energy   TEWEN  =     -9969.89998555
  -Hartree energ DENC   =     -4921.29289297
  -exchange      EXHF   =         0.00000000
  -V(xc)+E(xc)   XCENC  =       694.55966852
  PAW double counting   =     40417.88114194   -40243.55414190
  entropy T*S    EENTRO =         0.00000000
  eigenvalues    EBANDS =     -1958.56389299
  atomic energy  EATOM  =     15501.99929693
  Solvation  Ediel_sol  =         0.00000000
  ---------------------------------------------------
  free energy    TOTEN  =      -224.87498684 eV

  energy without entropy =     -224.87498684  energy(sigma->0) =     -224.87498684


--------------------------------------------------------------------------------------------------------




--------------------------------------- Iteration      1(  12)  ---------------------------------------


    POTLOK:  cpu time      0.5716: real time      0.5725
    SETDIJ:  cpu time      7.7404: real time      7.7476
     EDDAV:  cpu time     61.6045: real time     61.7275
 BZINTS: Fermi energy:    0.183899;  336.000000 electrons
         Band energy:-0.197923E+04;  BLOECHL correction:    0.000000
       DOS:  cpu time      0.0425: real time      0.0426
    CHARGE:  cpu time      8.2672: real time      8.2705
    MIXING:  cpu time      0.0145: real time      0.0145
    --------------------------------------------
      LOOP:  cpu time     78.2406: real time     78.3751

 eigenvalue-minimisations  : 10080
 total energy-change (2. order) :-0.3388700E+01  (-0.3881499E+00)
 number of electron     335.9999997 magnetization       2.3912486
 augmentation part      -46.9151878 magnetization       2.4743251

 Broyden mixing:
  rms(total) = 0.15964E+00    rms(broyden)= 0.15964E+00
  rms(prec ) = 0.17218E+00
  weight for this iteration     100.00

 eigenvalues of (default mixing * dielectric matrix)
  average eigenvalue GAMMA=   1.4919
  3.1008  3.1008  1.0556  1.0556  0.7810  0.7810  0.5684

 Free energy of the ion-electron system (eV)
  ---------------------------------------------------
  alpha Z        PSCENC =       253.99581917
  Ewald energy   TEWEN  =     -9969.89998555
  -Hartree energ DENC   =     -4901.79461815
  -exchange      EXHF   =         0.00000000
  -V(xc)+E(xc)   XCENC  =       692.10496320
  PAW double counting   =     39985.15646179   -39810.59251606
  entropy T*S    EENTRO =         0.00000000
  eigenvalues    EBANDS =     -1979.23310822
  atomic energy  EATOM  =     15501.99929693
  Solvation  Ediel_sol  =         0.00000000
  ---------------------------------------------------
  free energy    TOTEN  =      -228.26368689 eV

  energy without entropy =     -228.26368689  energy(sigma->0) =     -228.26368689


--------------------------------------------------------------------------------------------------------




--------------------------------------- Iteration      1(  13)  ---------------------------------------


    POTLOK:  cpu time      0.4624: real time      0.4634
    SETDIJ:  cpu time      4.1839: real time      4.1860
     EDDAV:  cpu time     58.4345: real time     58.5575
 BZINTS: Fermi energy:    0.115938;  336.000000 electrons
         Band energy:-0.200167E+04;  BLOECHL correction:    0.000000
       DOS:  cpu time      0.0410: real time      0.0411
    CHARGE:  cpu time     12.1666: real time     12.1734
    MIXING:  cpu time      0.0125: real time      0.0571
    --------------------------------------------
      LOOP:  cpu time     75.3007: real time     75.4784

 eigenvalue-minimisations  :  9568
 total energy-change (2. order) :-0.1051971E+01  (-0.1335045E+00)
 number of electron     335.9999997 magnetization       0.8876385
 augmentation part      -46.9733886 magnetization       0.9136425

 Broyden mixing:
  rms(total) = 0.92996E-01    rms(broyden)= 0.92996E-01
  rms(prec ) = 0.99815E-01
  weight for this iteration     100.00

 eigenvalues of (default mixing * dielectric matrix)
  average eigenvalue GAMMA=   1.5516
  3.3226  3.3226  1.5834  1.2844  0.9275  0.6998  0.6998  0.5728

 Free energy of the ion-electron system (eV)
  ---------------------------------------------------
  alpha Z        PSCENC =       253.99581917
  Ewald energy   TEWEN  =     -9969.89998555
  -Hartree energ DENC   =     -4878.66842495
  -exchange      EXHF   =         0.00000000
  -V(xc)+E(xc)   XCENC  =       690.12316548
  PAW double counting   =     39164.61978913   -38989.81656821
  entropy T*S    EENTRO =         0.00000000
  eigenvalues    EBANDS =     -2001.66875040
  atomic energy  EATOM  =     15501.99929693
  Solvation  Ediel_sol  =         0.00000000
  ---------------------------------------------------
  free energy    TOTEN  =      -229.31565838 eV

  energy without entropy =     -229.31565838  energy(sigma->0) =     -229.31565838


--------------------------------------------------------------------------------------------------------




--------------------------------------- Iteration      1(  14)  ---------------------------------------


    POTLOK:  cpu time      0.5544: real time      0.5555
    SETDIJ:  cpu time      8.8343: real time      8.8426
     EDDAV:  cpu time     57.4568: real time     57.5099
 BZINTS: Fermi energy:    0.080216;  336.000000 electrons
         Band energy:-0.201215E+04;  BLOECHL correction:    0.000000
       DOS:  cpu time      0.0270: real time      0.0271
    CHARGE:  cpu time     11.0101: real time     11.0156
    MIXING:  cpu time      2.1448: real time      2.1471
    --------------------------------------------
      LOOP:  cpu time     80.0275: real time     80.0978

 eigenvalue-minimisations  :  8992
 total energy-change (2. order) :-0.6420055E-01  (-0.1622386E-01)
 number of electron     335.9999997 magnetization       0.4182484
 augmentation part      -47.0005212 magnetization       0.4252328

 Broyden mixing:
  rms(total) = 0.43711E-01    rms(broyden)= 0.43711E-01
  rms(prec ) = 0.46413E-01
  weight for this iteration     100.00

 eigenvalues of (default mixing * dielectric matrix)
  average eigenvalue GAMMA=   1.5786
  4.1295  2.5573  2.5573  1.0965  1.0965  0.7713  0.7713  0.5753  0.6520

 Free energy of the ion-electron system (eV)
  ---------------------------------------------------
  alpha Z        PSCENC =       253.99581917
  Ewald energy   TEWEN  =     -9969.89998555
  -Hartree energ DENC   =     -4867.29539999
  -exchange      EXHF   =         0.00000000
  -V(xc)+E(xc)   XCENC  =       689.21005332
  PAW double counting   =     39103.63998626   -38928.88183391
  entropy T*S    EENTRO =         0.00000000
  eigenvalues    EBANDS =     -2012.14779516
  atomic energy  EATOM  =     15501.99929693
  Solvation  Ediel_sol  =         0.00000000
  ---------------------------------------------------
  free energy    TOTEN  =      -229.37985893 eV

  energy without entropy =     -229.37985893  energy(sigma->0) =     -229.37985893


--------------------------------------------------------------------------------------------------------




--------------------------------------- Iteration      1(  15)  ---------------------------------------


    POTLOK:  cpu time      0.4824: real time      0.4902
    SETDIJ:  cpu time      4.9572: real time      4.9681
     EDDAV:  cpu time     57.4730: real time     57.5906
 BZINTS: Fermi energy:    0.078528;  336.000000 electrons
         Band energy:-0.201183E+04;  BLOECHL correction:    0.000000
       DOS:  cpu time      0.0440: real time      0.0442
    CHARGE:  cpu time     14.2033: real time     14.2135
    MIXING:  cpu time      0.0145: real time      0.0145
    --------------------------------------------
      LOOP:  cpu time     77.1745: real time     77.3212

 eigenvalue-minimisations  :  9600
 total energy-change (2. order) : 0.1287732E-02  (-0.2081897E-02)
 number of electron     335.9999997 magnetization       0.1721195
 augmentation part      -46.9943518 magnetization       0.1764210

 Broyden mixing:
  rms(total) = 0.20208E-01    rms(broyden)= 0.20208E-01
  rms(prec ) = 0.21783E-01
  weight for this iteration     100.00

 eigenvalues of (default mixing * dielectric matrix)
  average eigenvalue GAMMA=   1.5649
  4.5534  2.5272  2.5272  1.3364  0.9966  0.9966  0.7588  0.7588  0.6240  0.5697

 Free energy of the ion-electron system (eV)
  ---------------------------------------------------
  alpha Z        PSCENC =       253.99581917
  Ewald energy   TEWEN  =     -9969.89998555
  -Hartree energ DENC   =     -4867.48329709
  -exchange      EXHF   =         0.00000000
  -V(xc)+E(xc)   XCENC  =       689.17293583
  PAW double counting   =     39189.54792887   -39014.87702690
  entropy T*S    EENTRO =         0.00000000
  eigenvalues    EBANDS =     -2011.83424247
  atomic energy  EATOM  =     15501.99929693
  Solvation  Ediel_sol  =         0.00000000
  ---------------------------------------------------
  free energy    TOTEN  =      -229.37857120 eV

  energy without entropy =     -229.37857120  energy(sigma->0) =     -229.37857120


--------------------------------------------------------------------------------------------------------




--------------------------------------- Iteration      1(  16)  ---------------------------------------


    POTLOK:  cpu time      0.4406: real time      0.4411
    SETDIJ:  cpu time     10.0548: real time     10.0911
     EDDAV:  cpu time     60.9355: real time     61.0100
 BZINTS: Fermi energy:    0.076637;  336.000000 electrons
         Band energy:-0.201230E+04;  BLOECHL correction:    0.000000
       DOS:  cpu time      0.0291: real time      0.0292
    CHARGE:  cpu time      7.9812: real time      7.9874
    MIXING:  cpu time      0.0165: real time      0.0165
    --------------------------------------------
      LOOP:  cpu time     79.4578: real time     79.5753

 eigenvalue-minimisations  :  9152
 total energy-change (2. order) : 0.3112316E-02  (-0.5514043E-03)
 number of electron     335.9999997 magnetization       0.0698766
 augmentation part      -46.9932200 magnetization       0.0706703

 Broyden mixing:
  rms(total) = 0.12324E-01    rms(broyden)= 0.12324E-01
  rms(prec ) = 0.13336E-01
  weight for this iteration     100.00

 eigenvalues of (default mixing * dielectric matrix)
  average eigenvalue GAMMA=   1.5466
  4.7572  2.4281  2.4281  1.8404  0.9954  0.9954  0.9236  0.7283  0.7283  0.5814
  0.6063

 Free energy of the ion-electron system (eV)
  ---------------------------------------------------
  alpha Z        PSCENC =       253.99581917
  Ewald energy   TEWEN  =     -9969.89998555
  -Hartree energ DENC   =     -4866.91938243
  -exchange      EXHF   =         0.00000000
  -V(xc)+E(xc)   XCENC  =       689.10446740
  PAW double counting   =     39159.44079848   -38984.79369281
  entropy T*S    EENTRO =         0.00000000
  eigenvalues    EBANDS =     -2012.30278008
  atomic energy  EATOM  =     15501.99929693
  Solvation  Ediel_sol  =         0.00000000
  ---------------------------------------------------
  free energy    TOTEN  =      -229.37545888 eV

  energy without entropy =     -229.37545888  energy(sigma->0) =     -229.37545888


--------------------------------------------------------------------------------------------------------




--------------------------------------- Iteration      1(  17)  ---------------------------------------


    POTLOK:  cpu time      0.6031: real time      0.6042
    SETDIJ:  cpu time      2.7042: real time      2.7083
     EDDAV:  cpu time     59.3515: real time     59.4497
 BZINTS: Fermi energy:    0.078692;  336.000000 electrons
         Band energy:-0.201137E+04;  BLOECHL correction:    0.000000
       DOS:  cpu time      0.0262: real time      0.0263
    CHARGE:  cpu time     13.3638: real time     13.4171
    MIXING:  cpu time      0.0173: real time      0.0173
    --------------------------------------------
      LOOP:  cpu time     76.0661: real time     76.2229

 eigenvalue-minimisations  :  9472
 total energy-change (2. order) :-0.5032874E-03  (-0.1195113E-03)
 number of electron     335.9999997 magnetization       0.0178449
 augmentation part      -46.9881459 magnetization       0.0182467

 Broyden mixing:
  rms(total) = 0.49279E-02    rms(broyden)= 0.49279E-02
  rms(prec ) = 0.55272E-02
  weight for this iteration     100.00

 eigenvalues of (default mixing * dielectric matrix)
  average eigenvalue GAMMA=   1.5761
  4.9478  2.6015  2.6015  2.2021  1.1768  0.9961  0.9961  0.7616  0.7616  0.6826
  0.5892  0.5958

 Free energy of the ion-electron system (eV)
  ---------------------------------------------------
  alpha Z        PSCENC =       253.99581917
  Ewald energy   TEWEN  =     -9969.89998555
  -Hartree energ DENC   =     -4867.88380663
  -exchange      EXHF   =         0.00000000
  -V(xc)+E(xc)   XCENC  =       689.16453469
  PAW double counting   =     39200.38554019   -39025.76272180
  entropy T*S    EENTRO =         0.00000000
  eigenvalues    EBANDS =     -2011.37463918
  atomic energy  EATOM  =     15501.99929693
  Solvation  Ediel_sol  =         0.00000000
  ---------------------------------------------------
  free energy    TOTEN  =      -229.37596217 eV

  energy without entropy =     -229.37596217  energy(sigma->0) =     -229.37596217


--------------------------------------------------------------------------------------------------------




--------------------------------------- Iteration      1(  18)  ---------------------------------------


    POTLOK:  cpu time      0.4586: real time      0.4659
    SETDIJ:  cpu time     15.4289: real time     15.4599
     EDDAV:  cpu time     58.0488: real time     59.6596
 BZINTS: Fermi energy:    0.079748;  336.000000 electrons
         Band energy:-0.201085E+04;  BLOECHL correction:    0.000000
       DOS:  cpu time      0.0327: real time      0.0328
    CHARGE:  cpu time      9.6716: real time      9.7123
    MIXING:  cpu time      0.0171: real time      0.0178
    --------------------------------------------
      LOOP:  cpu time     83.6577: real time     85.3483

 eigenvalue-minimisations  :  9536
 total energy-change (2. order) :-0.1163802E-03  (-0.3950539E-04)
 number of electron     335.9999997 magnetization       0.0051937
 augmentation part      -46.9848116 magnetization       0.0057346

 Broyden mixing:
  rms(total) = 0.44534E-02    rms(broyden)= 0.44534E-02
  rms(prec ) = 0.47054E-02
  weight for this iteration     100.00

 eigenvalues of (default mixing * dielectric matrix)
  average eigenvalue GAMMA=   1.5445
  5.0019  2.6452  2.6452  2.2643  1.1299  1.1299  0.9908  0.9908  0.7251  0.7251
  0.5790  0.6449  0.6063

 Free energy of the ion-electron system (eV)
  ---------------------------------------------------
  alpha Z        PSCENC =       253.99581917
  Ewald energy   TEWEN  =     -9969.89998555
  -Hartree energ DENC   =     -4868.42700068
  -exchange      EXHF   =         0.00000000
  -V(xc)+E(xc)   XCENC  =       689.19980503
  PAW double counting   =     39229.12538945   -39054.51739563
  entropy T*S    EENTRO =         0.00000000
  eigenvalues    EBANDS =     -2010.85200727
  atomic energy  EATOM  =     15501.99929693
  Solvation  Ediel_sol  =         0.00000000
  ---------------------------------------------------
  free energy    TOTEN  =      -229.37607855 eV

  energy without entropy =     -229.37607855  energy(sigma->0) =     -229.37607855


--------------------------------------------------------------------------------------------------------




--------------------------------------- Iteration      1(  19)  ---------------------------------------


    POTLOK:  cpu time      0.5845: real time      0.5871
    SETDIJ:  cpu time      2.9114: real time      2.9210
     EDDAV:  cpu time     69.1905: real time     69.4889
 BZINTS: Fermi energy:    0.079163;  336.000000 electrons
         Band energy:-0.201111E+04;  BLOECHL correction:    0.000000
       DOS:  cpu time      0.0263: real time      0.0263
    CHARGE:  cpu time      5.0046: real time      5.0147
    MIXING:  cpu time      0.0159: real time      0.0159
    --------------------------------------------
      LOOP:  cpu time     77.7331: real time     78.0539

 eigenvalue-minimisations  :  9728
 total energy-change (2. order) :-0.5841830E-05  (-0.6212337E-05)
 number of electron     335.9999997 magnetization      -0.0005252
 augmentation part      -46.9856467 magnetization      -0.0002837

 Broyden mixing:
  rms(total) = 0.20212E-02    rms(broyden)= 0.20211E-02
  rms(prec ) = 0.21957E-02
  weight for this iteration     100.00

 eigenvalues of (default mixing * dielectric matrix)
  average eigenvalue GAMMA=   1.5454
  5.0452  2.7070  2.7070  2.1096  1.4074  1.4074  1.0329  1.0329  0.8583  0.7537
  0.7537  0.5805  0.6089  0.6314

 Free energy of the ion-electron system (eV)
  ---------------------------------------------------
  alpha Z        PSCENC =       253.99581917
  Ewald energy   TEWEN  =     -9969.89998555
  -Hartree energ DENC   =     -4868.15286764
  -exchange      EXHF   =         0.00000000
  -V(xc)+E(xc)   XCENC  =       689.18291638
  PAW double counting   =     39227.76761731   -39053.15647414
  entropy T*S    EENTRO =         0.00000000
  eigenvalues    EBANDS =     -2011.11240686
  atomic energy  EATOM  =     15501.99929693
  Solvation  Ediel_sol  =         0.00000000
  ---------------------------------------------------
  free energy    TOTEN  =      -229.37608439 eV

  energy without entropy =     -229.37608439  energy(sigma->0) =     -229.37608439


--------------------------------------------------------------------------------------------------------




--------------------------------------- Iteration      1(  20)  ---------------------------------------


    POTLOK:  cpu time      2.4696: real time      2.4786
    SETDIJ:  cpu time     12.8235: real time     12.8473
     EDDAV:  cpu time     53.7282: real time     53.8262
 BZINTS: Fermi energy:    0.078471;  336.000000 electrons
         Band energy:-0.201125E+04;  BLOECHL correction:    0.000000
       DOS:  cpu time      0.0287: real time      0.0288
    CHARGE:  cpu time     12.0894: real time     12.1090
    MIXING:  cpu time      0.0209: real time      0.0210
    --------------------------------------------
      LOOP:  cpu time     81.1604: real time     81.3109

 eigenvalue-minimisations  :  9184
 total energy-change (2. order) :-0.1046671E-04  (-0.3470562E-05)
 number of electron     335.9999997 magnetization      -0.0016246
 augmentation part      -46.9861753 magnetization      -0.0015464

 Broyden mixing:
  rms(total) = 0.95170E-03    rms(broyden)= 0.95158E-03
  rms(prec ) = 0.10108E-02
  weight for this iteration     100.00

 eigenvalues of (default mixing * dielectric matrix)
  average eigenvalue GAMMA=   1.5470
  5.0951  2.7078  2.7078  2.1000  2.1000  1.2293  1.2293  0.9902  0.9902  0.7802
  0.7328  0.7328  0.5784  0.6158  0.6158

 Free energy of the ion-electron system (eV)
  ---------------------------------------------------
  alpha Z        PSCENC =       253.99581917
  Ewald energy   TEWEN  =     -9969.89998555
  -Hartree energ DENC   =     -4868.01034212
  -exchange      EXHF   =         0.00000000
  -V(xc)+E(xc)   XCENC  =       689.17592740
  PAW double counting   =     39232.94861165   -39058.33555892
  entropy T*S    EENTRO =         0.00000000
  eigenvalues    EBANDS =     -2011.24986341
  atomic energy  EATOM  =     15501.99929693
  Solvation  Ediel_sol  =         0.00000000
  ---------------------------------------------------
  free energy    TOTEN  =      -229.37609486 eV

  energy without entropy =     -229.37609486  energy(sigma->0) =     -229.37609486


--------------------------------------------------------------------------------------------------------




--------------------------------------- Iteration      1(  21)  ---------------------------------------


    POTLOK:  cpu time      0.4079: real time      0.4087
    SETDIJ:  cpu time      4.4311: real time      4.4315
     EDDAV:  cpu time     64.7004: real time     65.3591
 BZINTS: Fermi energy:    0.078343;  336.000000 electrons
         Band energy:-0.201131E+04;  BLOECHL correction:    0.000000
       DOS:  cpu time      0.0272: real time      0.0272
    CHARGE:  cpu time     14.4016: real time     14.5951
    MIXING:  cpu time      0.0166: real time      0.0166
    --------------------------------------------
      LOOP:  cpu time     83.9847: real time     84.8381

 eigenvalue-minimisations  :  9280
 total energy-change (2. order) : 0.1170149E-05  (-0.8878186E-06)
 number of electron     335.9999997 magnetization      -0.0013462
 augmentation part      -46.9863698 magnetization      -0.0013499

 Broyden mixing:
  rms(total) = 0.42441E-03    rms(broyden)= 0.42414E-03
  rms(prec ) = 0.44652E-03
  weight for this iteration     100.00

 eigenvalues of (default mixing * dielectric matrix)
  average eigenvalue GAMMA=   1.5119
  5.0969  2.6682  2.6682  2.5707  1.6136  1.4008  1.1549  1.1549  0.9279  0.9279
  0.7391  0.7391  0.7257  0.5781  0.6125  0.6125

 Free energy of the ion-electron system (eV)
  ---------------------------------------------------
  alpha Z        PSCENC =       253.99581917
  Ewald energy   TEWEN  =     -9969.89998555
  -Hartree energ DENC   =     -4867.95113918
  -exchange      EXHF   =         0.00000000
  -V(xc)+E(xc)   XCENC  =       689.17229680
  PAW double counting   =     39232.37343770   -39057.75957199
  entropy T*S    EENTRO =         0.00000000
  eigenvalues    EBANDS =     -2011.30624757
  atomic energy  EATOM  =     15501.99929693
  Solvation  Ediel_sol  =         0.00000000
  ---------------------------------------------------
  free energy    TOTEN  =      -229.37609369 eV

  energy without entropy =     -229.37609369  energy(sigma->0) =     -229.37609369


--------------------------------------------------------------------------------------------------------




--------------------------------------- Iteration      1(  22)  ---------------------------------------


    POTLOK:  cpu time      0.4288: real time      0.4373
    SETDIJ:  cpu time     14.8174: real time     14.8304
     EDDAV:  cpu time     55.9320: real time     56.0268
 BZINTS: Fermi energy:    0.078403;  336.000000 electrons
         Band energy:-0.201133E+04;  BLOECHL correction:    0.000000
       DOS:  cpu time      0.0271: real time      0.0271
    CHARGE:  cpu time     12.9955: real time     13.0207
    MIXING:  cpu time      1.5379: real time      1.5460
    --------------------------------------------
      LOOP:  cpu time     85.7386: real time     85.8883

 eigenvalue-minimisations  :  9824
 total energy-change (2. order) : 0.4539615E-06  (-0.1409094E-06)
 number of electron     335.9999997 magnetization      -0.0004715
 augmentation part      -46.9864390 magnetization      -0.0004932

 Broyden mixing:
  rms(total) = 0.23118E-03    rms(broyden)= 0.23068E-03
  rms(prec ) = 0.24535E-03
  weight for this iteration     100.00

 eigenvalues of (default mixing * dielectric matrix)
  average eigenvalue GAMMA=   1.5007
  5.0912  2.6567  2.6567  2.6237  1.6738  1.4408  1.4408  1.0823  1.0823  0.9002
  0.9002  0.7422  0.7422  0.6736  0.5793  0.6125  0.6125

 Free energy of the ion-electron system (eV)
  ---------------------------------------------------
  alpha Z        PSCENC =       253.99581917
  Ewald energy   TEWEN  =     -9969.89998555
  -Hartree energ DENC   =     -4867.92947596
  -exchange      EXHF   =         0.00000000
  -V(xc)+E(xc)   XCENC  =       689.17071518
  PAW double counting   =     39230.96134945   -39056.34717653
  entropy T*S    EENTRO =         0.00000000
  eigenvalues    EBANDS =     -2011.32663592
  atomic energy  EATOM  =     15501.99929693
  Solvation  Ediel_sol  =         0.00000000
  ---------------------------------------------------
  free energy    TOTEN  =      -229.37609324 eV

  energy without entropy =     -229.37609324  energy(sigma->0) =     -229.37609324


--------------------------------------------------------------------------------------------------------




--------------------------------------- Iteration      1(  23)  ---------------------------------------


    POTLOK:  cpu time      0.5532: real time      0.5542
    SETDIJ:  cpu time      6.7470: real time      6.7766
     EDDAV:  cpu time     55.0940: real time     55.2584
 BZINTS: Fermi energy:    0.078309;  336.000000 electrons
         Band energy:-0.201132E+04;  BLOECHL correction:    0.000000
       DOS:  cpu time      0.0263: real time      0.0263
    CHARGE:  cpu time     12.4552: real time     12.5422
    MIXING:  cpu time      1.6846: real time      1.6928
    --------------------------------------------
      LOOP:  cpu time     76.5603: real time     76.8504

 eigenvalue-minimisations  :  9216
 total energy-change (2. order) :-0.2310808E-06  (-0.5759233E-07)
 number of electron     335.9999997 magnetization      -0.0002603
 augmentation part      -46.9864113 magnetization      -0.0002564

 Broyden mixing:
[...]

  length of vectors
    10.314108670 16.788494411 10.846477853     0.097707938  0.059564603  0.092912216


 FORCES acting on ions
    electron-ion (+dipol)            ewald-force                    non-local-force                 convergence-correction
 -----------------------------------------------------------------------------------------------
   0.987E+02 -.105E+03 -.126E+02   -.104E+03 0.113E+03 0.113E+02   0.495E+01 -.888E+01 0.132E+01   0.175E-05 -.259E-06 0.644E-06
   0.986E+02 -.105E+03 -.125E+02   -.104E+03 0.113E+03 0.112E+02   0.495E+01 -.888E+01 0.132E+01   0.173E-05 -.224E-06 0.757E-06
   -.123E+02 0.420E+02 -.127E+03   0.125E+02 -.472E+02 0.134E+03   -.245E+00 0.519E+01 -.705E+01   -.339E-07 -.183E-07 -.154E-05
   -.124E+02 0.420E+02 -.127E+03   0.126E+02 -.472E+02 0.134E+03   -.246E+00 0.519E+01 -.705E+01   0.227E-06 0.511E-07 -.142E-05
   -.211E+02 -.902E+02 0.981E+02   0.198E+02 0.989E+02 -.103E+03   0.134E+01 -.874E+01 0.530E+01   -.136E-06 0.642E-07 0.203E-05
   -.211E+02 -.902E+02 0.981E+02   0.198E+02 0.989E+02 -.103E+03   0.134E+01 -.874E+01 0.530E+01   0.627E-07 -.414E-07 0.202E-05
   -.108E+03 0.950E+02 0.628E+01   0.114E+03 -.101E+03 -.417E+01   -.534E+01 0.592E+01 -.212E+01   -.183E-05 0.839E-07 0.724E-06
   -.108E+03 0.950E+02 0.625E+01   0.114E+03 -.101E+03 -.414E+01   -.534E+01 0.592E+01 -.212E+01   -.168E-05 0.730E-07 0.672E-06
   0.137E+03 -.539E+02 -.194E+02   -.144E+03 0.594E+02 0.200E+02   0.680E+01 -.546E+01 -.526E+00   0.147E-05 0.135E-06 -.967E-06
   0.136E+03 -.539E+02 -.187E+02   -.143E+03 0.595E+02 0.193E+02   0.680E+01 -.552E+01 -.558E+00   0.176E-05 0.523E-07 -.101E-05
   -.136E+03 0.540E+02 0.187E+02   0.143E+03 -.595E+02 -.192E+02   -.680E+01 0.552E+01 0.558E+00   -.169E-05 0.243E-07 0.106E-05
   -.136E+03 0.540E+02 0.187E+02   0.143E+03 -.595E+02 -.193E+02   -.680E+01 0.552E+01 0.558E+00   -.159E-05 -.304E-07 0.102E-05
   0.108E+03 -.951E+02 -.620E+01   -.114E+03 0.101E+03 0.408E+01   0.534E+01 -.592E+01 0.212E+01   0.154E-05 -.326E-07 -.603E-06
   0.108E+03 -.950E+02 -.625E+01   -.114E+03 0.101E+03 0.413E+01   0.534E+01 -.592E+01 0.212E+01   0.193E-05 -.279E-07 -.641E-06
   -.131E+02 -.419E+02 0.127E+03   0.133E+02 0.471E+02 -.134E+03   -.213E+00 -.513E+01 0.704E+01   0.110E-06 0.116E-06 0.857E-06
   -.124E+02 -.420E+02 0.127E+03   0.126E+02 0.472E+02 -.134E+03   -.246E+00 -.519E+01 0.705E+01   0.113E-06 0.123E-06 0.112E-05
   0.211E+02 -.902E+02 0.981E+02   -.198E+02 0.989E+02 -.103E+03   -.134E+01 -.874E+01 0.530E+01   -.235E-07 -.141E-06 0.210E-05
   0.211E+02 -.902E+02 0.981E+02   -.198E+02 0.989E+02 -.103E+03   -.134E+01 -.874E+01 0.530E+01   0.156E-06 -.375E-07 0.205E-05
   -.986E+02 -.105E+03 -.125E+02   0.104E+03 0.113E+03 0.112E+02   -.495E+01 -.888E+01 0.132E+01   -.181E-05 -.319E-06 0.618E-06
   -.987E+02 -.105E+03 -.125E+02   0.104E+03 0.113E+03 0.112E+02   -.495E+01 -.888E+01 0.132E+01   -.167E-05 -.276E-06 0.739E-06
   -.136E+03 -.541E+02 -.187E+02   0.143E+03 0.596E+02 0.192E+02   -.680E+01 -.552E+01 -.558E+00   -.152E-05 -.110E-06 -.940E-06
   -.136E+03 -.540E+02 -.187E+02   0.143E+03 0.595E+02 0.193E+02   -.680E+01 -.552E+01 -.558E+00   -.175E-05 -.111E-06 -.970E-06
   0.123E+02 0.420E+02 -.127E+03   -.126E+02 -.472E+02 0.134E+03   0.246E+00 0.519E+01 -.705E+01   -.191E-06 -.150E-07 -.140E-05
   0.124E+02 0.420E+02 -.127E+03   -.127E+02 -.472E+02 0.134E+03   0.246E+00 0.519E+01 -.705E+01   0.296E-07 -.967E-07 -.144E-05
   -.108E+03 -.950E+02 -.626E+01   0.114E+03 0.101E+03 0.414E+01   -.534E+01 -.592E+01 0.212E+01   -.185E-05 0.108E-06 -.655E-06
   -.109E+03 -.950E+02 -.628E+01   0.114E+03 0.101E+03 0.417E+01   -.534E+01 -.592E+01 0.212E+01   -.151E-05 0.139E-06 -.639E-06
   0.986E+02 0.104E+03 0.126E+02   -.104E+03 -.113E+03 -.112E+02   0.495E+01 0.888E+01 -.132E+01   0.153E-05 0.852E-07 -.906E-06
   0.987E+02 0.105E+03 0.125E+02   -.104E+03 -.113E+03 -.112E+02   0.495E+01 0.888E+01 -.132E+01   0.186E-05 0.201E-06 -.824E-06
   -.986E+02 0.105E+03 0.125E+02   0.104E+03 -.113E+03 -.112E+02   -.495E+01 0.888E+01 -.132E+01   -.186E-05 0.433E-06 -.887E-06
   -.987E+02 0.105E+03 0.125E+02   0.104E+03 -.114E+03 -.112E+02   -.494E+01 0.888E+01 -.131E+01   -.155E-05 0.349E-06 -.939E-06
   0.733E+02 0.964E+02 0.636E+02   -.760E+02 -.106E+03 -.657E+02   0.275E+01 0.968E+01 0.208E+01   0.798E-06 0.595E-06 0.292E-06
   0.728E+02 0.962E+02 0.633E+02   -.755E+02 -.106E+03 -.653E+02   0.274E+01 0.971E+01 0.207E+01   0.927E-06 0.521E-06 0.520E-06
   0.218E+02 -.938E+02 -.888E+02   -.205E+02 0.100E+03 0.939E+02   -.133E+01 -.628E+01 -.509E+01   0.183E-06 -.116E-07 -.117E-05
   0.218E+02 -.938E+02 -.889E+02   -.205E+02 0.100E+03 0.940E+02   -.133E+01 -.628E+01 -.509E+01   0.338E-06 0.311E-07 -.145E-05
   -.211E+02 0.901E+02 -.980E+02   0.198E+02 -.989E+02 0.103E+03   0.134E+01 0.874E+01 -.530E+01   -.117E-06 -.606E-07 -.152E-05
   -.211E+02 0.902E+02 -.981E+02   0.198E+02 -.989E+02 0.103E+03   0.134E+01 0.874E+01 -.530E+01   -.734E-07 -.464E-07 -.177E-05
   -.218E+02 0.938E+02 0.889E+02   0.205E+02 -.100E+03 -.940E+02   0.133E+01 0.628E+01 0.509E+01   -.435E-06 0.926E-08 0.177E-05
   -.218E+02 0.938E+02 0.889E+02   0.205E+02 -.100E+03 -.940E+02   0.133E+01 0.628E+01 0.509E+01   -.190E-06 0.485E-08 0.162E-05
   0.211E+02 0.903E+02 -.982E+02   -.198E+02 -.990E+02 0.103E+03   -.133E+01 0.874E+01 -.528E+01   0.212E-07 0.209E-06 -.160E-05
   0.211E+02 0.902E+02 -.981E+02   -.198E+02 -.989E+02 0.103E+03   -.134E+01 0.874E+01 -.530E+01   0.624E-07 0.158E-06 -.184E-05
   0.728E+02 -.962E+02 -.632E+02   -.755E+02 0.106E+03 0.653E+02   0.274E+01 -.971E+01 -.207E+01   0.848E-06 -.571E-06 -.691E-06
   0.728E+02 -.962E+02 -.632E+02   -.755E+02 0.106E+03 0.653E+02   0.274E+01 -.971E+01 -.207E+01   0.959E-06 -.480E-06 -.749E-06
   0.136E+03 0.539E+02 0.187E+02   -.143E+03 -.595E+02 -.193E+02   0.680E+01 0.552E+01 0.558E+00   0.165E-05 0.322E-08 0.104E-05
   0.136E+03 0.539E+02 0.187E+02   -.143E+03 -.595E+02 -.193E+02   0.680E+01 0.552E+01 0.558E+00   0.166E-05 0.603E-07 0.105E-05
   0.108E+03 0.950E+02 0.624E+01   -.114E+03 -.101E+03 -.413E+01   0.534E+01 0.592E+01 -.212E+01   0.175E-05 -.197E-06 0.757E-06
   0.108E+03 0.950E+02 0.625E+01   -.114E+03 -.101E+03 -.414E+01   0.534E+01 0.592E+01 -.212E+01   0.175E-05 -.177E-06 0.715E-06
   -.728E+02 -.961E+02 -.633E+02   0.756E+02 0.106E+03 0.654E+02   -.274E+01 -.971E+01 -.207E+01   -.959E-06 -.302E-06 -.772E-06
   -.728E+02 -.961E+02 -.633E+02   0.755E+02 0.106E+03 0.653E+02   -.274E+01 -.971E+01 -.207E+01   -.793E-06 -.393E-06 -.663E-06
   -.219E+02 -.938E+02 -.890E+02   0.205E+02 0.100E+03 0.940E+02   0.133E+01 -.628E+01 -.509E+01   -.250E-06 0.201E-06 -.116E-05
   -.218E+02 -.938E+02 -.889E+02   0.205E+02 0.100E+03 0.940E+02   0.133E+01 -.628E+01 -.509E+01   -.291E-06 0.185E-06 -.139E-05
   0.218E+02 0.938E+02 0.889E+02   -.205E+02 -.100E+03 -.940E+02   -.133E+01 0.628E+01 0.509E+01   0.240E-06 -.205E-06 0.165E-05
   0.218E+02 0.938E+02 0.889E+02   -.205E+02 -.100E+03 -.940E+02   -.133E+01 0.628E+01 0.509E+01   0.421E-06 -.226E-06 0.174E-05
   -.728E+02 0.960E+02 0.633E+02   0.755E+02 -.106E+03 -.653E+02   -.274E+01 0.971E+01 0.207E+01   -.853E-06 0.351E-06 0.308E-06
   -.728E+02 0.961E+02 0.633E+02   0.755E+02 -.106E+03 -.653E+02   -.274E+01 0.971E+01 0.207E+01   -.906E-06 0.316E-06 0.509E-06
   0.123E+02 -.422E+02 0.127E+03   -.126E+02 0.474E+02 -.134E+03   0.246E+00 -.519E+01 0.705E+01   -.185E-06 -.166E-06 0.920E-06
   0.124E+02 -.420E+02 0.127E+03   -.126E+02 0.472E+02 -.134E+03   0.246E+00 -.519E+01 0.705E+01   -.932E-07 -.900E-07 0.120E-05
 -----------------------------------------------------------------------------------------------
   -.572E-01 -.917E-01 -.478E-01   0.107E-12 0.924E-13 0.853E-13   0.572E-01 0.917E-01 0.478E-01   0.254E-08 0.170E-07 -.557E-07


 POSITION                                       TOTAL-FORCE (eV/Angst)
 -----------------------------------------------------------------------------------
      7.84031      7.96182     -7.59135         0.002377     -0.001697      0.000871
     16.23455      7.96182     -7.59135         0.002483     -0.001245      0.000970
      3.16872      2.44282     -6.01943         0.002131     -0.000943     -0.002583
     11.56297      2.44282     -6.01943         0.001982     -0.000817     -0.002644
      1.76685      7.82725    -10.10485        -0.000098      0.000041     -0.000388
     10.16110      7.82725    -10.10485        -0.000152     -0.000075     -0.000476
      5.05050      1.12562     -8.40433         0.001503     -0.000656     -0.000701
     13.44475      1.12562     -8.40433         0.001591     -0.000633     -0.000688
      5.13205      1.09979     -2.45651        -0.023483      0.063144      0.041308
     13.52630      1.09979     -2.45651        -0.000066      0.000443     -0.000286
      3.26219      7.47505     -8.62356         0.000150     -0.000428      0.000322
     11.65644      7.47505     -8.62356         0.000113     -0.000416      0.000267
      3.34375      7.44923     -2.67574        -0.001636      0.000279      0.000700
     11.73799      7.44923     -2.67574        -0.001598      0.000629      0.000683
      7.36585      0.97835     -4.87422         0.043878      0.058742     -0.026559
     15.76010      0.97835     -4.87422         0.002130      0.000891      0.002497
      2.43027      2.67356     -9.91842         0.000168     -0.000208     -0.000438
     10.82452      2.67356     -9.91842         0.000103     -0.000070     -0.000525
      4.75106      2.80814     -7.40493        -0.002466     -0.001123      0.000904
     13.14531      2.80814     -7.40493        -0.002393     -0.001284      0.000916
      7.45932      6.25348     -2.64294         0.000069      0.000633     -0.000265
     15.85356      6.25348     -2.64294         0.000104      0.000430     -0.000277
      1.02840      7.59650     -6.20585        -0.002108     -0.000870     -0.002496
      9.42265      7.59650     -6.20585        -0.002354     -0.000748     -0.002448
      0.85338      2.29554     -2.48931         0.001646      0.000662      0.000726
      9.24762      2.29554     -2.48931        -0.000496     -0.000172      0.000241
      3.64318      5.76671     -3.67515         0.002541      0.001455     -0.000761
     12.03743      5.76671     -3.67515         0.002476      0.001298     -0.000933
      0.55394      0.61303     -3.48872        -0.002528      0.001212     -0.000958
      8.94819      0.61303     -3.48872         0.005648     -0.004604      0.008878
      5.79350     -0.02144     -4.03238        -0.035152     -0.105879     -0.027776
     14.18775     -0.03143     -4.03202        -0.001202      0.001781      0.000237
      4.85766      7.53946     -1.03917        -0.004050      0.002133     -0.000472
     13.25190      7.53946     -1.03917        -0.003947      0.002052     -0.000269
      5.96398      5.90128     -1.16165         0.000007      0.000099      0.000479
     14.35822      5.90128     -1.16165        -0.000049     -0.000009      0.000459
      3.53659      1.03539    -10.04090         0.003830     -0.001785      0.000463
     11.93084      1.03539    -10.04090         0.003957     -0.002056      0.000261
      6.62739      0.74760     -0.97522         0.010493     -0.006145      0.008649
     15.02164      0.74760     -0.97522         0.000053     -0.000010      0.000463
      1.59638      3.45260     -6.86163        -0.001320     -0.001687     -0.000273
      9.99063      3.45260     -6.86163        -0.001006     -0.001690     -0.000351
      0.93493      2.32137     -8.43713        -0.000126     -0.000426      0.000321
      9.32918      2.32137     -8.43713        -0.000058     -0.000254      0.000481
      7.54087      6.27930     -8.59076        -0.001489     -0.000337     -0.000659
     15.93512      6.27930     -8.59076        -0.001545     -0.000611     -0.000707
      2.60074      8.60628     -7.04805         0.001141     -0.001800     -0.000297
     10.99499      8.60628     -7.04805         0.001344     -0.001772     -0.000244
      7.73371      2.38578     -0.85274         0.003212      0.001181     -0.002198
     16.12796      2.38578     -0.85274         0.003923      0.002041     -0.000271
      0.66053      6.18907    -10.22733        -0.003937     -0.002105      0.000209
      9.05478      6.18907    -10.22733        -0.003876     -0.002073      0.000252
      6.79787      5.12225     -4.21845         0.001029      0.001664      0.000033
     15.19211      5.12225     -4.21845         0.001219      0.001793      0.000234
      5.22552      6.13203     -5.06065        -0.002015      0.001155      0.002615
     13.61977      6.13203     -5.06065        -0.002150      0.000873      0.002509
 -----------------------------------------------------------------------------------
    total drift:                                0.000000     -0.000007      0.000000


--------------------------------------------------------------------------------------------------------



  FREE ENERGIE OF THE ION-ELECTRON SYSTEM (eV)
  ---------------------------------------------------
  free  energy   TOTEN  =      -229.37609327 eV

  energy  without entropy=     -229.37609327  energy(sigma->0) =     -229.37609327



--------------------------------------------------------------------------------------------------------


    POTLOK:  cpu time     13.1686: real time     13.2703


--------------------------------------------------------------------------------------------------------


     LOOP+:  cpu time   2582.6842: real time   2610.9843
    4ORBIT:  cpu time      0.0000: real time      0.0000



 total charge

# of ion       s       p       d       tot
------------------------------------------
    1        1.376   2.247   0.000   3.623
    2        1.376   2.247   0.000   3.623
    3        1.376   2.258   0.000   3.635
    4        1.376   2.258   0.000   3.635
    5        1.376   2.247   0.000   3.623
    6        1.376   2.247   0.000   3.623
    7        1.375   2.262   0.000   3.638
    8        1.375   2.262   0.000   3.638
    9        1.377   2.259   0.000   3.636
   10        1.377   2.257   0.000   3.634
   11        1.377   2.257   0.000   3.634
   12        1.377   2.257   0.000   3.634
   13        1.375   2.262   0.000   3.638
   14        1.375   2.262   0.000   3.638
   15        1.376   2.260   0.000   3.637
   16        1.376   2.258   0.000   3.635
   17        1.376   2.247   0.000   3.622
   18        1.376   2.247   0.000   3.623
   19        1.376   2.247   0.000   3.623
   20        1.376   2.247   0.000   3.623
   21        1.377   2.257   0.000   3.634
   22        1.377   2.257   0.000   3.634
   23        1.376   2.258   0.000   3.635
   24        1.376   2.258   0.000   3.635
   25        1.375   2.262   0.000   3.638
   26        1.375   2.262   0.000   3.638
   27        1.376   2.247   0.000   3.623
   28        1.376   2.247   0.000   3.623
   29        1.376   2.247   0.000   3.623
   30        1.376   2.247   0.000   3.623
   31        1.375   2.258   0.000   3.633
   32        1.376   2.254   0.000   3.630
   33        1.375   2.263   0.000   3.638
   34        1.375   2.263   0.000   3.638
   35        1.376   2.247   0.000   3.623
   36        1.376   2.247   0.000   3.623
   37        1.375   2.263   0.000   3.638
   38        1.375   2.263   0.000   3.638
   39        1.376   2.247   0.000   3.623
   40        1.376   2.247   0.000   3.623
   41        1.376   2.254   0.000   3.630
   42        1.376   2.254   0.000   3.630
   43        1.377   2.257   0.000   3.634
   44        1.377   2.257   0.000   3.634
   45        1.375   2.262   0.000   3.638
   46        1.375   2.262   0.000   3.638
   47        1.376   2.254   0.000   3.630
   48        1.376   2.254   0.000   3.630
   49        1.375   2.263   0.000   3.638
   50        1.375   2.263   0.000   3.638
   51        1.375   2.263   0.000   3.638
   52        1.375   2.263   0.000   3.638
   53        1.376   2.254   0.000   3.630
   54        1.376   2.254   0.000   3.630
   55        1.376   2.258   0.000   3.635
   56        1.376   2.258   0.000   3.635
--------------------------------------------------
tot         77.048 126.321   0.000 203.369



 magnetization (x)

# of ion       s       p       d       tot
------------------------------------------
    1        0.000   0.000   0.000   0.000
    2        0.000   0.000   0.000   0.000
    3        0.000   0.000   0.000   0.000
    4        0.000   0.000   0.000   0.000
    5        0.000   0.000   0.000   0.000
    6        0.000   0.000   0.000   0.000
    7        0.000   0.000   0.000   0.000
    8        0.000   0.000   0.000   0.000
    9        0.000   0.000   0.000   0.000
   10        0.000   0.000   0.000   0.000
   11        0.000   0.000   0.000   0.000
   12        0.000   0.000   0.000   0.000
   13        0.000   0.000   0.000   0.000
   14        0.000   0.000   0.000   0.000
   15        0.000   0.000   0.000   0.000
   16        0.000   0.000   0.000   0.000
   17        0.000   0.000   0.000   0.000
   18        0.000   0.000   0.000   0.000
   19        0.000   0.000   0.000   0.000
   20        0.000   0.000   0.000   0.000
   21        0.000   0.000   0.000   0.000
   22        0.000   0.000   0.000   0.000
   23        0.000   0.000   0.000   0.000
   24        0.000   0.000   0.000   0.000
   25        0.000   0.000   0.000   0.000
   26        0.000   0.000   0.000   0.000
   27        0.000   0.000   0.000   0.000
   28        0.000   0.000   0.000   0.000
   29        0.000   0.000   0.000   0.000
   30        0.000   0.000   0.000   0.000
   31        0.000   0.000   0.000   0.000
   32        0.000   0.000   0.000   0.000
   33        0.000   0.000   0.000   0.000
   34        0.000   0.000   0.000   0.000
   35        0.000  -0.000   0.000   0.000
   36        0.000   0.000   0.000   0.000
   37        0.000   0.000   0.000   0.000
   38        0.000   0.000   0.000   0.000
   39        0.000  -0.000   0.000   0.000
   40        0.000   0.000   0.000   0.000
   41        0.000   0.000   0.000   0.000
   42        0.000   0.000   0.000   0.000
   43        0.000   0.000   0.000   0.000
   44        0.000   0.000   0.000   0.000
   45        0.000   0.000   0.000   0.000
   46        0.000   0.000   0.000   0.000
   47        0.000   0.000   0.000   0.000
   48        0.000   0.000   0.000   0.000
   49        0.000   0.000   0.000   0.000
   50        0.000   0.000   0.000   0.000
   51        0.000   0.000   0.000   0.000
   52        0.000   0.000   0.000   0.000
   53        0.000   0.000   0.000   0.000
   54        0.000   0.000   0.000   0.000
   55        0.000   0.000   0.000   0.000
   56        0.000   0.000   0.000   0.000
--------------------------------------------------
tot          0.000   0.000   0.000   0.000

 BZINTS: Fermi energy:    0.078551;  336.000000 electrons
         Band energy:-0.201133E+04;  BLOECHL correction:    0.000000

 total amount of memory used by VASP MPI-rank0   322725. kBytes
=======================================================================

   base      :      30000. kBytes
   nonl-proj :      70692. kBytes
   fftplans  :      34504. kBytes
   grid      :      83442. kBytes
   one-center:        344. kBytes
   wavefun   :     103743. kBytes

  
  
 General timing and accounting informations for this job:
 ========================================================
  
                  Total CPU time used (sec):     2623.814
                            User time (sec):     2621.719
                          System time (sec):        2.096
                         Elapsed time (sec):     2653.682
  
                   Maximum memory used (kb):      602516.
                   Average memory used (kb):          N/A
  
                          Minor page faults:       819858
                          Major page faults:           24
                 Voluntary context switches:         4173
