       N       E                     dE             d eps       ncg     rms          rms(c)
DAV:   1     0.514856249548E+04    0.51486E+04   -0.22075E+05   624   0.163E+03
DAV:   2     0.452975938868E+03   -0.46956E+04   -0.45341E+04   633   0.441E+02
DAV:   3    -0.271900695102E+03   -0.72488E+03   -0.71442E+03   702   0.182E+02
DAV:   4    -0.320370998713E+03   -0.48470E+02   -0.47857E+02   672   0.421E+01
DAV:   5    -0.322491203561E+03   -0.21202E+01   -0.21155E+01   843   0.927E+00    0.270E+01
RMM:   6    -0.304704743973E+03    0.17786E+02   -0.30577E+01   640   0.593E+00    0.179E+01
RMM:   7    -0.303562927442E+03    0.11418E+01   -0.36036E+01   633   0.544E+00    0.112E+01
RMM:   8    -0.303445640010E+03    0.11729E+00   -0.30434E+00   744   0.297E+00    0.657E+00
RMM:   9    -0.303329119919E+03    0.11652E+00   -0.24559E+00   624   0.179E+00    0.255E+00
RMM:  10    -0.303122669343E+03    0.20645E+00   -0.23194E-01   691   0.102E+00    0.182E+00
RMM:  11    -0.303099370678E+03    0.23299E-01   -0.13343E-01   721   0.483E-01    0.124E+00
RMM:  12    -0.303088155185E+03    0.11215E-01   -0.67627E-02   744   0.327E-01    0.720E-01
RMM:  13    -0.303087798591E+03    0.35659E-03   -0.12983E-02   672   0.164E-01    0.564E-01
RMM:  14    -0.303093222323E+03   -0.54237E-02   -0.17539E-02   670   0.179E-01    0.316E-01
RMM:  15    -0.303092391058E+03    0.83127E-03   -0.38098E-03   681   0.955E-02    0.307E-01
RMM:  16    -0.303092136052E+03    0.25501E-03   -0.11784E-03   669   0.620E-02    0.155E-01
RMM:  17    -0.303092749572E+03   -0.61352E-03   -0.12839E-03   682   0.489E-02    0.130E-01
RMM:  18    -0.303092277626E+03    0.47195E-03   -0.44290E-04   710   0.308E-02    0.681E-02
RMM:  19    -0.303092239914E+03    0.37712E-04   -0.84374E-05   698   0.166E-02    0.266E-02
RMM:  20    -0.303092241815E+03   -0.19017E-05   -0.34707E-05   546   0.103E-02    0.173E-02
RMM:  21    -0.303092234116E+03    0.76993E-05   -0.21647E-05   601   0.652E-03    0.117E-02
RMM:  22    -0.303092234493E+03   -0.37719E-06   -0.36479E-06   479   0.372E-03
   1 F= -.30309223E+03 E0= -.30313576E+03  d E =-.303092E+03
       N       E                     dE             d eps       ncg     rms          rms(c)
DAV:   1    -0.303092234537E+03   -0.42122E-06   -0.14331E-06   363   0.400E-03    0.317E-03
RMM:   2    -0.303092234617E+03   -0.79701E-07   -0.11366E-06   355   0.200E-03
   2 F= -.30309223E+03 E0= -.30313574E+03  d E =-.123728E-06
       N       E                     dE             d eps       ncg     rms          rms(c)
DAV:   1    -0.303092234319E+03    0.21803E-06   -0.80183E-07   402   0.239E-03    0.139E-03
RMM:   2    -0.303092234264E+03    0.55326E-07   -0.20919E-07   339   0.965E-04
   3 F= -.30309223E+03 E0= -.30313575E+03  d E =0.353059E-06
       N       E                     dE             d eps       ncg     rms          rms(c)
DAV:   1    -0.303092234243E+03    0.76667E-07   -0.10268E-07   429   0.105E-03    0.913E-04
RMM:   2    -0.303092234235E+03    0.72541E-08   -0.16514E-08   179   0.460E-04
   4 F= -.30309223E+03 E0= -.30313575E+03  d E =0.285945E-07
       N       E                     dE             d eps       ncg     rms          rms(c)
DAV:   1    -0.303092234215E+03    0.28056E-07   -0.62716E-08   402   0.726E-04    0.559E-04
RMM:   2    -0.303092234208E+03    0.63374E-08   -0.48826E-10    72   0.340E-04
   5 F= -.30309223E+03 E0= -.30313575E+03  d E =0.271393E-07
       N       E                     dE             d eps       ncg     rms          rms(c)
DAV:   1    -0.303092234204E+03    0.10135E-07   -0.33328E-08   384   0.426E-04    0.407E-04
RMM:   2    -0.303092234209E+03   -0.45475E-08    0.30614-229    59   0.265E-04
   6 F= -.30309223E+03 E0= -.30313575E+03  d E =-.749424E-09
       N       E                     dE             d eps       ncg     rms          rms(c)
DAV:   1    -0.303092234205E+03   -0.20373E-09   -0.15444E-08   366   0.341E-04    0.208E-04
RMM:   2    -0.303092234205E+03    0.29104E-10    0.10852-220    47   0.200E-04
   7 F= -.30309223E+03 E0= -.30313575E+03  d E =0.437285E-08
       N       E                     dE             d eps       ncg     rms          rms(c)
DAV:   1    -0.303092234203E+03    0.14697E-08   -0.97914E-09   366   0.208E-04    0.201E-04
RMM:   2    -0.303092234202E+03    0.14770E-08    0.27270-241    42   0.149E-04
   8 F= -.30309223E+03 E0= -.30313575E+03  d E =0.291766E-08
       N       E                     dE             d eps       ncg     rms          rms(c)
DAV:   1    -0.303092234201E+03    0.26339E-08   -0.30618E-09   348   0.178E-04    0.107E-04
RMM:   2    -0.303092234201E+03   -0.58208E-09    0.26473-288    34   0.826E-05
   9 F= -.30309223E+03 E0= -.30313575E+03  d E =0.574801E-09
       N       E                     dE             d eps       ncg     rms          rms(c)
DAV:   1    -0.303092234200E+03    0.54570E-09   -0.12677E-09   339   0.995E-05    0.650E-05
RMM:   2    -0.303092234200E+03   -0.13824E-09    0.18825-288    30   0.666E-05
  10 F= -.30309223E+03 E0= -.30313575E+03  d E =0.989530E-09
       N       E                     dE             d eps       ncg     rms          rms(c)
DAV:   1    -0.303092234199E+03    0.79308E-09   -0.74245E-10   339   0.686E-05    0.735E-05
RMM:   2    -0.303092234200E+03   -0.10841E-08    0.12189-288    28   0.454E-05
  11 F= -.30309223E+03 E0= -.30313575E+03  d E =-.152795E-09
       N       E                     dE             d eps       ncg     rms          rms(c)
DAV:   1    -0.303092234200E+03   -0.11569E-08   -0.40326E-10   339   0.621E-05    0.322E-05
RMM:   2    -0.303092234200E+03    0.48021E-09    0.57844-289    26   0.320E-05
  12 F= -.30309223E+03 E0= -.30313575E+03  d E =0.407454E-09
       N       E                     dE             d eps       ncg     rms          rms(c)
DAV:   1    -0.303092234200E+03    0.47294E-09   -0.37652E-10   339   0.332E-05    0.278E-05
RMM:   2    -0.303092234200E+03   -0.18917E-09    0.00000E+00    22   0.228E-05
  13 F= -.30309223E+03 E0= -.30313575E+03  d E =-.196451E-09
       N       E                     dE             d eps       ncg     rms          rms(c)
DAV:   1    -0.303092234200E+03   -0.29104E-10   -0.19246E-10   339   0.265E-05    0.181E-05
RMM:   2    -0.303092234200E+03   -0.13097E-09    0.00000E+00    20   0.154E-05
  14 F= -.30309223E+03 E0= -.30313575E+03  d E =0.291038E-10
       N       E                     dE             d eps       ncg     rms          rms(c)
DAV:   1    -0.303092234200E+03   -0.65484E-10   -0.28322E-10   339   0.190E-05    0.901E-06
RMM:   2    -0.303092234200E+03   -0.16735E-09    0.00000E+00    19   0.124E-05
  15 F= -.30309223E+03 E0= -.30313575E+03  d E =-.101863E-09
       N       E                     dE             d eps       ncg     rms          rms(c)
DAV:   1    -0.303092234200E+03    0.18917E-09    0.39915E-11   339   0.127E-05    0.142E-05
RMM:   2    -0.303092234200E+03   -0.87311E-10    0.00000E+00    18   0.879E-06
  16 F= -.30309223E+03 E0= -.30313575E+03  d E =0.269210E-09
       N       E                     dE             d eps       ncg     rms          rms(c)
DAV:   1    -0.303092234199E+03    0.58935E-09   -0.74232E-11   339   0.121E-05    0.687E-06
RMM:   2    -0.303092234200E+03   -0.77125E-09    0.00000E+00    17   0.588E-06
  17 F= -.30309223E+03 E0= -.30313575E+03  d E =-.945874E-10
       N       E                     dE             d eps       ncg     rms          rms(c)
DAV:   1    -0.303092234199E+03    0.23283E-09   -0.47713E-10   339   0.768E-06    0.251E-06
RMM:   2    -0.303092234199E+03   -0.50932E-09    0.00000E+00    15   0.487E-06
  18 F= -.30309223E+03 E0= -.30313575E+03  d E =0.494765E-09
       N       E                     dE             d eps       ncg     rms          rms(c)
DAV:   1    -0.303092234199E+03   -0.58208E-10   -0.47715E-10   339   0.499E-06    0.347E-06
RMM:   2    -0.303092234200E+03   -0.11278E-08    0.00000E+00    14   0.327E-06
  19 F= -.30309223E+03 E0= -.30313575E+03  d E =-.676664E-09
       N       E                     dE             d eps       ncg     rms          rms(c)
DAV:   1    -0.303092234201E+03   -0.16371E-08   -0.25498E-10   339   0.412E-06    0.171E-06
RMM:   2    -0.303092234200E+03    0.61846E-09    0.00000E+00    13   0.232E-06
  20 F= -.30309223E+03 E0= -.30313575E+03  d E =0.109139E-09
       N       E                     dE             d eps       ncg     rms          rms(c)
DAV:   1    -0.303092234200E+03    0.10041E-08   -0.75777E-11   312   0.254E-06    0.138E-06
RMM:   2    -0.303092234200E+03   -0.67666E-09    0.00000E+00    13   0.183E-06
  21 F= -.30309223E+03 E0= -.30313575E+03  d E =-.291038E-09
       N       E                     dE             d eps       ncg     rms          rms(c)
DAV:   1    -0.303092234200E+03   -0.72760E-10   -0.59028E-10   312   0.219E-06    0.125E-06
RMM:   2    -0.303092234200E+03   -0.37835E-09    0.00000E+00    13   0.142E-06
  22 F= -.30309223E+03 E0= -.30313575E+03  d E =0.225555E-09
       N       E                     dE             d eps       ncg     rms          rms(c)
DAV:   1    -0.303092234200E+03   -0.50932E-09   -0.35215E-10   312   0.176E-06    0.506E-07
RMM:   2    -0.303092234200E+03    0.30559E-09    0.00000E+00    13   0.105E-06
  23 F= -.30309223E+03 E0= -.30313575E+03  d E =0.174623E-09
       N       E                     dE             d eps       ncg     rms          rms(c)
DAV:   1    -0.303092234200E+03   -0.21828E-09   -0.38090E-10   312   0.110E-06    0.558E-07
RMM:   2    -0.303092234200E+03    0.69849E-09    0.00000E+00    13   0.779E-07
  24 F= -.30309223E+03 E0= -.30313575E+03  d E =0.174623E-09
       N       E                     dE             d eps       ncg     rms          rms(c)
DAV:   1    -0.303092234200E+03    0.85129E-09   -0.19364E-10   312   0.920E-07    0.273E-07
RMM:   2    -0.303092234199E+03    0.11642E-09    0.00000E+00    13   0.546E-07
  25 F= -.30309223E+03 E0= -.30313575E+03  d E =0.269210E-09
       N       E                     dE             d eps       ncg     rms          rms(c)
DAV:   1    -0.303092234201E+03   -0.14479E-08   -0.78256E-11   312   0.586E-07    0.324E-07
RMM:   2    -0.303092234200E+03    0.10914E-08    0.00000E+00    13   0.439E-07
  26 F= -.30309223E+03 E0= -.30313575E+03  d E =-.472937E-09
       N       E                     dE             d eps       ncg     rms          rms(c)
DAV:   1    -0.303092234200E+03    0.74942E-09   -0.33649E-10   312   0.533E-07    0.200E-07
RMM:   2    -0.303092234200E+03    0.55297E-09    0.00000E+00    13   0.315E-07
  27 F= -.30309223E+03 E0= -.30313575E+03  d E =0.211003E-09
       N       E                     dE             d eps       ncg     rms          rms(c)
DAV:   1    -0.303092234200E+03    0.72760E-09   -0.49144E-10   312   0.398E-07    0.943E-08
RMM:   2    -0.303092234200E+03   -0.45111E-09    0.00000E+00    13   0.263E-07
  28 F= -.30309223E+03 E0= -.30313575E+03  d E =-.276486E-09
       N       E                     dE             d eps       ncg     rms          rms(c)
DAV:   1    -0.303092234200E+03   -0.77125E-09   -0.23344E-10   312   0.288E-07    0.959E-08
RMM:   2    -0.303092234200E+03    0.82218E-09    0.00000E+00    12   0.196E-07
  29 F= -.30309223E+03 E0= -.30313575E+03  d E =0.502041E-09
       N       E                     dE             d eps       ncg     rms          rms(c)
DAV:   1    -0.303092234200E+03    0.11642E-09   -0.63625E-10   312   0.230E-07    0.412E-08
RMM:   2    -0.303092234200E+03    0.43656E-09    0.00000E+00    12   0.145E-07
  30 F= -.30309223E+03 E0= -.30313575E+03  d E =-.269210E-09
       N       E                     dE             d eps       ncg     rms          rms(c)
DAV:   1    -0.303092234199E+03    0.76398E-09   -0.28058E-10   312   0.155E-07    0.520E-08
RMM:   2    -0.303092234200E+03   -0.65484E-10    0.00000E+00    11   0.120E-07
  31 F= -.30309223E+03 E0= -.30313575E+03  d E =0.261934E-09
       N       E                     dE             d eps       ncg     rms          rms(c)
DAV:   1    -0.303092234199E+03    0.16735E-09   -0.78652E-10   312   0.140E-07    0.296E-08
RMM:   2    -0.303092234200E+03   -0.21828E-09    0.00000E+00    11   0.837E-08
  32 F= -.30309223E+03 E0= -.30313575E+03  d E =0.145519E-10
       N       E                     dE             d eps       ncg     rms          rms(c)
DAV:   1    -0.303092234200E+03   -0.50204E-09   -0.32873E-10   312   0.931E-08    0.180E-08
RMM:   2    -0.303092234200E+03    0.94587E-10    0.00000E+00    11   0.691E-08
  33 F= -.30309223E+03 E0= -.30313575E+03  d E =-.189175E-09
       N       E                     dE             d eps       ncg     rms          rms(c)
DAV:   1    -0.303092234199E+03    0.30559E-09   -0.53833E-10   312   0.780E-08    0.211E-08
RMM:   2    -0.303092234200E+03   -0.11642E-09    0.00000E+00    11   0.554E-08
  34 F= -.30309223E+03 E0= -.30313575E+03  d E =0.945874E-10
       N       E                     dE             d eps       ncg     rms          rms(c)
DAV:   1    -0.303092234200E+03   -0.10186E-09   -0.45575E-11   312   0.623E-08    0.116E-08
RMM:   2    -0.303092234200E+03    0.43656E-10    0.00000E+00    10   0.408E-08
  35 F= -.30309223E+03 E0= -.30313575E+03  d E =0.582077E-10
       N       E                     dE             d eps       ncg     rms          rms(c)
DAV:   1    -0.303092234200E+03   -0.27649E-09   -0.52242E-10   312   0.446E-08    0.112E-08
RMM:   2    -0.303092234199E+03    0.37107E-09    0.00000E+00    10   0.335E-08
  36 F= -.30309223E+03 E0= -.30313575E+03  d E =0.509317E-10
       N       E                     dE             d eps       ncg     rms          rms(c)
DAV:   1    -0.303092234200E+03    0.72760E-11   -0.48212E-10   312   0.387E-08    0.862E-09
RMM:   2    -0.303092234200E+03    0.34197E-09    0.00000E+00     8   0.254E-08
  37 F= -.30309223E+03 E0= -.30313575E+03  d E =-.218279E-10
       N       E                     dE             d eps       ncg     rms          rms(c)
DAV:   1    -0.303092234201E+03   -0.99681E-09   -0.35837E-10   312   0.291E-08    0.490E-09
RMM:   2    -0.303092234199E+03    0.13824E-08    0.00000E+00     8   0.202E-08
  38 F= -.30309223E+03 E0= -.30313575E+03  d E =0.436557E-10
       N       E                     dE             d eps       ncg     rms          rms(c)
DAV:   1    -0.303092234200E+03    0.10477E-08   -0.37747E-10   312   0.225E-08    0.589E-09
RMM:   2    -0.303092234199E+03    0.37835E-09    0.00000E+00     8   0.163E-08
  39 F= -.30309223E+03 E0= -.30313575E+03  d E =0.436557E-10
       N       E                     dE             d eps       ncg     rms          rms(c)
DAV:   1    -0.303092234199E+03    0.66939E-09   -0.38848E-10   312   0.187E-08    0.336E-09
RMM:   2    -0.303092234200E+03   -0.39290E-09    0.00000E+00     8   0.121E-08
  40 F= -.30309223E+03 E0= -.30313575E+03  d E =-.101863E-09
       N       E                     dE             d eps       ncg     rms          rms(c)
DAV:   1    -0.303092234199E+03    0.35652E-09   -0.39175E-10   312   0.133E-08    0.255E-09
RMM:   2    -0.303092234200E+03   -0.80036E-09    0.00000E+00     8   0.982E-09
  41 F= -.30309223E+03 E0= -.30313575E+03  d E =-.509317E-10
       N       E                     dE             d eps       ncg     rms          rms(c)
DAV:   1    -0.303092234202E+03   -0.29468E-08   -0.47191E-10   312   0.111E-08    0.219E-09
RMM:   2    -0.303092234200E+03    0.21319E-08    0.00000E+00     7   0.767E-09
  42 F= -.30309223E+03 E0= -.30313575E+03  d E =-.145519E-10
       N       E                     dE             d eps       ncg     rms          rms(c)
DAV:   1    -0.303092234200E+03    0.17317E-08   -0.49121E-10   312   0.857E-09    0.158E-09
RMM:   2    -0.303092234200E+03    0.40018E-09    0.00000E+00     7   0.603E-09
  43 F= -.30309223E+03 E0= -.30313575E+03  d E =0.000000E+00
       N       E                     dE             d eps       ncg     rms          rms(c)
DAV:   1    -0.303092234199E+03    0.10623E-08   -0.38507E-10   312   0.665E-09    0.125E-09
RMM:   2    -0.303092234200E+03   -0.67666E-09    0.00000E+00     6   0.484E-09
  44 F= -.30309223E+03 E0= -.30313575E+03  d E =-.145519E-10
       N       E                     dE             d eps       ncg     rms          rms(c)
DAV:   1    -0.303092234199E+03    0.21828E-10   -0.51202E-10   312   0.543E-09    0.112E-09
RMM:   2    -0.303092234200E+03   -0.77853E-09    0.00000E+00     6   0.390E-09
  45 F= -.30309223E+03 E0= -.30313575E+03  d E =-.800355E-10
       N       E                     dE             d eps       ncg     rms          rms(c)
DAV:   1    -0.303092234199E+03   -0.24738E-09   -0.42885E-10   312   0.463E-09    0.108E-09
RMM:   2    -0.303092234200E+03   -0.40745E-09    0.00000E+00     7   0.303E-09
  46 F= -.30309223E+03 E0= -.30313575E+03  d E =0.123691E-09
       N       E                     dE             d eps       ncg     rms          rms(c)
DAV:   1    -0.303092234200E+03   -0.74942E-09   -0.55715E-10   312   0.344E-09    0.634E-10
RMM:   2    -0.303092234200E+03    0.34925E-09    0.00000E+00     7   0.237E-09
  47 F= -.30309223E+03 E0= -.30313575E+03  d E =0.727596E-11
       N       E                     dE             d eps       ncg     rms          rms(c)
DAV:   1    -0.303092234200E+03   -0.44383E-09   -0.38742E-10   312   0.270E-09    0.778E-10
RMM:   2    -0.303092234200E+03    0.76398E-09    0.00000E+00     6   0.189E-09
  48 F= -.30309223E+03 E0= -.30313575E+03  d E =-.291038E-10
       N       E                     dE             d eps       ncg     rms          rms(c)
DAV:   1    -0.303092234199E+03    0.13824E-08   -0.34569E-10   312   0.234E-09    0.687E-10
RMM:   2    -0.303092234199E+03   -0.52387E-09    0.00000E+00     6   0.152E-09
  49 F= -.30309223E+03 E0= -.30313575E+03  d E =0.945874E-10
       N       E                     dE             d eps       ncg     rms          rms(c)
DAV:   1    -0.303092234199E+03    0.13097E-09   -0.30669E-10   312   0.190E-09    0.461E-10
RMM:   2    -0.303092234199E+03   -0.64028E-09    0.00000E+00     5   0.122E-09
  50 F= -.30309223E+03 E0= -.30313575E+03  d E =0.145519E-10
       N       E                     dE             d eps       ncg     rms          rms(c)
DAV:   1    -0.303092234199E+03   -0.65484E-09   -0.37662E-10   312   0.144E-09    0.479E-10
RMM:   2    -0.303092234200E+03   -0.13097E-09    0.00000E+00     6   0.968E-10
  51 F= -.30309223E+03 E0= -.30313575E+03  d E =-.145519E-09
       N       E                     dE             d eps       ncg     rms          rms(c)
DAV:   1    -0.303092234200E+03   -0.58208E-10   -0.34761E-10   312   0.121E-09    0.444E-10
RMM:   2    -0.303092234199E+03    0.94587E-10    0.00000E+00     4   0.775E-10
  52 F= -.30309223E+03 E0= -.30313575E+03  d E =0.167347E-09
       N       E                     dE             d eps       ncg     rms          rms(c)
DAV:   1    -0.303092234200E+03   -0.40018E-09   -0.47241E-10   312   0.106E-09    0.321E-10
RMM:   2    -0.303092234200E+03    0.41473E-09    0.00000E+00     6   0.612E-10
  53 F= -.30309223E+03 E0= -.30313575E+03  d E =-.800355E-10
       N       E                     dE             d eps       ncg     rms          rms(c)
DAV:   1    -0.303092234200E+03    0.10914E-09   -0.64231E-10   312   0.810E-10    0.275E-10
RMM:   2    -0.303092234199E+03    0.37107E-09    0.00000E+00     4   0.489E-10
  54 F= -.30309223E+03 E0= -.30313575E+03  d E =0.654836E-10
       N       E                     dE             d eps       ncg     rms          rms(c)
DAV:   1    -0.303092234200E+03    0.16735E-09   -0.64987E-10   312   0.602E-10    0.262E-10
RMM:   2    -0.303092234200E+03    0.43656E-10    0.00000E+00     5   0.414E-10
  55 F= -.30309223E+03 E0= -.30313575E+03  d E =-.160071E-09
       N       E                     dE             d eps       ncg     rms          rms(c)
DAV:   1    -0.303092234201E+03   -0.90222E-09   -0.55032E-10   312   0.510E-10    0.171E-10
RMM:   2    -0.303092234200E+03    0.10405E-08    0.00000E+00     4   0.320E-10
  56 F= -.30309223E+03 E0= -.30313575E+03  d E =0.945874E-10
       N       E                     dE             d eps       ncg     rms          rms(c)
DAV:   1    -0.303092234200E+03    0.10696E-08   -0.67538E-10   312   0.368E-10    0.356E-10
RMM:   2    -0.303092234200E+03   -0.43656E-10    0.00000E+00     4   0.282E-10
  57 F= -.30309223E+03 E0= -.30313575E+03  d E =-.145519E-10
       N       E                     dE             d eps       ncg     rms          rms(c)
DAV:   1    -0.303092234201E+03   -0.16080E-08   -0.56219E-10   312   0.397E-10    0.235E-10
RMM:   2    -0.303092234200E+03    0.15716E-08    0.00000E+00     4   0.234E-10
  58 F= -.30309223E+03 E0= -.30313575E+03  d E =0.727596E-11
       N       E                     dE             d eps       ncg     rms          rms(c)
DAV:   1    -0.303092234200E+03    0.13024E-08   -0.59252E-10   312   0.276E-10    0.282E-10
RMM:   2    -0.303092234200E+03    0.29831E-09    0.00000E+00     4   0.211E-10
  59 F= -.30309223E+03 E0= -.30313575E+03  d E =0.291038E-10
       N       E                     dE             d eps       ncg     rms          rms(c)
DAV:   1    -0.303092234200E+03    0.16735E-09   -0.61999E-10   312   0.342E-10    0.207E-10
RMM:   2    -0.303092234199E+03    0.15280E-09    0.00000E+00     3   0.183E-10
  60 F= -.30309223E+03 E0= -.30313575E+03  d E =0.218279E-10
       N       E                     dE             d eps       ncg     rms          rms(c)
DAV:   1    -0.303092234201E+03   -0.13752E-08   -0.49866E-10   312   0.259E-10    0.265E-10
RMM:   2    -0.303092234200E+03    0.13606E-08    0.00000E+00     3   0.179E-10
  61 F= -.30309223E+03 E0= -.30313575E+03  d E =-.167347E-09
       N       E                     dE             d eps       ncg     rms          rms(c)
DAV:   1    -0.303092234200E+03    0.10841E-08   -0.42918E-10   312   0.362E-10    0.149E-10
RMM:   2    -0.303092234199E+03    0.45111E-09    0.00000E+00     2   0.128E-10
  62 F= -.30309223E+03 E0= -.30313575E+03  d E =0.174623E-09
       N       E                     dE             d eps       ncg     rms          rms(c)
DAV:   1    -0.303092234199E+03    0.10114E-08   -0.55462E-10   312   0.163E-10    0.499E-10
RMM:   2    -0.303092234200E+03   -0.68394E-09    0.00000E+00     3   0.192E-10
  63 F= -.30309223E+03 E0= -.30313575E+03  d E =-.123691E-09
       N       E                     dE             d eps       ncg     rms          rms(c)
DAV:   1    -0.303092234199E+03   -0.16007E-09   -0.57913E-10   312   0.550E-10    0.204E-10
RMM:   2    -0.303092234200E+03   -0.47294E-09    0.00000E+00     2   0.120E-10
  64 F= -.30309223E+03 E0= -.30313575E+03  d E =0.509317E-10
       N       E                     dE             d eps       ncg     rms          rms(c)
DAV:   1    -0.303092234200E+03   -0.10186E-08   -0.51273E-10   312   0.157E-10    0.393E-10
RMM:   2    -0.303092234200E+03    0.42201E-09    0.00000E+00     2   0.127E-10
  65 F= -.30309223E+03 E0= -.30313575E+03  d E =-.123691E-09
       N       E                     dE             d eps       ncg     rms          rms(c)
DAV:   1    -0.303092234200E+03   -0.34197E-09   -0.30946E-10   312   0.367E-10    0.249E-10
RMM:   2    -0.303092234200E+03    0.90949E-09    0.00000E+00     2   0.106E-10
  66 F= -.30309223E+03 E0= -.30313575E+03  d E =0.145519E-09
       N       E                     dE             d eps       ncg     rms          rms(c)
DAV:   1    -0.303092234199E+03    0.10768E-08   -0.65390E-10   312   0.143E-10    0.349E-10
RMM:   2    -0.303092234199E+03   -0.11642E-09    0.00000E+00     2   0.940E-11
  67 F= -.30309223E+03 E0= -.30313575E+03  d E =0.509317E-10
       N       E                     dE             d eps       ncg     rms          rms(c)
DAV:   1    -0.303092234200E+03   -0.30559E-09   -0.67429E-10   312   0.183E-10    0.206E-10
RMM:   2    -0.303092234200E+03    0.29104E-10    0.00000E+00     2   0.946E-11
  68 F= -.30309223E+03 E0= -.30313575E+03  d E =-.160071E-09
       N       E                     dE             d eps       ncg     rms          rms(c)
DAV:   1    -0.303092234202E+03   -0.26412E-08   -0.54444E-10   312   0.176E-10    0.238E-10
RMM:   2    -0.303092234200E+03    0.26703E-08    0.00000E+00     2   0.907E-11
  69 F= -.30309223E+03 E0= -.30313575E+03  d E =0.000000E+00
       N       E                     dE             d eps       ncg     rms          rms(c)
DAV:   1    -0.303092234200E+03    0.27721E-08   -0.55611E-10   312   0.171E-10    0.236E-10
RMM:   2    -0.303092234200E+03    0.29104E-10    0.00000E+00     2   0.881E-11
  70 F= -.30309223E+03 E0= -.30313575E+03  d E =0.130967E-09
       N       E                     dE             d eps       ncg     rms          rms(c)
DAV:   1    -0.303092234200E+03   -0.84401E-09   -0.40019E-10   312   0.137E-10    0.388E-10
RMM:   2    -0.303092234200E+03    0.85856E-09    0.00000E+00     2   0.114E-10
  71 F= -.30309223E+03 E0= -.30313575E+03  d E =-.145519E-10
       N       E                     dE             d eps       ncg     rms          rms(c)
DAV:   1    -0.303092234200E+03    0.18190E-09   -0.56971E-10   312   0.338E-10    0.249E-10
RMM:   2    -0.303092234199E+03    0.72032E-09    0.00000E+00     2   0.940E-11
  72 F= -.30309223E+03 E0= -.30313575E+03  d E =0.436557E-10
       N       E                     dE             d eps       ncg     rms          rms(c)
DAV:   1    -0.303092234200E+03    0.35652E-09   -0.45474E-10   312   0.141E-10    0.388E-10
RMM:   2    -0.303092234200E+03    0.29104E-09    0.00000E+00     2   0.101E-10
  73 F= -.30309223E+03 E0= -.30313575E+03  d E =-.727596E-10
       N       E                     dE             d eps       ncg     rms          rms(c)
DAV:   1    -0.303092234201E+03   -0.10405E-08   -0.53808E-10   312   0.213E-10    0.214E-10
RMM:   2    -0.303092234200E+03    0.13606E-08    0.00000E+00     2   0.999E-11
  74 F= -.30309223E+03 E0= -.30313575E+03  d E =0.291038E-10
       N       E                     dE             d eps       ncg     rms          rms(c)
DAV:   1    -0.303092234200E+03    0.10114E-08   -0.51843E-10   312   0.172E-10    0.407E-10
RMM:   2    -0.303092234200E+03    0.24011E-09    0.00000E+00     2   0.101E-10
  75 F= -.30309223E+03 E0= -.30313575E+03  d E =-.109139E-09
       N       E                     dE             d eps       ncg     rms          rms(c)
DAV:   1    -0.303092234199E+03    0.49477E-09   -0.55173E-10   312   0.340E-10    0.188E-10
RMM:   2    -0.303092234199E+03   -0.80036E-10    0.00000E+00     2   0.949E-11
  76 F= -.30309223E+03 E0= -.30313575E+03  d E =0.174623E-09
       N       E                     dE             d eps       ncg     rms          rms(c)
DAV:   1    -0.303092234201E+03   -0.15934E-08   -0.71729E-10   312   0.116E-10    0.332E-10
RMM:   2    -0.303092234200E+03    0.13679E-08    0.00000E+00     2   0.108E-10
  77 F= -.30309223E+03 E0= -.30313575E+03  d E =-.145519E-09
       N       E                     dE             d eps       ncg     rms          rms(c)
DAV:   1    -0.303092234199E+03    0.21464E-08   -0.63368E-10   312   0.305E-10    0.328E-10
RMM:   2    -0.303092234200E+03   -0.72032E-09    0.00000E+00     2   0.100E-10
  78 F= -.30309223E+03 E0= -.30313575E+03  d E =0.582077E-10
       N       E                     dE             d eps       ncg     rms          rms(c)
DAV:   1    -0.303092234200E+03   -0.15716E-08   -0.56280E-10   312   0.240E-10    0.339E-10
RMM:   2    -0.303092234200E+03    0.77125E-09    0.00000E+00     2   0.937E-11
  79 F= -.30309223E+03 E0= -.30313575E+03  d E =-.800355E-10
       N       E                     dE             d eps       ncg     rms          rms(c)
DAV:   1    -0.303092234199E+03    0.14988E-08   -0.43361E-10   312   0.297E-10    0.288E-10
RMM:   2    -0.303092234200E+03   -0.71304E-09    0.00000E+00     2   0.112E-10
  80 F= -.30309223E+03 E0= -.30313575E+03  d E =0.145519E-10
       N       E                     dE             d eps       ncg     rms          rms(c)
DAV:   1    -0.303092234200E+03   -0.70577E-09   -0.55638E-10   312   0.332E-10    0.309E-10
RMM:   2    -0.303092234200E+03    0.65484E-10    0.00000E+00     2   0.122E-10
  81 F= -.30309223E+03 E0= -.30313575E+03  d E =0.727596E-10
       N       E                     dE             d eps       ncg     rms          rms(c)
DAV:   1    -0.303092234200E+03   -0.70577E-09   -0.39015E-10   312   0.383E-10    0.172E-10
RMM:   2    -0.303092234200E+03    0.68394E-09    0.00000E+00     2   0.654E-11
  82 F= -.30309223E+03 E0= -.30313575E+03  d E =-.873115E-10
       N       E                     dE             d eps       ncg     rms          rms(c)
DAV:   1    -0.303092234200E+03    0.45839E-09   -0.43352E-10   312   0.115E-10    0.330E-10
RMM:   2    -0.303092234199E+03    0.36380E-09    0.00000E+00     2   0.998E-11
  83 F= -.30309223E+03 E0= -.30313575E+03  d E =0.138243E-09
       N       E                     dE             d eps       ncg     rms          rms(c)
DAV:   1    -0.303092234198E+03    0.15425E-08   -0.25089E-10   312   0.290E-10    0.230E-10
RMM:   2    -0.303092234200E+03   -0.12005E-08    0.00000E+00     2   0.977E-11
  84 F= -.30309223E+03 E0= -.30313575E+03  d E =-.218279E-10
       N       E                     dE             d eps       ncg     rms          rms(c)
DAV:   1    -0.303092234200E+03   -0.12078E-08   -0.45694E-10   312   0.200E-10    0.250E-10
RMM:   2    -0.303092234199E+03    0.29104E-10    0.00000E+00     2   0.910E-11
  85 F= -.30309223E+03 E0= -.30313575E+03  d E =0.218279E-10
       N       E                     dE             d eps       ncg     rms          rms(c)
DAV:   1    -0.303092234199E+03    0.81491E-09   -0.48883E-10   312   0.186E-10    0.214E-10
RMM:   2    -0.303092234199E+03   -0.77125E-09    0.00000E+00     2   0.787E-11
  86 F= -.30309223E+03 E0= -.30313575E+03  d E =0.145519E-10
       N       E                     dE             d eps       ncg     rms          rms(c)
DAV:   1    -0.303092234201E+03   -0.19209E-08   -0.58747E-10   312   0.216E-10    0.338E-10
RMM:   2    -0.303092234200E+03    0.10477E-08    0.00000E+00     2   0.112E-10
  87 F= -.30309223E+03 E0= -.30313575E+03  d E =-.101863E-09
       N       E                     dE             d eps       ncg     rms          rms(c)
DAV:   1    -0.303092234198E+03    0.24156E-08   -0.32075E-10   312   0.381E-10    0.347E-10
RMM:   2    -0.303092234200E+03   -0.14479E-08    0.00000E+00     2   0.115E-10
  88 F= -.30309223E+03 E0= -.30313575E+03  d E =-.800355E-10
       N       E                     dE             d eps       ncg     rms          rms(c)
DAV:   1    -0.303092234199E+03   -0.12442E-08   -0.27483E-10   312   0.352E-10    0.159E-10
RMM:   2    -0.303092234200E+03   -0.50932E-10    0.00000E+00     2   0.737E-11
  89 F= -.30309223E+03 E0= -.30313575E+03  d E =0.152795E-09
       N       E                     dE             d eps       ncg     rms          rms(c)
DAV:   1    -0.303092234200E+03   -0.81491E-09   -0.47732E-10   312   0.122E-10    0.285E-10
RMM:   2    -0.303092234200E+03    0.65484E-09    0.00000E+00     2   0.705E-11
  90 F= -.30309223E+03 E0= -.30313575E+03  d E =-.109139E-09
       N       E                     dE             d eps       ncg     rms          rms(c)
DAV:   1    -0.303092234201E+03   -0.94587E-09   -0.56398E-10   312   0.138E-10    0.257E-10
RMM:   2    -0.303092234200E+03    0.15862E-08    0.00000E+00     2   0.740E-11
  91 F= -.30309223E+03 E0= -.30313575E+03  d E =-.145519E-10
       N       E                     dE             d eps       ncg     rms          rms(c)
DAV:   1    -0.303092234199E+03    0.23283E-08   -0.47674E-10   312   0.174E-10    0.278E-10
RMM:   2    -0.303092234200E+03   -0.72032E-09    0.00000E+00     2   0.104E-10
  92 F= -.30309223E+03 E0= -.30313575E+03  d E =0.218279E-10
       N       E                     dE             d eps       ncg     rms          rms(c)
DAV:   1    -0.303092234201E+03   -0.24083E-08   -0.35247E-10   312   0.310E-10    0.286E-10
RMM:   2    -0.303092234200E+03    0.17972E-08    0.00000E+00     2   0.988E-11
  93 F= -.30309223E+03 E0= -.30313575E+03  d E =0.109139E-09
       N       E                     dE             d eps       ncg     rms          rms(c)
DAV:   1    -0.303092234199E+03    0.24302E-08   -0.74686E-10   312   0.219E-10    0.248E-10
RMM:   2    -0.303092234200E+03   -0.69122E-09    0.00000E+00     2   0.867E-11
  94 F= -.30309223E+03 E0= -.30313575E+03  d E =-.582077E-10
       N       E                     dE             d eps       ncg     rms          rms(c)
DAV:   1    -0.303092234200E+03   -0.10550E-08   -0.33168E-10   312   0.206E-10    0.174E-10
RMM:   2    -0.303092234200E+03    0.34925E-09    0.00000E+00     2   0.734E-11
  95 F= -.30309223E+03 E0= -.30313575E+03  d E =-.145519E-10
       N       E                     dE             d eps       ncg     rms          rms(c)
DAV:   1    -0.303092234200E+03    0.50932E-10   -0.46523E-10   312   0.159E-10    0.208E-10
RMM:   2    -0.303092234200E+03    0.29831E-09    0.00000E+00     2   0.762E-11
  96 F= -.30309223E+03 E0= -.30313575E+03  d E =0.000000E+00
       N       E                     dE             d eps       ncg     rms          rms(c)
DAV:   1    -0.303092234200E+03    0.43656E-10   -0.34954E-10   312   0.195E-10    0.275E-10
RMM:   2    -0.303092234200E+03    0.32742E-09    0.00000E+00     2   0.864E-11
  97 F= -.30309223E+03 E0= -.30313575E+03  d E =0.727596E-10
       N       E                     dE             d eps       ncg     rms          rms(c)
DAV:   1    -0.303092234200E+03    0.32014E-09   -0.78219E-10   312   0.118E-10    0.292E-10
RMM:   2    -0.303092234200E+03   -0.11642E-09    0.00000E+00     2   0.923E-11
  98 F= -.30309223E+03 E0= -.30313575E+03  d E =-.123691E-09
       N       E                     dE             d eps       ncg     rms          rms(c)
DAV:   1    -0.303092234200E+03   -0.59663E-09   -0.30720E-10   312   0.228E-10    0.511E-10
RMM:   2    -0.303092234200E+03    0.56025E-09    0.00000E+00     2   0.137E-10
  99 F= -.30309223E+03 E0= -.30313575E+03  d E =0.800355E-10
       N       E                     dE             d eps       ncg     rms          rms(c)
DAV:   1    -0.303092234200E+03    0.53114E-09   -0.72460E-10   312   0.445E-10    0.396E-10
RMM:   2    -0.303092234200E+03   -0.72760E-11    0.00000E+00     2   0.952E-11
 100 F= -.30309223E+03 E0= -.30313575E+03  d E =-.363798E-10
       N       E                     dE             d eps       ncg     rms          rms(c)
DAV:   1    -0.303092234199E+03    0.15280E-09   -0.69075E-10   312   0.295E-10    0.299E-10
RMM:   2    -0.303092234199E+03   -0.65484E-10    0.00000E+00     2   0.980E-11
 101 F= -.30309223E+03 E0= -.30313575E+03  d E =0.945874E-10
       N       E                     dE             d eps       ncg     rms          rms(c)
DAV:   1    -0.303092234199E+03    0.34197E-09   -0.55753E-10   312   0.257E-10    0.203E-10
RMM:   2    -0.303092234199E+03   -0.40745E-09    0.00000E+00     2   0.108E-10
 102 F= -.30309223E+03 E0= -.30313575E+03  d E =0.000000E+00
       N       E                     dE             d eps       ncg     rms          rms(c)
DAV:   1    -0.303092234200E+03   -0.98953E-09   -0.44460E-10   312   0.213E-10    0.235E-10
RMM:   2    -0.303092234200E+03    0.50932E-09    0.00000E+00     2   0.839E-11
 103 F= -.30309223E+03 E0= -.30313575E+03  d E =-.727596E-10
       N       E                     dE             d eps       ncg     rms          rms(c)
DAV:   1    -0.303092234198E+03    0.16953E-08   -0.65840E-10   312   0.195E-10    0.300E-10
RMM:   2    -0.303092234200E+03   -0.13024E-08    0.00000E+00     2   0.863E-11
 104 F= -.30309223E+03 E0= -.30313575E+03  d E =-.116415E-09
       N       E                     dE             d eps       ncg     rms          rms(c)
DAV:   1    -0.303092234201E+03   -0.26703E-08   -0.61542E-10   312   0.237E-10    0.231E-10
RMM:   2    -0.303092234200E+03    0.15061E-08    0.00000E+00     2   0.102E-10
 105 F= -.30309223E+03 E0= -.30313575E+03  d E =0.138243E-09
       N       E                     dE             d eps       ncg     rms          rms(c)
DAV:   1    -0.303092234200E+03    0.11350E-08   -0.51142E-10   312   0.224E-10    0.257E-10
RMM:   2    -0.303092234200E+03    0.33469E-09    0.00000E+00     2   0.768E-11
 106 F= -.30309223E+03 E0= -.30313575E+03  d E =-.363798E-10
       N       E                     dE             d eps       ncg     rms          rms(c)
DAV:   1    -0.303092234200E+03    0.19645E-09   -0.68473E-10   312   0.145E-10    0.338E-10
RMM:   2    -0.303092234199E+03    0.23283E-09    0.00000E+00     2   0.854E-11
 107 F= -.30309223E+03 E0= -.30313575E+03  d E =0.945874E-10
       N       E                     dE             d eps       ncg     rms          rms(c)
DAV:   1    -0.303092234199E+03    0.40745E-09   -0.62761E-10   312   0.211E-10    0.205E-10
RMM:   2    -0.303092234200E+03   -0.21828E-09    0.00000E+00     2   0.745E-11
 108 F= -.30309223E+03 E0= -.30313575E+03  d E =-.436557E-10
       N       E                     dE             d eps       ncg     rms          rms(c)
DAV:   1    -0.303092234200E+03   -0.58208E-09   -0.51524E-10   312   0.120E-10    0.322E-10
RMM:   2    -0.303092234200E+03    0.29104E-09    0.00000E+00     2   0.951E-11
 109 F= -.30309223E+03 E0= -.30313575E+03  d E =-.727596E-10
       N       E                     dE             d eps       ncg     rms          rms(c)
DAV:   1    -0.303092234200E+03   -0.15280E-09   -0.45432E-10   312   0.292E-10    0.228E-10
RMM:   2    -0.303092234200E+03    0.42928E-09    0.00000E+00     2   0.829E-11
 110 F= -.30309223E+03 E0= -.30313575E+03  d E =-.145519E-10
       N       E                     dE             d eps       ncg     rms          rms(c)
DAV:   1    -0.303092234198E+03    0.19281E-08   -0.53310E-10   312   0.138E-10    0.271E-10
RMM:   2    -0.303092234199E+03   -0.13606E-08    0.00000E+00     2   0.845E-11
 111 F= -.30309223E+03 E0= -.30313575E+03  d E =0.138243E-09
       N       E                     dE             d eps       ncg     rms          rms(c)
DAV:   1    -0.303092234200E+03   -0.20445E-08   -0.49908E-10   312   0.210E-10    0.371E-10
RMM:   2    -0.303092234200E+03    0.55297E-09    0.00000E+00     2   0.843E-11
 112 F= -.30309223E+03 E0= -.30313575E+03  d E =-.130967E-09
       N       E                     dE             d eps       ncg     rms          rms(c)
DAV:   1    -0.303092234199E+03    0.71304E-09   -0.47379E-10   312   0.211E-10    0.358E-10
RMM:   2    -0.303092234200E+03   -0.10186E-09    0.00000E+00     2   0.105E-10
 113 F= -.30309223E+03 E0= -.30313575E+03  d E =0.582077E-10
       N       E                     dE             d eps       ncg     rms          rms(c)
DAV:   1    -0.303092234199E+03    0.82946E-09   -0.34840E-10   312   0.335E-10    0.256E-10
RMM:   2    -0.303092234200E+03   -0.99681E-09    0.00000E+00     2   0.835E-11
 114 F= -.30309223E+03 E0= -.30313575E+03  d E =-.654836E-10
       N       E                     dE             d eps       ncg     rms          rms(c)
DAV:   1    -0.303092234199E+03   -0.24738E-09   -0.83134E-10   312   0.126E-10    0.271E-10
RMM:   2    -0.303092234200E+03   -0.84401E-09    0.00000E+00     2   0.810E-11
 115 F= -.30309223E+03 E0= -.30313575E+03  d E =-.945874E-10
       N       E                     dE             d eps       ncg     rms          rms(c)
DAV:   1    -0.303092234200E+03   -0.16371E-08   -0.31124E-10   312   0.165E-10    0.173E-10
RMM:   2    -0.303092234200E+03    0.93860E-09    0.00000E+00     2   0.618E-11
 116 F= -.30309223E+03 E0= -.30313575E+03  d E =0.145519E-09
       N       E                     dE             d eps       ncg     rms          rms(c)
DAV:   1    -0.303092234199E+03    0.14188E-08   -0.64039E-10   312   0.868E-11    0.353E-10
RMM:   2    -0.303092234200E+03   -0.48021E-09    0.00000E+00     2   0.103E-10
 117 F= -.30309223E+03 E0= -.30313575E+03  d E =0.000000E+00
       N       E                     dE             d eps       ncg     rms          rms(c)
DAV:   1    -0.303092234200E+03   -0.54570E-09   -0.31401E-10   312   0.326E-10    0.251E-10
RMM:   2    -0.303092234200E+03    0.94587E-10    0.00000E+00     2   0.904E-11
 118 F= -.30309223E+03 E0= -.30313575E+03  d E =0.291038E-10
       N       E                     dE             d eps       ncg     rms          rms(c)
DAV:   1    -0.303092234200E+03   -0.50204E-09   -0.39689E-10   312   0.215E-10    0.428E-10
RMM:   2    -0.303092234200E+03    0.45111E-09    0.00000E+00     2   0.120E-10
 119 F= -.30309223E+03 E0= -.30313575E+03  d E =-.145519E-09
       N       E                     dE             d eps       ncg     rms          rms(c)
DAV:   1    -0.303092234200E+03   -0.50932E-10   -0.32248E-10   312   0.382E-10    0.211E-10
RMM:   2    -0.303092234200E+03    0.58935E-09    0.00000E+00     2   0.827E-11
 120 F= -.30309223E+03 E0= -.30313575E+03  d E =0.873115E-10
       N       E                     dE             d eps       ncg     rms          rms(c)
DAV:   1    -0.303092234199E+03    0.70577E-09   -0.39693E-10   312   0.184E-10    0.200E-10
RMM:   2    -0.303092234200E+03   -0.58208E-10    0.00000E+00     2   0.803E-11
 121 F= -.30309223E+03 E0= -.30313575E+03  d E =0.582077E-10
       N       E                     dE             d eps       ncg     rms          rms(c)
DAV:   1    -0.303092234199E+03    0.49477E-09   -0.69575E-10   312   0.105E-10    0.287E-10
RMM:   2    -0.303092234200E+03   -0.63301E-09    0.00000E+00     2   0.841E-11
 122 F= -.30309223E+03 E0= -.30313575E+03  d E =-.800355E-10
       N       E                     dE             d eps       ncg     rms          rms(c)
DAV:   1    -0.303092234200E+03   -0.89494E-09   -0.45805E-10   312   0.238E-10    0.216E-10
RMM:   2    -0.303092234200E+03    0.26193E-09    0.00000E+00     2   0.906E-11
 123 F= -.30309223E+03 E0= -.30313575E+03  d E =0.000000E+00
       N       E                     dE             d eps       ncg     rms          rms(c)
DAV:   1    -0.303092234199E+03    0.84401E-09   -0.45078E-10   312   0.257E-10    0.221E-10
RMM:   2    -0.303092234200E+03   -0.56025E-09    0.00000E+00     2   0.882E-11
 124 F= -.30309223E+03 E0= -.30313575E+03  d E =0.218279E-10
       N       E                     dE             d eps       ncg     rms          rms(c)
DAV:   1    -0.303092234200E+03   -0.63301E-09   -0.47561E-10   312   0.212E-10    0.255E-10
RMM:   2    -0.303092234200E+03    0.87311E-10    0.00000E+00     2   0.809E-11
 125 F= -.30309223E+03 E0= -.30313575E+03  d E =0.145519E-10
       N       E                     dE             d eps       ncg     rms          rms(c)
DAV:   1    -0.303092234199E+03    0.10114E-08   -0.37356E-10   312   0.187E-10    0.266E-10
RMM:   2    -0.303092234199E+03   -0.82946E-09    0.00000E+00     2   0.781E-11
 126 F= -.30309223E+03 E0= -.30313575E+03  d E =0.945874E-10
       N       E                     dE             d eps       ncg     rms          rms(c)
DAV:   1    -0.303092234200E+03   -0.93132E-09   -0.55028E-10   312   0.146E-10    0.255E-10
RMM:   2    -0.303092234199E+03    0.10186E-09    0.00000E+00     2   0.788E-11
 127 F= -.30309223E+03 E0= -.30313575E+03  d E =0.000000E+00
       N       E                     dE             d eps       ncg     rms          rms(c)
DAV:   1    -0.303092234198E+03    0.17535E-08   -0.51591E-10   312   0.194E-10    0.188E-10
RMM:   2    -0.303092234200E+03   -0.17244E-08    0.00000E+00     2   0.750E-11
 128 F= -.30309223E+03 E0= -.30313575E+03  d E =-.727596E-10
       N       E                     dE             d eps       ncg     rms          rms(c)
DAV:   1    -0.303092234199E+03   -0.16516E-08   -0.45772E-10   312   0.189E-10    0.230E-10
RMM:   2    -0.303092234200E+03   -0.29104E-10    0.00000E+00     2   0.810E-11
 129 F= -.30309223E+03 E0= -.30313575E+03  d E =0.436557E-10
       N       E                     dE             d eps       ncg     rms          rms(c)
DAV:   1    -0.303092234200E+03   -0.27649E-09   -0.54216E-10   312   0.129E-10    0.310E-10
RMM:   2    -0.303092234200E+03    0.24011E-09    0.00000E+00     2   0.104E-10
 130 F= -.30309223E+03 E0= -.30313575E+03  d E =-.727596E-11
       N       E                     dE             d eps       ncg     rms          rms(c)
DAV:   1    -0.303092234199E+03    0.78580E-09   -0.32205E-10   312   0.320E-10    0.307E-10
RMM:   2    -0.303092234200E+03   -0.66211E-09    0.00000E+00     2   0.886E-11
 131 F= -.30309223E+03 E0= -.30313575E+03  d E =-.116415E-09
       N       E                     dE             d eps       ncg     rms          rms(c)
DAV:   1    -0.303092234199E+03   -0.25466E-09   -0.58296E-10   312   0.155E-10    0.453E-10
RMM:   2    -0.303092234200E+03   -0.39290E-09    0.00000E+00     2   0.115E-10
 132 F= -.30309223E+03 E0= -.30313575E+03  d E =0.145519E-10
       N       E                     dE             d eps       ncg     rms          rms(c)
DAV:   1    -0.303092234200E+03   -0.12442E-08   -0.22636E-10   312   0.392E-10    0.318E-10
RMM:   2    -0.303092234199E+03    0.97498E-09    0.00000E+00     2   0.107E-10
 133 F= -.30309223E+03 E0= -.30313575E+03  d E =0.123691E-09
       N       E                     dE             d eps       ncg     rms          rms(c)
DAV:   1    -0.303092234200E+03    0.62573E-09   -0.44671E-10   312   0.303E-10    0.292E-10
RMM:   2    -0.303092234200E+03    0.21828E-09    0.00000E+00     2   0.906E-11
 134 F= -.30309223E+03 E0= -.30313575E+03  d E =-.130967E-09
       N       E                     dE             d eps       ncg     rms          rms(c)
DAV:   1    -0.303092234200E+03   -0.26193E-09   -0.31596E-10   312   0.304E-10    0.260E-10
RMM:   2    -0.303092234200E+03    0.44383E-09    0.00000E+00     2   0.928E-11
 135 F= -.30309223E+03 E0= -.30313575E+03  d E =-.363798E-10
       N       E                     dE             d eps       ncg     rms          rms(c)
DAV:   1    -0.303092234198E+03    0.20955E-08   -0.54776E-10   312   0.258E-10    0.162E-10
RMM:   2    -0.303092234200E+03   -0.15280E-08    0.00000E+00     2   0.623E-11
 136 F= -.30309223E+03 E0= -.30313575E+03  d E =0.123691E-09
       N       E                     dE             d eps       ncg     rms          rms(c)
DAV:   1    -0.303092234199E+03   -0.98225E-09   -0.67968E-10   312   0.107E-10    0.215E-10
RMM:   2    -0.303092234200E+03   -0.65484E-09    0.00000E+00     2   0.665E-11
 137 F= -.30309223E+03 E0= -.30313575E+03  d E =-.109139E-09
       N       E                     dE             d eps       ncg     rms          rms(c)
DAV:   1    -0.303092234200E+03   -0.87311E-09   -0.58025E-10   312   0.114E-10    0.235E-10
RMM:   2    -0.303092234200E+03    0.24011E-09    0.00000E+00     2   0.690E-11
 138 F= -.30309223E+03 E0= -.30313575E+03  d E =0.218279E-10
       N       E                     dE             d eps       ncg     rms          rms(c)
DAV:   1    -0.303092234200E+03   -0.14552E-09   -0.46410E-10   312   0.129E-10    0.354E-10
RMM:   2    -0.303092234200E+03    0.41473E-09    0.00000E+00     2   0.995E-11
 139 F= -.30309223E+03 E0= -.30313575E+03  d E =0.291038E-10
       N       E                     dE             d eps       ncg     rms          rms(c)
DAV:   1    -0.303092234200E+03    0.45839E-09    0.35069E-11   312   0.327E-10    0.278E-10
RMM:   2    -0.303092234200E+03   -0.43656E-10    0.00000E+00     2   0.126E-10
 140 F= -.30309223E+03 E0= -.30313575E+03  d E =0.000000E+00
       N       E                     dE             d eps       ncg     rms          rms(c)
DAV:   1    -0.303092234199E+03    0.66939E-09   -0.59668E-10   312   0.336E-10    0.315E-10
RMM:   2    -0.303092234200E+03   -0.74215E-09    0.00000E+00     2   0.124E-10
 141 F= -.30309223E+03 E0= -.30313575E+03  d E =-.291038E-10
       N       E                     dE             d eps       ncg     rms          rms(c)
DAV:   1    -0.303092234199E+03    0.10914E-09   -0.20999E-10   312   0.373E-10    0.361E-10
RMM:   2    -0.303092234200E+03   -0.81491E-09    0.00000E+00     2   0.890E-11
 142 F= -.30309223E+03 E0= -.30313575E+03  d E =0.363798E-10
       N       E                     dE             d eps       ncg     rms          rms(c)
DAV:   1    -0.303092234199E+03   -0.12369E-09   -0.52551E-10   312   0.192E-10    0.275E-10
RMM:   2    -0.303092234200E+03   -0.69849E-09    0.00000E+00     2   0.798E-11
 143 F= -.30309223E+03 E0= -.30313575E+03  d E =-.727596E-11
       N       E                     dE             d eps       ncg     rms          rms(c)
DAV:   1    -0.303092234199E+03    0.50932E-10   -0.68159E-10   312   0.129E-10    0.281E-10
RMM:   2    -0.303092234199E+03   -0.64756E-09    0.00000E+00     2   0.775E-11
 144 F= -.30309223E+03 E0= -.30313575E+03  d E =0.101863E-09
       N       E                     dE             d eps       ncg     rms          rms(c)
DAV:   1    -0.303092234199E+03   -0.31287E-09   -0.43037E-10   312   0.188E-10    0.157E-10
RMM:   2    -0.303092234200E+03   -0.36380E-09    0.00000E+00     2   0.760E-11
 145 F= -.30309223E+03 E0= -.30313575E+03  d E =-.291038E-10
       N       E                     dE             d eps       ncg     rms          rms(c)
DAV:   1    -0.303092234200E+03   -0.12369E-08   -0.49578E-10   312   0.131E-10    0.279E-10
RMM:   2    -0.303092234200E+03    0.82946E-09    0.00000E+00     2   0.735E-11
 146 F= -.30309223E+03 E0= -.30313575E+03  d E =-.436557E-10
       N       E                     dE             d eps       ncg     rms          rms(c)
DAV:   1    -0.303092234200E+03    0.39290E-09   -0.23829E-10   312   0.142E-10    0.266E-10
RMM:   2    -0.303092234200E+03    0.30559E-09    0.00000E+00     2   0.839E-11
 147 F= -.30309223E+03 E0= -.30313575E+03  d E =-.130967E-09
       N       E                     dE             d eps       ncg     rms          rms(c)
DAV:   1    -0.303092234200E+03   -0.72760E-10   -0.39150E-10   312   0.252E-10    0.172E-10
RMM:   2    -0.303092234199E+03    0.59663E-09    0.00000E+00     2   0.783E-11
 148 F= -.30309223E+03 E0= -.30313575E+03  d E =0.218279E-09
       N       E                     dE             d eps       ncg     rms          rms(c)
DAV:   1    -0.303092234200E+03   -0.24011E-09   -0.57331E-10   312   0.125E-10    0.281E-10
RMM:   2    -0.303092234200E+03    0.73487E-09    0.00000E+00     2   0.851E-11
 149 F= -.30309223E+03 E0= -.30313575E+03  d E =-.101863E-09
       N       E                     dE             d eps       ncg     rms          rms(c)
DAV:   1    -0.303092234199E+03    0.10186E-08   -0.71505E-10   312   0.241E-10    0.214E-10
RMM:   2    -0.303092234200E+03   -0.26193E-09    0.00000E+00     2   0.787E-11
 150 F= -.30309223E+03 E0= -.30313575E+03  d E =0.218279E-10
       N       E                     dE             d eps       ncg     rms          rms(c)
DAV:   1    -0.303092234200E+03   -0.10841E-08   -0.60268E-10   312   0.979E-11    0.318E-10
RMM:   2    -0.303092234200E+03    0.85129E-09    0.00000E+00     2   0.870E-11
 151 F= -.30309223E+03 E0= -.30313575E+03  d E =0.291038E-10
       N       E                     dE             d eps       ncg     rms          rms(c)
DAV:   1    -0.303092234199E+03    0.17462E-08   -0.42224E-10   312   0.190E-10    0.208E-10
RMM:   2    -0.303092234200E+03   -0.93132E-09    0.00000E+00     2   0.596E-11
 152 F= -.30309223E+03 E0= -.30313575E+03  d E =-.363798E-10
       N       E                     dE             d eps       ncg     rms          rms(c)
DAV:   1    -0.303092234201E+03   -0.20955E-08   -0.51478E-10   312   0.757E-11    0.341E-10
RMM:   2    -0.303092234200E+03    0.11423E-08    0.00000E+00     2   0.860E-11
 153 F= -.30309223E+03 E0= -.30313575E+03  d E =-.218279E-10
       N       E                     dE             d eps       ncg     rms          rms(c)
DAV:   1    -0.303092234199E+03    0.16298E-08   -0.68030E-10   312   0.253E-10    0.185E-10
RMM:   2    -0.303092234200E+03   -0.42928E-09    0.00000E+00     2   0.776E-11
 154 F= -.30309223E+03 E0= -.30313575E+03  d E =0.582077E-10
       N       E                     dE             d eps       ncg     rms          rms(c)
DAV:   1    -0.303092234200E+03   -0.11496E-08   -0.49524E-10   312   0.157E-10    0.384E-10
RMM:   2    -0.303092234200E+03    0.67666E-09    0.00000E+00     2   0.132E-10
 155 F= -.30309223E+03 E0= -.30313575E+03  d E =-.436557E-10
       N       E                     dE             d eps       ncg     rms          rms(c)
DAV:   1    -0.303092234198E+03    0.20591E-08   -0.59744E-10   312   0.439E-10    0.191E-10
RMM:   2    -0.303092234200E+03   -0.14115E-08    0.00000E+00     2   0.751E-11
 156 F= -.30309223E+03 E0= -.30313575E+03  d E =-.291038E-10
       N       E                     dE             d eps       ncg     rms          rms(c)
DAV:   1    -0.303092234199E+03   -0.99681E-09   -0.62059E-10   312   0.129E-10    0.337E-10
RMM:   2    -0.303092234199E+03   -0.30559E-09    0.00000E+00     2   0.933E-11
 157 F= -.30309223E+03 E0= -.30313575E+03  d E =0.109139E-09
       N       E                     dE             d eps       ncg     rms          rms(c)
DAV:   1    -0.303092234199E+03    0.14552E-09   -0.51273E-10   312   0.215E-10    0.257E-10
RMM:   2    -0.303092234200E+03   -0.50932E-09    0.00000E+00     2   0.899E-11
 158 F= -.30309223E+03 E0= -.30313575E+03  d E =-.582077E-10
       N       E                     dE             d eps       ncg     rms          rms(c)
DAV:   1    -0.303092234198E+03    0.11059E-08   -0.40239E-10   312   0.216E-10    0.271E-10
RMM:   2    -0.303092234200E+03   -0.16298E-08    0.00000E+00     2   0.732E-11
 159 F= -.30309223E+03 E0= -.30313575E+03  d E =-.145519E-10
       N       E                     dE             d eps       ncg     rms          rms(c)
DAV:   1    -0.303092234199E+03   -0.65484E-09   -0.47880E-10   312   0.192E-10    0.250E-10
RMM:   2    -0.303092234200E+03   -0.10623E-08    0.00000E+00     2   0.991E-11
 160 F= -.30309223E+03 E0= -.30313575E+03  d E =-.873115E-10
       N       E                     dE             d eps       ncg     rms          rms(c)
DAV:   1    -0.303092234200E+03   -0.15207E-08   -0.45653E-10   312   0.257E-10    0.283E-10
RMM:   2    -0.303092234200E+03    0.49477E-09    0.00000E+00     2   0.864E-11
 161 F= -.30309223E+03 E0= -.30313575E+03  d E =0.363798E-10
       N       E                     dE             d eps       ncg     rms          rms(c)
DAV:   1    -0.303092234201E+03   -0.41473E-09   -0.47169E-10   312   0.223E-10    0.243E-10
RMM:   2    -0.303092234200E+03    0.88767E-09    0.00000E+00     2   0.779E-11
 162 F= -.30309223E+03 E0= -.30313575E+03  d E =-.218279E-10
       N       E                     dE             d eps       ncg     rms          rms(c)
DAV:   1    -0.303092234200E+03    0.94587E-09   -0.49313E-10   312   0.178E-10    0.195E-10
RMM:   2    -0.303092234200E+03    0.36380E-10    0.00000E+00     2   0.702E-11
 163 F= -.30309223E+03 E0= -.30313575E+03  d E =0.945874E-10
       N       E                     dE             d eps       ncg     rms          rms(c)
DAV:   1    -0.303092234199E+03    0.75670E-09   -0.48871E-10   312   0.101E-10    0.378E-10
RMM:   2    -0.303092234200E+03   -0.79308E-09    0.00000E+00     2   0.123E-10
 164 F= -.30309223E+03 E0= -.30313575E+03  d E =-.727596E-10
       N       E                     dE             d eps       ncg     rms          rms(c)
DAV:   1    -0.303092234201E+03   -0.16953E-08   -0.69822E-10   312   0.397E-10    0.342E-10
RMM:   2    -0.303092234200E+03    0.88767E-09    0.00000E+00     2   0.104E-10
 165 F= -.30309223E+03 E0= -.30313575E+03  d E =-.145519E-10
       N       E                     dE             d eps       ncg     rms          rms(c)
DAV:   1    -0.303092234199E+03    0.11205E-08   -0.48029E-10   312   0.157E-10    0.448E-10
RMM:   2    -0.303092234200E+03   -0.20373E-09    0.00000E+00     2   0.125E-10
 166 F= -.30309223E+03 E0= -.30313575E+03  d E =0.291038E-10
       N       E                     dE             d eps       ncg     rms          rms(c)
DAV:   1    -0.303092234200E+03   -0.96043E-09   -0.45650E-10   312   0.412E-10    0.185E-10
RMM:   2    -0.303092234200E+03    0.80763E-09    0.00000E+00     2   0.690E-11
 167 F= -.30309223E+03 E0= -.30313575E+03  d E =0.509317E-10
       N       E                     dE             d eps       ncg     rms          rms(c)
DAV:   1    -0.303092234199E+03    0.10623E-08   -0.61174E-10   312   0.104E-10    0.384E-10
RMM:   2    -0.303092234199E+03   -0.18917E-09    0.00000E+00     2   0.818E-11
 168 F= -.30309223E+03 E0= -.30313575E+03  d E =0.654836E-10
       N       E                     dE             d eps       ncg     rms          rms(c)
DAV:   1    -0.303092234200E+03   -0.69122E-09   -0.65059E-10   312   0.178E-10    0.256E-10
RMM:   2    -0.303092234199E+03    0.56752E-09    0.00000E+00     2   0.772E-11
 169 F= -.30309223E+03 E0= -.30313575E+03  d E =0.654836E-10
       N       E                     dE             d eps       ncg     rms          rms(c)
DAV:   1    -0.303092234200E+03   -0.26193E-09   -0.48026E-10   312   0.114E-10    0.315E-10
RMM:   2    -0.303092234200E+03    0.69122E-09    0.00000E+00     2   0.919E-11
 170 F= -.30309223E+03 E0= -.30313575E+03  d E =-.138243E-09
       N       E                     dE             d eps       ncg     rms          rms(c)
DAV:   1    -0.303092234199E+03    0.11860E-08   -0.52493E-10   312   0.209E-10    0.261E-10
RMM:   2    -0.303092234200E+03   -0.55297E-09    0.00000E+00     2   0.717E-11
 171 F= -.30309223E+03 E0= -.30313575E+03  d E =-.582077E-10
       N       E                     dE             d eps       ncg     rms          rms(c)
DAV:   1    -0.303092234200E+03   -0.12151E-08   -0.47585E-10   312   0.153E-10    0.239E-10
RMM:   2    -0.303092234200E+03    0.76398E-09    0.00000E+00     2   0.845E-11
 172 F= -.30309223E+03 E0= -.30313575E+03  d E =0.101863E-09
       N       E                     dE             d eps       ncg     rms          rms(c)
DAV:   1    -0.303092234199E+03    0.17608E-08   -0.60863E-10   312   0.245E-10    0.215E-10
RMM:   2    -0.303092234200E+03   -0.10623E-08    0.00000E+00     2   0.851E-11
 173 F= -.30309223E+03 E0= -.30313575E+03  d E =-.654836E-10
       N       E                     dE             d eps       ncg     rms          rms(c)
DAV:   1    -0.303092234200E+03   -0.16807E-08   -0.12737E-10   312   0.165E-10    0.257E-10
RMM:   2    -0.303092234200E+03    0.57480E-09    0.00000E+00     2   0.896E-11
 174 F= -.30309223E+03 E0= -.30313575E+03  d E =-.436557E-10
       N       E                     dE             d eps       ncg     rms          rms(c)
DAV:   1    -0.303092234200E+03    0.26921E-09   -0.21438E-10   312   0.233E-10    0.239E-10
RMM:   2    -0.303092234199E+03    0.43656E-09    0.00000E+00     2   0.780E-11
 175 F= -.30309223E+03 E0= -.30313575E+03  d E =0.130967E-09
       N       E                     dE             d eps       ncg     rms          rms(c)
DAV:   1    -0.303092234199E+03    0.13315E-08   -0.43309E-10   312   0.181E-10    0.203E-10
RMM:   2    -0.303092234200E+03   -0.90222E-09    0.00000E+00     2   0.776E-11
 176 F= -.30309223E+03 E0= -.30313575E+03  d E =-.727596E-11
       N       E                     dE             d eps       ncg     rms          rms(c)
DAV:   1    -0.303092234199E+03   -0.57480E-09   -0.87609E-10   312   0.209E-10    0.187E-10
RMM:   2    -0.303092234199E+03   -0.32014E-09    0.00000E+00     2   0.796E-11
 177 F= -.30309223E+03 E0= -.30313575E+03  d E =0.727596E-11
       N       E                     dE             d eps       ncg     rms          rms(c)
DAV:   1    -0.303092234201E+03   -0.16371E-08   -0.49426E-10   312   0.170E-10    0.311E-10
RMM:   2    -0.303092234199E+03    0.13242E-08    0.00000E+00     2   0.107E-10
 178 F= -.30309223E+03 E0= -.30313575E+03  d E =0.727596E-11
       N       E                     dE             d eps       ncg     rms          rms(c)
DAV:   1    -0.303092234199E+03    0.17171E-08   -0.51684E-10   312   0.292E-10    0.218E-10
RMM:   2    -0.303092234200E+03   -0.57480E-09    0.00000E+00     2   0.875E-11
 179 F= -.30309223E+03 E0= -.30313575E+03  d E =-.181899E-09
       N       E                     dE             d eps       ncg     rms          rms(c)
DAV:   1    -0.303092234199E+03   -0.26921E-09   -0.31872E-10   312   0.232E-10    0.376E-10
RMM:   2    -0.303092234200E+03   -0.24738E-09    0.00000E+00     2   0.949E-11
 180 F= -.30309223E+03 E0= -.30313575E+03  d E =0.582077E-10
       N       E                     dE             d eps       ncg     rms          rms(c)
DAV:   1    -0.303092234200E+03   -0.82946E-09   -0.50516E-10   312   0.243E-10    0.421E-10
RMM:   2    -0.303092234200E+03    0.53842E-09    0.00000E+00     2   0.112E-10
 181 F= -.30309223E+03 E0= -.30313575E+03  d E =-.436557E-10
       N       E                     dE             d eps       ncg     rms          rms(c)
DAV:   1    -0.303092234199E+03    0.13461E-08   -0.53903E-10   312   0.149E-10    0.296E-10
RMM:   2    -0.303092234200E+03   -0.74215E-09    0.00000E+00     2   0.936E-11
 182 F= -.30309223E+03 E0= -.30313575E+03  d E =0.654836E-10
       N       E                     dE             d eps       ncg     rms          rms(c)
DAV:   1    -0.303092234199E+03   -0.58208E-09   -0.63459E-10   312   0.193E-10    0.392E-10
RMM:   2    -0.303092234200E+03   -0.18917E-09    0.00000E+00     2   0.101E-10
 183 F= -.30309223E+03 E0= -.30313575E+03  d E =-.291038E-10
       N       E                     dE             d eps       ncg     rms          rms(c)
DAV:   1    -0.303092234199E+03    0.29104E-09   -0.42604E-10   312   0.203E-10    0.206E-10
RMM:   2    -0.303092234200E+03   -0.46566E-09    0.00000E+00     2   0.795E-11
 184 F= -.30309223E+03 E0= -.30313575E+03  d E =0.145519E-10
       N       E                     dE             d eps       ncg     rms          rms(c)
DAV:   1    -0.303092234198E+03    0.65484E-09   -0.64977E-10   312   0.169E-10    0.284E-10
RMM:   2    -0.303092234200E+03   -0.10914E-08    0.00000E+00     2   0.814E-11
 185 F= -.30309223E+03 E0= -.30313575E+03  d E =0.291038E-10
       N       E                     dE             d eps       ncg     rms          rms(c)
DAV:   1    -0.303092234199E+03   -0.45111E-09   -0.60751E-10   312   0.195E-10    0.235E-10
RMM:   2    -0.303092234200E+03   -0.73487E-09    0.00000E+00     2   0.706E-11
 186 F= -.30309223E+03 E0= -.30313575E+03  d E =-.945874E-10
       N       E                     dE             d eps       ncg     rms          rms(c)
DAV:   1    -0.303092234200E+03   -0.72760E-09   -0.29863E-10   312   0.165E-10    0.273E-10
RMM:   2    -0.303092234200E+03    0.13097E-09    0.00000E+00     2   0.954E-11
 187 F= -.30309223E+03 E0= -.30313575E+03  d E =0.138243E-09
       N       E                     dE             d eps       ncg     rms          rms(c)
DAV:   1    -0.303092234200E+03   -0.18190E-09   -0.53277E-10   312   0.304E-10    0.188E-10
RMM:   2    -0.303092234200E+03    0.30559E-09    0.00000E+00     2   0.852E-11
 188 F= -.30309223E+03 E0= -.30313575E+03  d E =-.727596E-11
       N       E                     dE             d eps       ncg     rms          rms(c)
DAV:   1    -0.303092234199E+03    0.49477E-09   -0.52984E-10   312   0.128E-10    0.387E-10
RMM:   2    -0.303092234200E+03   -0.21100E-09    0.00000E+00     2   0.108E-10
 189 F= -.30309223E+03 E0= -.30313575E+03  d E =-.218279E-10
       N       E                     dE             d eps       ncg     rms          rms(c)
DAV:   1    -0.303092234200E+03   -0.18190E-09   -0.42669E-10   312   0.300E-10    0.424E-10
RMM:   2    -0.303092234200E+03   -0.94587E-10    0.00000E+00     2   0.116E-10
 190 F= -.30309223E+03 E0= -.30313575E+03  d E =-.654836E-10
       N       E                     dE             d eps       ncg     rms          rms(c)
DAV:   1    -0.303092234199E+03    0.87311E-09   -0.41633E-10   312   0.389E-10    0.246E-10
RMM:   2    -0.303092234200E+03   -0.86584E-09    0.00000E+00     2   0.981E-11
 191 F= -.30309223E+03 E0= -.30313575E+03  d E =0.101863E-09
       N       E                     dE             d eps       ncg     rms          rms(c)
DAV:   1    -0.303092234200E+03   -0.18044E-08   -0.36563E-10   312   0.272E-10    0.191E-10
RMM:   2    -0.303092234200E+03    0.93860E-09    0.00000E+00     2   0.793E-11
 192 F= -.30309223E+03 E0= -.30313575E+03  d E =0.000000E+00
       N       E                     dE             d eps       ncg     rms          rms(c)
DAV:   1    -0.303092234200E+03    0.90222E-09   -0.62111E-10   312   0.199E-10    0.218E-10
RMM:   2    -0.303092234200E+03    0.29104E-10    0.00000E+00     2   0.869E-11
 193 F= -.30309223E+03 E0= -.30313575E+03  d E =-.727596E-11
       N       E                     dE             d eps       ncg     rms          rms(c)
DAV:   1    -0.303092234199E+03    0.50204E-09   -0.55315E-10   312   0.217E-10    0.303E-10
RMM:   2    -0.303092234200E+03   -0.46566E-09    0.00000E+00     2   0.821E-11
 194 F= -.30309223E+03 E0= -.30313575E+03  d E =0.727596E-11
       N       E                     dE             d eps       ncg     rms          rms(c)
DAV:   1    -0.303092234200E+03   -0.75670E-09   -0.39502E-10   312   0.163E-10    0.403E-10
RMM:   2    -0.303092234200E+03    0.26193E-09    0.00000E+00     2   0.104E-10
 195 F= -.30309223E+03 E0= -.30313575E+03  d E =-.291038E-10
       N       E                     dE             d eps       ncg     rms          rms(c)
DAV:   1    -0.303092234200E+03   -0.38563E-09   -0.29999E-10   312   0.242E-10    0.316E-10
RMM:   2    -0.303092234199E+03    0.72760E-09    0.00000E+00     2   0.108E-10
 196 F= -.30309223E+03 E0= -.30313575E+03  d E =0.800355E-10
       N       E                     dE             d eps       ncg     rms          rms(c)
DAV:   1    -0.303092234200E+03    0.42928E-09   -0.84840E-10   312   0.294E-10    0.322E-10
RMM:   2    -0.303092234200E+03    0.14552E-09    0.00000E+00     2   0.118E-10
 197 F= -.30309223E+03 E0= -.30313575E+03  d E =-.152795E-09
       N       E                     dE             d eps       ncg     rms          rms(c)
DAV:   1    -0.303092234201E+03   -0.15862E-08   -0.22428E-10   312   0.314E-10    0.277E-10
RMM:   2    -0.303092234200E+03    0.17171E-08    0.00000E+00     2   0.101E-10
 198 F= -.30309223E+03 E0= -.30313575E+03  d E =-.145519E-10
       N       E                     dE             d eps       ncg     rms          rms(c)
DAV:   1    -0.303092234200E+03    0.95315E-09   -0.71265E-10   312   0.258E-10    0.244E-10
RMM:   2    -0.303092234200E+03    0.76398E-09    0.00000E+00     2   0.833E-11
 199 F= -.30309223E+03 E0= -.30313575E+03  d E =0.000000E+00
       N       E                     dE             d eps       ncg     rms          rms(c)
DAV:   1    -0.303092234199E+03    0.12224E-08   -0.61996E-10   312   0.214E-10    0.365E-10
RMM:   2    -0.303092234200E+03   -0.36380E-09    0.00000E+00     2   0.120E-10
 200 F= -.30309223E+03 E0= -.30313575E+03  d E =0.945874E-10
       N       E                     dE             d eps       ncg     rms          rms(c)
DAV:   1    -0.303092234199E+03   -0.16007E-09   -0.58705E-10   312   0.353E-10    0.297E-10
RMM:   2    -0.303092234200E+03   -0.20373E-09    0.00000E+00     2   0.850E-11
 201 F= -.30309223E+03 E0= -.30313575E+03  d E =0.000000E+00
       N       E                     dE             d eps       ncg     rms          rms(c)
DAV:   1    -0.303092234200E+03   -0.57480E-09   -0.45176E-10   312   0.209E-10    0.203E-10
RMM:   2    -0.303092234199E+03    0.42201E-09    0.00000E+00     2   0.685E-11
 202 F= -.30309223E+03 E0= -.30313575E+03  d E =0.509317E-10
       N       E                     dE             d eps       ncg     rms          rms(c)
DAV:   1    -0.303092234199E+03    0.10259E-08   -0.44917E-10   312   0.159E-10    0.213E-10
RMM:   2    -0.303092234200E+03   -0.66211E-09    0.00000E+00     2   0.911E-11
 203 F= -.30309223E+03 E0= -.30313575E+03  d E =-.582077E-10
       N       E                     dE             d eps       ncg     rms          rms(c)
DAV:   1    -0.303092234198E+03    0.42201E-09   -0.50450E-10   312   0.214E-10    0.342E-10
RMM:   2    -0.303092234200E+03   -0.11642E-08    0.00000E+00     2   0.980E-11
 204 F= -.30309223E+03 E0= -.30313575E+03  d E =-.800355E-10
       N       E                     dE             d eps       ncg     rms          rms(c)
DAV:   1    -0.303092234199E+03   -0.88767E-09   -0.45248E-10   312   0.278E-10    0.312E-10
RMM:   2    -0.303092234200E+03   -0.18190E-09    0.00000E+00     2   0.105E-10
 205 F= -.30309223E+03 E0= -.30313575E+03  d E =0.945874E-10
       N       E                     dE             d eps       ncg     rms          rms(c)
DAV:   1    -0.303092234200E+03   -0.87311E-09   -0.33456E-10   312   0.363E-10    0.200E-10
RMM:   2    -0.303092234199E+03    0.76398E-09    0.00000E+00     2   0.828E-11
 206 F= -.30309223E+03 E0= -.30313575E+03  d E =0.727596E-10
       N       E                     dE             d eps       ncg     rms          rms(c)
DAV:   1    -0.303092234199E+03    0.90222E-09   -0.49062E-10   312   0.112E-10    0.356E-10
RMM:   2    -0.303092234199E+03   -0.13824E-09    0.00000E+00     2   0.929E-11
 207 F= -.30309223E+03 E0= -.30313575E+03  d E =0.000000E+00
       N       E                     dE             d eps       ncg     rms          rms(c)
DAV:   1    -0.303092234199E+03   -0.58208E-10   -0.56983E-10   312   0.241E-10    0.244E-10
RMM:   2    -0.303092234200E+03   -0.23283E-09    0.00000E+00     2   0.775E-11
 208 F= -.30309223E+03 E0= -.30313575E+03  d E =-.152795E-09
       N       E                     dE             d eps       ncg     rms          rms(c)
DAV:   1    -0.303092234200E+03   -0.69849E-09   -0.34055E-10   312   0.184E-10    0.287E-10
RMM:   2    -0.303092234200E+03    0.56752E-09    0.00000E+00     2   0.919E-11
 209 F= -.30309223E+03 E0= -.30313575E+03  d E =0.101863E-09
       N       E                     dE             d eps       ncg     rms          rms(c)
DAV:   1    -0.303092234200E+03    0.15280E-09   -0.56284E-10   312   0.156E-10    0.201E-10
RMM:   2    -0.303092234200E+03    0.37107E-09    0.00000E+00     2   0.774E-11
 210 F= -.30309223E+03 E0= -.30313575E+03  d E =-.436557E-10
       N       E                     dE             d eps       ncg     rms          rms(c)
DAV:   1    -0.303092234198E+03    0.16371E-08   -0.44329E-10   312   0.139E-10    0.291E-10
RMM:   2    -0.303092234200E+03   -0.12369E-08    0.00000E+00     2   0.906E-11
 211 F= -.30309223E+03 E0= -.30313575E+03  d E =0.291038E-10
       N       E                     dE             d eps       ncg     rms          rms(c)
DAV:   1    -0.303092234200E+03   -0.15207E-08   -0.50672E-10   312   0.206E-10    0.315E-10
RMM:   2    -0.303092234200E+03    0.31287E-09    0.00000E+00     2   0.924E-11
 212 F= -.30309223E+03 E0= -.30313575E+03  d E =0.291038E-10
       N       E                     dE             d eps       ncg     rms          rms(c)
DAV:   1    -0.303092234199E+03    0.10841E-08   -0.60681E-10   312   0.222E-10    0.342E-10
RMM:   2    -0.303092234200E+03   -0.86584E-09    0.00000E+00     2   0.771E-11
 213 F= -.30309223E+03 E0= -.30313575E+03  d E =-.945874E-10
       N       E                     dE             d eps       ncg     rms          rms(c)
DAV:   1    -0.303092234199E+03    0.20373E-09   -0.55257E-10   312   0.141E-10    0.185E-10
RMM:   2    -0.303092234200E+03   -0.10987E-08    0.00000E+00     2   0.761E-11
 214 F= -.30309223E+03 E0= -.30313575E+03  d E =-.291038E-10
       N       E                     dE             d eps       ncg     rms          rms(c)
DAV:   1    -0.303092234199E+03   -0.10914E-09   -0.70764E-10   312   0.142E-10    0.313E-10
RMM:   2    -0.303092234199E+03   -0.85129E-09    0.00000E+00     2   0.825E-11
 215 F= -.30309223E+03 E0= -.30313575E+03  d E =0.138243E-09
       N       E                     dE             d eps       ncg     rms          rms(c)
DAV:   1    -0.303092234200E+03   -0.10041E-08   -0.81892E-10   312   0.159E-10    0.194E-10
RMM:   2    -0.303092234200E+03    0.80036E-10    0.00000E+00     2   0.677E-11
 216 F= -.30309223E+03 E0= -.30313575E+03  d E =-.727596E-10
       N       E                     dE             d eps       ncg     rms          rms(c)
DAV:   1    -0.303092234199E+03    0.10914E-08   -0.59648E-10   312   0.112E-10    0.291E-10
RMM:   2    -0.303092234200E+03   -0.10914E-08    0.00000E+00     2   0.866E-11
 217 F= -.30309223E+03 E0= -.30313575E+03  d E =-.800355E-10
       N       E                     dE             d eps       ncg     rms          rms(c)
DAV:   1    -0.303092234199E+03   -0.45111E-09   -0.36528E-10   312   0.259E-10    0.216E-10
RMM:   2    -0.303092234200E+03   -0.61118E-09    0.00000E+00     2   0.733E-11
 218 F= -.30309223E+03 E0= -.30313575E+03  d E =0.291038E-10
       N       E                     dE             d eps       ncg     rms          rms(c)
DAV:   1    -0.303092234200E+03   -0.85856E-09   -0.61340E-10   312   0.167E-10    0.220E-10
RMM:   2    -0.303092234200E+03    0.28376E-09    0.00000E+00     2   0.765E-11
 219 F= -.30309223E+03 E0= -.30313575E+03  d E =0.363798E-10
       N       E                     dE             d eps       ncg     rms          rms(c)
DAV:   1    -0.303092234199E+03    0.12878E-08   -0.31373E-10   312   0.113E-10    0.241E-10
RMM:   2    -0.303092234200E+03   -0.93860E-09    0.00000E+00     2   0.728E-11
 220 F= -.30309223E+03 E0= -.30313575E+03  d E =0.654836E-10
       N       E                     dE             d eps       ncg     rms          rms(c)
DAV:   1    -0.303092234199E+03   -0.86584E-09   -0.42858E-10   312   0.130E-10    0.285E-10
RMM:   2    -0.303092234200E+03   -0.14552E-09    0.00000E+00     2   0.822E-11
 221 F= -.30309223E+03 E0= -.30313575E+03  d E =-.727596E-10
       N       E                     dE             d eps       ncg     rms          rms(c)
DAV:   1    -0.303092234200E+03   -0.90949E-09   -0.66806E-10   312   0.180E-10    0.277E-10
RMM:   2    -0.303092234200E+03    0.77125E-09    0.00000E+00     2   0.810E-11
 222 F= -.30309223E+03 E0= -.30313575E+03  d E =0.727596E-11
       N       E                     dE             d eps       ncg     rms          rms(c)
DAV:   1    -0.303092234199E+03    0.96770E-09   -0.38230E-10   312   0.178E-10    0.332E-10
RMM:   2    -0.303092234200E+03   -0.26921E-09    0.00000E+00     2   0.999E-11
 223 F= -.30309223E+03 E0= -.30313575E+03  d E =-.727596E-10
       N       E                     dE             d eps       ncg     rms          rms(c)
DAV:   1    -0.303092234201E+03   -0.14916E-08   -0.28498E-10   312   0.334E-10    0.215E-10
RMM:   2    -0.303092234200E+03    0.13388E-08    0.00000E+00     2   0.762E-11
 224 F= -.30309223E+03 E0= -.30313575E+03  d E =0.116415E-09
       N       E                     dE             d eps       ncg     rms          rms(c)
DAV:   1    -0.303092234200E+03    0.45839E-09   -0.41376E-10   312   0.122E-10    0.337E-10
RMM:   2    -0.303092234200E+03    0.79308E-09    0.00000E+00     2   0.770E-11
 225 F= -.30309223E+03 E0= -.30313575E+03  d E =-.873115E-10
       N       E                     dE             d eps       ncg     rms          rms(c)
DAV:   1    -0.303092234199E+03    0.13024E-08   -0.46261E-10   312   0.163E-10    0.270E-10
RMM:   2    -0.303092234200E+03   -0.52387E-09    0.00000E+00     2   0.832E-11
 226 F= -.30309223E+03 E0= -.30313575E+03  d E =-.145519E-10
       N       E                     dE             d eps       ncg     rms          rms(c)
DAV:   1    -0.303092234199E+03    0.72760E-10   -0.68608E-10   312   0.216E-10    0.209E-10
RMM:   2    -0.303092234200E+03   -0.51659E-09    0.00000E+00     2   0.843E-11
 227 F= -.30309223E+03 E0= -.30313575E+03  d E =0.800355E-10
       N       E                     dE             d eps       ncg     rms          rms(c)
DAV:   1    -0.303092234200E+03   -0.10841E-08   -0.62806E-10   312   0.164E-10    0.304E-10
RMM:   2    -0.303092234200E+03    0.49477E-09    0.00000E+00     2   0.863E-11
 228 F= -.30309223E+03 E0= -.30313575E+03  d E =-.727596E-10
       N       E                     dE             d eps       ncg     rms          rms(c)
DAV:   1    -0.303092234200E+03    0.52387E-09   -0.26635E-10   312   0.202E-10    0.338E-10
RMM:   2    -0.303092234200E+03    0.36380E-10    0.00000E+00     2   0.839E-11
 229 F= -.30309223E+03 E0= -.30313575E+03  d E =0.654836E-10
       N       E                     dE             d eps       ncg     rms          rms(c)
DAV:   1    -0.303092234199E+03    0.70577E-09   -0.74376E-10   312   0.236E-10    0.220E-10
RMM:   2    -0.303092234200E+03   -0.72032E-09    0.00000E+00     2   0.869E-11
 230 F= -.30309223E+03 E0= -.30313575E+03  d E =-.509317E-10
       N       E                     dE             d eps       ncg     rms          rms(c)
DAV:   1    -0.303092234198E+03    0.50932E-09   -0.53336E-10   312   0.159E-10    0.335E-10
RMM:   2    -0.303092234200E+03   -0.12587E-08    0.00000E+00     2   0.981E-11
 231 F= -.30309223E+03 E0= -.30313575E+03  d E =-.291038E-10
       N       E                     dE             d eps       ncg     rms          rms(c)
DAV:   1    -0.303092234200E+03   -0.13169E-08   -0.44607E-10   312   0.284E-10    0.222E-10
RMM:   2    -0.303092234200E+03    0.17462E-09    0.00000E+00     2   0.874E-11
 232 F= -.30309223E+03 E0= -.30313575E+03  d E =0.116415E-09
       N       E                     dE             d eps       ncg     rms          rms(c)
DAV:   1    -0.303092234201E+03   -0.15134E-08   -0.43160E-10   312   0.162E-10    0.376E-10
RMM:   2    -0.303092234200E+03    0.16880E-08    0.00000E+00     2   0.106E-10
 233 F= -.30309223E+03 E0= -.30313575E+03  d E =0.000000E+00
       N       E                     dE             d eps       ncg     rms          rms(c)
DAV:   1    -0.303092234200E+03    0.93132E-09   -0.50590E-10   312   0.359E-10    0.165E-10
RMM:   2    -0.303092234200E+03    0.71304E-09    0.00000E+00     2   0.803E-11
 234 F= -.30309223E+03 E0= -.30313575E+03  d E =-.436557E-10
       N       E                     dE             d eps       ncg     rms          rms(c)
DAV:   1    -0.303092234199E+03    0.14334E-08   -0.65604E-10   312   0.146E-10    0.198E-10
RMM:   2    -0.303092234200E+03   -0.70577E-09    0.00000E+00     2   0.720E-11
 235 F= -.30309223E+03 E0= -.30313575E+03  d E =0.145519E-10
       N       E                     dE             d eps       ncg     rms          rms(c)
DAV:   1    -0.303092234200E+03   -0.88039E-09   -0.35999E-10   312   0.141E-10    0.382E-10
RMM:   2    -0.303092234200E+03    0.94587E-10    0.00000E+00     2   0.862E-11
 236 F= -.30309223E+03 E0= -.30313575E+03  d E =-.800355E-10
       N       E                     dE             d eps       ncg     rms          rms(c)
DAV:   1    -0.303092234199E+03    0.11569E-08   -0.35299E-10   312   0.125E-10    0.381E-10
RMM:   2    -0.303092234200E+03   -0.10114E-08    0.00000E+00     2   0.118E-10
 237 F= -.30309223E+03 E0= -.30313575E+03  d E =0.509317E-10
       N       E                     dE             d eps       ncg     rms          rms(c)
DAV:   1    -0.303092234199E+03   -0.36380E-10   -0.45789E-10   312   0.342E-10    0.206E-10
RMM:   2    -0.303092234199E+03   -0.86584E-09    0.00000E+00     2   0.874E-11
 238 F= -.30309223E+03 E0= -.30313575E+03  d E =0.109139E-09
       N       E                     dE             d eps       ncg     rms          rms(c)
DAV:   1    -0.303092234199E+03   -0.21100E-09   -0.62098E-10   312   0.142E-10    0.361E-10
RMM:   2    -0.303092234200E+03   -0.82218E-09    0.00000E+00     2   0.946E-11
 239 F= -.30309223E+03 E0= -.30313575E+03  d E =-.167347E-09
       N       E                     dE             d eps       ncg     rms          rms(c)
DAV:   1    -0.303092234199E+03   -0.35652E-09   -0.41669E-10   312   0.155E-10    0.307E-10
RMM:   2    -0.303092234200E+03   -0.40745E-09    0.00000E+00     2   0.803E-11
[...]
 635 F= -.30309223E+03 E0= -.30313575E+03  d E =-.800355E-10
       N       E                     dE             d eps       ncg     rms          rms(c)
DAV:   1    -0.303092234200E+03    0.42928E-09   -0.36529E-10   312   0.275E-10    0.215E-10
RMM:   2    -0.303092234200E+03    0.26193E-09    0.00000E+00     2   0.868E-11
 636 F= -.30309223E+03 E0= -.30313575E+03  d E =0.945874E-10
       N       E                     dE             d eps       ncg     rms          rms(c)
DAV:   1    -0.303092234200E+03   -0.36380E-09   -0.52616E-10   312   0.210E-10    0.218E-10
RMM:   2    -0.303092234199E+03    0.69849E-09    0.00000E+00     2   0.919E-11
 637 F= -.30309223E+03 E0= -.30313575E+03  d E =0.727596E-10
       N       E                     dE             d eps       ncg     rms          rms(c)
DAV:   1    -0.303092234200E+03    0.13097E-09   -0.61749E-10   312   0.172E-10    0.324E-10
RMM:   2    -0.303092234200E+03    0.51659E-09    0.00000E+00     2   0.863E-11
 638 F= -.30309223E+03 E0= -.30313575E+03  d E =-.509317E-10
       N       E                     dE             d eps       ncg     rms          rms(c)
DAV:   1    -0.303092234200E+03   -0.26921E-09   -0.49317E-10   312   0.238E-10    0.256E-10
RMM:   2    -0.303092234200E+03    0.62573E-09    0.00000E+00     2   0.827E-11
 639 F= -.30309223E+03 E0= -.30313575E+03  d E =-.160071E-09
       N       E                     dE             d eps       ncg     rms          rms(c)
DAV:   1    -0.303092234199E+03    0.99681E-09   -0.48569E-10   312   0.168E-10    0.217E-10
RMM:   2    -0.303092234200E+03   -0.23283E-09    0.00000E+00     2   0.773E-11
 640 F= -.30309223E+03 E0= -.30313575E+03  d E =0.138243E-09
       N       E                     dE             d eps       ncg     rms          rms(c)
DAV:   1    -0.303092234199E+03   -0.72760E-10   -0.57013E-10   312   0.201E-10    0.169E-10
RMM:   2    -0.303092234200E+03   -0.17462E-09    0.00000E+00     2   0.782E-11
 641 F= -.30309223E+03 E0= -.30313575E+03  d E =-.145519E-10
       N       E                     dE             d eps       ncg     rms          rms(c)
DAV:   1    -0.303092234200E+03   -0.43656E-09   -0.73952E-10   312   0.157E-10    0.250E-10
RMM:   2    -0.303092234200E+03    0.21828E-09    0.00000E+00     2   0.734E-11
 642 F= -.30309223E+03 E0= -.30313575E+03  d E =-.436557E-10
       N       E                     dE             d eps       ncg     rms          rms(c)
DAV:   1    -0.303092234200E+03    0.26193E-09   -0.43600E-10   312   0.137E-10    0.388E-10
RMM:   2    -0.303092234200E+03    0.29104E-10    0.00000E+00     2   0.856E-11
 643 F= -.30309223E+03 E0= -.30313575E+03  d E =0.727596E-10
       N       E                     dE             d eps       ncg     rms          rms(c)
DAV:   1    -0.303092234200E+03   -0.61846E-09   -0.70919E-10   312   0.153E-10    0.374E-10
RMM:   2    -0.303092234200E+03    0.51659E-09    0.00000E+00     2   0.103E-10
 644 F= -.30309223E+03 E0= -.30313575E+03  d E =-.130967E-09
       N       E                     dE             d eps       ncg     rms          rms(c)
DAV:   1    -0.303092234201E+03   -0.73487E-09   -0.41792E-10   312   0.346E-10    0.262E-10
RMM:   2    -0.303092234200E+03    0.12660E-08    0.00000E+00     2   0.828E-11
 645 F= -.30309223E+03 E0= -.30313575E+03  d E =0.145519E-10
       N       E                     dE             d eps       ncg     rms          rms(c)
DAV:   1    -0.303092234200E+03    0.50204E-09   -0.23152E-10   312   0.209E-10    0.231E-10
RMM:   2    -0.303092234199E+03    0.92405E-09    0.00000E+00     2   0.838E-11
 646 F= -.30309223E+03 E0= -.30313575E+03  d E =0.160071E-09
       N       E                     dE             d eps       ncg     rms          rms(c)
DAV:   1    -0.303092234200E+03    0.49477E-09   -0.25500E-10   312   0.141E-10    0.291E-10
RMM:   2    -0.303092234200E+03    0.32014E-09    0.00000E+00     2   0.927E-11
 647 F= -.30309223E+03 E0= -.30313575E+03  d E =-.109139E-09
       N       E                     dE             d eps       ncg     rms          rms(c)
DAV:   1    -0.303092234200E+03   -0.59663E-09   -0.57907E-10   312   0.229E-10    0.298E-10
RMM:   2    -0.303092234200E+03    0.96043E-09    0.00000E+00     2   0.131E-10
 648 F= -.30309223E+03 E0= -.30313575E+03  d E =0.436557E-10
       N       E                     dE             d eps       ncg     rms          rms(c)
DAV:   1    -0.303092234200E+03    0.39290E-09   -0.45211E-10   312   0.349E-10    0.369E-10
RMM:   2    -0.303092234200E+03    0.45839E-09    0.00000E+00     2   0.131E-10
 649 F= -.30309223E+03 E0= -.30313575E+03  d E =-.109139E-09
       N       E                     dE             d eps       ncg     rms          rms(c)
DAV:   1    -0.303092234198E+03    0.16662E-08   -0.51671E-10   312   0.401E-10    0.200E-10
RMM:   2    -0.303092234200E+03   -0.11350E-08    0.00000E+00     2   0.757E-11
 650 F= -.30309223E+03 E0= -.30313575E+03  d E =0.727596E-10
       N       E                     dE             d eps       ncg     rms          rms(c)
DAV:   1    -0.303092234200E+03   -0.18699E-08   -0.60646E-10   312   0.102E-10    0.279E-10
RMM:   2    -0.303092234200E+03    0.80036E-09    0.00000E+00     2   0.804E-11
 651 F= -.30309223E+03 E0= -.30313575E+03  d E =0.654836E-10
       N       E                     dE             d eps       ncg     rms          rms(c)
DAV:   1    -0.303092234200E+03    0.78580E-09   -0.64837E-10   312   0.165E-10    0.209E-10
RMM:   2    -0.303092234200E+03   -0.43656E-10    0.00000E+00     2   0.765E-11
 652 F= -.30309223E+03 E0= -.30313575E+03  d E =-.582077E-10
       N       E                     dE             d eps       ncg     rms          rms(c)
DAV:   1    -0.303092234199E+03    0.29104E-10   -0.36288E-10   312   0.171E-10    0.217E-10
RMM:   2    -0.303092234200E+03   -0.13097E-09    0.00000E+00     2   0.832E-11
 653 F= -.30309223E+03 E0= -.30313575E+03  d E =-.582077E-10
       N       E                     dE             d eps       ncg     rms          rms(c)
DAV:   1    -0.303092234200E+03   -0.13097E-09   -0.41555E-10   312   0.144E-10    0.242E-10
RMM:   2    -0.303092234200E+03    0.50932E-10    0.00000E+00     2   0.754E-11
 654 F= -.30309223E+03 E0= -.30313575E+03  d E =0.509317E-10
       N       E                     dE             d eps       ncg     rms          rms(c)
DAV:   1    -0.303092234199E+03    0.26193E-09   -0.60354E-10   312   0.179E-10    0.260E-10
RMM:   2    -0.303092234199E+03   -0.13824E-09    0.00000E+00     2   0.775E-11
 655 F= -.30309223E+03 E0= -.30313575E+03  d E =0.727596E-10
       N       E                     dE             d eps       ncg     rms          rms(c)
DAV:   1    -0.303092234199E+03    0.78580E-09   -0.48915E-10   312   0.165E-10    0.243E-10
RMM:   2    -0.303092234200E+03   -0.10696E-08    0.00000E+00     2   0.752E-11
 656 F= -.30309223E+03 E0= -.30313575E+03  d E =-.145519E-09
       N       E                     dE             d eps       ncg     rms          rms(c)
DAV:   1    -0.303092234201E+03   -0.20955E-08   -0.42421E-10   312   0.151E-10    0.283E-10
RMM:   2    -0.303092234200E+03    0.11350E-08    0.00000E+00     2   0.793E-11
 657 F= -.30309223E+03 E0= -.30313575E+03  d E =0.109139E-09
       N       E                     dE             d eps       ncg     rms          rms(c)
DAV:   1    -0.303092234200E+03    0.89494E-09   -0.63488E-10   312   0.198E-10    0.206E-10
RMM:   2    -0.303092234200E+03    0.21100E-09    0.00000E+00     2   0.726E-11
 658 F= -.30309223E+03 E0= -.30313575E+03  d E =-.291038E-10
       N       E                     dE             d eps       ncg     rms          rms(c)
DAV:   1    -0.303092234199E+03    0.11132E-08   -0.47623E-10   312   0.113E-10    0.288E-10
RMM:   2    -0.303092234200E+03   -0.10259E-08    0.00000E+00     2   0.821E-11
 659 F= -.30309223E+03 E0= -.30313575E+03  d E =-.123691E-09
       N       E                     dE             d eps       ncg     rms          rms(c)
DAV:   1    -0.303092234199E+03    0.13097E-09   -0.50788E-10   312   0.185E-10    0.381E-10
RMM:   2    -0.303092234199E+03   -0.94587E-09    0.00000E+00     2   0.917E-11
 660 F= -.30309223E+03 E0= -.30313575E+03  d E =0.211003E-09
       N       E                     dE             d eps       ncg     rms          rms(c)
DAV:   1    -0.303092234200E+03   -0.10623E-08   -0.46083E-10   312   0.207E-10    0.171E-10
RMM:   2    -0.303092234200E+03    0.65484E-10    0.00000E+00     2   0.817E-11
 661 F= -.30309223E+03 E0= -.30313575E+03  d E =-.509317E-10
       N       E                     dE             d eps       ncg     rms          rms(c)
DAV:   1    -0.303092234199E+03    0.12369E-09   -0.38426E-10   312   0.136E-10    0.395E-10
RMM:   2    -0.303092234199E+03   -0.21828E-10    0.00000E+00     2   0.107E-10
 662 F= -.30309223E+03 E0= -.30313575E+03  d E =0.363798E-10
       N       E                     dE             d eps       ncg     rms          rms(c)
DAV:   1    -0.303092234200E+03   -0.24011E-09   -0.37720E-10   312   0.267E-10    0.376E-10
RMM:   2    -0.303092234200E+03    0.16007E-09    0.00000E+00     2   0.115E-10
 663 F= -.30309223E+03 E0= -.30313575E+03  d E =-.582077E-10
       N       E                     dE             d eps       ncg     rms          rms(c)
DAV:   1    -0.303092234199E+03    0.47294E-09   -0.34864E-10   312   0.409E-10    0.320E-10
RMM:   2    -0.303092234200E+03   -0.36380E-09    0.00000E+00     2   0.105E-10
 664 F= -.30309223E+03 E0= -.30313575E+03  d E =-.509317E-10
       N       E                     dE             d eps       ncg     rms          rms(c)
DAV:   1    -0.303092234199E+03    0.68394E-09   -0.44294E-10   312   0.291E-10    0.207E-10
RMM:   2    -0.303092234200E+03   -0.10696E-08    0.00000E+00     2   0.739E-11
 665 F= -.30309223E+03 E0= -.30313575E+03  d E =-.218279E-10
       N       E                     dE             d eps       ncg     rms          rms(c)
DAV:   1    -0.303092234200E+03   -0.11059E-08   -0.54850E-10   312   0.217E-10    0.243E-10
RMM:   2    -0.303092234200E+03    0.50932E-10    0.00000E+00     2   0.887E-11
 666 F= -.30309223E+03 E0= -.30313575E+03  d E =0.145519E-10
       N       E                     dE             d eps       ncg     rms          rms(c)
DAV:   1    -0.303092234201E+03   -0.85856E-09   -0.47508E-10   312   0.153E-10    0.355E-10
RMM:   2    -0.303092234200E+03    0.86584E-09    0.00000E+00     2   0.923E-11
 667 F= -.30309223E+03 E0= -.30313575E+03  d E =-.436557E-10
       N       E                     dE             d eps       ncg     rms          rms(c)
DAV:   1    -0.303092234199E+03    0.14625E-08   -0.64256E-10   312   0.272E-10    0.177E-10
RMM:   2    -0.303092234199E+03   -0.43656E-09    0.00000E+00     2   0.792E-11
 668 F= -.30309223E+03 E0= -.30313575E+03  d E =0.160071E-09
       N       E                     dE             d eps       ncg     rms          rms(c)
DAV:   1    -0.303092234200E+03   -0.88039E-09   -0.55817E-10   312   0.200E-10    0.311E-10
RMM:   2    -0.303092234200E+03    0.34925E-09    0.00000E+00     2   0.897E-11
 669 F= -.30309223E+03 E0= -.30313575E+03  d E =-.945874E-10
       N       E                     dE             d eps       ncg     rms          rms(c)
DAV:   1    -0.303092234200E+03   -0.41473E-09   -0.45166E-10   312   0.176E-10    0.333E-10
RMM:   2    -0.303092234199E+03    0.88039E-09    0.00000E+00     2   0.957E-11
 670 F= -.30309223E+03 E0= -.30313575E+03  d E =0.116415E-09
       N       E                     dE             d eps       ncg     rms          rms(c)
DAV:   1    -0.303092234200E+03    0.39290E-09   -0.44644E-10   312   0.229E-10    0.253E-10
RMM:   2    -0.303092234200E+03    0.41473E-09    0.00000E+00     2   0.993E-11
 671 F= -.30309223E+03 E0= -.30313575E+03  d E =-.727596E-10
       N       E                     dE             d eps       ncg     rms          rms(c)
DAV:   1    -0.303092234199E+03    0.14261E-08   -0.63381E-10   312   0.199E-10    0.276E-10
RMM:   2    -0.303092234200E+03   -0.10041E-08    0.00000E+00     2   0.826E-11
 672 F= -.30309223E+03 E0= -.30313575E+03  d E =0.727596E-11
       N       E                     dE             d eps       ncg     rms          rms(c)
DAV:   1    -0.303092234199E+03   -0.68394E-09   -0.26991E-10   312   0.240E-10    0.268E-10
RMM:   2    -0.303092234200E+03   -0.34925E-09    0.00000E+00     2   0.104E-10
 673 F= -.30309223E+03 E0= -.30313575E+03  d E =-.291038E-10
       N       E                     dE             d eps       ncg     rms          rms(c)
DAV:   1    -0.303092234200E+03   -0.98225E-09   -0.35854E-10   312   0.281E-10    0.256E-10
RMM:   2    -0.303092234200E+03    0.56025E-09    0.00000E+00     2   0.854E-11
 674 F= -.30309223E+03 E0= -.30313575E+03  d E =-.727596E-10
       N       E                     dE             d eps       ncg     rms          rms(c)
DAV:   1    -0.303092234199E+03    0.88039E-09   -0.50990E-10   312   0.213E-10    0.290E-10
RMM:   2    -0.303092234200E+03   -0.24738E-09    0.00000E+00     2   0.114E-10
 675 F= -.30309223E+03 E0= -.30313575E+03  d E =0.727596E-10
       N       E                     dE             d eps       ncg     rms          rms(c)
DAV:   1    -0.303092234199E+03    0.21100E-09   -0.21278E-10   312   0.334E-10    0.320E-10
RMM:   2    -0.303092234200E+03   -0.52387E-09    0.00000E+00     2   0.116E-10
 676 F= -.30309223E+03 E0= -.30313575E+03  d E =-.654836E-10
       N       E                     dE             d eps       ncg     rms          rms(c)
DAV:   1    -0.303092234200E+03   -0.88039E-09   -0.37993E-10   312   0.341E-10    0.200E-10
RMM:   2    -0.303092234200E+03    0.43656E-09    0.00000E+00     2   0.710E-11
 677 F= -.30309223E+03 E0= -.30313575E+03  d E =0.800355E-10
       N       E                     dE             d eps       ncg     rms          rms(c)
DAV:   1    -0.303092234200E+03   -0.13824E-09   -0.60057E-10   312   0.113E-10    0.310E-10
RMM:   2    -0.303092234200E+03    0.58208E-09    0.00000E+00     2   0.838E-11
 678 F= -.30309223E+03 E0= -.30313575E+03  d E =0.727596E-11
       N       E                     dE             d eps       ncg     rms          rms(c)
DAV:   1    -0.303092234199E+03    0.11714E-08   -0.63611E-10   312   0.250E-10    0.164E-10
RMM:   2    -0.303092234200E+03   -0.67666E-09    0.00000E+00     2   0.772E-11
 679 F= -.30309223E+03 E0= -.30313575E+03  d E =-.873115E-10
       N       E                     dE             d eps       ncg     rms          rms(c)
DAV:   1    -0.303092234200E+03   -0.72760E-09   -0.46659E-10   312   0.124E-10    0.252E-10
RMM:   2    -0.303092234200E+03    0.16007E-09    0.00000E+00     2   0.796E-11
 680 F= -.30309223E+03 E0= -.30313575E+03  d E =0.109139E-09
       N       E                     dE             d eps       ncg     rms          rms(c)
DAV:   1    -0.303092234199E+03    0.54570E-09   -0.47446E-10   312   0.138E-10    0.288E-10
RMM:   2    -0.303092234200E+03   -0.37107E-09    0.00000E+00     2   0.845E-11
 681 F= -.30309223E+03 E0= -.30313575E+03  d E =0.145519E-10
       N       E                     dE             d eps       ncg     rms          rms(c)
DAV:   1    -0.303092234198E+03    0.80036E-09   -0.62498E-10   312   0.213E-10    0.171E-10
RMM:   2    -0.303092234200E+03   -0.11714E-08    0.00000E+00     2   0.757E-11
 682 F= -.30309223E+03 E0= -.30313575E+03  d E =0.000000E+00
       N       E                     dE             d eps       ncg     rms          rms(c)
DAV:   1    -0.303092234200E+03   -0.17026E-08   -0.41723E-10   312   0.122E-10    0.315E-10
RMM:   2    -0.303092234199E+03    0.56025E-09    0.00000E+00     2   0.902E-11
 683 F= -.30309223E+03 E0= -.30313575E+03  d E =0.291038E-10
       N       E                     dE             d eps       ncg     rms          rms(c)
DAV:   1    -0.303092234200E+03    0.48749E-09   -0.66118E-10   312   0.223E-10    0.268E-10
RMM:   2    -0.303092234200E+03   -0.72760E-10    0.00000E+00     2   0.931E-11
 684 F= -.30309223E+03 E0= -.30313575E+03  d E =-.145519E-09
       N       E                     dE             d eps       ncg     rms          rms(c)
DAV:   1    -0.303092234200E+03   -0.92405E-09   -0.85858E-10   312   0.205E-10    0.441E-10
RMM:   2    -0.303092234200E+03    0.90222E-09    0.00000E+00     2   0.106E-10
 685 F= -.30309223E+03 E0= -.30313575E+03  d E =0.509317E-10
       N       E                     dE             d eps       ncg     rms          rms(c)
DAV:   1    -0.303092234200E+03    0.96043E-09   -0.68325E-10   312   0.221E-10    0.332E-10
RMM:   2    -0.303092234200E+03   -0.72760E-11    0.00000E+00     2   0.892E-11
 686 F= -.30309223E+03 E0= -.30313575E+03  d E =0.509317E-10
       N       E                     dE             d eps       ncg     rms          rms(c)
DAV:   1    -0.303092234200E+03   -0.28376E-09   -0.58113E-10   312   0.274E-10    0.234E-10
RMM:   2    -0.303092234200E+03    0.18190E-09    0.00000E+00     2   0.984E-11
 687 F= -.30309223E+03 E0= -.30313575E+03  d E =-.945874E-10
       N       E                     dE             d eps       ncg     rms          rms(c)
DAV:   1    -0.303092234200E+03   -0.21100E-09   -0.35373E-10   312   0.251E-10    0.368E-10
RMM:   2    -0.303092234200E+03    0.49477E-09    0.00000E+00     2   0.876E-11
 688 F= -.30309223E+03 E0= -.30313575E+03  d E =0.101863E-09
       N       E                     dE             d eps       ncg     rms          rms(c)
DAV:   1    -0.303092234199E+03    0.50932E-09   -0.52130E-10   312   0.160E-10    0.217E-10
RMM:   2    -0.303092234200E+03   -0.15280E-09    0.00000E+00     2   0.829E-11
 689 F= -.30309223E+03 E0= -.30313575E+03  d E =-.138243E-09
       N       E                     dE             d eps       ncg     rms          rms(c)
DAV:   1    -0.303092234200E+03   -0.29104E-09   -0.72814E-10   312   0.188E-10    0.226E-10
RMM:   2    -0.303092234199E+03    0.32014E-09    0.00000E+00     2   0.698E-11
 690 F= -.30309223E+03 E0= -.30313575E+03  d E =0.181899E-09
       N       E                     dE             d eps       ncg     rms          rms(c)
DAV:   1    -0.303092234199E+03    0.61846E-09   -0.28295E-10   312   0.221E-10    0.184E-10
RMM:   2    -0.303092234200E+03   -0.38563E-09    0.00000E+00     2   0.827E-11
 691 F= -.30309223E+03 E0= -.30313575E+03  d E =-.873115E-10
       N       E                     dE             d eps       ncg     rms          rms(c)
DAV:   1    -0.303092234200E+03   -0.52387E-09   -0.49564E-10   312   0.824E-11    0.266E-10
RMM:   2    -0.303092234200E+03    0.72760E-10    0.00000E+00     2   0.765E-11
 692 F= -.30309223E+03 E0= -.30313575E+03  d E =-.654836E-10
       N       E                     dE             d eps       ncg     rms          rms(c)
DAV:   1    -0.303092234201E+03   -0.82946E-09   -0.70669E-10   312   0.184E-10    0.233E-10
RMM:   2    -0.303092234200E+03    0.96043E-09    0.00000E+00     2   0.740E-11
 693 F= -.30309223E+03 E0= -.30313575E+03  d E =0.582077E-10
       N       E                     dE             d eps       ncg     rms          rms(c)
DAV:   1    -0.303092234201E+03   -0.25466E-09   -0.41040E-10   312   0.165E-10    0.226E-10
RMM:   2    -0.303092234200E+03    0.12078E-08    0.00000E+00     2   0.715E-11
 694 F= -.30309223E+03 E0= -.30313575E+03  d E =-.727596E-11
       N       E                     dE             d eps       ncg     rms          rms(c)
DAV:   1    -0.303092234200E+03    0.93860E-09   -0.46448E-10   312   0.163E-10    0.343E-10
RMM:   2    -0.303092234200E+03    0.16735E-09    0.00000E+00     2   0.971E-11
 695 F= -.30309223E+03 E0= -.30313575E+03  d E =-.101863E-09
       N       E                     dE             d eps       ncg     rms          rms(c)
DAV:   1    -0.303092234200E+03   -0.72760E-11   -0.30518E-10   312   0.310E-10    0.255E-10
RMM:   2    -0.303092234200E+03    0.31287E-09    0.00000E+00     2   0.777E-11
 696 F= -.30309223E+03 E0= -.30313575E+03  d E =0.138243E-09
