 vasp.6.3.2 27Jun22 (build Mar 25 2024 10:42:18) complex                         
 executed on             LinuxGNU date 2024.03.31  14:56:19
 running on   32 total cores
 distrk:  each k-point on   32 cores,    1 groups
 distr:  one band on NCORE=   1 cores,   32 groups


--------------------------------------------------------------------------------------------------------


 INCAR:
   ISTART = 0
   ICHARG = 2
   PREC = Accurate
   IBRION = -1
   EDIFF = 0.000000001
   EDIFFG = -0.0005
   NSW = 0
   NELM = 100
   ENCUT = 520
   ISMEAR = -5
   SIGMA = 0.05
   ISPIN = 2
   ISYM = 0
   LWAVE = False
   LCHARG = False
   LASPH = True
   LORBIT = 11
   ADDGRID = TRUE

 POTCAR:    PAW_PBE S 06Sep2000                   
 -----------------------------------------------------------------------------
|                                                                             |
|           W    W    AA    RRRRR   N    N  II  N    N   GGGG   !!!           |
|           W    W   A  A   R    R  NN   N  II  NN   N  G    G  !!!           |
|           W    W  A    A  R    R  N N  N  II  N N  N  G       !!!           |
|           W WW W  AAAAAA  RRRRR   N  N N  II  N  N N  G  GGG   !            |
|           WW  WW  A    A  R   R   N   NN  II  N   NN  G    G                |
|           W    W  A    A  R    R  N    N  II  N    N   GGGG   !!!           |
|                                                                             |
|     You use a magnetic or noncollinear calculation, but did not specify     |
|     the initial magnetic moment with the MAGMOM tag. Note that a            |
|     default of 1 will be used for all atoms. This ferromagnetic setup       |
|     may break the symmetry of the crystal, in particular it may rule        |
|     out finding an antiferromagnetic solution. Thence, we recommend         |
|     setting the initial magnetic moment manually or verifying carefully     |
|     that this magnetic setup is desired.                                    |
|                                                                             |
 -----------------------------------------------------------------------------

 -----------------------------------------------------------------------------
|                                                                             |
|           W    W    AA    RRRRR   N    N  II  N    N   GGGG   !!!           |
|           W    W   A  A   R    R  NN   N  II  NN   N  G    G  !!!           |
|           W    W  A    A  R    R  N N  N  II  N N  N  G       !!!           |
|           W WW W  AAAAAA  RRRRR   N  N N  II  N  N N  G  GGG   !            |
|           WW  WW  A    A  R   R   N   NN  II  N   NN  G    G                |
|           W    W  A    A  R    R  N    N  II  N    N   GGGG   !!!           |
|                                                                             |
|     For optimal performance we recommend to set                             |
|       NCORE = 2 up to number-of-cores-per-socket                            |
|     NCORE specifies how many cores store one orbital (NPAR=cpu/NCORE).      |
|     This setting can greatly improve the performance of VASP for DFT.       |
|     The default, NCORE=1 might be grossly inefficient on modern             |
|     multi-core architectures or massively parallel machines. Do your        |
|     own testing! More info at https://www.vasp.at/wiki/index.php/NCORE      |
|     Unfortunately you need to use the default for GW and RPA                |
|     calculations (for HF NCORE is supported but not extensively tested      |
|     yet).                                                                   |
|                                                                             |
 -----------------------------------------------------------------------------

 POTCAR:    PAW_PBE S 06Sep2000                   
   SHA256 =  0fc7481fb0695f01bdc6462160264c5c84044ae9ec85a907d398b887a2bc3132 S/POTCAR              
   COPYR  = (c) Copyright 06Sep2000 Georg Kresse                                                    
   COPYR  = This file is part of the software VASP. Any use, copying, and all other rights are regul
   COPYR  = If you do not have a valid VASP license, you may not use, copy or distribute this file. 
   VRHFIN =S : s2p4                                                                                 
   LEXCH  = PE                                                                                      
   EATOM  =   276.8230 eV,   20.3459 Ry                                                             
                                                                                                    
   TITEL  = PAW_PBE S 06Sep2000                                                                     
   LULTRA =        F    use ultrasoft PP ?                                                          
   IUNSCR =        1    unscreen: 0-lin 1-nonlin 2-no                                               
   RPACOR =    1.500    partial core radius                                                         
   POMASS =   32.066; ZVAL   =    6.000    mass and valenz                                          
   RCORE  =    1.900    outmost cutoff radius                                                       
   RWIGS  =    2.200; RWIGS  =    1.164    wigner-seitz radius (au A)                               
   ENMAX  =  258.689; ENMIN  =  194.016 eV                                                          
   ICORE  =        2    local potential                                                             
   LCOR   =        T    correct aug charges                                                         
   LPAW   =        T    paw PP                                                                      
   EAUG   =  335.092                                                                                
   DEXC   =    0.000                                                                                
   RMAX   =    1.942    core radius for proj-oper                                                   
   RAUG   =    1.300    factor for augmentation sphere                                              
   RDEP   =    1.954    radius for radial grids                                                     
   RDEPT  =    1.744    core radius for aug-charge                                                  
                                                                                                    
   Atomic configuration                                                                             
    6 entries                                                                                       
     n  l   j            E        occ.                                                              
     1  0  0.50     -2405.8406   2.0000                                                             
     2  0  0.50      -211.7007   2.0000                                                             
     2  1  1.50      -156.4958   6.0000                                                             
     3  0  0.50       -17.2562   2.0000                                                             
     3  1  0.50        -7.0085   4.0000                                                             
     3  2  1.50        -6.8029   0.0000                                                             
   Description                                                                                      
     l       E           TYP  RCUT    TYP  RCUT                                                     
     0    -17.2561641     23  1.900                                                                 
     0    -15.8743224     23  1.900                                                                 
     1     -7.0085400     23  1.900                                                                 
     1     -2.7779785     23  1.900                                                                 
     2     -6.8029130     23  1.900                                                                 
  local pseudopotential read in
  partial core-charges read in
  partial kinetic energy density read in
  atomic valenz-charges read in
  non local Contribution for L=           0  read in
    real space projection operators read in
  non local Contribution for L=           0  read in
    real space projection operators read in
  non local Contribution for L=           1  read in
    real space projection operators read in
  non local Contribution for L=           1  read in
    real space projection operators read in
    PAW grid and wavefunctions read in

   number of l-projection  operators is LMAX  =           4
   number of lm-projection operators is LMMAX =           8

 -----------------------------------------------------------------------------
|                                                                             |
|               ----> ADVICE to this user running VASP <----                  |
|                                                                             |
|     You have a (more or less) 'large supercell' and for larger cells it     |
|     might be more efficient to use real-space projection operators.         |
|     Therefore, try LREAL= Auto in the INCAR file.                           |
|     Mind: For very accurate calculation, you might also keep the            |
|     reciprocal projection scheme (i.e. LREAL=.FALSE.).                      |
|                                                                             |
 -----------------------------------------------------------------------------

  PAW_PBE S 06Sep2000                   :
 energy of atom  1       EATOM= -276.8230
 kinetic energy error for atom=    0.0016 (will be added to EATOM!!)


 POSCAR: generated by phonopy
  positions in direct lattice
  No initial velocities read in
 exchange correlation table for  LEXCH =        8
   RHO(1)=    0.500       N(1)  =     2000
   RHO(2)=  100.500       N(2)  =     4000



--------------------------------------------------------------------------------------------------------


 ion  position               nearest neighbor table
   1  0.886  0.467  0.678-  45 1.98  24 2.13
   2  0.886  0.967  0.678-  46 1.98  23 2.13
   3  0.330  0.189  0.551-  41 2.05  19 2.13
   4  0.330  0.689  0.551-  42 2.05  20 2.13
   5  0.913  0.105  0.912-  51 1.98  11 2.13
   6  0.913  0.605  0.912-  52 1.98  12 2.13
   7  0.240  0.301  0.777-  19 1.98  37 2.24
   8  0.240  0.801  0.777-  20 1.98  38 2.23
   9  0.144  0.306  0.224-  31 2.05  39 2.13
  10  0.144  0.806  0.224-  32 2.05  40 2.13
  11  0.856  0.194  0.776-  47 2.05   5 2.13
  12  0.856  0.694  0.776-  48 2.05   6 2.13
  13  0.760  0.199  0.223-  27 1.98  33 2.23
  14  0.760  0.699  0.223-  28 1.98  34 2.23
  15  0.170  0.439  0.449-  31 2.05  30 2.13
  16  0.170  0.939  0.449-  32 2.05  29 2.13
  17  0.413  0.145  0.912-  37 1.98  43 2.13
  18  0.413  0.645  0.912-  38 1.98  44 2.13
  19  0.386  0.283  0.678-   7 1.98   3 2.13
  20  0.386  0.783  0.678-   8 1.98   4 2.13
  21  0.644  0.444  0.224-  53 2.05  35 2.13
  22  0.644  0.944  0.224-  54 2.05  36 2.13
  23  0.830  0.061  0.551-  47 2.05   2 2.13
  24  0.830  0.561  0.551-  48 2.05   1 2.13
  25  0.260  0.051  0.223-  29 1.98  50 2.23
  26  0.260  0.551  0.223-  30 1.98  49 2.23
  27  0.614  0.217  0.322-  13 1.98  55 2.13
  28  0.614  0.717  0.322-  14 1.98  56 2.13
  29  0.114  0.033  0.322-  25 1.98  16 2.13
  30  0.114  0.533  0.322-  26 1.98  15 2.13
  31  0.060  0.345  0.374-   9 2.05  15 2.05
  32  0.060  0.845  0.374-  10 2.05  16 2.05
  33  0.743  0.289  0.071-  35 1.98  13 2.23
  34  0.743  0.789  0.071-  36 1.98  14 2.23
  35  0.587  0.355  0.088-  33 1.98  21 2.13
  36  0.587  0.855  0.088-  34 1.98  22 2.13
  37  0.257  0.211  0.929-  17 1.98   7 2.24
  38  0.257  0.711  0.929-  18 1.98   8 2.23
  39  0.087  0.395  0.088-  49 1.98   9 2.13
  40  0.087  0.895  0.088-  50 1.98  10 2.13
  41  0.440  0.095  0.626-  43 2.05   3 2.05
  42  0.440  0.595  0.626-  44 2.05   4 2.05
  43  0.356  0.056  0.776-  41 2.05  17 2.13
  44  0.356  0.556  0.776-  42 2.05  18 2.13
  45  0.740  0.449  0.777-   1 1.98  52 2.23
  46  0.740  0.949  0.777-   2 1.98  51 2.23
  47  0.940  0.155  0.626-  11 2.05  23 2.05
  48  0.940  0.655  0.626-  12 2.05  24 2.05
  49  0.243  0.461  0.071-  39 1.98  26 2.23
  50  0.243  0.961  0.071-  40 1.98  25 2.23
  51  0.757  0.039  0.929-   5 1.98  46 2.23
  52  0.757  0.539  0.929-   6 1.98  45 2.23
  53  0.560  0.405  0.374-  21 2.05  55 2.05
  54  0.560  0.905  0.374-  22 2.05  56 2.05
  55  0.670  0.311  0.449-  53 2.05  27 2.13
  56  0.670  0.811  0.449-  54 2.05  28 2.13


IMPORTANT INFORMATION: All symmetrisations will be switched off!
NOSYMM: (Re-)initialisation of all symmetry stuff for point group C_1.


----------------------------------------------------------------------------------------

                                     Primitive cell                                     

  volume of cell :    1863.6770

  direct lattice vectors                    reciprocal lattice vectors
     0.000000000 10.307367086 -0.372855731     0.000000000  0.096453423 -0.015606996
    16.788494411  0.000000000  0.000000000     0.059564603  0.000000000  0.000000000
     0.000000000 -1.732519801-10.707215182     0.000000000 -0.003358783 -0.092851486

  length of vectors
    10.314108670 16.788494411 10.846477853     0.097707938  0.059564603  0.092912216

  position of ions in fractional coordinates (direct lattice)
     0.886423141  0.467004751  0.678126386
     0.886423141  0.967004751  0.678126386
     0.329563264  0.188743823  0.550707721
     0.329563264  0.688743823  0.550707721
     0.912671285  0.105241885  0.911960471
     0.912671285  0.605241885  0.911960471
     0.239736405  0.301426693  0.776574189
     0.239736405  0.800831047  0.776574189
     0.144417516  0.305688762  0.224396680
     0.144417516  0.805688762  0.224396680
     0.855582484  0.194311238  0.775603320
     0.855582484  0.694311238  0.775603320
     0.760263595  0.199168953  0.223425811
     0.760263595  0.699168953  0.223425811
     0.170436736  0.438743823  0.449292279
     0.170436736  0.938743823  0.449292279
     0.412671285  0.144758115  0.911960471
     0.412671285  0.644758115  0.911960471
     0.386423141  0.282995249  0.678126386
     0.386423141  0.782995249  0.678126386
     0.644417516  0.444311238  0.224396680
     0.644417516  0.944311238  0.224396680
     0.829563264  0.061256177  0.550707721
     0.829563264  0.561256177  0.550707721
     0.260263595  0.050831047  0.223425811
     0.260263595  0.550831047  0.223425811
     0.613576859  0.217004751  0.321873614
     0.613576859  0.717004751  0.321873614
     0.113576859  0.032995249  0.321873614
     0.113576859  0.532995249  0.321873614
     0.059895700  0.345087734  0.374484367
     0.059895700  0.845087734  0.374484367
     0.743425210  0.289344343  0.071165234
     0.743425210  0.789344343  0.071165234
     0.587328715  0.355241885  0.088039529
     0.587328715  0.855241885  0.088039529
     0.256574790  0.210655657  0.928834766
     0.256574790  0.710655657  0.928834766
     0.087328715  0.394758115  0.088039529
     0.087328715  0.894758115  0.088039529
     0.440104300  0.095087734  0.625515633
     0.440104300  0.595087734  0.625515633
     0.355582484  0.055688762  0.775603320
     0.355582484  0.555688762  0.775603320
     0.739736405  0.449168953  0.776574189
     0.739736405  0.949168953  0.776574189
     0.940104300  0.154912266  0.625515633
     0.940104300  0.654912266  0.625515633
     0.243425210  0.460655657  0.071165234
     0.243425210  0.960655657  0.071165234
     0.756574790  0.039344343  0.928834766
     0.756574790  0.539344343  0.928834766
     0.559895700  0.404912266  0.374484367
     0.559895700  0.904912266  0.374484367
     0.670436736  0.311256177  0.449292279
     0.670436736  0.811256177  0.449292279

  ion indices of the primitive-cell ions
   primitive index   ion index
                 1           1
                 2           2
                 3           3
                 4           4
                 5           5
                 6           6
                 7           7
                 8           8
                 9           9
                10          10
                11          11
                12          12
                13          13
                14          14
                15          15
                16          16
                17          17
                18          18
                19          19
                20          20
                21          21
                22          22
                23          23
                24          24
                25          25
                26          26
                27          27
                28          28
                29          29
                30          30
                31          31
                32          32
                33          33
                34          34
                35          35
                36          36
                37          37
                38          38
                39          39
                40          40
                41          41
                42          42
                43          43
                44          44
                45          45
                46          46
                47          47
                48          48
                49          49
                50          50
                51          51
                52          52
                53          53
                54          54
                55          55
                56          56

----------------------------------------------------------------------------------------



 KPOINTS: pymatgen with grid density = 595 / numbe

Automatic generation of k-mesh.
 Grid dimensions read from file:
 generate k-points for:    2    2    2

 Generating k-lattice:

  Cartesian coordinates                     Fractional coordinates (reciprocal lattice)
     0.000000000  0.048226712 -0.007803498     0.500000000  0.000000000 -0.000000000
     0.029782301  0.000000000  0.000000000     0.000000000  0.500000000  0.000000000
     0.000000000 -0.001679391 -0.046425743    -0.000000000  0.000000000  0.500000000

  Length of vectors
     0.048853969  0.029782301  0.046456108

  Shift w.r.t. Gamma in fractional coordinates (k-lattice)
     0.000000000  0.000000000  0.000000000

 TETIRR: Found     24 inequivalent tetrahedra from       48
 
 Subroutine IBZKPT returns following result:
 ===========================================
 
 Found      8 irreducible k-points:
 
 Following reciprocal coordinates:
            Coordinates               Weight
  0.000000  0.000000  0.000000      1.000000
  0.500000  0.000000  0.000000      1.000000
  0.000000  0.500000  0.000000      1.000000
  0.500000  0.500000  0.000000      1.000000
  0.000000  0.000000  0.500000      1.000000
  0.500000  0.000000  0.500000      1.000000
  0.000000  0.500000  0.500000      1.000000
  0.500000  0.500000  0.500000      1.000000
 
 Following cartesian coordinates:
            Coordinates               Weight
  0.000000  0.000000 -0.000000      1.000000
  0.000000  0.048227 -0.007803      1.000000
  0.029782  0.000000 -0.000000      1.000000
  0.029782  0.048227 -0.007803      1.000000
  0.000000 -0.001679 -0.046426      1.000000
  0.000000  0.046547 -0.054229      1.000000
  0.029782 -0.001679 -0.046426      1.000000
  0.029782  0.046547 -0.054229      1.000000
 


--------------------------------------------------------------------------------------------------------




 Dimension of arrays:
   k-points           NKPTS =      8   k-points in BZ     NKDIM =      8   number of bands    NBANDS=    256
   number of dos      NEDOS =    301   number of ions     NIONS =     56
   non local maximal  LDIM  =      4   non local SUM 2l+1 LMDIM =      8
   total plane-waves  NPLWV = 846720
   max r-space proj   IRMAX =      1   max aug-charges    IRDMAX= 114695
   dimension x,y,z NGX =    80 NGY =  126 NGZ =   84
   dimension x,y,z NGXF=   160 NGYF=  252 NGZF=  168
   support grid    NGXF=   320 NGYF=  504 NGZF=  336
   ions per type =              56
   NGX,Y,Z   is equivalent  to a cutoff of  12.89, 12.48, 12.87 a.u.
   NGXF,Y,Z  is equivalent  to a cutoff of  25.79, 24.95, 25.75 a.u.

 SYSTEM =  unknown system                          
 POSCAR =  generated by phonopy                    

 Startparameter for this run:
   NWRITE =      2    write-flag & timer
   PREC   = accura    normal or accurate (medium, high low for compatibility)
   ISTART =      0    job   : 0-new  1-cont  2-samecut
   ICHARG =      2    charge: 1-file 2-atom 10-const
   ISPIN  =      2    spin polarized calculation?
   LNONCOLLINEAR =      F non collinear calculations
   LSORBIT =      F    spin-orbit coupling
   INIWAV =      1    electr: 0-lowe 1-rand  2-diag
   LASPH  =      T    aspherical Exc in radial PAW
 Electronic Relaxation 1
   ENCUT  =  520.0 eV  38.22 Ry    6.18 a.u.  19.18 31.22 20.17*2*pi/ulx,y,z
   ENINI  =  520.0     initial cutoff
   ENAUG  =  335.1 eV  augmentation charge cutoff
   NELM   =    100;   NELMIN=  2; NELMDL= -5     # of ELM steps 
   EDIFF  = 0.1E-08   stopping-criterion for ELM
   LREAL  =      F    real-space projection
   NLSPLINE    = F    spline interpolate recip. space projectors
   LCOMPAT=      F    compatible to vasp.4.4
   GGA_COMPAT  = T    GGA compatible to vasp.4.4-vasp.4.6
   LMAXPAW     = -100 max onsite density
   LMAXMIX     =    2 max onsite mixed and CHGCAR
   VOSKOWN=      0    Vosko Wilk Nusair interpolation
   ROPT   =    0.00000
 Ionic relaxation
   EDIFFG = -.5E-03   stopping-criterion for IOM
   NSW    =      0    number of steps for IOM
   NBLOCK =      1;   KBLOCK =      1    inner block; outer block 
   IBRION =     -1    ionic relax: 0-MD 1-quasi-New 2-CG
   NFREE  =      0    steps in history (QN), initial steepest desc. (CG)
   ISIF   =      2    stress and relaxation
   IWAVPR =     10    prediction:  0-non 1-charg 2-wave 3-comb
   ISYM   =      0    0-nonsym 1-usesym 2-fastsym
   LCORR  =      T    Harris-Foulkes like correction to forces

   POTIM  = 0.5000    time-step for ionic-motion
   TEIN   =    0.0    initial temperature
   TEBEG  =    0.0;   TEEND  =   0.0 temperature during run
   SMASS  =  -3.00    Nose mass-parameter (am)
   estimated Nose-frequenzy (Omega)   =  0.10E-29 period in steps = 0.13E+47 mass=  -0.243E-26a.u.
   SCALEE = 1.0000    scale energy and forces
   NPACO  =    256;   APACO  = 10.0  distance and # of slots for P.C.
   PSTRESS=    0.0 pullay stress

  Mass of Ions in am
   POMASS =  32.07
  Ionic Valenz
   ZVAL   =   6.00
  Atomic Wigner-Seitz radii
   RWIGS  =  -1.00
  virtual crystal weights 
   VCA    =   1.00
   NELECT =     336.0000    total number of electrons
   NUPDOWN=      -1.0000    fix difference up-down

 DOS related values:
   EMIN   =  10.00;   EMAX   =-10.00  energy-range for DOS
   EFERMI =   0.00
   ISMEAR =    -5;   SIGMA  =   0.05  broadening in eV -4-tet -1-fermi 0-gaus

 Electronic relaxation 2 (details)
   IALGO  =     38    algorithm
   LDIAG  =      T    sub-space diagonalisation (order eigenvalues)
   LSUBROT=      F    optimize rotation matrix (better conditioning)
   TURBO    =      0    0=normal 1=particle mesh
   IRESTART =      0    0=no restart 2=restart with 2 vectors
   NREBOOT  =      0    no. of reboots
   NMIN     =      0    reboot dimension
   EREF     =   0.00    reference energy to select bands
   IMIX   =      4    mixing-type and parameters
     AMIX     =   0.40;   BMIX     =  1.00
     AMIX_MAG =   1.60;   BMIX_MAG =  1.00
     AMIN     =   0.10
     WC   =   100.;   INIMIX=   1;  MIXPRE=   1;  MAXMIX= -45

 Intra band minimization:
   WEIMIN = 0.0000     energy-eigenvalue tresh-hold
   EBREAK =  0.98E-12  absolut break condition
   DEPER  =   0.30     relativ break condition  

   TIME   =   0.40     timestep for ELM

  volume/ion in A,a.u.               =      33.28       224.58
  Fermi-wavevector in a.u.,A,eV,Ry     =   0.924835  1.747685 11.637339  0.855320
  Thomas-Fermi vector in A             =   2.050624

 Write flags
   LWAVE        =      F    write WAVECAR
   LDOWNSAMPLE  =      F    k-point downsampling of WAVECAR
   LCHARG       =      F    write CHGCAR
   LVTOT        =      F    write LOCPOT, total local potential
   LVHAR        =      F    write LOCPOT, Hartree potential only
   LELF         =      F    write electronic localiz. function (ELF)
   LORBIT       =     11    0 simple, 1 ext, 2 COOP (PROOUT), +10 PAW based schemes


 Dipole corrections
   LMONO  =      F    monopole corrections only (constant potential shift)
   LDIPOL =      F    correct potential (dipole corrections)
   IDIPOL =      0    1-x, 2-y, 3-z, 4-all directions 
   EPSILON=  1.0000000 bulk dielectric constant

 Exchange correlation treatment:
   GGA     =    --    GGA type
   LEXCH   =     8    internal setting for exchange type
   LIBXC   =     F    Libxc                    
   VOSKOWN =     0    Vosko Wilk Nusair interpolation
   LHFCALC =     F    Hartree Fock is set to
   LHFONE  =     F    Hartree Fock one center treatment
   AEXX    =    0.0000 exact exchange contribution

 Linear response parameters
   LEPSILON=     F    determine dielectric tensor
   LRPA    =     F    only Hartree local field effects (RPA)
   LNABLA  =     F    use nabla operator in PAW spheres
   LVEL    =     F    velocity operator in full k-point grid
   CSHIFT  =0.1000    complex shift for real part using Kramers Kronig
   OMEGAMAX=  -1.0    maximum frequency
   DEG_THRESHOLD= 0.2000000E-02 threshold for treating states as degnerate
   RTIME   =   -0.100 relaxation time in fs
  (WPLASMAI=    0.000 imaginary part of plasma frequency in eV, 0.658/RTIME)
   DFIELD  = 0.0000000 0.0000000 0.0000000 field for delta impulse in time

  Optional k-point grid parameters
   LKPOINTS_OPT  =     F    use optional k-point grid
   KPOINTS_OPT_MODE=     1    mode for optional k-point grid

 Orbital magnetization related:
   ORBITALMAG=     F  switch on orbital magnetization
   LCHIMAG   =     F  perturbation theory with respect to B field
   DQ        =  0.001000  dq finite difference perturbation B field
   LLRAUG    =     F  two centre corrections for induced B field



--------------------------------------------------------------------------------------------------------


 Static calculation
 charge density and potential will be updated during run
 spin polarized calculation
 Variant of blocked Davidson
 Davidson routine will perform the subspace rotation
 perform sub-space diagonalisation
    after iterative eigenvector-optimisation
 modified Broyden-mixing scheme, WC =      100.0
 initial mixing is a Kerker type mixing with AMIX =  0.4000 and BMIX =      1.0000
 Hartree-type preconditioning will be used
 using additional bands           88
 reciprocal scheme for non local part
 use partial core corrections
 calculate Harris-corrections to forces   (improved forces if not selfconsistent)
 use gradient corrections 
 use of overlap-Matrix (Vanderbilt PP)
 Fermi weights with tetrahedron method with Bloechl corrections


--------------------------------------------------------------------------------------------------------


  energy-cutoff  :      520.00
  volume of cell :     1863.68
      direct lattice vectors                 reciprocal lattice vectors
     0.000000000 10.307367086 -0.372855731     0.000000000  0.096453423 -0.015606996
    16.788494411  0.000000000  0.000000000     0.059564603  0.000000000  0.000000000
     0.000000000 -1.732519801-10.707215182     0.000000000 -0.003358783 -0.092851486

  length of vectors
    10.314108670 16.788494411 10.846477853     0.097707938  0.059564603  0.092912216



 k-points in units of 2pi/SCALE and weight: pymatgen with grid density = 595 / numbe
   0.00000000  0.00000000 -0.00000000       0.125
   0.00000000  0.04822671 -0.00780350       0.125
   0.02978230  0.00000000 -0.00000000       0.125
   0.02978230  0.04822671 -0.00780350       0.125
   0.00000000 -0.00167939 -0.04642574       0.125
   0.00000000  0.04654732 -0.05422924       0.125
   0.02978230 -0.00167939 -0.04642574       0.125
   0.02978230  0.04654732 -0.05422924       0.125

 k-points in reciprocal lattice and weights: pymatgen with grid density = 595 / numbe
   0.00000000  0.00000000  0.00000000       0.125
   0.50000000  0.00000000  0.00000000       0.125
   0.00000000  0.50000000  0.00000000       0.125
   0.50000000  0.50000000  0.00000000       0.125
   0.00000000  0.00000000  0.50000000       0.125
   0.50000000  0.00000000  0.50000000       0.125
   0.00000000  0.50000000  0.50000000       0.125
   0.50000000  0.50000000  0.50000000       0.125

 position of ions in fractional coordinates (direct lattice) 
   0.88642314  0.46700475  0.67812639
   0.88642314  0.96700475  0.67812639
   0.32956326  0.18874382  0.55070772
   0.32956326  0.68874382  0.55070772
   0.91267129  0.10524188  0.91196047
   0.91267129  0.60524188  0.91196047
   0.23973640  0.30142669  0.77657419
   0.23973640  0.80083105  0.77657419
   0.14441752  0.30568876  0.22439668
   0.14441752  0.80568876  0.22439668
   0.85558248  0.19431124  0.77560332
   0.85558248  0.69431124  0.77560332
   0.76026360  0.19916895  0.22342581
   0.76026360  0.69916895  0.22342581
   0.17043674  0.43874382  0.44929228
   0.17043674  0.93874382  0.44929228
   0.41267129  0.14475812  0.91196047
   0.41267129  0.64475812  0.91196047
   0.38642314  0.28299525  0.67812639
   0.38642314  0.78299525  0.67812639
   0.64441752  0.44431124  0.22439668
   0.64441752  0.94431124  0.22439668
   0.82956326  0.06125618  0.55070772
   0.82956326  0.56125618  0.55070772
   0.26026360  0.05083105  0.22342581
   0.26026360  0.55083105  0.22342581
   0.61357686  0.21700475  0.32187361
   0.61357686  0.71700475  0.32187361
   0.11357686  0.03299525  0.32187361
   0.11357686  0.53299525  0.32187361
   0.05989570  0.34508773  0.37448437
   0.05989570  0.84508773  0.37448437
   0.74342521  0.28934434  0.07116523
   0.74342521  0.78934434  0.07116523
   0.58732871  0.35524188  0.08803953
   0.58732871  0.85524188  0.08803953
   0.25657479  0.21065566  0.92883477
   0.25657479  0.71065566  0.92883477
   0.08732871  0.39475812  0.08803953
   0.08732871  0.89475812  0.08803953
   0.44010430  0.09508773  0.62551563
   0.44010430  0.59508773  0.62551563
   0.35558248  0.05568876  0.77560332
   0.35558248  0.55568876  0.77560332
   0.73973640  0.44916895  0.77657419
   0.73973640  0.94916895  0.77657419
   0.94010430  0.15491227  0.62551563
   0.94010430  0.65491227  0.62551563
   0.24342521  0.46065566  0.07116523
   0.24342521  0.96065566  0.07116523
   0.75657479  0.03934434  0.92883477
   0.75657479  0.53934434  0.92883477
   0.55989570  0.40491227  0.37448437
   0.55989570  0.90491227  0.37448437
   0.67043674  0.31125618  0.44929228
   0.67043674  0.81125618  0.44929228

 position of ions in cartesian coordinates  (Angst):
   7.84030666  7.96182132 -7.59135308
  16.23455387  7.96182132 -7.59135308
   3.16872461  2.44281751 -6.01942562
  11.56297182  2.44281751 -6.01942562
   1.76685280  7.82724839-10.10485172
  10.16110000  7.82724839-10.10485172
   5.06050035  1.12562097 -8.40433404
  13.44474755  1.12562097 -8.40433404
   5.13205407  1.09979266 -2.45651044
  13.52630128  1.09979266 -2.45651044
   3.26219313  7.47505463 -8.62356047
  11.65644034  7.47505463 -8.62356047
   3.34374686  7.44922632 -2.67573688
  11.73799406  7.44922632 -2.67573688
   7.36584822  0.97834624 -4.87421742
  15.76009542  0.97834624 -4.87421742
   2.43027081  2.67356485 -9.91842386
  10.82451801  2.67356485 -9.91842386
   4.75106415  2.80813777 -7.40492521
  13.14531135  2.80813777 -7.40492521
   7.45931673  6.25347620 -2.64293831
  15.85356394  6.25347620 -2.64293831
   1.02839899  7.59650105 -6.20585349
   9.42264619  7.59650105 -6.20585349
   0.85337674  2.29554277 -2.48930901
   9.24762395  2.29554277 -2.48930901
   3.64318306  5.76670951 -3.67514570
  12.03743026  5.76670951 -3.67514570
   0.55394055  0.61302597 -3.48871783
   8.94818775  0.61302597 -3.48871783
   5.79350349 -0.03143461 -4.03201715
  14.18775070 -0.03143461 -4.03201715
   4.85765589  7.53946136 -1.03917182
  13.25190310  7.53946136 -1.03917182
   5.96397640  5.90128244 -1.16164705
  14.35822361  5.90128244 -1.16164705
   3.53659131  1.03538593-10.04089909
  11.93083852  1.03538593-10.04089909
   6.62739441  0.74759889 -0.97521919
  15.02164161  0.74759889 -0.97521919
   1.59637989  3.45259836 -6.86162589
   9.99062710  3.45259836 -6.86162589
   0.93493047  2.32137108 -8.43713261
   9.32917768  2.32137108 -8.43713261
   7.54087046  6.27930451 -8.59076190
  15.93511767  6.27930451 -8.59076190
   2.60074371  8.60628190 -7.04805376
  10.99499092  8.60628190 -7.04805376
   7.73371492  2.38577782 -0.85274396
  16.12796212  2.38577782 -0.85274396
   0.66053229  6.18906947-10.22732695
   9.05477950  6.18906947-10.22732695
   6.79786731  5.12224893 -4.21844502
  15.19211452  5.12224893 -4.21844502
   5.22552259  6.13202978 -5.06064529
  13.61976980  6.13202978 -5.06064529



--------------------------------------------------------------------------------------------------------


 k-point   1 :   0.0000 0.0000 0.0000  plane waves:   50179
 k-point   2 :   0.5000 0.0000 0.0000  plane waves:   50160
 k-point   3 :   0.0000 0.5000 0.0000  plane waves:   50162
 k-point   4 :   0.5000 0.5000 0.0000  plane waves:   50192
 k-point   5 :   0.0000 0.0000 0.5000  plane waves:   50190
 k-point   6 :   0.5000 0.0000 0.5000  plane waves:   50190
 k-point   7 :   0.0000 0.5000 0.5000  plane waves:   50172
 k-point   8 :   0.5000 0.5000 0.5000  plane waves:   50200

 maximum and minimum number of plane-waves per node :     50200    50160

 maximum number of plane-waves:     50200
 maximum index in each direction: 
   IXMAX=   19   IYMAX=   31   IZMAX=   20
   IXMIN=  -19   IYMIN=  -31   IZMIN=  -20


 serial   3D FFT for wavefunctions
 parallel 3D FFT for charge:
    minimum data exchange during FFTs selected (reduces bandwidth)


 total amount of memory used by VASP MPI-rank0   322725. kBytes
=======================================================================

   base      :      30000. kBytes
   nonl-proj :      70692. kBytes
   fftplans  :      34504. kBytes
   grid      :      83442. kBytes
   one-center:        344. kBytes
   wavefun   :     103743. kBytes

     INWAV:  cpu time      0.0000: real time      0.0002
 Broyden mixing: mesh for mixing (old mesh)
   NGX = 39   NGY = 63   NGZ = 41
  (NGX  =160   NGY  =252   NGZ  =168)
  gives a total of 100737 points

 initial charge density was supplied:
 charge density of overlapping atoms calculated
 number of electron     336.0000000 magnetization      56.0000000
 keeping initial charge density in first step


--------------------------------------------------------------------------------------------------------


 Maximum index for augmentation-charges         3947 (set IRDMAX)


--------------------------------------------------------------------------------------------------------


 First call to EWALD:  gamma=   0.144
 Maximum number of real-space cells 3x 2x 3
 Maximum number of reciprocal cells 2x 4x 2

    FEWALD:  cpu time      0.0021: real time      0.0021


--------------------------------------- Iteration      1(   1)  ---------------------------------------


    POTLOK:  cpu time      0.5039: real time      0.5042
    SETDIJ:  cpu time     10.4140: real time     10.4185
     EDDAV:  cpu time     54.2919: real time     54.3309
 BZINTS: Fermi energy:   10.166519;  336.000000 electrons
         Band energy: 0.225166E+03;  BLOECHL correction:   -0.008979
       DOS:  cpu time      0.0452: real time      0.0453
    --------------------------------------------
      LOOP:  cpu time     65.2551: real time     65.2989

 eigenvalue-minimisations  :  8192
 total energy-change (2. order) : 0.2106060E+04  (-0.1333788E+05)
 number of electron     336.0000000 magnetization      56.0000000
 augmentation part      336.0000000 magnetization      56.0000000

 Free energy of the ion-electron system (eV)
  ---------------------------------------------------
  alpha Z        PSCENC =       253.99581917
  Ewald energy   TEWEN  =     -9972.07182229
  -Hartree energ DENC   =     -4764.77388510
  -exchange      EXHF   =         0.00000000
  -V(xc)+E(xc)   XCENC  =       682.49730769
  PAW double counting   =     12174.71095765   -11995.46358648
  entropy T*S    EENTRO =         0.00000000
  eigenvalues    EBANDS =       225.16585036
  atomic energy  EATOM  =     15501.99929693
  Solvation  Ediel_sol  =         0.00000000
  ---------------------------------------------------
  free energy    TOTEN  =      2106.05993794 eV

  energy without entropy =     2106.05993794  energy(sigma->0) =     2106.05993794


--------------------------------------------------------------------------------------------------------




--------------------------------------- Iteration      1(   2)  ---------------------------------------


     EDDAV:  cpu time     61.8484: real time     62.0029
 BZINTS: Fermi energy:    1.451547;  336.000000 electrons
         Band energy:-0.187464E+04;  BLOECHL correction:    0.000000
       DOS:  cpu time      0.0286: real time      0.0287
    --------------------------------------------
      LOOP:  cpu time     61.8770: real time     62.0315

 eigenvalue-minimisations  : 10272
 total energy-change (2. order) :-0.2099806E+04  (-0.2021623E+04)
 number of electron     336.0000000 magnetization      56.0000000
 augmentation part      336.0000000 magnetization      56.0000000

 Free energy of the ion-electron system (eV)
  ---------------------------------------------------
  alpha Z        PSCENC =       253.99581917
  Ewald energy   TEWEN  =     -9972.07182229
  -Hartree energ DENC   =     -4764.77388510
  -exchange      EXHF   =         0.00000000
  -V(xc)+E(xc)   XCENC  =       682.49730769
  PAW double counting   =     12174.71095765   -11995.46358648
  entropy T*S    EENTRO =         0.00000000
  eigenvalues    EBANDS =     -1874.64061417
  atomic energy  EATOM  =     15501.99929693
  Solvation  Ediel_sol  =         0.00000000
  ---------------------------------------------------
  free energy    TOTEN  =         6.25347341 eV

  energy without entropy =        6.25347341  energy(sigma->0) =        6.25347341


--------------------------------------------------------------------------------------------------------




--------------------------------------- Iteration      1(   3)  ---------------------------------------


     EDDAV:  cpu time     65.4272: real time     65.5228
 BZINTS: Fermi energy:    0.219255;  336.000000 electrons
         Band energy:-0.209447E+04;  BLOECHL correction:    0.000000
       DOS:  cpu time      0.0284: real time      0.0285
    --------------------------------------------
      LOOP:  cpu time     65.4556: real time     65.5512

 eigenvalue-minimisations  : 10240
 total energy-change (2. order) :-0.2198329E+03  (-0.2171467E+03)
 number of electron     336.0000000 magnetization      56.0000000
 augmentation part      336.0000000 magnetization      56.0000000

 Free energy of the ion-electron system (eV)
  ---------------------------------------------------
  alpha Z        PSCENC =       253.99581917
  Ewald energy   TEWEN  =     -9972.07182229
  -Hartree energ DENC   =     -4764.77388510
  -exchange      EXHF   =         0.00000000
  -V(xc)+E(xc)   XCENC  =       682.49730769
  PAW double counting   =     12174.71095765   -11995.46358648
  entropy T*S    EENTRO =         0.00000000
  eigenvalues    EBANDS =     -2094.47351890
  atomic energy  EATOM  =     15501.99929693
  Solvation  Ediel_sol  =         0.00000000
  ---------------------------------------------------
  free energy    TOTEN  =      -213.57943132 eV

  energy without entropy =     -213.57943132  energy(sigma->0) =     -213.57943132


--------------------------------------------------------------------------------------------------------




--------------------------------------- Iteration      1(   4)  ---------------------------------------


     EDDAV:  cpu time     71.9525: real time     72.0018
 BZINTS: Fermi energy:    0.191525;  336.000000 electrons
         Band energy:-0.209937E+04;  BLOECHL correction:   -0.000000
       DOS:  cpu time      0.0306: real time      0.0307
    --------------------------------------------
      LOOP:  cpu time     71.9831: real time     72.0325

 eigenvalue-minimisations  : 10336
 total energy-change (2. order) :-0.4898011E+01  (-0.4879668E+01)
 number of electron     336.0000000 magnetization      56.0000000
 augmentation part      336.0000000 magnetization      56.0000000

 Free energy of the ion-electron system (eV)
  ---------------------------------------------------
  alpha Z        PSCENC =       253.99581917
  Ewald energy   TEWEN  =     -9972.07182229
  -Hartree energ DENC   =     -4764.77388510
  -exchange      EXHF   =         0.00000000
  -V(xc)+E(xc)   XCENC  =       682.49730769
  PAW double counting   =     12174.71095765   -11995.46358648
  entropy T*S    EENTRO =         0.00000000
  eigenvalues    EBANDS =     -2099.37152978
  atomic energy  EATOM  =     15501.99929693
  Solvation  Ediel_sol  =         0.00000000
  ---------------------------------------------------
  free energy    TOTEN  =      -218.47744220 eV

  energy without entropy =     -218.47744220  energy(sigma->0) =     -218.47744220


--------------------------------------------------------------------------------------------------------




--------------------------------------- Iteration      1(   5)  ---------------------------------------


     EDDAV:  cpu time     71.0306: real time     73.1726
 BZINTS: Fermi energy:    0.191746;  336.000000 electrons
         Band energy:-0.209951E+04;  BLOECHL correction:    0.000000
       DOS:  cpu time      0.0277: real time      0.0277
    CHARGE:  cpu time      4.5350: real time      4.5787
    MIXING:  cpu time      0.0058: real time      0.0058
    --------------------------------------------
      LOOP:  cpu time     75.5990: real time     77.7848

 eigenvalue-minimisations  : 10112
 total energy-change (2. order) :-0.1349769E+00  (-0.1349108E+00)
 number of electron     335.9999996 magnetization      44.9918631
 augmentation part      -47.3224034 magnetization      44.8832339

 Broyden mixing:
  rms(total) = 0.82866E+01    rms(broyden)= 0.82866E+01
  rms(prec ) = 0.83065E+01
  weight for this iteration     100.00

 Free energy of the ion-electron system (eV)
  ---------------------------------------------------
  alpha Z        PSCENC =       253.99581917
  Ewald energy   TEWEN  =     -9972.07182229
  -Hartree energ DENC   =     -4764.77388510
  -exchange      EXHF   =         0.00000000
  -V(xc)+E(xc)   XCENC  =       682.49730769
  PAW double counting   =     12174.71095765   -11995.46358648
  entropy T*S    EENTRO =         0.00000000
  eigenvalues    EBANDS =     -2099.50650667
  atomic energy  EATOM  =     15501.99929693
  Solvation  Ediel_sol  =         0.00000000
  ---------------------------------------------------
  free energy    TOTEN  =      -218.61241910 eV

  energy without entropy =     -218.61241910  energy(sigma->0) =     -218.61241910


--------------------------------------------------------------------------------------------------------




--------------------------------------- Iteration      1(   6)  ---------------------------------------


    POTLOK:  cpu time      0.5093: real time      0.5317
    SETDIJ:  cpu time      9.7670: real time     10.3361
     EDDAV:  cpu time     53.3920: real time     53.4536
 BZINTS: Fermi energy:    0.408663;  336.000000 electrons
         Band energy:-0.201403E+04;  BLOECHL correction:    0.000000
       DOS:  cpu time      0.0294: real time      0.0294
    CHARGE:  cpu time      9.2479: real time      9.2868
    MIXING:  cpu time      0.0072: real time      0.0073
    --------------------------------------------
      LOOP:  cpu time     72.9527: real time     73.6450

 eigenvalue-minimisations  :  9664
 total energy-change (2. order) : 0.1022869E+03  (-0.2668113E+02)
 number of electron     335.9999996 magnetization      26.4814576
 augmentation part      -47.6486678 magnetization      27.5396549

 Broyden mixing:
  rms(total) = 0.49357E+01    rms(broyden)= 0.49357E+01
  rms(prec ) = 0.49580E+01
  weight for this iteration     100.00

 eigenvalues of (default mixing * dielectric matrix)
  average eigenvalue GAMMA=   1.6676
  1.6676

 Free energy of the ion-electron system (eV)
  ---------------------------------------------------
  alpha Z        PSCENC =       253.99581917
  Ewald energy   TEWEN  =     -9972.07182229
  -Hartree energ DENC   =     -4809.07549308
  -exchange      EXHF   =         0.00000000
  -V(xc)+E(xc)   XCENC  =       746.07800657
  PAW double counting   =     20727.83819069   -20551.05798108
  entropy T*S    EENTRO =         0.00000000
  eigenvalues    EBANDS =     -2014.03155071
  atomic energy  EATOM  =     15501.99929693
  Solvation  Ediel_sol  =         0.00000000
  ---------------------------------------------------
  free energy    TOTEN  =      -116.32553380 eV

  energy without entropy =     -116.32553380  energy(sigma->0) =     -116.32553380


--------------------------------------------------------------------------------------------------------




--------------------------------------- Iteration      1(   7)  ---------------------------------------


    POTLOK:  cpu time      0.4437: real time      0.4612
    SETDIJ:  cpu time      6.3433: real time      6.4401
     EDDAV:  cpu time     60.7760: real time     61.0074
 BZINTS: Fermi energy:    0.738030;  336.000000 electrons
         Band energy:-0.186761E+04;  BLOECHL correction:    0.000000
       DOS:  cpu time      0.0275: real time      0.0276
    CHARGE:  cpu time      9.2988: real time      9.3620
    MIXING:  cpu time      0.0070: real time      0.0070
    --------------------------------------------
      LOOP:  cpu time     76.8964: real time     77.3053

 eigenvalue-minimisations  : 10112
 total energy-change (2. order) :-0.1114620E+02  (-0.2696932E+01)
 number of electron     335.9999996 magnetization      19.7302354
 augmentation part      -47.3162412 magnetization      20.9357065

 Broyden mixing:
  rms(total) = 0.14021E+01    rms(broyden)= 0.14021E+01
  rms(prec ) = 0.14058E+01
  weight for this iteration     100.00

 eigenvalues of (default mixing * dielectric matrix)
  average eigenvalue GAMMA=   1.4834
  0.7881  2.1788

 Free energy of the ion-electron system (eV)
  ---------------------------------------------------
  alpha Z        PSCENC =       253.99581917
  Ewald energy   TEWEN  =     -9972.07182229
  -Hartree energ DENC   =     -4968.57229679
  -exchange      EXHF   =         0.00000000
  -V(xc)+E(xc)   XCENC  =       751.41755326
  PAW double counting   =     37036.56638953   -36863.19779581
  entropy T*S    EENTRO =         0.00000000
  eigenvalues    EBANDS =     -1867.60888228
  atomic energy  EATOM  =     15501.99929693
  Solvation  Ediel_sol  =         0.00000000
  ---------------------------------------------------
  free energy    TOTEN  =      -127.47173827 eV

  energy without entropy =     -127.47173827  energy(sigma->0) =     -127.47173827


--------------------------------------------------------------------------------------------------------




--------------------------------------- Iteration      1(   8)  ---------------------------------------


    POTLOK:  cpu time      0.4515: real time      0.5916
    SETDIJ:  cpu time      6.1487: real time      6.2049
     EDDAV:  cpu time     54.9527: real time     55.1005
 BZINTS: Fermi energy:    0.705758;  336.000000 electrons
         Band energy:-0.185519E+04;  BLOECHL correction:    0.000000
       DOS:  cpu time      0.0283: real time      0.0283
    CHARGE:  cpu time     20.1762: real time     20.2130
    MIXING:  cpu time      0.0072: real time      0.0072
    --------------------------------------------
      LOOP:  cpu time     81.7647: real time     82.1456

 eigenvalue-minimisations  :  9312
 total energy-change (2. order) :-0.4267771E+02  (-0.1971466E+01)
 number of electron     335.9999997 magnetization      16.0581244
 augmentation part      -47.0124052 magnetization      17.1027421

 Broyden mixing:
  rms(total) = 0.78399E+00    rms(broyden)= 0.78399E+00
  rms(prec ) = 0.78912E+00
  weight for this iteration     100.00

 eigenvalues of (default mixing * dielectric matrix)
  average eigenvalue GAMMA=   1.3389
  2.4910  0.9433  0.5824

 Free energy of the ion-electron system (eV)
  ---------------------------------------------------
  alpha Z        PSCENC =       253.99581917
  Ewald energy   TEWEN  =     -9972.07182229
  -Hartree energ DENC   =     -4998.04501722
  -exchange      EXHF   =         0.00000000
  -V(xc)+E(xc)   XCENC  =       726.55843058
  PAW double counting   =     40167.85578936   -39995.25385824
  entropy T*S    EENTRO =         0.00000000
  eigenvalues    EBANDS =     -1855.18808869
  atomic energy  EATOM  =     15501.99929693
  Solvation  Ediel_sol  =         0.00000000
  ---------------------------------------------------
  free energy    TOTEN  =      -170.14945040 eV

  energy without entropy =     -170.14945040  energy(sigma->0) =     -170.14945040


--------------------------------------------------------------------------------------------------------




--------------------------------------- Iteration      1(   9)  ---------------------------------------


    POTLOK:  cpu time      0.4679: real time      0.4691
    SETDIJ:  cpu time      5.9805: real time      5.9898
     EDDAV:  cpu time     55.0206: real time     55.1325
 BZINTS: Fermi energy:    0.627911;  336.000000 electrons
         Band energy:-0.186642E+04;  BLOECHL correction:    0.000000
       DOS:  cpu time      0.0275: real time      0.0275
    CHARGE:  cpu time      5.5700: real time      5.5793
    MIXING:  cpu time      0.0073: real time      0.0074
    --------------------------------------------
      LOOP:  cpu time     67.0737: real time     67.2056

 eigenvalue-minimisations  : 10240
 total energy-change (2. order) :-0.1682938E+02  (-0.6455929E+00)
 number of electron     335.9999997 magnetization      11.5314709
 augmentation part      -46.9154023 magnetization      12.3691455

 Broyden mixing:
  rms(total) = 0.43649E+00    rms(broyden)= 0.43649E+00
  rms(prec ) = 0.44855E+00
  weight for this iteration     100.00

 eigenvalues of (default mixing * dielectric matrix)
  average eigenvalue GAMMA=   1.3241
  2.5745  1.3002  0.7109  0.7109

 Free energy of the ion-electron system (eV)
  ---------------------------------------------------
  alpha Z        PSCENC =       253.99581917
  Ewald energy   TEWEN  =     -9972.07182229
  -Hartree energ DENC   =     -4994.29726302
  -exchange      EXHF   =         0.00000000
  -V(xc)+E(xc)   XCENC  =       717.19190524
  PAW double counting   =     40952.15014469   -40779.52842197
  entropy T*S    EENTRO =         0.00000000
  eigenvalues    EBANDS =     -1866.41849040
  atomic energy  EATOM  =     15501.99929693
  Solvation  Ediel_sol  =         0.00000000
  ---------------------------------------------------
  free energy    TOTEN  =      -186.97883165 eV

  energy without entropy =     -186.97883165  energy(sigma->0) =     -186.97883165


--------------------------------------------------------------------------------------------------------




--------------------------------------- Iteration      1(  10)  ---------------------------------------


    POTLOK:  cpu time      0.4557: real time      0.4566
    SETDIJ:  cpu time      4.1756: real time      4.1793
     EDDAV:  cpu time     56.3487: real time     56.4849
 BZINTS: Fermi energy:    0.475056;  336.000000 electrons
         Band energy:-0.190094E+04;  BLOECHL correction:    0.000000
       DOS:  cpu time      0.0276: real time      0.0276
    CHARGE:  cpu time     12.2925: real time     12.3011
    MIXING:  cpu time      0.0076: real time      0.0076
    --------------------------------------------
      LOOP:  cpu time     73.3077: real time     73.4572

 eigenvalue-minimisations  :  9984
 total energy-change (2. order) :-0.2005333E+02  (-0.1302246E+01)
 number of electron     335.9999997 magnetization       5.3076042
 augmentation part      -46.8736535 magnetization       5.8420962

 Broyden mixing:
  rms(total) = 0.32405E+00    rms(broyden)= 0.32405E+00
  rms(prec ) = 0.33702E+00
  weight for this iteration     100.00

 eigenvalues of (default mixing * dielectric matrix)
  average eigenvalue GAMMA=   1.4492
  2.4866  2.4866  0.9413  0.7292  0.6021

 Free energy of the ion-electron system (eV)
  ---------------------------------------------------
  alpha Z        PSCENC =       253.99581917
  Ewald energy   TEWEN  =     -9972.07182229
  -Hartree energ DENC   =     -4968.90750003
  -exchange      EXHF   =         0.00000000
  -V(xc)+E(xc)   XCENC  =       705.62021826
  PAW double counting   =     40959.08807878   -40785.81191493
  entropy T*S    EENTRO =         0.00000000
  eigenvalues    EBANDS =     -1900.94433854
  atomic energy  EATOM  =     15501.99929693
  Solvation  Ediel_sol  =         0.00000000
  ---------------------------------------------------
  free energy    TOTEN  =      -207.03216264 eV

  energy without entropy =     -207.03216264  energy(sigma->0) =     -207.03216264


--------------------------------------------------------------------------------------------------------




--------------------------------------- Iteration      1(  11)  ---------------------------------------


    POTLOK:  cpu time      0.4534: real time      0.4547
    SETDIJ:  cpu time      7.5345: real time      7.5401
     EDDAV:  cpu time     60.5111: real time     60.5970
 BZINTS: Fermi energy:    0.257073;  336.000000 electrons
         Band energy:-0.195831E+04;  BLOECHL correction:    0.000000
       DOS:  cpu time      0.0284: real time      0.0284
    CHARGE:  cpu time      7.0742: real time      7.0873
    MIXING:  cpu time      0.0082: real time      0.0082
    --------------------------------------------
      LOOP:  cpu time     75.6097: real time     75.7157

 eigenvalue-minimisations  :  9952
 total energy-change (2. order) :-0.1784650E+02  (-0.2165565E+01)
 number of electron     335.9999997 magnetization       3.5711852
 augmentation part      -46.9052564 magnetization       3.7544160

 Broyden mixing:
  rms(total) = 0.18649E+00    rms(broyden)= 0.18649E+00
  rms(prec ) = 0.20020E+00
  weight for this iteration     100.00

 eigenvalues of (default mixing * dielectric matrix)
  average eigenvalue GAMMA=   1.4668
  2.7973  2.7973  1.0273  0.8889  0.6995  0.5903

 Free energy of the ion-electron system (eV)
  ---------------------------------------------------
  alpha Z        PSCENC =       253.99581917
  Ewald energy   TEWEN  =     -9972.07182229
  -Hartree energ DENC   =     -4919.33645121
  -exchange      EXHF   =         0.00000000
  -V(xc)+E(xc)   XCENC  =       694.51318177
  PAW double counting   =     40386.30476543   -40211.96943567
  entropy T*S    EENTRO =         0.00000000
  eigenvalues    EBANDS =     -1958.31402023
  atomic energy  EATOM  =     15501.99929693
  Solvation  Ediel_sol  =         0.00000000
  ---------------------------------------------------
  free energy    TOTEN  =      -224.87866610 eV

  energy without entropy =     -224.87866610  energy(sigma->0) =     -224.87866610


--------------------------------------------------------------------------------------------------------




--------------------------------------- Iteration      1(  12)  ---------------------------------------


    POTLOK:  cpu time      0.4566: real time      0.4616
    SETDIJ:  cpu time     10.6070: real time     10.6583
     EDDAV:  cpu time     59.4059: real time     59.5388
 BZINTS: Fermi energy:    0.183733;  336.000000 electrons
         Band energy:-0.197898E+04;  BLOECHL correction:    0.000000
       DOS:  cpu time      0.0277: real time      0.0278
    CHARGE:  cpu time      5.6129: real time      5.6231
    MIXING:  cpu time      0.0085: real time      0.0085
    --------------------------------------------
      LOOP:  cpu time     76.1187: real time     76.3182

 eigenvalue-minimisations  : 10048
 total energy-change (2. order) :-0.3386350E+01  (-0.3879541E+00)
 number of electron     335.9999997 magnetization       2.3916346
 augmentation part      -46.9154754 magnetization       2.4746609

 Broyden mixing:
  rms(total) = 0.15961E+00    rms(broyden)= 0.15961E+00
  rms(prec ) = 0.17215E+00
  weight for this iteration     100.00

 eigenvalues of (default mixing * dielectric matrix)
  average eigenvalue GAMMA=   1.4918
  3.1007  3.1007  1.0554  1.0554  0.7811  0.7811  0.5685

 Free energy of the ion-electron system (eV)
  ---------------------------------------------------
  alpha Z        PSCENC =       253.99581917
  Ewald energy   TEWEN  =     -9972.07182229
  -Hartree energ DENC   =     -4899.83879893
  -exchange      EXHF   =         0.00000000
  -V(xc)+E(xc)   XCENC  =       692.05926613
  PAW double counting   =     39954.38367153   -39779.81136234
  entropy T*S    EENTRO =         0.00000000
  eigenvalues    EBANDS =     -1978.98108647
  atomic energy  EATOM  =     15501.99929693
  Solvation  Ediel_sol  =         0.00000000
  ---------------------------------------------------
  free energy    TOTEN  =      -228.26501628 eV

  energy without entropy =     -228.26501628  energy(sigma->0) =     -228.26501628


--------------------------------------------------------------------------------------------------------




--------------------------------------- Iteration      1(  13)  ---------------------------------------


    POTLOK:  cpu time      0.4464: real time      0.4481
    SETDIJ:  cpu time     10.1088: real time     10.1295
     EDDAV:  cpu time     68.0135: real time     68.1556
 BZINTS: Fermi energy:    0.115643;  336.000000 electrons
         Band energy:-0.200140E+04;  BLOECHL correction:    0.000000
       DOS:  cpu time      0.0310: real time      0.0310
    CHARGE:  cpu time      5.3127: real time      5.3276
    MIXING:  cpu time      0.0061: real time      0.0061
    --------------------------------------------
      LOOP:  cpu time     83.9186: real time     84.0979

 eigenvalue-minimisations  :  9568
 total energy-change (2. order) :-0.1051295E+01  (-0.1334695E+00)
 number of electron     335.9999997 magnetization       0.8874908
 augmentation part      -46.9736424 magnetization       0.9134824

 Broyden mixing:
  rms(total) = 0.92998E-01    rms(broyden)= 0.92997E-01
  rms(prec ) = 0.99816E-01
  weight for this iteration     100.00

 eigenvalues of (default mixing * dielectric matrix)
  average eigenvalue GAMMA=   1.5516
  3.3225  3.3225  1.5831  1.2849  0.9273  0.6999  0.6999  0.5728

 Free energy of the ion-electron system (eV)
  ---------------------------------------------------
  alpha Z        PSCENC =       253.99581917
  Ewald energy   TEWEN  =     -9972.07182229
  -Hartree energ DENC   =     -4876.72574694
  -exchange      EXHF   =         0.00000000
  -V(xc)+E(xc)   XCENC  =       690.07841563
  PAW double counting   =     39134.51999709   -38959.70863097
  entropy T*S    EENTRO =         0.00000000
  eigenvalues    EBANDS =     -2001.40363999
  atomic energy  EATOM  =     15501.99929693
  Solvation  Ediel_sol  =         0.00000000
  ---------------------------------------------------
  free energy    TOTEN  =      -229.31631135 eV

  energy without entropy =     -229.31631135  energy(sigma->0) =     -229.31631135


--------------------------------------------------------------------------------------------------------




--------------------------------------- Iteration      1(  14)  ---------------------------------------


    POTLOK:  cpu time      0.4497: real time      0.4516
    SETDIJ:  cpu time      8.0699: real time      8.0786
     EDDAV:  cpu time     62.6831: real time     62.7543
 BZINTS: Fermi energy:    0.080043;  336.000000 electrons
         Band energy:-0.201188E+04;  BLOECHL correction:   -0.000000
       DOS:  cpu time      0.0293: real time      0.0294
    CHARGE:  cpu time      3.6074: real time      3.6086
    MIXING:  cpu time      0.0097: real time      0.0097
    --------------------------------------------
      LOOP:  cpu time     74.8491: real time     74.9322

 eigenvalue-minimisations  :  8992
 total energy-change (2. order) :-0.6377493E-01  (-0.1620455E-01)
 number of electron     335.9999997 magnetization       0.4182242
 augmentation part      -47.0007878 magnetization       0.4252007

 Broyden mixing:
  rms(total) = 0.43721E-01    rms(broyden)= 0.43721E-01
  rms(prec ) = 0.46421E-01
  weight for this iteration     100.00

 eigenvalues of (default mixing * dielectric matrix)
  average eigenvalue GAMMA=   1.5785
  4.1296  2.5572  2.5572  1.0965  1.0965  0.7712  0.7712  0.5754  0.6519

 Free energy of the ion-electron system (eV)
  ---------------------------------------------------
  alpha Z        PSCENC =       253.99581917
  Ewald energy   TEWEN  =     -9972.07182229
  -Hartree energ DENC   =     -4865.35319827
  -exchange      EXHF   =         0.00000000
  -V(xc)+E(xc)   XCENC  =       689.16512056
  PAW double counting   =     39073.30378603   -38898.53736597
  entropy T*S    EENTRO =         0.00000000
  eigenvalues    EBANDS =     -2011.88172243
  atomic energy  EATOM  =     15501.99929693
  Solvation  Ediel_sol  =         0.00000000
  ---------------------------------------------------
  free energy    TOTEN  =      -229.38008628 eV

  energy without entropy =     -229.38008628  energy(sigma->0) =     -229.38008628


--------------------------------------------------------------------------------------------------------




--------------------------------------- Iteration      1(  15)  ---------------------------------------


    POTLOK:  cpu time      0.4543: real time      0.4558
    SETDIJ:  cpu time      4.6326: real time      4.6363
     EDDAV:  cpu time     53.6190: real time     53.6773
 BZINTS: Fermi energy:    0.078581;  336.000000 electrons
         Band energy:-0.201156E+04;  BLOECHL correction:    0.000000
       DOS:  cpu time      0.0275: real time      0.0275
    CHARGE:  cpu time      5.4993: real time      5.5061
    MIXING:  cpu time      0.0101: real time      0.0101
    --------------------------------------------
      LOOP:  cpu time     64.2428: real time     64.3132

 eigenvalue-minimisations  :  9568
 total energy-change (2. order) : 0.1291823E-02  (-0.2082027E-02)
 number of electron     335.9999997 magnetization       0.1723147
 augmentation part      -46.9946150 magnetization       0.1766205

 Broyden mixing:
  rms(total) = 0.20215E-01    rms(broyden)= 0.20215E-01
  rms(prec ) = 0.21789E-01
  weight for this iteration     100.00

 eigenvalues of (default mixing * dielectric matrix)
  average eigenvalue GAMMA=   1.5648
  4.5531  2.5270  2.5270  1.3365  0.9965  0.9965  0.7589  0.7589  0.6240  0.5698

 Free energy of the ion-electron system (eV)
  ---------------------------------------------------
  alpha Z        PSCENC =       253.99581917
  Ewald energy   TEWEN  =     -9972.07182229
  -Hartree energ DENC   =     -4865.54610174
  -exchange      EXHF   =         0.00000000
  -V(xc)+E(xc)   XCENC  =       689.12837038
  PAW double counting   =     39159.26571237   -38984.58650563
  entropy T*S    EENTRO =         0.00000000
  eigenvalues    EBANDS =     -2011.56356364
  atomic energy  EATOM  =     15501.99929693
  Solvation  Ediel_sol  =         0.00000000
  ---------------------------------------------------
  free energy    TOTEN  =      -229.37879446 eV

  energy without entropy =     -229.37879446  energy(sigma->0) =     -229.37879446


--------------------------------------------------------------------------------------------------------




--------------------------------------- Iteration      1(  16)  ---------------------------------------


    POTLOK:  cpu time      0.4383: real time      0.4392
    SETDIJ:  cpu time     11.5955: real time     11.6348
     EDDAV:  cpu time     52.8807: real time     52.9514
 BZINTS: Fermi energy:    0.076519;  336.000000 electrons
         Band energy:-0.201203E+04;  BLOECHL correction:    0.000000
       DOS:  cpu time      0.0276: real time      0.0277
    CHARGE:  cpu time      7.3211: real time      7.3218
    MIXING:  cpu time      0.0077: real time      0.0077
    --------------------------------------------
      LOOP:  cpu time     72.2709: real time     72.3826

 eigenvalue-minimisations  :  9120
 total energy-change (2. order) : 0.3103394E-02  (-0.5514984E-03)
 number of electron     335.9999997 magnetization       0.0697412
 augmentation part      -46.9934643 magnetization       0.0705411

 Broyden mixing:
  rms(total) = 0.12326E-01    rms(broyden)= 0.12326E-01
  rms(prec ) = 0.13336E-01
  weight for this iteration     100.00

 eigenvalues of (default mixing * dielectric matrix)
  average eigenvalue GAMMA=   1.5467
  4.7574  2.4276  2.4276  1.8416  0.9957  0.9957  0.9230  0.7284  0.7284  0.5814
  0.6064

 Free energy of the ion-electron system (eV)
  ---------------------------------------------------
  alpha Z        PSCENC =       253.99581917
  Ewald energy   TEWEN  =     -9972.07182229
  -Hartree energ DENC   =     -4864.98520203
  -exchange      EXHF   =         0.00000000
  -V(xc)+E(xc)   XCENC  =       689.06007873
  PAW double counting   =     39129.14931748   -38954.49395511
  entropy T*S    EENTRO =         0.00000000
  eigenvalues    EBANDS =     -2012.02922394
  atomic energy  EATOM  =     15501.99929693
  Solvation  Ediel_sol  =         0.00000000
  ---------------------------------------------------
  free energy    TOTEN  =      -229.37569106 eV

  energy without entropy =     -229.37569106  energy(sigma->0) =     -229.37569106


--------------------------------------------------------------------------------------------------------




--------------------------------------- Iteration      1(  17)  ---------------------------------------


    POTLOK:  cpu time      0.4479: real time      0.4489
    SETDIJ:  cpu time     15.3789: real time     15.3820
     EDDAV:  cpu time     58.7169: real time     58.8317
 BZINTS: Fermi energy:    0.078274;  336.000000 electrons
         Band energy:-0.201110E+04;  BLOECHL correction:    0.000000
       DOS:  cpu time      0.0284: real time      0.0284
    CHARGE:  cpu time      8.9106: real time      9.0498
    MIXING:  cpu time      0.0096: real time      0.0096
    --------------------------------------------
      LOOP:  cpu time     83.4922: real time     83.7504

 eigenvalue-minimisations  :  9504
 total energy-change (2. order) :-0.5057023E-03  (-0.1198093E-03)
 number of electron     335.9999997 magnetization       0.0178167
 augmentation part      -46.9883932 magnetization       0.0182161

 Broyden mixing:
  rms(total) = 0.49271E-02    rms(broyden)= 0.49270E-02
  rms(prec ) = 0.55253E-02
  weight for this iteration     100.00

 eigenvalues of (default mixing * dielectric matrix)
  average eigenvalue GAMMA=   1.5759
  4.9478  2.6011  2.6011  2.2016  1.1769  0.9961  0.9961  0.7616  0.7616  0.6823
  0.5893  0.5958

 Free energy of the ion-electron system (eV)
  ---------------------------------------------------
  alpha Z        PSCENC =       253.99581917
  Ewald energy   TEWEN  =     -9972.07182229
  -Hartree energ DENC   =     -4865.94791657
  -exchange      EXHF   =         0.00000000
  -V(xc)+E(xc)   XCENC  =       689.12004808
  PAW double counting   =     39170.09270007   -38995.46161838
  entropy T*S    EENTRO =         0.00000000
  eigenvalues    EBANDS =     -2011.10270378
  atomic energy  EATOM  =     15501.99929693
  Solvation  Ediel_sol  =         0.00000000
  ---------------------------------------------------
  free energy    TOTEN  =      -229.37619677 eV

  energy without entropy =     -229.37619677  energy(sigma->0) =     -229.37619677


--------------------------------------------------------------------------------------------------------




--------------------------------------- Iteration      1(  18)  ---------------------------------------


    POTLOK:  cpu time      0.4467: real time      0.4534
    SETDIJ:  cpu time      6.2733: real time      6.3464
     EDDAV:  cpu time     55.8368: real time     56.6515
 BZINTS: Fermi energy:    0.079660;  336.000000 electrons
         Band energy:-0.201058E+04;  BLOECHL correction:    0.000000
       DOS:  cpu time      0.0274: real time      0.0275
    CHARGE:  cpu time     10.4517: real time     10.6008
    MIXING:  cpu time      0.0100: real time      0.0100
    --------------------------------------------
      LOOP:  cpu time     73.0458: real time     74.0896

 eigenvalue-minimisations  :  9504
 total energy-change (2. order) :-0.1153376E-03  (-0.3938092E-04)
 number of electron     335.9999997 magnetization       0.0051830
 augmentation part      -46.9850701 magnetization       0.0057225

 Broyden mixing:
  rms(total) = 0.44470E-02    rms(broyden)= 0.44470E-02
  rms(prec ) = 0.46991E-02
  weight for this iteration     100.00

 eigenvalues of (default mixing * dielectric matrix)
  average eigenvalue GAMMA=   1.5445
  5.0020  2.6449  2.6449  2.2634  1.1300  1.1300  0.9911  0.9911  0.7251  0.7251
  0.5791  0.6448  0.6062

 Free energy of the ion-electron system (eV)
  ---------------------------------------------------
  alpha Z        PSCENC =       253.99581917
  Ewald energy   TEWEN  =     -9972.07182229
  -Hartree energ DENC   =     -4866.48950621
  -exchange      EXHF   =         0.00000000
  -V(xc)+E(xc)   XCENC  =       689.15523911
  PAW double counting   =     39198.80987100   -39024.19356748
  entropy T*S    EENTRO =         0.00000000
  eigenvalues    EBANDS =     -2010.58164232
  atomic energy  EATOM  =     15501.99929693
  Solvation  Ediel_sol  =         0.00000000
  ---------------------------------------------------
  free energy    TOTEN  =      -229.37631210 eV

  energy without entropy =     -229.37631210  energy(sigma->0) =     -229.37631210


--------------------------------------------------------------------------------------------------------




--------------------------------------- Iteration      1(  19)  ---------------------------------------


    POTLOK:  cpu time      0.4555: real time      0.4567
    SETDIJ:  cpu time     10.5021: real time     10.6430
     EDDAV:  cpu time     54.8777: real time     55.6964
 BZINTS: Fermi energy:    0.078680;  336.000000 electrons
         Band energy:-0.201084E+04;  BLOECHL correction:    0.000000
       DOS:  cpu time      0.0284: real time      0.0285
    CHARGE:  cpu time      8.7488: real time      8.8638
    MIXING:  cpu time      1.1407: real time      1.1717
    --------------------------------------------
      LOOP:  cpu time     75.7533: real time     76.8603

 eigenvalue-minimisations  :  9760
 total energy-change (2. order) :-0.6147999E-05  (-0.6194415E-05)
 number of electron     335.9999997 magnetization      -0.0005387
 augmentation part      -46.9859008 magnetization      -0.0002971

 Broyden mixing:
  rms(total) = 0.20205E-02    rms(broyden)= 0.20204E-02
  rms(prec ) = 0.21950E-02
  weight for this iteration     100.00

 eigenvalues of (default mixing * dielectric matrix)
  average eigenvalue GAMMA=   1.5456
  5.0453  2.7066  2.7066  2.1096  1.4090  1.4090  1.0331  1.0331  0.8575  0.7536
  0.7536  0.5806  0.6088  0.6314

 Free energy of the ion-electron system (eV)
  ---------------------------------------------------
  alpha Z        PSCENC =       253.99581917
  Ewald energy   TEWEN  =     -9972.07182229
  -Hartree energ DENC   =     -4866.21630858
  -exchange      EXHF   =         0.00000000
  -V(xc)+E(xc)   XCENC  =       689.13840639
  PAW double counting   =     39197.48927980   -39022.86984659
  entropy T*S    EENTRO =         0.00000000
  eigenvalues    EBANDS =     -2010.84114309
  atomic energy  EATOM  =     15501.99929693
  Solvation  Ediel_sol  =         0.00000000
  ---------------------------------------------------
  free energy    TOTEN  =      -229.37631825 eV

  energy without entropy =     -229.37631825  energy(sigma->0) =     -229.37631825


--------------------------------------------------------------------------------------------------------




--------------------------------------- Iteration      1(  20)  ---------------------------------------


    POTLOK:  cpu time      0.4335: real time      0.4362
    SETDIJ:  cpu time     11.0656: real time     11.2244
     EDDAV:  cpu time     52.5781: real time     53.4915
 BZINTS: Fermi energy:    0.078372;  336.000000 electrons
         Band energy:-0.201098E+04;  BLOECHL correction:    0.000000
       DOS:  cpu time      0.0285: real time      0.0286
    CHARGE:  cpu time     11.2544: real time     11.4069
    MIXING:  cpu time      0.0089: real time      0.0089
    --------------------------------------------
      LOOP:  cpu time     75.3690: real time     76.5965

 eigenvalue-minimisations  :  9184
 total energy-change (2. order) :-0.1049065E-04  (-0.3475439E-05)
 number of electron     335.9999997 magnetization      -0.0016270
 augmentation part      -46.9864303 magnetization      -0.0015495

 Broyden mixing:
  rms(total) = 0.94580E-03    rms(broyden)= 0.94567E-03
  rms(prec ) = 0.10048E-02
  weight for this iteration     100.00

 eigenvalues of (default mixing * dielectric matrix)
  average eigenvalue GAMMA=   1.5471
  5.0951  2.7073  2.7073  2.1002  2.1002  1.2300  1.2300  0.9904  0.9904  0.7796
  0.7329  0.7329  0.5785  0.6157  0.6157

 Free energy of the ion-electron system (eV)
  ---------------------------------------------------
  alpha Z        PSCENC =       253.99581917
  Ewald energy   TEWEN  =     -9972.07182229
  -Hartree energ DENC   =     -4866.07332183
  -exchange      EXHF   =         0.00000000
  -V(xc)+E(xc)   XCENC  =       689.13137572
  PAW double counting   =     39202.63424569   -39028.01289789
  entropy T*S    EENTRO =         0.00000000
  eigenvalues    EBANDS =     -2010.97902425
  atomic energy  EATOM  =     15501.99929693
  Solvation  Ediel_sol  =         0.00000000
  ---------------------------------------------------
  free energy    TOTEN  =      -229.37632874 eV

  energy without entropy =     -229.37632874  energy(sigma->0) =     -229.37632874


--------------------------------------------------------------------------------------------------------




--------------------------------------- Iteration      1(  21)  ---------------------------------------


    POTLOK:  cpu time      0.4243: real time      0.4380
    SETDIJ:  cpu time     16.9580: real time     17.1829
     EDDAV:  cpu time     57.6717: real time     58.5070
 BZINTS: Fermi energy:    0.078361;  336.000000 electrons
         Band energy:-0.201103E+04;  BLOECHL correction:    0.000000
       DOS:  cpu time      0.0275: real time      0.0276
    CHARGE:  cpu time     13.9112: real time     14.1226
    MIXING:  cpu time      0.0110: real time      0.0227
    --------------------------------------------
      LOOP:  cpu time     89.0038: real time     90.3008

 eigenvalue-minimisations  :  9280
 total energy-change (2. order) : 0.1163404E-05  (-0.8848155E-06)
 number of electron     335.9999997 magnetization      -0.0013483
 augmentation part      -46.9866229 magnetization      -0.0013520

 Broyden mixing:
  rms(total) = 0.42383E-03    rms(broyden)= 0.42356E-03
  rms(prec ) = 0.44590E-03
  weight for this iteration     100.00

 eigenvalues of (default mixing * dielectric matrix)
  average eigenvalue GAMMA=   1.5118
  5.0970  2.6680  2.6680  2.5704  1.6117  1.4020  1.1547  1.1547  0.9280  0.9280
  0.7392  0.7392  0.7252  0.5782  0.6124  0.6124

 Free energy of the ion-electron system (eV)
  ---------------------------------------------------
  alpha Z        PSCENC =       253.99581917
  Ewald energy   TEWEN  =     -9972.07182229
  -Hartree energ DENC   =     -4866.01473536
  -exchange      EXHF   =         0.00000000
  -V(xc)+E(xc)   XCENC  =       689.12778801
  PAW double counting   =     39202.08236493   -39027.46021058
  entropy T*S    EENTRO =         0.00000000
  eigenvalues    EBANDS =     -2011.03482839
  atomic energy  EATOM  =     15501.99929693
  Solvation  Ediel_sol  =         0.00000000
  ---------------------------------------------------
  free energy    TOTEN  =      -229.37632758 eV

  energy without entropy =     -229.37632758  energy(sigma->0) =     -229.37632758


--------------------------------------------------------------------------------------------------------




--------------------------------------- Iteration      1(  22)  ---------------------------------------


    POTLOK:  cpu time      0.4316: real time      0.4393
    SETDIJ:  cpu time     10.5904: real time     10.7413
     EDDAV:  cpu time     63.9223: real time     64.7778
 BZINTS: Fermi energy:    0.078222;  336.000000 electrons
         Band energy:-0.201106E+04;  BLOECHL correction:    0.000000
       DOS:  cpu time      0.0275: real time      0.0276
    CHARGE:  cpu time      3.4408: real time      3.4488
    MIXING:  cpu time      0.0117: real time      0.0117
    --------------------------------------------
      LOOP:  cpu time     78.4243: real time     79.4466

 eigenvalue-minimisations  :  9760
 total energy-change (2. order) : 0.4612884E-06  (-0.1394080E-06)
 number of electron     335.9999997 magnetization      -0.0004706
 augmentation part      -46.9866927 magnetization      -0.0004923

 Broyden mixing:
  rms(total) = 0.23090E-03    rms(broyden)= 0.23041E-03
  rms(prec ) = 0.24510E-03
  weight for this iteration     100.00

 eigenvalues of (default mixing * dielectric matrix)
  average eigenvalue GAMMA=   1.5004
  5.0912  2.6566  2.6566  2.6228  1.6728  1.4393  1.4393  1.0823  1.0823  0.9004
  0.9004  0.7423  0.7423  0.6736  0.5794  0.6124  0.6124

 Free energy of the ion-electron system (eV)
  ---------------------------------------------------
  alpha Z        PSCENC =       253.99581917
  Ewald energy   TEWEN  =     -9972.07182229
  -Hartree energ DENC   =     -4865.99301221
  -exchange      EXHF   =         0.00000000
  -V(xc)+E(xc)   XCENC  =       689.12620364
  PAW double counting   =     39200.67250779   -39026.05004429
  entropy T*S    EENTRO =         0.00000000
  eigenvalues    EBANDS =     -2011.05527586
  atomic energy  EATOM  =     15501.99929693
  Solvation  Ediel_sol  =         0.00000000
  ---------------------------------------------------
  free energy    TOTEN  =      -229.37632712 eV

  energy without entropy =     -229.37632712  energy(sigma->0) =     -229.37632712


--------------------------------------------------------------------------------------------------------




--------------------------------------- Iteration      1(  23)  ---------------------------------------


    POTLOK:  cpu time      0.4313: real time      0.4337
    SETDIJ:  cpu time      9.5474: real time      9.6026
     EDDAV:  cpu time     55.8328: real time     55.9587
 BZINTS: Fermi energy:    0.078298;  336.000000 electrons
         Band energy:-0.201105E+04;  BLOECHL correction:    0.000000
       DOS:  cpu time      0.0276: real time      0.0276
    CHARGE:  cpu time      6.4293: real time      6.4437
    MIXING:  cpu time      0.0389: real time      0.0389
    --------------------------------------------
      LOOP:  cpu time     72.3073: real time     72.5054

 eigenvalue-minimisations  :  9216
 total energy-change (2. order) :-0.2359375E-06  (-0.5691291E-07)
 number of electron     335.9999997 magnetization      -0.0002588
 augmentation part      -46.9866648 magnetization      -0.0002549

 Broyden mixing:
[...]

  length of vectors
    10.314108670 16.788494411 10.846477853     0.097707938  0.059564603  0.092912216


 FORCES acting on ions
    electron-ion (+dipol)            ewald-force                    non-local-force                 convergence-correction
 -----------------------------------------------------------------------------------------------
   0.986E+02 -.105E+03 -.126E+02   -.104E+03 0.113E+03 0.112E+02   0.495E+01 -.888E+01 0.132E+01   0.178E-05 -.598E-07 0.678E-06
   0.986E+02 -.105E+03 -.125E+02   -.104E+03 0.113E+03 0.112E+02   0.495E+01 -.888E+01 0.132E+01   0.161E-05 -.135E-06 0.778E-06
   -.123E+02 0.421E+02 -.127E+03   0.126E+02 -.473E+02 0.134E+03   -.239E+00 0.518E+01 -.707E+01   0.113E-06 -.871E-07 -.129E-05
   -.124E+02 0.420E+02 -.127E+03   0.126E+02 -.472E+02 0.134E+03   -.245E+00 0.519E+01 -.705E+01   0.881E-07 -.469E-07 -.137E-05
   -.211E+02 -.902E+02 0.980E+02   0.198E+02 0.990E+02 -.103E+03   0.134E+01 -.874E+01 0.530E+01   -.602E-07 0.132E-06 0.181E-05
   -.212E+02 -.902E+02 0.981E+02   0.198E+02 0.989E+02 -.103E+03   0.134E+01 -.874E+01 0.530E+01   -.534E-07 0.135E-06 0.192E-05
   -.108E+03 0.947E+02 0.658E+01   0.113E+03 -.101E+03 -.453E+01   -.536E+01 0.589E+01 -.206E+01   -.158E-05 0.141E-07 0.691E-06
   -.108E+03 0.950E+02 0.625E+01   0.114E+03 -.101E+03 -.414E+01   -.534E+01 0.592E+01 -.212E+01   -.180E-05 0.102E-06 0.666E-06
   0.137E+03 -.540E+02 -.187E+02   -.143E+03 0.595E+02 0.193E+02   0.680E+01 -.552E+01 -.558E+00   0.163E-05 0.116E-06 -.101E-05
   0.136E+03 -.540E+02 -.187E+02   -.143E+03 0.595E+02 0.193E+02   0.680E+01 -.552E+01 -.558E+00   0.158E-05 0.119E-06 -.102E-05
   -.136E+03 0.539E+02 0.187E+02   0.143E+03 -.594E+02 -.193E+02   -.680E+01 0.552E+01 0.558E+00   -.155E-05 0.102E-06 0.994E-06
   -.136E+03 0.540E+02 0.187E+02   0.143E+03 -.595E+02 -.193E+02   -.680E+01 0.552E+01 0.558E+00   -.168E-05 0.560E-07 0.100E-05
   0.108E+03 -.950E+02 -.626E+01   -.114E+03 0.101E+03 0.414E+01   0.534E+01 -.592E+01 0.212E+01   0.168E-05 0.762E-07 -.655E-06
   0.108E+03 -.950E+02 -.625E+01   -.114E+03 0.101E+03 0.414E+01   0.534E+01 -.592E+01 0.212E+01   0.177E-05 0.554E-07 -.642E-06
   -.123E+02 -.420E+02 0.127E+03   0.126E+02 0.472E+02 -.134E+03   -.246E+00 -.519E+01 0.705E+01   0.150E-06 0.952E-07 0.104E-05
   -.124E+02 -.420E+02 0.127E+03   0.126E+02 0.472E+02 -.134E+03   -.246E+00 -.519E+01 0.705E+01   0.486E-07 0.182E-06 0.114E-05
   0.210E+02 -.901E+02 0.979E+02   -.197E+02 0.988E+02 -.103E+03   -.132E+01 -.873E+01 0.532E+01   0.308E-07 -.234E-06 0.195E-05
   0.211E+02 -.902E+02 0.981E+02   -.197E+02 0.989E+02 -.103E+03   -.134E+01 -.874E+01 0.530E+01   0.695E-07 -.191E-06 0.203E-05
   -.980E+02 -.104E+03 -.124E+02   0.103E+03 0.113E+03 0.111E+02   -.491E+01 -.895E+01 0.133E+01   -.165E-05 -.454E-06 0.756E-06
   -.987E+02 -.105E+03 -.125E+02   0.104E+03 0.113E+03 0.112E+02   -.495E+01 -.888E+01 0.132E+01   -.177E-05 -.369E-06 0.738E-06
   -.136E+03 -.540E+02 -.187E+02   0.143E+03 0.595E+02 0.192E+02   -.680E+01 -.552E+01 -.558E+00   -.154E-05 -.113E-06 -.952E-06
   -.136E+03 -.539E+02 -.187E+02   0.143E+03 0.595E+02 0.193E+02   -.680E+01 -.552E+01 -.558E+00   -.168E-05 -.159E-06 -.970E-06
   0.123E+02 0.420E+02 -.127E+03   -.126E+02 -.472E+02 0.134E+03   0.246E+00 0.519E+01 -.705E+01   -.152E-06 0.310E-07 -.123E-05
   0.123E+02 0.420E+02 -.127E+03   -.126E+02 -.472E+02 0.134E+03   0.246E+00 0.519E+01 -.705E+01   -.482E-07 0.581E-07 -.138E-05
   -.108E+03 -.950E+02 -.626E+01   0.114E+03 0.101E+03 0.415E+01   -.534E+01 -.592E+01 0.212E+01   -.171E-05 0.849E-07 -.673E-06
   -.108E+03 -.950E+02 -.624E+01   0.114E+03 0.101E+03 0.413E+01   -.534E+01 -.592E+01 0.212E+01   -.164E-05 0.183E-07 -.632E-06
   0.987E+02 0.105E+03 0.125E+02   -.104E+03 -.113E+03 -.112E+02   0.495E+01 0.888E+01 -.132E+01   0.163E-05 0.274E-07 -.795E-06
   0.986E+02 0.105E+03 0.125E+02   -.104E+03 -.113E+03 -.112E+02   0.495E+01 0.888E+01 -.132E+01   0.172E-05 0.725E-07 -.822E-06
   -.987E+02 0.105E+03 0.126E+02   0.104E+03 -.113E+03 -.112E+02   -.495E+01 0.888E+01 -.132E+01   -.173E-05 0.480E-06 -.831E-06
   -.987E+02 0.105E+03 0.125E+02   0.104E+03 -.113E+03 -.112E+02   -.495E+01 0.888E+01 -.132E+01   -.167E-05 0.425E-06 -.888E-06
   0.728E+02 0.962E+02 0.632E+02   -.756E+02 -.106E+03 -.653E+02   0.274E+01 0.971E+01 0.207E+01   0.911E-06 0.695E-06 0.451E-06
   0.727E+02 0.961E+02 0.633E+02   -.755E+02 -.106E+03 -.653E+02   0.274E+01 0.971E+01 0.207E+01   0.817E-06 0.630E-06 0.492E-06
   0.219E+02 -.938E+02 -.889E+02   -.205E+02 0.100E+03 0.940E+02   -.133E+01 -.628E+01 -.509E+01   0.320E-06 0.110E-06 -.139E-05
   0.218E+02 -.938E+02 -.889E+02   -.205E+02 0.100E+03 0.940E+02   -.133E+01 -.628E+01 -.509E+01   0.244E-06 0.431E-07 -.141E-05
   -.211E+02 0.902E+02 -.980E+02   0.197E+02 -.989E+02 0.103E+03   0.134E+01 0.874E+01 -.530E+01   -.348E-07 -.169E-06 -.165E-05
   -.211E+02 0.902E+02 -.981E+02   0.198E+02 -.989E+02 0.103E+03   0.134E+01 0.874E+01 -.530E+01   -.127E-06 -.152E-06 -.172E-05
   -.220E+02 0.937E+02 0.882E+02   0.207E+02 -.100E+03 -.933E+02   0.136E+01 0.629E+01 0.508E+01   -.250E-06 -.385E-07 0.153E-05
   -.219E+02 0.938E+02 0.889E+02   0.205E+02 -.100E+03 -.940E+02   0.133E+01 0.628E+01 0.509E+01   -.328E-06 -.178E-07 0.159E-05
   0.212E+02 0.902E+02 -.980E+02   -.198E+02 -.990E+02 0.103E+03   -.134E+01 0.874E+01 -.530E+01   0.973E-07 0.266E-06 -.178E-05
   0.211E+02 0.902E+02 -.981E+02   -.197E+02 -.989E+02 0.103E+03   -.134E+01 0.874E+01 -.530E+01   -.129E-07 0.255E-06 -.187E-05
   0.727E+02 -.961E+02 -.632E+02   -.755E+02 0.106E+03 0.653E+02   0.274E+01 -.971E+01 -.207E+01   0.844E-06 -.673E-06 -.557E-06
   0.727E+02 -.962E+02 -.633E+02   -.755E+02 0.106E+03 0.653E+02   0.274E+01 -.971E+01 -.207E+01   0.919E-06 -.636E-06 -.674E-06
   0.136E+03 0.540E+02 0.187E+02   -.143E+03 -.595E+02 -.193E+02   0.680E+01 0.553E+01 0.561E+00   0.157E-05 -.304E-07 0.102E-05
   0.136E+03 0.539E+02 0.187E+02   -.143E+03 -.594E+02 -.193E+02   0.680E+01 0.552E+01 0.559E+00   0.165E-05 -.871E-07 0.105E-05
   0.108E+03 0.950E+02 0.625E+01   -.114E+03 -.101E+03 -.414E+01   0.534E+01 0.592E+01 -.212E+01   0.184E-05 -.118E-06 0.703E-06
   0.108E+03 0.950E+02 0.625E+01   -.114E+03 -.101E+03 -.414E+01   0.534E+01 0.592E+01 -.212E+01   0.162E-05 -.222E-06 0.704E-06
   -.728E+02 -.962E+02 -.632E+02   0.755E+02 0.106E+03 0.653E+02   -.274E+01 -.971E+01 -.207E+01   -.819E-06 -.192E-06 -.598E-06
   -.728E+02 -.961E+02 -.633E+02   0.756E+02 0.106E+03 0.653E+02   -.274E+01 -.971E+01 -.207E+01   -.889E-06 -.228E-06 -.660E-06
   -.218E+02 -.938E+02 -.888E+02   0.205E+02 0.100E+03 0.939E+02   0.133E+01 -.628E+01 -.509E+01   -.236E-06 0.803E-07 -.129E-05
   -.219E+02 -.938E+02 -.889E+02   0.205E+02 0.100E+03 0.940E+02   0.133E+01 -.628E+01 -.509E+01   -.322E-06 0.190E-06 -.143E-05
   0.218E+02 0.938E+02 0.889E+02   -.205E+02 -.100E+03 -.940E+02   -.133E+01 0.628E+01 0.509E+01   0.242E-06 -.218E-06 0.150E-05
   0.218E+02 0.938E+02 0.889E+02   -.205E+02 -.100E+03 -.940E+02   -.133E+01 0.628E+01 0.509E+01   0.378E-06 -.136E-06 0.165E-05
   -.727E+02 0.961E+02 0.632E+02   0.755E+02 -.106E+03 -.653E+02   -.274E+01 0.971E+01 0.207E+01   -.803E-06 0.189E-06 0.444E-06
   -.728E+02 0.962E+02 0.633E+02   0.755E+02 -.106E+03 -.653E+02   -.274E+01 0.971E+01 0.207E+01   -.910E-06 0.207E-06 0.526E-06
   0.124E+02 -.420E+02 0.127E+03   -.127E+02 0.472E+02 -.134E+03   0.246E+00 -.519E+01 0.705E+01   -.696E-07 -.120E-06 0.112E-05
   0.123E+02 -.420E+02 0.127E+03   -.126E+02 0.472E+02 -.134E+03   0.246E+00 -.519E+01 0.705E+01   -.171E-06 -.150E-06 0.117E-05
 -----------------------------------------------------------------------------------------------
   -.557E-01 0.867E-01 -.666E-01   0.306E-12 -.369E-12 -.568E-13   0.557E-01 -.867E-01 0.666E-01   0.613E-07 0.106E-07 -.322E-07


 POSITION                                       TOTAL-FORCE (eV/Angst)
 -----------------------------------------------------------------------------------
      7.84031      7.96182     -7.59135         0.002424     -0.001355      0.000932
     16.23455      7.96182     -7.59135         0.002494     -0.001261      0.001015
      3.16872      2.44282     -6.01943         0.007557     -0.011377     -0.005847
     11.56297      2.44282     -6.01943         0.002201     -0.000882     -0.002485
      1.76685      7.82725    -10.10485         0.000172      0.000166     -0.000319
     10.16110      7.82725    -10.10485        -0.000056      0.000001     -0.000502
      5.06050      1.12562     -8.40433        -0.056267      0.041982     -0.008729
     13.44475      1.12562     -8.40433         0.001665     -0.000709     -0.000712
      5.13205      1.09979     -2.45651        -0.000277      0.000527     -0.000361
     13.52630      1.09979     -2.45651        -0.000039      0.000463     -0.000274
      3.26219      7.47505     -8.62356        -0.000166     -0.000491      0.000376
     11.65644      7.47505     -8.62356         0.000117     -0.000436      0.000284
      3.34375      7.44923     -2.67574        -0.001759      0.000748      0.000752
     11.73799      7.44923     -2.67574        -0.001547      0.000599      0.000680
      7.36585      0.97835     -4.87422         0.002187      0.001023      0.002551
     15.76010      0.97835     -4.87422         0.002123      0.000854      0.002522
      2.43027      2.67356     -9.91842         0.015810     -0.010971      0.007267
     10.82452      2.67356     -9.91842         0.000058      0.000005     -0.000370
      4.75106      2.80814     -7.40493         0.012317     -0.019658     -0.008922
     13.14531      2.80814     -7.40493        -0.002521     -0.001192      0.001004
      7.45932      6.25348     -2.64294         0.000049      0.000559     -0.000265
     15.85356      6.25348     -2.64294         0.000167      0.000488     -0.000254
      1.02840      7.59650     -6.20585        -0.002074     -0.000803     -0.002555
      9.42265      7.59650     -6.20585        -0.002114     -0.000851     -0.002513
      0.85338      2.29554     -2.48931         0.001536      0.000334      0.000536
      9.24762      2.29554     -2.48931         0.001537      0.000603      0.000737
      3.64318      5.76671     -3.67515         0.002714      0.001290     -0.001093
     12.03743      5.76671     -3.67515         0.002463      0.001280     -0.000930
      0.55394      0.61303     -3.48872        -0.002490      0.001488     -0.000853
      8.94819      0.61303     -3.48872        -0.002440      0.001128     -0.001009
      5.79350     -0.03143     -4.03202        -0.001241      0.001707      0.000439
     14.18775     -0.03143     -4.03202        -0.001238      0.001788      0.000245
      4.85766      7.53946     -1.03917        -0.003885      0.002056     -0.000246
     13.25190      7.53946     -1.03917        -0.003936      0.002053     -0.000255
      5.96398      5.90128     -1.16165         0.000016     -0.000094      0.000499
     14.35822      5.90128     -1.16165        -0.000126     -0.000002      0.000473
      3.53659      1.03539    -10.04090         0.023921     -0.006151      0.016175
     11.93084      1.03539    -10.04090         0.003947     -0.002092      0.000226
      6.62739      0.74760     -0.97522        -0.000003     -0.000165      0.000559
     15.02164      0.74760     -0.97522         0.000027     -0.000068      0.000516
      1.59638      3.45260     -6.86163        -0.000172      0.000202     -0.003103
      9.99063      3.45260     -6.86163        -0.001209     -0.001846     -0.000312
      0.93493      2.32137     -8.43713         0.000792     -0.001306      0.000746
      9.32918      2.32137     -8.43713        -0.000014     -0.000256      0.000240
      7.54087      6.27930     -8.59076        -0.001561     -0.000625     -0.000674
     15.93512      6.27930     -8.59076        -0.001697     -0.000706     -0.000692
      2.60074      8.60628     -7.04805         0.001380     -0.001845     -0.000502
     10.99499      8.60628     -7.04805         0.001214     -0.001793     -0.000192
      7.73371      2.38578     -0.85274         0.004126      0.002366     -0.000324
     16.12796      2.38578     -0.85274         0.003848      0.002029     -0.000459
      0.66053      6.18907    -10.22733        -0.003953     -0.002025      0.000227
      9.05478      6.18907    -10.22733        -0.003974     -0.002038      0.000281
      6.79787      5.12225     -4.21845         0.001069      0.001679      0.000061
     15.19211      5.12225     -4.21845         0.001171      0.001740      0.000199
      5.22552      6.13203     -5.06065        -0.002207      0.000943      0.002691
     13.61977      6.13203     -5.06065        -0.002134      0.000898      0.002518
 -----------------------------------------------------------------------------------
    total drift:                               -0.000001      0.000000      0.000002


--------------------------------------------------------------------------------------------------------



  FREE ENERGIE OF THE ION-ELECTRON SYSTEM (eV)
  ---------------------------------------------------
  free  energy   TOTEN  =      -229.37632715 eV

  energy  without entropy=     -229.37632715  energy(sigma->0) =     -229.37632715



--------------------------------------------------------------------------------------------------------


    POTLOK:  cpu time     12.6600: real time     12.7165


--------------------------------------------------------------------------------------------------------


     LOOP+:  cpu time   2615.2344: real time   2628.6547
    4ORBIT:  cpu time      0.0000: real time      0.0000



 total charge

# of ion       s       p       d       tot
------------------------------------------
    1        1.376   2.247   0.000   3.623
    2        1.376   2.247   0.000   3.623
    3        1.376   2.258   0.000   3.635
    4        1.376   2.258   0.000   3.635
    5        1.376   2.247   0.000   3.622
    6        1.376   2.247   0.000   3.623
    7        1.376   2.260   0.000   3.636
    8        1.375   2.262   0.000   3.638
    9        1.377   2.257   0.000   3.634
   10        1.377   2.257   0.000   3.634
   11        1.377   2.257   0.000   3.634
   12        1.377   2.257   0.000   3.634
   13        1.375   2.262   0.000   3.638
   14        1.375   2.262   0.000   3.638
   15        1.376   2.258   0.000   3.635
   16        1.376   2.258   0.000   3.635
   17        1.376   2.246   0.000   3.622
   18        1.376   2.247   0.000   3.623
   19        1.376   2.246   0.000   3.622
   20        1.376   2.247   0.000   3.623
   21        1.377   2.257   0.000   3.634
   22        1.377   2.257   0.000   3.634
   23        1.376   2.258   0.000   3.635
   24        1.376   2.258   0.000   3.635
   25        1.375   2.262   0.000   3.638
   26        1.375   2.262   0.000   3.638
   27        1.376   2.247   0.000   3.623
   28        1.376   2.247   0.000   3.623
   29        1.376   2.247   0.000   3.623
   30        1.376   2.247   0.000   3.623
   31        1.376   2.254   0.000   3.630
   32        1.376   2.254   0.000   3.630
   33        1.375   2.263   0.000   3.638
   34        1.375   2.263   0.000   3.638
   35        1.376   2.247   0.000   3.622
   36        1.376   2.247   0.000   3.623
   37        1.375   2.262   0.000   3.637
   38        1.375   2.263   0.000   3.638
   39        1.376   2.247   0.000   3.623
   40        1.376   2.247   0.000   3.622
   41        1.376   2.254   0.000   3.630
   42        1.376   2.254   0.000   3.630
   43        1.377   2.257   0.000   3.634
   44        1.377   2.257   0.000   3.634
   45        1.375   2.262   0.000   3.638
   46        1.375   2.262   0.000   3.638
   47        1.376   2.254   0.000   3.630
   48        1.376   2.254   0.000   3.630
   49        1.375   2.263   0.000   3.638
   50        1.375   2.263   0.000   3.638
   51        1.375   2.263   0.000   3.638
   52        1.375   2.263   0.000   3.638
   53        1.376   2.254   0.000   3.630
   54        1.376   2.254   0.000   3.630
   55        1.376   2.258   0.000   3.635
   56        1.376   2.258   0.000   3.635
--------------------------------------------------
tot         77.050 126.308   0.000 203.357



 magnetization (x)

# of ion       s       p       d       tot
------------------------------------------
    1        0.000   0.000   0.000   0.000
    2        0.000   0.000   0.000   0.000
    3        0.000   0.000   0.000   0.000
    4        0.000   0.000   0.000   0.000
    5        0.000   0.000   0.000   0.000
    6        0.000   0.000   0.000   0.000
    7        0.000   0.000   0.000   0.000
    8        0.000   0.000   0.000   0.000
    9        0.000   0.000   0.000   0.000
   10        0.000   0.000   0.000   0.000
   11        0.000   0.000   0.000   0.000
   12        0.000   0.000   0.000   0.000
   13        0.000   0.000   0.000   0.000
   14        0.000   0.000   0.000   0.000
   15        0.000   0.000   0.000   0.000
   16        0.000   0.000   0.000   0.000
   17        0.000   0.000   0.000   0.000
   18        0.000   0.000   0.000   0.000
   19        0.000   0.000   0.000   0.000
   20        0.000   0.000   0.000   0.000
   21        0.000   0.000   0.000   0.000
   22        0.000   0.000   0.000   0.000
   23        0.000   0.000   0.000   0.000
   24        0.000   0.000   0.000   0.000
   25        0.000   0.000   0.000   0.000
   26        0.000   0.000   0.000   0.000
   27        0.000   0.000   0.000   0.000
   28        0.000   0.000   0.000   0.000
   29        0.000   0.000   0.000   0.000
   30        0.000   0.000   0.000   0.000
   31        0.000   0.000   0.000   0.000
   32        0.000   0.000   0.000   0.000
   33        0.000   0.000   0.000   0.000
   34        0.000   0.000   0.000   0.000
   35        0.000   0.000   0.000   0.000
   36        0.000  -0.000   0.000   0.000
   37        0.000   0.000   0.000   0.000
   38        0.000   0.000   0.000   0.000
   39        0.000   0.000   0.000   0.000
   40        0.000   0.000   0.000   0.000
   41        0.000   0.000   0.000   0.000
   42        0.000   0.000   0.000   0.000
   43        0.000   0.000   0.000   0.000
   44        0.000   0.000   0.000   0.000
   45        0.000   0.000   0.000   0.000
   46        0.000   0.000   0.000   0.000
   47        0.000   0.000   0.000   0.000
   48        0.000   0.000   0.000   0.000
   49        0.000   0.000   0.000   0.000
   50        0.000   0.000   0.000   0.000
   51        0.000   0.000   0.000   0.000
   52        0.000   0.000   0.000   0.000
   53        0.000   0.000   0.000   0.000
   54        0.000   0.000   0.000   0.000
   55        0.000   0.000   0.000   0.000
   56        0.000   0.000   0.000   0.000
--------------------------------------------------
tot          0.000   0.000   0.000   0.000

 BZINTS: Fermi energy:    0.078059;  336.000000 electrons
         Band energy:-0.201106E+04;  BLOECHL correction:   -0.000000

 total amount of memory used by VASP MPI-rank0   322725. kBytes
=======================================================================

   base      :      30000. kBytes
   nonl-proj :      70692. kBytes
   fftplans  :      34504. kBytes
   grid      :      83442. kBytes
   one-center:        344. kBytes
   wavefun   :     103743. kBytes

  
  
 General timing and accounting informations for this job:
 ========================================================
  
                  Total CPU time used (sec):     2654.356
                            User time (sec):     2652.378
                          System time (sec):        1.978
                         Elapsed time (sec):     2668.565
  
                   Maximum memory used (kb):      603332.
                   Average memory used (kb):          N/A
  
                          Minor page faults:       858376
                          Major page faults:          268
                 Voluntary context switches:         4209
