  55  55   0   0
  0.2301251E+02  0.1218282E-08  0.7661564E-09  0.1373046E-08  0.0000000E+00
   1.0000000000000000E-004
  CAR 
 NEB_bottleneck                          
      9.59044182    -49.88012177  301      3.81596744      1.00000000
    -49.880  0.0000E+00  0.0000E+00
    -49.682  0.0000E+00  0.0000E+00
    -49.484  0.0000E+00  0.0000E+00
    -49.285  0.0000E+00  0.0000E+00
    -49.087  0.0000E+00  0.0000E+00
    -48.889 -0.3658E-33 -0.7251E-34
    -48.691 -0.2836E-26 -0.5623E-27
    -48.492 -0.3030E-20 -0.6007E-21
    -48.294 -0.4295E-15 -0.8514E-16
    -48.096 -0.8403E-11 -0.1666E-11
    -47.898 -0.2165E-07 -0.4294E-08
    -47.700 -0.6923E-05 -0.1377E-05
    -47.501 -0.2156E-03 -0.4411E-04
    -47.303  0.8951E-03  0.1333E-03
    -47.105  0.7239E-02  0.1568E-02
    -46.907  0.2514E-02  0.2067E-02
    -46.708 -0.3139E-03  0.2005E-02
    -46.510 -0.2278E-04  0.2000E-02
    -46.312 -0.2679E-06  0.2000E-02
    -46.114 -0.2391E-04  0.1995E-02
    -45.915 -0.3162E-03  0.1933E-02
    -45.717  0.2600E-02  0.2448E-02
    -45.519  0.7206E-02  0.3876E-02
    -45.321  0.8403E-03  0.4043E-02
    -45.122 -0.2105E-03  0.4001E-02
    -44.924 -0.6545E-05  0.4000E-02
    -44.726 -0.1995E-07  0.4000E-02
    -44.528 -0.7554E-11  0.4000E-02
    -44.330 -0.1049E-12  0.4000E-02
    -44.131 -0.7003E-09  0.4000E-02
    -43.933 -0.6035E-06  0.4000E-02
    -43.735 -0.5966E-04  0.3988E-02
    -43.537 -0.2669E-03  0.3935E-02
    -43.338  0.4483E-02  0.4824E-02
    -43.140  0.6024E-02  0.6018E-02
    -42.942  0.2681E-04  0.6023E-02
    -42.744 -0.1154E-03  0.6000E-02
    -42.545 -0.1922E-05  0.6000E-02
    -42.347 -0.3474E-08  0.6000E-02
    -42.149 -0.7965E-12  0.6000E-02
    -41.951 -0.2464E-16  0.6000E-02
    -41.752 -0.2158E-19  0.6000E-02
    -41.554 -0.2246E-14  0.6000E-02
    -41.356 -0.3221E-10  0.6000E-02
    -41.158 -0.6050E-07  0.6000E-02
    -40.960 -0.1386E-04  0.5997E-02
    -40.761 -0.2787E-03  0.5942E-02
    -40.563  0.1728E-02  0.6284E-02
    -40.365  0.7416E-02  0.7755E-02
    -40.167  0.1515E-02  0.8055E-02
    -39.968 -0.2717E-03  0.8001E-02
    -39.770 -0.2228E-03  0.7957E-02
    -39.572  0.8454E-03  0.8124E-02
    -39.374  0.7209E-02  0.9554E-02
    -39.175  0.2592E-02  0.1007E-01
    -38.977 -0.3160E-03  0.1000E-01
    -38.779 -0.2956E-04  0.9999E-02
    -38.581 -0.1991E-03  0.9959E-02
    -38.382  0.7220E-03  0.1010E-01
    -38.184  0.7123E-02  0.1151E-01
    -37.986  0.2795E-02  0.1207E-01
    -37.788 -0.3202E-03  0.1201E-01
    -37.590 -0.2662E-04  0.1200E-01
    -37.391 -0.1644E-06  0.1200E-01
    -37.193 -0.1749E-06  0.1200E-01
    -36.995 -0.2770E-04  0.1199E-01
    -36.797 -0.3213E-03  0.1193E-01
    -36.598  0.2869E-02  0.1250E-01
    -36.400  0.7024E-02  0.1389E-01
    -36.202  0.4348E-03  0.1398E-01
    -36.004  0.4503E-02  0.1487E-01
    -35.805  0.5835E-02  0.1603E-01
    -35.607 -0.3023E-04  0.1602E-01
    -35.409 -0.1066E-03  0.1600E-01
    -35.211 -0.1661E-05  0.1600E-01
    -35.012 -0.2831E-08  0.1600E-01
    -34.814 -0.1465E-11  0.1600E-01
    -34.616 -0.3661E-08  0.1600E-01
    -34.418 -0.1996E-05  0.1600E-01
    -34.220 -0.1178E-03  0.1598E-01
    -34.021  0.4252E-04  0.1598E-01
    -33.823  0.6070E-02  0.1719E-01
    -33.625  0.4427E-02  0.1807E-01
    -33.427 -0.2719E-03  0.1801E-01
    -33.228 -0.5822E-04  0.1800E-01
    -33.030 -0.5794E-06  0.1800E-01
    -32.832 -0.6626E-09  0.1800E-01
    -32.634 -0.8756E-09  0.1800E-01
    -32.435 -0.7105E-06  0.1800E-01
    -32.237 -0.6572E-04  0.1799E-01
    -32.039 -0.2441E-03  0.1794E-01
    -31.841  0.4706E-02  0.1887E-01
    -31.642  0.5834E-02  0.2003E-01
    -31.444 -0.3225E-04  0.2002E-01
    -31.246 -0.1063E-03  0.2000E-01
    -31.048 -0.1651E-05  0.2000E-01
    -30.850 -0.2809E-08  0.2000E-01
    -30.651 -0.6075E-12  0.2000E-01
    -30.453 -0.1792E-16  0.2000E-01
    -30.255  0.0000E+00  0.2000E-01
    -30.057 -0.1431E-34  0.2000E-01
    -29.858 -0.1617E-27  0.2000E-01
    -29.660 -0.2520E-21  0.2000E-01
    -29.462 -0.5217E-16  0.2000E-01
    -29.264 -0.1498E-11  0.2000E-01
    -29.065 -0.5694E-08  0.2000E-01
    -28.867 -0.2730E-05  0.2000E-01
    -28.669 -0.1389E-03  0.1997E-01
    -28.471  0.1939E-03  0.2001E-01
    -28.272  0.6436E-02  0.2129E-01
    -28.074  0.3928E-02  0.2206E-01
    -27.876 -0.6196E-03  0.2194E-01
    -27.678  0.2534E-02  0.2244E-01
    -27.480  0.7213E-02  0.2387E-01
    -27.281  0.8521E-03  0.2404E-01
    -27.083 -0.2116E-03  0.2400E-01
    -26.885 -0.6626E-05  0.2400E-01
    -26.687 -0.2031E-07  0.2400E-01
    -26.488 -0.7732E-11  0.2400E-01
    -26.290 -0.3876E-15  0.2400E-01
    -26.092  0.0000E+00  0.2400E-01
    -25.894  0.0000E+00  0.2400E-01
    -25.695  0.0000E+00  0.2400E-01
    -25.497  0.0000E+00  0.2400E-01
    -25.299  0.0000E+00  0.2400E-01
    -25.101  0.0000E+00  0.2400E-01
    -24.902  0.0000E+00  0.2400E-01
    -24.704  0.0000E+00  0.2400E-01
    -24.506  0.0000E+00  0.2400E-01
    -24.308  0.0000E+00  0.2400E-01
    -24.110  0.0000E+00  0.2400E-01
    -23.911 -0.3078E-32  0.2400E-01
    -23.713 -0.1855E-25  0.2400E-01
    -23.515 -0.1540E-19  0.2400E-01
    -23.317 -0.1692E-14  0.2400E-01
    -23.118 -0.2568E-10  0.2400E-01
    -22.920 -0.5157E-07  0.2400E-01
    -22.722 -0.1326E-04  0.2400E-01
    -22.524 -0.4108E-03  0.2392E-01
    -22.325 -0.8580E-03  0.2375E-01
    -22.127  0.1731E-01  0.2718E-01
    -21.929  0.9976E-01  0.4695E-01
    -21.731  0.9927E-01  0.6663E-01
    -21.532  0.3922E-01  0.7441E-01
    -21.334  0.1189E+00  0.9798E-01
    -21.136  0.1182E+00  0.1214E+00
    -20.938  0.4003E-01  0.1293E+00
    -20.740  0.2814E-01  0.1349E+00
    -20.541  0.1505E-01  0.1379E+00
    -20.343  0.8681E-03  0.1381E+00
    -20.145 -0.4014E-03  0.1380E+00
    -19.947 -0.1320E-04  0.1380E+00
    -19.748 -0.4650E-07  0.1380E+00
    -19.550 -0.2119E-10  0.1380E+00
    -19.352 -0.7378E-09  0.1380E+00
    -19.154 -0.6269E-06  0.1380E+00
    -18.955 -0.6103E-04  0.1380E+00
    -18.757 -0.2621E-03  0.1379E+00
    -18.559  0.4535E-02  0.1388E+00
    -18.361  0.5981E-02  0.1400E+00
    -18.162  0.1247E-04  0.1400E+00
    -17.964 -0.1133E-03  0.1400E+00
    -17.766 -0.1856E-05  0.1400E+00
    -17.568 -0.1772E-06  0.1400E+00
    -17.370 -0.2761E-04  0.1400E+00
    -17.171 -0.3212E-03  0.1399E+00
    -16.973  0.2863E-02  0.1405E+00
    -16.775  0.7092E-02  0.1419E+00
    -16.577  0.6835E-03  0.1420E+00
    -16.378 -0.1951E-03  0.1420E+00
    -16.180 -0.5512E-05  0.1420E+00
    -15.982 -0.1555E-07  0.1420E+00
    -15.784 -0.7329E-11  0.1420E+00
    -15.585 -0.6743E-08  0.1420E+00
    -15.387 -0.3076E-05  0.1420E+00
    -15.189 -0.1476E-03  0.1420E+00
    -14.991  0.2615E-03  0.1420E+00
    -14.792  0.6553E-02  0.1433E+00
    -14.594  0.3501E-02  0.1440E+00
    -14.396  0.1232E-02  0.1443E+00
    -14.198  0.7374E-02  0.1457E+00
    -14.000  0.1671E-02  0.1461E+00
    -13.801 -0.5970E-03  0.1459E+00
    -13.603  0.2775E-02  0.1465E+00
    -13.405  0.7126E-02  0.1479E+00
    -13.207  0.7105E-03  0.1480E+00
    -13.008 -0.4867E-03  0.1479E+00
    -12.810  0.1798E-02  0.1483E+00
    -12.612  0.7045E-02  0.1497E+00
    -12.414  0.5782E-02  0.1508E+00
    -12.215  0.1138E-01  0.1531E+00
    -12.017  0.1082E-01  0.1552E+00
    -11.819  0.3897E-02  0.1560E+00
    -11.621  0.4020E-02  0.1568E+00
    -11.422  0.5741E-02  0.1579E+00
    -11.224  0.4357E-02  0.1588E+00
    -11.026  0.5695E-02  0.1599E+00
    -10.828  0.3528E-02  0.1606E+00
    -10.630  0.6558E-02  0.1619E+00
    -10.431  0.6816E-04  0.1620E+00
    -10.233  0.5214E-02  0.1630E+00
    -10.035  0.1157E-01  0.1653E+00
     -9.837  0.5080E-02  0.1663E+00
     -9.638  0.6989E-02  0.1677E+00
     -9.440  0.1906E-02  0.1681E+00
     -9.242 -0.7153E-03  0.1679E+00
     -9.044  0.4189E-02  0.1687E+00
     -8.845  0.1225E-01  0.1712E+00
     -8.647  0.8940E-02  0.1729E+00
     -8.449  0.9517E-02  0.1748E+00
     -8.251  0.1659E-01  0.1781E+00
     -8.052  0.2569E-01  0.1832E+00
     -7.854  0.4888E-02  0.1842E+00
     -7.656 -0.8540E-03  0.1840E+00
     -7.458 -0.3698E-03  0.1839E+00
     -7.260  0.1429E-03  0.1840E+00
     -7.061  0.1645E-01  0.1872E+00
     -6.863  0.1427E-01  0.1901E+00
     -6.665  0.2776E-02  0.1906E+00
     -6.467  0.7157E-02  0.1920E+00
     -6.268  0.7542E-02  0.1935E+00
     -6.070  0.8697E-02  0.1952E+00
     -5.872  0.4109E-02  0.1961E+00
     -5.674 -0.7423E-03  0.1959E+00
     -5.475  0.5661E-02  0.1970E+00
     -5.277  0.1299E-01  0.1996E+00
     -5.079  0.2202E-02  0.2000E+00
     -4.881  0.5176E-03  0.2001E+00
     -4.682  0.6917E-02  0.2015E+00
     -4.484  0.4766E-02  0.2025E+00
     -4.286  0.7839E-02  0.2040E+00
     -4.088  0.1319E-01  0.2066E+00
     -3.890  0.1960E-01  0.2105E+00
     -3.691  0.9837E-02  0.2125E+00
     -3.493  0.8848E-02  0.2142E+00
     -3.295  0.1278E-01  0.2168E+00
     -3.097  0.1257E-01  0.2192E+00
     -2.898  0.9991E-02  0.2212E+00
     -2.700  0.2069E-01  0.2253E+00
     -2.502  0.1392E-01  0.2281E+00
     -2.304  0.5779E-02  0.2292E+00
     -2.105  0.1481E-01  0.2322E+00
     -1.907  0.2315E-01  0.2368E+00
     -1.709  0.8969E-02  0.2385E+00
     -1.511  0.1174E-01  0.2409E+00
     -1.312  0.2946E-01  0.2467E+00
     -1.114  0.2335E-01  0.2513E+00
     -0.916  0.1592E-01  0.2545E+00
     -0.718  0.1319E-01  0.2571E+00
     -0.520  0.1265E-01  0.2596E+00
     -0.321  0.9555E-02  0.2615E+00
     -0.123  0.1706E-01  0.2649E+00
      0.075  0.2211E-01  0.2693E+00
      0.273  0.2553E-01  0.2743E+00
      0.472  0.1528E-01  0.2774E+00
      0.670  0.1537E-01  0.2804E+00
      0.868  0.8566E-02  0.2821E+00
      1.066  0.1195E-01  0.2845E+00
      1.265  0.1879E-01  0.2882E+00
      1.463  0.2370E-01  0.2929E+00
      1.661  0.2293E-01  0.2974E+00
      1.859  0.1510E-01  0.3004E+00
      2.058  0.1585E-01  0.3036E+00
      2.256  0.9316E-02  0.3054E+00
      2.454  0.8373E-02  0.3071E+00
      2.652  0.2401E-01  0.3118E+00
      2.850  0.2392E-01  0.3166E+00
      3.049  0.2041E-01  0.3206E+00
      3.247  0.8788E-02  0.3224E+00
      3.445  0.1116E-01  0.3246E+00
      3.643  0.8080E-02  0.3262E+00
      3.842  0.1774E-01  0.3297E+00
      4.040  0.2787E-01  0.3352E+00
      4.238  0.1754E-01  0.3387E+00
      4.436  0.1747E-01  0.3422E+00
      4.635  0.1465E-01  0.3451E+00
      4.833  0.1481E-01  0.3480E+00
      5.031  0.1427E-01  0.3508E+00
      5.229  0.2374E-01  0.3555E+00
      5.428  0.2662E-01  0.3608E+00
      5.626  0.2530E-01  0.3658E+00
      5.824  0.2011E-01  0.3698E+00
      6.022  0.2046E-01  0.3739E+00
      6.220  0.2298E-01  0.3784E+00
      6.419  0.2262E-01  0.3829E+00
      6.617  0.2011E-01  0.3869E+00
      6.815  0.2912E-01  0.3927E+00
      7.013  0.1687E-01  0.3960E+00
      7.212  0.2900E-03  0.3961E+00
      7.410 -0.3763E-03  0.3960E+00
      7.608 -0.9217E-05  0.3960E+00
      7.806 -0.2561E-07  0.3960E+00
      8.005 -0.9299E-11  0.3960E+00
      8.203 -0.4570E-15  0.3960E+00
      8.401  0.0000E+00  0.3960E+00
      8.599  0.0000E+00  0.3960E+00
      8.798  0.0000E+00  0.3960E+00
      8.996  0.0000E+00  0.3960E+00
      9.194  0.0000E+00  0.3960E+00
      9.392  0.0000E+00  0.3960E+00
      9.590  0.0000E+00  0.3960E+00
