 vasp.6.3.2 27Jun22 (build Jun 14 2024 17:29:11) complex                         
 POSCAR found type information on POSCAR NaAlS 
 09/POSCAR found :  3 types and      55 ions
 -----------------------------------------------------------------------------
|                                                                             |
|           W    W    AA    RRRRR   N    N  II  N    N   GGGG   !!!           |
|           W    W   A  A   R    R  NN   N  II  NN   N  G    G  !!!           |
|           W    W  A    A  R    R  N N  N  II  N N  N  G       !!!           |
|           W WW W  AAAAAA  RRRRR   N  N N  II  N  N N  G  GGG   !            |
|           WW  WW  A    A  R   R   N   NN  II  N   NN  G    G                |
|           W    W  A    A  R    R  N    N  II  N    N   GGGG   !!!           |
|                                                                             |
|     The value NPAR = 9 specified in the INCAR file was overwritten,         |
|     because it was not compatible with the 3 processes available:           |
|     NPAR = 3                                                                |
|     was used instead, please check that this makes sense for your           |
|     machine.                                                                |
|                                                                             |
 -----------------------------------------------------------------------------

 LDA part: xc-table for Pade appr. of Perdew
 POSCAR found type information on POSCAR NaAlS 
 00/POSCAR found :  3 types and      55 ions
 POSCAR found type information on POSCAR NaAlS 
 10/POSCAR found :  3 types and      55 ions
 -----------------------------------------------------------------------------
|                                                                             |
|           W    W    AA    RRRRR   N    N  II  N    N   GGGG   !!!           |
|           W    W   A  A   R    R  NN   N  II  NN   N  G    G  !!!           |
|           W    W  A    A  R    R  N N  N  II  N N  N  G       !!!           |
|           W WW W  AAAAAA  RRRRR   N  N N  II  N  N N  G  GGG   !            |
|           WW  WW  A    A  R   R   N   NN  II  N   NN  G    G                |
|           W    W  A    A  R    R  N    N  II  N    N   GGGG   !!!           |
|                                                                             |
|     The distance between some ions is very small. Please check the          |
|     nearest-neighbor list in the OUTCAR file.                               |
|     I HOPE YOU KNOW WHAT YOU ARE DOING!                                     |
|                                                                             |
 -----------------------------------------------------------------------------

 POSCAR, INCAR and KPOINTS ok, starting setup
 FFT: planning ... GRIDC
 FFT: planning ... GRID_SOFT
 FFT: planning ... GRID
 WAVECAR not read
 entering main loop
       N       E                     dE             d eps       ncg     rms          rms(c)
DAV:   1     0.404135600852E+04    0.40414E+04   -0.15161E+05   423   0.162E+03
DAV:   2     0.743088457605E+03   -0.32983E+04   -0.31901E+04   441   0.433E+02
DAV:   3     0.205582653269E+03   -0.53751E+03   -0.52198E+03   486   0.190E+02
DAV:   4     0.160009346751E+03   -0.45573E+02   -0.44582E+02   486   0.497E+01
DAV:   5     0.157289665087E+03   -0.27197E+01   -0.26965E+01   603   0.116E+01    0.149E+02
RMM:   6     0.210125346611E+03    0.52836E+02   -0.85901E+01   480   0.129E+01    0.722E+01
RMM:   7     0.212712692181E+03    0.25873E+01   -0.63013E+01   528   0.117E+01    0.337E+01
RMM:   8     0.215292684923E+03    0.25800E+01   -0.15195E+01   573   0.816E+00    0.930E+00
RMM:   9     0.216317015248E+03    0.10243E+01   -0.45454E+00   561   0.458E+00    0.488E+00
RMM:  10     0.216313812426E+03   -0.32028E-02   -0.27303E+00   553   0.282E+00    0.275E+00
RMM:  11     0.216261302188E+03   -0.52510E-01   -0.10283E+00   591   0.187E+00    0.226E+00
RMM:  12     0.216199352225E+03   -0.61950E-01   -0.72173E-01   598   0.118E+00    0.150E+00
RMM:  13     0.216166544293E+03   -0.32808E-01   -0.33591E-01   575   0.844E-01    0.479E-01
RMM:  14     0.216140549818E+03   -0.25994E-01   -0.26685E-01   605   0.598E-01    0.391E-01
RMM:  15     0.216126568613E+03   -0.13981E-01   -0.14817E-01   628   0.433E-01    0.390E-01
RMM:  16     0.216115233218E+03   -0.11335E-01   -0.11573E-01   648   0.315E-01    0.584E-01
RMM:  17     0.216108505266E+03   -0.67280E-02   -0.72010E-02   536   0.273E-01    0.584E-01
RMM:  18     0.216103589628E+03   -0.49156E-02   -0.51186E-02   556   0.199E-01    0.687E-01
RMM:  19     0.216100528175E+03   -0.30615E-02   -0.34230E-02   549   0.158E-01    0.741E-01
RMM:  20     0.216098516770E+03   -0.20114E-02   -0.23616E-02   540   0.130E-01    0.758E-01
RMM:  21     0.216097254154E+03   -0.12626E-02   -0.16496E-02   544   0.105E-01    0.755E-01
RMM:  22     0.216096522635E+03   -0.73152E-03   -0.11151E-02   534   0.853E-02    0.738E-01
RMM:  23     0.216096061303E+03   -0.46133E-03   -0.80314E-03   536   0.702E-02    0.720E-01
RMM:  24     0.216095689615E+03   -0.37169E-03   -0.54493E-03   519   0.565E-02    0.720E-01
RMM:  25     0.216094889639E+03   -0.79998E-03   -0.44869E-03   476   0.477E-02    0.805E-01
RMM:  26     0.216095286280E+03    0.39664E-03   -0.25988E-03   570   0.448E-02    0.721E-01
RMM:  27     0.216095457898E+03    0.17162E-03   -0.20977E-03   553   0.362E-02    0.669E-01
RMM:  28     0.216095894455E+03    0.43656E-03   -0.13092E-03   602   0.355E-02    0.571E-01
RMM:  29     0.216096423778E+03    0.52932E-03   -0.11213E-03   635   0.368E-02    0.428E-01
RMM:  30     0.216096801807E+03    0.37803E-03   -0.90144E-04   615   0.349E-02    0.285E-01
RMM:  31     0.216096944377E+03    0.14257E-03   -0.59786E-04   599   0.290E-02    0.194E-01
RMM:  32     0.216096994112E+03    0.49735E-04   -0.44982E-04   569   0.230E-02    0.138E-01
RMM:  33     0.216097036091E+03    0.41979E-04   -0.39014E-04   593   0.241E-02    0.563E-02
RMM:  34     0.216097026519E+03   -0.95715E-05   -0.26862E-04   527   0.186E-02    0.162E-02
RMM:  35     0.216097008431E+03   -0.18089E-04   -0.13131E-04   425   0.132E-02    0.369E-02
RMM:  36     0.216096997060E+03   -0.11371E-04   -0.10543E-04   400   0.869E-03    0.389E-02
RMM:  37     0.216096995132E+03   -0.19273E-05   -0.82674E-05   460   0.970E-03    0.115E-02
RMM:  38     0.216096989352E+03   -0.57804E-05   -0.59989E-05   391   0.693E-03    0.104E-02
RMM:  39     0.216096985763E+03   -0.35892E-05   -0.38523E-05   362   0.529E-03    0.980E-03
RMM:  40     0.216096982956E+03   -0.28070E-05   -0.27653E-05   327   0.424E-03    0.108E-02
RMM:  41     0.216096980716E+03   -0.22403E-05   -0.23442E-05   264   0.344E-03    0.110E-02
RMM:  42     0.216096979209E+03   -0.15065E-05   -0.16093E-05   237   0.274E-03    0.111E-02
RMM:  43     0.216096978288E+03   -0.92089E-06   -0.96492E-06   211   0.237E-03
   1 F= 0.21609698E+03 E0= 0.21612354E+03  d E =0.216097E+03
quench:  g(F)=  0.000E+00 g(S)=  0.000E+00 dE (1.order)= 0.000E+00
 bond charge predicted
       N       E                     dE             d eps       ncg     rms          rms(c)
DAV:   1     0.216096975546E+03   -0.36635E-05   -0.27572E-05   288   0.205E-03    0.117E-02
RMM:   2     0.216096976721E+03    0.11757E-05   -0.49504E-06   405   0.391E-03    0.750E-03
RMM:   3     0.216096976291E+03   -0.43032E-06   -0.29117E-06   349   0.256E-03
   2 F= 0.21609698E+03 E0= 0.21612355E+03  d E =-.199722E-05
quench:  g(F)=  0.000E+00 g(S)=  0.000E+00 dE (1.order)= 0.000E+00
 bond charge predicted
       N       E                     dE             d eps       ncg     rms          rms(c)
DAV:   1     0.216096976169E+03   -0.55208E-06   -0.36391E-06   288   0.300E-03    0.247E-03
RMM:   2     0.216096976136E+03   -0.33397E-07   -0.47349E-07   220   0.161E-03
   3 F= 0.21609698E+03 E0= 0.21612354E+03  d E =-.155153E-06
quench:  g(F)=  0.000E+00 g(S)=  0.000E+00 dE (1.order)= 0.000E+00
 bond charge predicted
       N       E                     dE             d eps       ncg     rms          rms(c)
DAV:   1     0.216096976235E+03    0.65913E-07   -0.78711E-07   279   0.178E-03    0.119E-03
RMM:   2     0.216096976214E+03   -0.21580E-07   -0.70172E-08   118   0.584E-04
   4 F= 0.21609698E+03 E0= 0.21612354E+03  d E =0.777291E-07
quench:  g(F)=  0.000E+00 g(S)=  0.000E+00 dE (1.order)= 0.000E+00
 bond charge predicted
       N       E                     dE             d eps       ncg     rms          rms(c)
DAV:   1     0.216096976223E+03   -0.12202E-07   -0.11619E-07   279   0.638E-04    0.697E-04
RMM:   2     0.216096976203E+03   -0.19842E-07   -0.14515E-08    71   0.369E-04
   5 F= 0.21609698E+03 E0= 0.21612354E+03  d E =-.104628E-07
quench:  g(F)=  0.000E+00 g(S)=  0.000E+00 dE (1.order)= 0.000E+00
 bond charge predicted
       N       E                     dE             d eps       ncg     rms          rms(c)
DAV:   1     0.216096976207E+03   -0.16022E-07   -0.48733E-08   261   0.417E-04    0.374E-04
RMM:   2     0.216096976202E+03   -0.51514E-08   -0.10173E-09    42   0.226E-04
   6 F= 0.21609698E+03 E0= 0.21612354E+03  d E =-.133150E-08
quench:  g(F)=  0.000E+00 g(S)=  0.000E+00 dE (1.order)= 0.000E+00
 bond charge predicted
       N       E                     dE             d eps       ncg     rms          rms(c)
DAV:   1     0.216096976202E+03   -0.47294E-08   -0.16935E-08   252   0.240E-04    0.270E-04
RMM:   2     0.216096976199E+03   -0.31141E-08    0.12743E-11    33   0.168E-04
   7 F= 0.21609698E+03 E0= 0.21612354E+03  d E =-.269210E-08
quench:  g(F)=  0.000E+00 g(S)=  0.000E+00 dE (1.order)= 0.000E+00
 bond charge predicted
       N       E                     dE             d eps       ncg     rms          rms(c)
DAV:   1     0.216096976200E+03   -0.20373E-08   -0.84768E-09   252   0.180E-04    0.156E-04
RMM:   2     0.216096976199E+03   -0.64756E-09    0.44027E-34    27   0.113E-04
   8 F= 0.21609698E+03 E0= 0.21612354E+03  d E =0.429281E-09
quench:  g(F)=  0.000E+00 g(S)=  0.000E+00 dE (1.order)= 0.000E+00
 bond charge predicted
       N       E                     dE             d eps       ncg     rms          rms(c)
DAV:   1     0.216096976200E+03   -0.72760E-10   -0.42255E-09   252   0.118E-04    0.120E-04
RMM:   2     0.216096976200E+03    0.44383E-09    0.24803E-34    24   0.852E-05
   9 F= 0.21609698E+03 E0= 0.21612354E+03  d E =0.101863E-08
quench:  g(F)=  0.000E+00 g(S)=  0.000E+00 dE (1.order)= 0.000E+00
 bond charge predicted
       N       E                     dE             d eps       ncg     rms          rms(c)
DAV:   1     0.216096976201E+03    0.69849E-09   -0.24102E-09   252   0.904E-05    0.836E-05
RMM:   2     0.216096976201E+03   -0.43656E-10    0.16506E-34    23   0.611E-05
  10 F= 0.21609698E+03 E0= 0.21612354E+03  d E =0.211003E-09
quench:  g(F)=  0.000E+00 g(S)=  0.000E+00 dE (1.order)= 0.000E+00
 bond charge predicted
       N       E                     dE             d eps       ncg     rms          rms(c)
DAV:   1     0.216096976201E+03    0.53842E-09   -0.15863E-09   252   0.645E-05    0.549E-05
RMM:   2     0.216096976202E+03    0.24011E-09    0.83131E-35    22   0.474E-05
  11 F= 0.21609698E+03 E0= 0.21612354E+03  d E =0.822183E-09
quench:  g(F)=  0.000E+00 g(S)=  0.000E+00 dE (1.order)= 0.000E+00
 bond charge predicted
       N       E                     dE             d eps       ncg     rms          rms(c)
DAV:   1     0.216096976202E+03    0.65484E-09   -0.92589E-10   225   0.493E-05    0.391E-05
RMM:   2     0.216096976201E+03   -0.68394E-09    0.55246E-35    19   0.349E-05
  12 F= 0.21609698E+03 E0= 0.21612354E+03  d E =-.269210E-09
quench:  g(F)=  0.000E+00 g(S)=  0.000E+00 dE (1.order)= 0.000E+00
 bond charge predicted
       N       E                     dE             d eps       ncg     rms          rms(c)
DAV:   1     0.216096976201E+03   -0.83674E-09   -0.71658E-10   225   0.366E-05    0.269E-05
RMM:   2     0.216096976202E+03    0.12151E-08    0.15298E-69    18   0.270E-05
  13 F= 0.21609698E+03 E0= 0.21612354E+03  d E =0.106229E-08
quench:  g(F)=  0.000E+00 g(S)=  0.000E+00 dE (1.order)= 0.000E+00
 bond charge predicted
       N       E                     dE             d eps       ncg     rms          rms(c)
DAV:   1     0.216096976202E+03    0.12587E-08   -0.30935E-10   225   0.281E-05    0.191E-05
RMM:   2     0.216096976202E+03   -0.42201E-09    0.13131E-69    15   0.202E-05
  14 F= 0.21609698E+03 E0= 0.21612354E+03  d E =-.378350E-09
quench:  g(F)=  0.000E+00 g(S)=  0.000E+00 dE (1.order)= 0.000E+00
 bond charge predicted
       N       E                     dE             d eps       ncg     rms          rms(c)
DAV:   1     0.216096976202E+03   -0.49477E-09   -0.15638E-10   225   0.208E-05    0.136E-05
RMM:   2     0.216096976202E+03    0.24738E-09    0.90649E-70    15   0.157E-05
  15 F= 0.21609698E+03 E0= 0.21612354E+03  d E =0.174623E-09
quench:  g(F)=  0.000E+00 g(S)=  0.000E+00 dE (1.order)= 0.000E+00
 bond charge predicted
       N       E                     dE             d eps       ncg     rms          rms(c)
DAV:   1     0.216096976202E+03    0.43656E-09   -0.35450E-10   216   0.163E-05    0.984E-06
RMM:   2     0.216096976202E+03    0.14552E-09    0.83161E-70    12   0.118E-05
  16 F= 0.21609698E+03 E0= 0.21612354E+03  d E =0.334694E-09
quench:  g(F)=  0.000E+00 g(S)=  0.000E+00 dE (1.order)= 0.000E+00
 bond charge predicted
       N       E                     dE             d eps       ncg     rms          rms(c)
DAV:   1     0.216096976202E+03   -0.72760E-11   -0.23260E-10   225   0.121E-05    0.703E-06
RMM:   2     0.216096976203E+03    0.32014E-09    0.51398E-70    12   0.926E-06
  17 F= 0.21609698E+03 E0= 0.21612354E+03  d E =0.167347E-09
quench:  g(F)=  0.000E+00 g(S)=  0.000E+00 dE (1.order)= 0.000E+00
 bond charge predicted
       N       E                     dE             d eps       ncg     rms          rms(c)
DAV:   1     0.216096976203E+03    0.53114E-09   -0.48068E-10   216   0.958E-06    0.514E-06
RMM:   2     0.216096976203E+03   -0.17462E-09    0.40998E-70    10   0.705E-06
  18 F= 0.21609698E+03 E0= 0.21612354E+03  d E =0.363798E-10
quench:  g(F)=  0.000E+00 g(S)=  0.000E+00 dE (1.order)= 0.000E+00
 bond charge predicted
       N       E                     dE             d eps       ncg     rms          rms(c)
DAV:   1     0.216096976203E+03    0.58208E-10   -0.10671E-10   225   0.722E-06    0.371E-06
RMM:   2     0.216096976202E+03   -0.59663E-09    0.26332E-70    10   0.557E-06
  19 F= 0.21609698E+03 E0= 0.21612354E+03  d E =-.363798E-09
quench:  g(F)=  0.000E+00 g(S)=  0.000E+00 dE (1.order)= 0.000E+00
 bond charge predicted
       N       E                     dE             d eps       ncg     rms          rms(c)
DAV:   1     0.216096976202E+03   -0.47294E-09   -0.41434E-10   216   0.574E-06    0.277E-06
RMM:   2     0.216096976202E+03   -0.80036E-10    0.21136E-70     8   0.427E-06
  20 F= 0.21609698E+03 E0= 0.21612354E+03  d E =0.436557E-10
quench:  g(F)=  0.000E+00 g(S)=  0.000E+00 dE (1.order)= 0.000E+00
 bond charge predicted
       N       E                     dE             d eps       ncg     rms          rms(c)
DAV:   1     0.216096976202E+03    0.50932E-10   -0.32551E-10   225   0.436E-06    0.203E-06
RMM:   2     0.216096976202E+03   -0.43656E-10    0.14808E-70     8   0.340E-06
  21 F= 0.21609698E+03 E0= 0.21612354E+03  d E =0.873115E-10
quench:  g(F)=  0.000E+00 g(S)=  0.000E+00 dE (1.order)= 0.000E+00
 bond charge predicted
       N       E                     dE             d eps       ncg     rms          rms(c)
DAV:   1     0.216096976202E+03   -0.21828E-09   -0.30203E-10   225   0.353E-06    0.152E-06
RMM:   2     0.216096976203E+03    0.29104E-09    0.12672E-70     8   0.262E-06
  22 F= 0.21609698E+03 E0= 0.21612354E+03  d E =0.116415E-09
quench:  g(F)=  0.000E+00 g(S)=  0.000E+00 dE (1.order)= 0.000E+00
 bond charge predicted
       N       E                     dE             d eps       ncg     rms          rms(c)
DAV:   1     0.216096976203E+03    0.42928E-09   -0.37532E-10   225   0.267E-06    0.114E-06
RMM:   2     0.216096976203E+03    0.42928E-09    0.25463E-97     7   0.212E-06
  23 F= 0.21609698E+03 E0= 0.21612354E+03  d E =0.567525E-09
quench:  g(F)=  0.000E+00 g(S)=  0.000E+00 dE (1.order)= 0.000E+00
 bond charge predicted
       N       E                     dE             d eps       ncg     rms          rms(c)
DAV:   1     0.216096976202E+03   -0.38563E-09   -0.19956E-10   225   0.218E-06    0.862E-07
RMM:   2     0.216096976202E+03    0.14552E-09    0.18832-102     6   0.163E-06
  24 F= 0.21609698E+03 E0= 0.21612354E+03  d E =-.669388E-09
quench:  g(F)=  0.000E+00 g(S)=  0.000E+00 dE (1.order)= 0.000E+00
 bond charge predicted
       N       E                     dE             d eps       ncg     rms          rms(c)
DAV:   1     0.216096976202E+03    0.17462E-09   -0.16424E-11   225   0.166E-06    0.651E-07
RMM:   2     0.216096976203E+03    0.48021E-09    0.21650-102     6   0.133E-06
  25 F= 0.21609698E+03 E0= 0.21612354E+03  d E =0.509317E-09
quench:  g(F)=  0.000E+00 g(S)=  0.000E+00 dE (1.order)= 0.000E+00
 bond charge predicted
       N       E                     dE             d eps       ncg     rms          rms(c)
DAV:   1     0.216096976202E+03   -0.21828E-09   -0.41141E-11   225   0.137E-06    0.498E-07
RMM:   2     0.216096976203E+03    0.29831E-09    0.18577-102     5   0.103E-06
  26 F= 0.21609698E+03 E0= 0.21612354E+03  d E =-.400178E-09
quench:  g(F)=  0.000E+00 g(S)=  0.000E+00 dE (1.order)= 0.000E+00
 bond charge predicted
       N       E                     dE             d eps       ncg     rms          rms(c)
DAV:   1     0.216096976202E+03    0.11642E-09   -0.21311E-10   225   0.105E-06    0.380E-07
RMM:   2     0.216096976203E+03    0.25466E-09    0.16736-102     5   0.845E-07
  27 F= 0.21609698E+03 E0= 0.21612354E+03  d E =0.727596E-10
quench:  g(F)=  0.000E+00 g(S)=  0.000E+00 dE (1.order)= 0.000E+00
 bond charge predicted
       N       E                     dE             d eps       ncg     rms          rms(c)
DAV:   1     0.216096976202E+03   -0.29104E-10    0.40601E-10   225   0.866E-07    0.296E-07
RMM:   2     0.216096976202E+03   -0.10186E-09    0.38561-103     5   0.656E-07
  28 F= 0.21609698E+03 E0= 0.21612354E+03  d E =-.385626E-09
quench:  g(F)=  0.000E+00 g(S)=  0.000E+00 dE (1.order)= 0.000E+00
 bond charge predicted
       N       E                     dE             d eps       ncg     rms          rms(c)
DAV:   1     0.216096976203E+03    0.39290E-09   -0.27901E-11   225   0.668E-07    0.225E-07
RMM:   2     0.216096976203E+03   -0.36380E-10    0.39434-103     5   0.539E-07
  29 F= 0.21609698E+03 E0= 0.21612354E+03  d E =0.458385E-09
quench:  g(F)=  0.000E+00 g(S)=  0.000E+00 dE (1.order)= 0.000E+00
 bond charge predicted
       N       E                     dE             d eps       ncg     rms          rms(c)
DAV:   1     0.216096976202E+03   -0.42201E-09   -0.52503E-11   225   0.553E-07    0.175E-07
RMM:   2     0.216096976203E+03    0.54570E-09    0.11432-103     5   0.423E-07
  30 F= 0.21609698E+03 E0= 0.21612354E+03  d E =0.160071E-09
quench:  g(F)=  0.000E+00 g(S)=  0.000E+00 dE (1.order)= 0.000E+00
 bond charge predicted
       N       E                     dE             d eps       ncg     rms          rms(c)
DAV:   1     0.216096976203E+03    0.55297E-09   -0.98861E-11   225   0.430E-07    0.136E-07
RMM:   2     0.216096976202E+03   -0.59663E-09    0.10942-103     5   0.348E-07
  31 F= 0.21609698E+03 E0= 0.21612354E+03  d E =-.589353E-09
quench:  g(F)=  0.000E+00 g(S)=  0.000E+00 dE (1.order)= 0.000E+00
 bond charge predicted
       N       E                     dE             d eps       ncg     rms          rms(c)
DAV:   1     0.216096976202E+03   -0.59663E-09    0.31887E-11   225   0.355E-07    0.105E-07
RMM:   2     0.216096976202E+03   -0.10186E-09    0.44479-106     4   0.275E-07
  32 F= 0.21609698E+03 E0= 0.21612354E+03  d E =-.101863E-09
quench:  g(F)=  0.000E+00 g(S)=  0.000E+00 dE (1.order)= 0.000E+00
 bond charge predicted
       N       E                     dE             d eps       ncg     rms          rms(c)
DAV:   1     0.216096976202E+03   -0.39290E-09   -0.85840E-11   225   0.279E-07    0.859E-08
RMM:   2     0.216096976202E+03    0.29104E-09    0.47790-106     4   0.226E-07
  33 F= 0.21609698E+03 E0= 0.21612354E+03  d E =0.000000E+00
quench:  g(F)=  0.000E+00 g(S)=  0.000E+00 dE (1.order)= 0.000E+00
 bond charge predicted
       N       E                     dE             d eps       ncg     rms          rms(c)
DAV:   1     0.216096976203E+03    0.98953E-09    0.33198E-11   225   0.231E-07    0.632E-08
RMM:   2     0.216096976202E+03   -0.45111E-09    0.17421-106     4   0.180E-07
  34 F= 0.21609698E+03 E0= 0.21612354E+03  d E =0.247383E-09
quench:  g(F)=  0.000E+00 g(S)=  0.000E+00 dE (1.order)= 0.000E+00
 bond charge predicted
       N       E                     dE             d eps       ncg     rms          rms(c)
DAV:   1     0.216096976202E+03   -0.10623E-08    0.10368E-10   225   0.183E-07    0.493E-08
RMM:   2     0.216096976203E+03    0.10477E-08    0.20477-106     4   0.148E-07
  35 F= 0.21609698E+03 E0= 0.21612354E+03  d E =0.436557E-09
quench:  g(F)=  0.000E+00 g(S)=  0.000E+00 dE (1.order)= 0.000E+00
 bond charge predicted
       N       E                     dE             d eps       ncg     rms          rms(c)
DAV:   1     0.216096976202E+03    0.53842E-09   -0.14588E-10   225   0.151E-07    0.397E-08
RMM:   2     0.216096976203E+03    0.34925E-09    0.10187-106     4   0.119E-07
  36 F= 0.21609698E+03 E0= 0.21612354E+03  d E =-.160071E-09
quench:  g(F)=  0.000E+00 g(S)=  0.000E+00 dE (1.order)= 0.000E+00
 bond charge predicted
       N       E                     dE             d eps       ncg     rms          rms(c)
DAV:   1     0.216096976202E+03   -0.31287E-09   -0.40348E-11   225   0.121E-07    0.326E-08
RMM:   2     0.216096976202E+03    0.24738E-09    0.13426-106     4   0.977E-08
  37 F= 0.21609698E+03 E0= 0.21612354E+03  d E =-.414730E-09
quench:  g(F)=  0.000E+00 g(S)=  0.000E+00 dE (1.order)= 0.000E+00
 bond charge predicted
       N       E                     dE             d eps       ncg     rms          rms(c)
DAV:   1     0.216096976203E+03    0.73487E-09    0.17564E-10   225   0.993E-08    0.255E-08
RMM:   2     0.216096976202E+03   -0.42928E-09    0.32843-107     4   0.792E-08
  38 F= 0.21609698E+03 E0= 0.21612354E+03  d E =0.582077E-10
quench:  g(F)=  0.000E+00 g(S)=  0.000E+00 dE (1.order)= 0.000E+00
 bond charge predicted
       N       E                     dE             d eps       ncg     rms          rms(c)
DAV:   1     0.216096976202E+03   -0.37835E-09    0.68172E-11   225   0.804E-08    0.184E-08
RMM:   2     0.216096976202E+03   -0.36380E-10    0.50428-107     4   0.649E-08
  39 F= 0.21609698E+03 E0= 0.21612354E+03  d E =0.145519E-10
quench:  g(F)=  0.000E+00 g(S)=  0.000E+00 dE (1.order)= 0.000E+00
 bond charge predicted
       N       E                     dE             d eps       ncg     rms          rms(c)
DAV:   1     0.216096976202E+03   -0.37835E-09    0.34458E-11   225   0.659E-08    0.170E-08
RMM:   2     0.216096976203E+03    0.73487E-09    0.70584-107     3   0.528E-08
  40 F= 0.21609698E+03 E0= 0.21612354E+03  d E =0.392902E-09
quench:  g(F)=  0.000E+00 g(S)=  0.000E+00 dE (1.order)= 0.000E+00
 bond charge predicted
       N       E                     dE             d eps       ncg     rms          rms(c)
DAV:   1     0.216096976203E+03    0.70577E-09    0.39631E-11   225   0.539E-08    0.122E-08
RMM:   2     0.216096976203E+03    0.24011E-09    0.75315-107     4   0.433E-08
  41 F= 0.21609698E+03 E0= 0.21612354E+03  d E =0.211003E-09
quench:  g(F)=  0.000E+00 g(S)=  0.000E+00 dE (1.order)= 0.000E+00
 bond charge predicted
       N       E                     dE             d eps       ncg     rms          rms(c)
DAV:   1     0.216096976203E+03    0.29104E-10   -0.57029E-12   225   0.438E-08    0.119E-08
RMM:   2     0.216096976202E+03   -0.32742E-09    0.22875-107     3   0.354E-08
  42 F= 0.21609698E+03 E0= 0.21612354E+03  d E =-.538421E-09
quench:  g(F)=  0.000E+00 g(S)=  0.000E+00 dE (1.order)= 0.000E+00
 bond charge predicted
       N       E                     dE             d eps       ncg     rms          rms(c)
DAV:   1     0.216096976203E+03    0.41473E-09   -0.12072E-10   225   0.361E-08    0.922E-09
RMM:   2     0.216096976203E+03   -0.45111E-09    0.74264-107     3   0.293E-08
  43 F= 0.21609698E+03 E0= 0.21612354E+03  d E =0.291038E-09
quench:  g(F)=  0.000E+00 g(S)=  0.000E+00 dE (1.order)= 0.000E+00
 bond charge predicted
       N       E                     dE             d eps       ncg     rms          rms(c)
DAV:   1     0.216096976203E+03    0.72760E-10   -0.86579E-11   225   0.298E-08    0.654E-09
RMM:   2     0.216096976202E+03   -0.10696E-08    0.99185-108     3   0.239E-08
  44 F= 0.21609698E+03 E0= 0.21612354E+03  d E =-.545697E-09
quench:  g(F)=  0.000E+00 g(S)=  0.000E+00 dE (1.order)= 0.000E+00
 bond charge predicted
       N       E                     dE             d eps       ncg     rms          rms(c)
DAV:   1     0.216096976203E+03    0.58208E-10   -0.19344E-10   225   0.242E-08    0.702E-09
RMM:   2     0.216096976202E+03   -0.11496E-08    0.28205-107     3   0.202E-08
  45 F= 0.21609698E+03 E0= 0.21612354E+03  d E =-.218279E-10
quench:  g(F)=  0.000E+00 g(S)=  0.000E+00 dE (1.order)= 0.000E+00
 bond charge predicted
       N       E                     dE             d eps       ncg     rms          rms(c)
DAV:   1     0.216096976202E+03   -0.12951E-08   -0.86720E-11   225   0.204E-08    0.594E-09
RMM:   2     0.216096976203E+03    0.60390E-09    0.48664-108     3   0.163E-08
  46 F= 0.21609698E+03 E0= 0.21612354E+03  d E =0.458385E-09
quench:  g(F)=  0.000E+00 g(S)=  0.000E+00 dE (1.order)= 0.000E+00
 bond charge predicted
       N       E                     dE             d eps       ncg     rms          rms(c)
DAV:   1     0.216096976203E+03    0.14334E-08   -0.12855E-10   225   0.166E-08    0.618E-09
RMM:   2     0.216096976202E+03   -0.13679E-08    0.14010-107     3   0.137E-08
  47 F= 0.21609698E+03 E0= 0.21612354E+03  d E =-.538421E-09
quench:  g(F)=  0.000E+00 g(S)=  0.000E+00 dE (1.order)= 0.000E+00
 bond charge predicted
       N       E                     dE             d eps       ncg     rms          rms(c)
DAV:   1     0.216096976202E+03   -0.11423E-08   -0.16362E-10   225   0.138E-08    0.471E-09
RMM:   2     0.216096976202E+03    0.80036E-10    0.94061-109     2   0.112E-08
  48 F= 0.21609698E+03 E0= 0.21612354E+03  d E =0.305590E-09
quench:  g(F)=  0.000E+00 g(S)=  0.000E+00 dE (1.order)= 0.000E+00
 bond charge predicted
       N       E                     dE             d eps       ncg     rms          rms(c)
DAV:   1     0.216096976202E+03   -0.36380E-09   -0.18450E-10   225   0.114E-08    0.102E-08
RMM:   2     0.216096976202E+03    0.46566E-09    0.76211-108     3   0.944E-09
  49 F= 0.21609698E+03 E0= 0.21612354E+03  d E =0.218279E-10
quench:  g(F)=  0.000E+00 g(S)=  0.000E+00 dE (1.order)= 0.000E+00
 bond charge predicted
       N       E                     dE             d eps       ncg     rms          rms(c)
DAV:   1     0.216096976203E+03    0.12005E-08   -0.31375E-10   225   0.101E-08    0.940E-09
RMM:   2     0.216096976202E+03   -0.11714E-08    0.76588-109     2   0.813E-09
  50 F= 0.21609698E+03 E0= 0.21612354E+03  d E =-.436557E-09
quench:  g(F)=  0.000E+00 g(S)=  0.000E+00 dE (1.order)= 0.000E+00
 bond charge predicted
       N       E                     dE             d eps       ncg     rms          rms(c)
DAV:   1     0.216096976202E+03   -0.76398E-09   -0.13316E-10   225   0.898E-09    0.632E-09
RMM:   2     0.216096976202E+03    0.29104E-10    0.35355-108     3   0.669E-09
  51 F= 0.21609698E+03 E0= 0.21612354E+03  d E =0.436557E-09
quench:  g(F)=  0.000E+00 g(S)=  0.000E+00 dE (1.order)= 0.000E+00
 bond charge predicted
       N       E                     dE             d eps       ncg     rms          rms(c)
DAV:   1     0.216096976202E+03   -0.80036E-09   -0.18651E-10   225   0.705E-09    0.454E-09
RMM:   2     0.216096976203E+03    0.10332E-08    0.75439-109     2   0.574E-09
  52 F= 0.21609698E+03 E0= 0.21612354E+03  d E =0.203727E-09
quench:  g(F)=  0.000E+00 g(S)=  0.000E+00 dE (1.order)= 0.000E+00
 bond charge predicted
       N       E                     dE             d eps       ncg     rms          rms(c)
DAV:   1     0.216096976202E+03    0.52387E-09   -0.12556E-10   225   0.590E-09    0.625E-09
RMM:   2     0.216096976202E+03    0.30559E-09    0.96938-109     2   0.468E-09
  53 F= 0.21609698E+03 E0= 0.21612354E+03  d E =-.203727E-09
quench:  g(F)=  0.000E+00 g(S)=  0.000E+00 dE (1.order)= 0.000E+00
 bond charge predicted
       N       E                     dE             d eps       ncg     rms          rms(c)
DAV:   1     0.216096976202E+03   -0.19645E-09   -0.92527E-11   225   0.516E-09    0.551E-09
RMM:   2     0.216096976202E+03    0.33469E-09    0.52387-109     2   0.409E-09
  54 F= 0.21609698E+03 E0= 0.21612354E+03  d E =-.167347E-09
quench:  g(F)=  0.000E+00 g(S)=  0.000E+00 dE (1.order)= 0.000E+00
 bond charge predicted
       N       E                     dE             d eps       ncg     rms          rms(c)
DAV:   1     0.216096976202E+03   -0.36380E-10   -0.32390E-11   225   0.446E-09    0.735E-09
RMM:   2     0.216096976202E+03    0.21828E-09    0.84232-109     2   0.380E-09
  55 F= 0.21609698E+03 E0= 0.21612354E+03  d E =-.152795E-09
quench:  g(F)=  0.000E+00 g(S)=  0.000E+00 dE (1.order)= 0.000E+00
 bond charge predicted
       N       E                     dE             d eps       ncg     rms          rms(c)
DAV:   1     0.216096976202E+03    0.23283E-09   -0.14655E-10   225   0.384E-09    0.410E-09
RMM:   2     0.216096976202E+03   -0.65484E-10    0.42132-109     2   0.342E-09
  56 F= 0.21609698E+03 E0= 0.21612354E+03  d E =-.509317E-10
quench:  g(F)=  0.000E+00 g(S)=  0.000E+00 dE (1.order)= 0.000E+00
 bond charge predicted
       N       E                     dE             d eps       ncg     rms          rms(c)
DAV:   1     0.216096976202E+03   -0.80036E-10   -0.56019E-11   225   0.380E-09    0.531E-09
RMM:   2     0.216096976203E+03    0.57480E-09    0.49188-109     2   0.290E-09
  57 F= 0.21609698E+03 E0= 0.21612354E+03  d E =0.560249E-09
quench:  g(F)=  0.000E+00 g(S)=  0.000E+00 dE (1.order)= 0.000E+00
 bond charge predicted
       N       E                     dE             d eps       ncg     rms          rms(c)
DAV:   1     0.216096976202E+03    0.50932E-10   -0.27149E-10   225   0.326E-09    0.655E-09
RMM:   2     0.216096976202E+03   -0.18917E-09    0.29806-109     2   0.276E-09
  58 F= 0.21609698E+03 E0= 0.21612354E+03  d E =-.713044E-09
quench:  g(F)=  0.000E+00 g(S)=  0.000E+00 dE (1.order)= 0.000E+00
 bond charge predicted
       N       E                     dE             d eps       ncg     rms          rms(c)
DAV:   1     0.216096976202E+03   -0.14552E-10   -0.12043E-10   225   0.294E-09    0.596E-09
RMM:   2     0.216096976203E+03    0.54570E-09    0.29670-109     2   0.244E-09
  59 F= 0.21609698E+03 E0= 0.21612354E+03  d E =0.720320E-09
quench:  g(F)=  0.000E+00 g(S)=  0.000E+00 dE (1.order)= 0.000E+00
 bond charge predicted
       N       E                     dE             d eps       ncg     rms          rms(c)
DAV:   1     0.216096976202E+03   -0.18917E-09   -0.10669E-10   225   0.264E-09    0.519E-09
RMM:   2     0.216096976202E+03    0.39290E-09    0.24746-109     2   0.208E-09
  60 F= 0.21609698E+03 E0= 0.21612354E+03  d E =-.341970E-09
quench:  g(F)=  0.000E+00 g(S)=  0.000E+00 dE (1.order)= 0.000E+00
 bond charge predicted
       N       E                     dE             d eps       ncg     rms          rms(c)
DAV:   1     0.216096976203E+03    0.10768E-08   -0.12335E-10   225   0.247E-09    0.725E-09
RMM:   2     0.216096976202E+03   -0.77125E-09    0.18380-109     2   0.225E-09
  61 F= 0.21609698E+03 E0= 0.21612354E+03  d E =-.873115E-10
quench:  g(F)=  0.000E+00 g(S)=  0.000E+00 dE (1.order)= 0.000E+00
 bond charge predicted
       N       E                     dE             d eps       ncg     rms          rms(c)
DAV:   1     0.216096976203E+03   -0.13824E-09   -0.13268E-10   225   0.286E-09    0.287E-09
RMM:   2     0.216096976202E+03   -0.70577E-09    0.12754-109     2   0.190E-09
  62 F= 0.21609698E+03 E0= 0.21612354E+03  d E =-.727596E-10
quench:  g(F)=  0.000E+00 g(S)=  0.000E+00 dE (1.order)= 0.000E+00
 bond charge predicted
       N       E                     dE             d eps       ncg     rms          rms(c)
DAV:   1     0.216096976203E+03   -0.16735E-09   -0.30982E-10   225   0.207E-09    0.479E-09
RMM:   2     0.216096976203E+03    0.00000E+00    0.12013-109     2   0.178E-09
  63 F= 0.21609698E+03 E0= 0.21612354E+03  d E =0.538421E-09
quench:  g(F)=  0.000E+00 g(S)=  0.000E+00 dE (1.order)= 0.000E+00
 bond charge predicted
       N       E                     dE             d eps       ncg     rms          rms(c)
DAV:   1     0.216096976202E+03   -0.50204E-09   -0.21604E-10   225   0.205E-09    0.581E-09
RMM:   2     0.216096976202E+03    0.27649E-09    0.76120-110     2   0.166E-09
  64 F= 0.21609698E+03 E0= 0.21612354E+03  d E =-.225555E-09
quench:  g(F)=  0.000E+00 g(S)=  0.000E+00 dE (1.order)= 0.000E+00
 bond charge predicted
       N       E                     dE             d eps       ncg     rms          rms(c)
DAV:   1     0.216096976203E+03    0.87311E-09   -0.18146E-10   225   0.224E-09    0.771E-09
RMM:   2     0.216096976202E+03   -0.76398E-09    0.79585-110     2   0.169E-09
  65 F= 0.21609698E+03 E0= 0.21612354E+03  d E =-.167347E-09
quench:  g(F)=  0.000E+00 g(S)=  0.000E+00 dE (1.order)= 0.000E+00
 bond charge predicted
       N       E                     dE             d eps       ncg     rms          rms(c)
DAV:   1     0.216096976202E+03   -0.82218E-09    0.26527E-11   225   0.224E-09    0.396E-09
RMM:   2     0.216096976202E+03    0.65484E-10    0.38191-110     2   0.149E-09
  66 F= 0.21609698E+03 E0= 0.21612354E+03  d E =0.727596E-11
quench:  g(F)=  0.000E+00 g(S)=  0.000E+00 dE (1.order)= 0.000E+00
 bond charge predicted
       N       E                     dE             d eps       ncg     rms          rms(c)
DAV:   1     0.216096976202E+03    0.19645E-09   -0.22418E-10   225   0.188E-09    0.800E-09
RMM:   2     0.216096976202E+03   -0.31287E-09    0.67046-110     2   0.128E-09
  67 F= 0.21609698E+03 E0= 0.21612354E+03  d E =-.181899E-09
quench:  g(F)=  0.000E+00 g(S)=  0.000E+00 dE (1.order)= 0.000E+00
 bond charge predicted
       N       E                     dE             d eps       ncg     rms          rms(c)
DAV:   1     0.216096976203E+03    0.96770E-09   -0.16835E-10   225   0.192E-09    0.443E-09
RMM:   2     0.216096976202E+03   -0.11933E-08    0.45686-110     2   0.133E-09
  68 F= 0.21609698E+03 E0= 0.21612354E+03  d E =0.873115E-10
quench:  g(F)=  0.000E+00 g(S)=  0.000E+00 dE (1.order)= 0.000E+00
 bond charge predicted
       N       E                     dE             d eps       ncg     rms          rms(c)
DAV:   1     0.216096976202E+03   -0.89494E-09   -0.30102E-10   225   0.187E-09    0.118E-08
RMM:   2     0.216096976202E+03   -0.42201E-09    0.36804-110     2   0.127E-09
  69 F= 0.21609698E+03 E0= 0.21612354E+03  d E =-.123691E-09
quench:  g(F)=  0.000E+00 g(S)=  0.000E+00 dE (1.order)= 0.000E+00
 bond charge predicted
       N       E                     dE             d eps       ncg     rms          rms(c)
DAV:   1     0.216096976202E+03   -0.13097E-09   -0.17469E-10   225   0.222E-09    0.818E-09
RMM:   2     0.216096976203E+03    0.23283E-09    0.24010-110     2   0.196E-09
  70 F= 0.21609698E+03 E0= 0.21612354E+03  d E =0.523869E-09
quench:  g(F)=  0.000E+00 g(S)=  0.000E+00 dE (1.order)= 0.000E+00
 bond charge predicted
       N       E                     dE             d eps       ncg     rms          rms(c)
DAV:   1     0.216096976202E+03   -0.10186E-09   -0.20461E-10   225   0.203E-09    0.457E-09
RMM:   2     0.216096976203E+03    0.43656E-09    0.24998-110     2   0.139E-09
  71 F= 0.21609698E+03 E0= 0.21612354E+03  d E =0.101863E-09
quench:  g(F)=  0.000E+00 g(S)=  0.000E+00 dE (1.order)= 0.000E+00
 bond charge predicted
       N       E                     dE             d eps       ncg     rms          rms(c)
DAV:   1     0.216096976202E+03    0.21828E-10   -0.17836E-10   225   0.190E-09    0.574E-09
RMM:   2     0.216096976202E+03    0.24738E-09    0.11026-110     2   0.120E-09
  72 F= 0.21609698E+03 E0= 0.21612354E+03  d E =-.167347E-09
quench:  g(F)=  0.000E+00 g(S)=  0.000E+00 dE (1.order)= 0.000E+00
 bond charge predicted
       N       E                     dE             d eps       ncg     rms          rms(c)
DAV:   1     0.216096976202E+03   -0.68394E-09   -0.20275E-11   198   0.156E-09    0.747E-09
RMM:   2     0.216096976202E+03    0.69122E-09    0.27240-110     1   0.115E-09
  73 F= 0.21609698E+03 E0= 0.21612354E+03  d E =-.240107E-09
quench:  g(F)=  0.000E+00 g(S)=  0.000E+00 dE (1.order)= 0.000E+00
 bond charge predicted
       N       E                     dE             d eps       ncg     rms          rms(c)
DAV:   1     0.216096976202E+03    0.50932E-09   -0.20299E-10   198   0.191E-09    0.509E-09
RMM:   2     0.216096976203E+03    0.62573E-09    0.36858-110     1   0.156E-09
  74 F= 0.21609698E+03 E0= 0.21612354E+03  d E =0.443833E-09
quench:  g(F)=  0.000E+00 g(S)=  0.000E+00 dE (1.order)= 0.000E+00
 bond charge predicted
       N       E                     dE             d eps       ncg     rms          rms(c)
DAV:   1     0.216096976202E+03   -0.18190E-09   -0.27212E-10   198   0.170E-09    0.158E-08
RMM:   2     0.216096976202E+03    0.48749E-09    0.18764-110     1   0.141E-09
  75 F= 0.21609698E+03 E0= 0.21612354E+03  d E =-.320142E-09
quench:  g(F)=  0.000E+00 g(S)=  0.000E+00 dE (1.order)= 0.000E+00
 bond charge predicted
       N       E                     dE             d eps       ncg     rms          rms(c)
DAV:   1     0.216096976203E+03    0.72032E-09   -0.88670E-11   198   0.225E-09    0.913E-09
RMM:   2     0.216096976202E+03   -0.35652E-09    0.30008-110     1   0.148E-09
  76 F= 0.21609698E+03 E0= 0.21612354E+03  d E =-.123691E-09
quench:  g(F)=  0.000E+00 g(S)=  0.000E+00 dE (1.order)= 0.000E+00
 bond charge predicted
       N       E                     dE             d eps       ncg     rms          rms(c)
DAV:   1     0.216096976201E+03   -0.15207E-08   -0.18980E-10   198   0.268E-09    0.727E-09
RMM:   2     0.216096976202E+03    0.11569E-08    0.16352-110     1   0.122E-09
  77 F= 0.21609698E+03 E0= 0.21612354E+03  d E =-.727596E-11
quench:  g(F)=  0.000E+00 g(S)=  0.000E+00 dE (1.order)= 0.000E+00
 bond charge predicted
       N       E                     dE             d eps       ncg     rms          rms(c)
DAV:   1     0.216096976203E+03    0.16807E-08   -0.17789E-10   198   0.194E-09    0.526E-09
RMM:   2     0.216096976203E+03   -0.11642E-09    0.26887-110     1   0.136E-09
  78 F= 0.21609698E+03 E0= 0.21612354E+03  d E =0.407454E-09
quench:  g(F)=  0.000E+00 g(S)=  0.000E+00 dE (1.order)= 0.000E+00
 bond charge predicted
       N       E                     dE             d eps       ncg     rms          rms(c)
DAV:   1     0.216096976202E+03   -0.68394E-09   -0.22545E-10   198   0.185E-09    0.190E-08
RMM:   2     0.216096976202E+03    0.26193E-09    0.14910-110     1   0.155E-09
  79 F= 0.21609698E+03 E0= 0.21612354E+03  d E =-.305590E-09
quench:  g(F)=  0.000E+00 g(S)=  0.000E+00 dE (1.order)= 0.000E+00
 bond charge predicted
       N       E                     dE             d eps       ncg     rms          rms(c)
DAV:   1     0.216096976203E+03    0.69849E-09   -0.18406E-10   198   0.197E-09    0.108E-08
RMM:   2     0.216096976202E+03   -0.80036E-09    0.24559-110     1   0.137E-09
  80 F= 0.21609698E+03 E0= 0.21612354E+03  d E =-.363798E-09
quench:  g(F)=  0.000E+00 g(S)=  0.000E+00 dE (1.order)= 0.000E+00
 bond charge predicted
       N       E                     dE             d eps       ncg     rms          rms(c)
DAV:   1     0.216096976202E+03   -0.26193E-09   -0.23235E-10   198   0.269E-09    0.611E-09
RMM:   2     0.216096976202E+03   -0.14552E-09    0.13759-110     1   0.133E-09
  81 F= 0.21609698E+03 E0= 0.21612354E+03  d E =0.392902E-09
quench:  g(F)=  0.000E+00 g(S)=  0.000E+00 dE (1.order)= 0.000E+00
 bond charge predicted
       N       E                     dE             d eps       ncg     rms          rms(c)
DAV:   1     0.216096976203E+03    0.38563E-09   -0.12577E-10   198   0.199E-09    0.657E-09
RMM:   2     0.216096976202E+03   -0.86584E-09    0.23621-110     1   0.168E-09
  82 F= 0.21609698E+03 E0= 0.21612354E+03  d E =-.334694E-09
quench:  g(F)=  0.000E+00 g(S)=  0.000E+00 dE (1.order)= 0.000E+00
 bond charge predicted
       N       E                     dE             d eps       ncg     rms          rms(c)
DAV:   1     0.216096976202E+03   -0.47294E-09   -0.22999E-10   198   0.184E-09    0.629E-09
RMM:   2     0.216096976202E+03    0.65484E-10    0.17967-110     1   0.133E-09
  83 F= 0.21609698E+03 E0= 0.21612354E+03  d E =0.458385E-09
quench:  g(F)=  0.000E+00 g(S)=  0.000E+00 dE (1.order)= 0.000E+00
 bond charge predicted
       N       E                     dE             d eps       ncg     rms          rms(c)
DAV:   1     0.216096976202E+03   -0.12369E-09   -0.13370E-10   198   0.223E-09    0.954E-09
RMM:   2     0.216096976203E+03    0.24011E-09    0.18169-110     1   0.129E-09
  84 F= 0.21609698E+03 E0= 0.21612354E+03  d E =0.509317E-10
quench:  g(F)=  0.000E+00 g(S)=  0.000E+00 dE (1.order)= 0.000E+00
 bond charge predicted
       N       E                     dE             d eps       ncg     rms          rms(c)
DAV:   1     0.216096976202E+03    0.43656E-10   -0.20634E-10   198   0.251E-09    0.149E-08
RMM:   2     0.216096976202E+03   -0.26193E-09    0.18830-110     1   0.201E-09
  85 F= 0.21609698E+03 E0= 0.21612354E+03  d E =-.458385E-09
quench:  g(F)=  0.000E+00 g(S)=  0.000E+00 dE (1.order)= 0.000E+00
 bond charge predicted
       N       E                     dE             d eps       ncg     rms          rms(c)
DAV:   1     0.216096976203E+03    0.25466E-09   -0.92714E-11   198   0.332E-09    0.626E-09
RMM:   2     0.216096976202E+03   -0.36380E-09    0.13536-110     1   0.148E-09
  86 F= 0.21609698E+03 E0= 0.21612354E+03  d E =0.152795E-09
quench:  g(F)=  0.000E+00 g(S)=  0.000E+00 dE (1.order)= 0.000E+00
 bond charge predicted
       N       E                     dE             d eps       ncg     rms          rms(c)
DAV:   1     0.216096976201E+03   -0.11059E-08   -0.14729E-10   198   0.224E-09    0.427E-09
RMM:   2     0.216096976202E+03    0.71304E-09    0.17793-110     1   0.103E-09
  87 F= 0.21609698E+03 E0= 0.21612354E+03  d E =-.291038E-10
quench:  g(F)=  0.000E+00 g(S)=  0.000E+00 dE (1.order)= 0.000E+00
 bond charge predicted
       N       E                     dE             d eps       ncg     rms          rms(c)
DAV:   1     0.216096976203E+03    0.14261E-08   -0.97782E-11   198   0.138E-09    0.429E-09
RMM:   2     0.216096976202E+03   -0.87311E-09    0.12406-110     1   0.130E-09
  88 F= 0.21609698E+03 E0= 0.21612354E+03  d E =-.160071E-09
quench:  g(F)=  0.000E+00 g(S)=  0.000E+00 dE (1.order)= 0.000E+00
 bond charge predicted
       N       E                     dE             d eps       ncg     rms          rms(c)
DAV:   1     0.216096976202E+03   -0.50932E-09   -0.16149E-10   198   0.157E-09    0.519E-09
RMM:   2     0.216096976202E+03   -0.10186E-09    0.16391-110     1   0.113E-09
  89 F= 0.21609698E+03 E0= 0.21612354E+03  d E =0.261934E-09
quench:  g(F)=  0.000E+00 g(S)=  0.000E+00 dE (1.order)= 0.000E+00
 bond charge predicted
       N       E                     dE             d eps       ncg     rms          rms(c)
DAV:   1     0.216096976202E+03   -0.30559E-09   -0.10908E-10   198   0.150E-09    0.765E-09
RMM:   2     0.216096976203E+03    0.44383E-09    0.11608-110     1   0.126E-09
  90 F= 0.21609698E+03 E0= 0.21612354E+03  d E =0.240107E-09
quench:  g(F)=  0.000E+00 g(S)=  0.000E+00 dE (1.order)= 0.000E+00
 bond charge predicted
       N       E                     dE             d eps       ncg     rms          rms(c)
DAV:   1     0.216096976202E+03   -0.20373E-09   -0.48567E-11   198   0.200E-09    0.436E-09
RMM:   2     0.216096976202E+03    0.21828E-09    0.16227-110     1   0.109E-09
  91 F= 0.21609698E+03 E0= 0.21612354E+03  d E =-.429281E-09
quench:  g(F)=  0.000E+00 g(S)=  0.000E+00 dE (1.order)= 0.000E+00
 bond charge predicted
       N       E                     dE             d eps       ncg     rms          rms(c)
DAV:   1     0.216096976202E+03   -0.11642E-09   -0.31816E-11   198   0.174E-09    0.870E-09
RMM:   2     0.216096976203E+03    0.85129E-09    0.11202-110     1   0.126E-09
  92 F= 0.21609698E+03 E0= 0.21612354E+03  d E =0.516593E-09
quench:  g(F)=  0.000E+00 g(S)=  0.000E+00 dE (1.order)= 0.000E+00
 bond charge predicted
       N       E                     dE             d eps       ncg     rms          rms(c)
DAV:   1     0.216096976202E+03    0.27649E-09   -0.22317E-10   198   0.227E-09    0.539E-09
RMM:   2     0.216096976203E+03    0.46566E-09    0.15069-110     1   0.147E-09
  93 F= 0.21609698E+03 E0= 0.21612354E+03  d E =-.109139E-09
quench:  g(F)=  0.000E+00 g(S)=  0.000E+00 dE (1.order)= 0.000E+00
 bond charge predicted
       N       E                     dE             d eps       ncg     rms          rms(c)
DAV:   1     0.216096976202E+03    0.22555E-09   -0.30185E-10   198   0.212E-09    0.154E-08
RMM:   2     0.216096976202E+03   -0.50932E-10    0.10360-110     1   0.122E-09
  94 F= 0.21609698E+03 E0= 0.21612354E+03  d E =-.291038E-09
quench:  g(F)=  0.000E+00 g(S)=  0.000E+00 dE (1.order)= 0.000E+00
 bond charge predicted
       N       E                     dE             d eps       ncg     rms          rms(c)
DAV:   1     0.216096976202E+03   -0.34197E-09   -0.19206E-10   198   0.131E-09    0.382E-09
RMM:   2     0.216096976203E+03    0.69849E-09    0.14033-110     1   0.137E-09
  95 F= 0.21609698E+03 E0= 0.21612354E+03  d E =0.407454E-09
quench:  g(F)=  0.000E+00 g(S)=  0.000E+00 dE (1.order)= 0.000E+00
 bond charge predicted
       N       E                     dE             d eps       ncg     rms          rms(c)
DAV:   1     0.216096976202E+03   -0.14552E-10   -0.18367E-10   198   0.158E-09    0.126E-08
RMM:   2     0.216096976202E+03    0.14552E-09    0.94823-111     1   0.113E-09
  96 F= 0.21609698E+03 E0= 0.21612354E+03  d E =-.567525E-09
quench:  g(F)=  0.000E+00 g(S)=  0.000E+00 dE (1.order)= 0.000E+00
 bond charge predicted
       N       E                     dE             d eps       ncg     rms          rms(c)
DAV:   1     0.216096976202E+03    0.20373E-09   -0.13713E-10   198   0.246E-09    0.863E-09
RMM:   2     0.216096976203E+03    0.40018E-09    0.13823-110     1   0.151E-09
  97 F= 0.21609698E+03 E0= 0.21612354E+03  d E =0.458385E-09
quench:  g(F)=  0.000E+00 g(S)=  0.000E+00 dE (1.order)= 0.000E+00
 bond charge predicted
       N       E                     dE             d eps       ncg     rms          rms(c)
DAV:   1     0.216096976202E+03    0.34925E-09   -0.13400E-10   198   0.282E-09    0.316E-09
RMM:   2     0.216096976202E+03   -0.21100E-09    0.93703-111     1   0.128E-09
  98 F= 0.21609698E+03 E0= 0.21612354E+03  d E =-.261934E-09
quench:  g(F)=  0.000E+00 g(S)=  0.000E+00 dE (1.order)= 0.000E+00
 bond charge predicted
       N       E                     dE             d eps       ncg     rms          rms(c)
DAV:   1     0.216096976203E+03    0.15280E-09   -0.18010E-10   198   0.147E-09    0.462E-09
RMM:   2     0.216096976202E+03   -0.40018E-09    0.12738-110     1   0.114E-09
  99 F= 0.21609698E+03 E0= 0.21612354E+03  d E =-.363798E-10
quench:  g(F)=  0.000E+00 g(S)=  0.000E+00 dE (1.order)= 0.000E+00
 bond charge predicted
       N       E                     dE             d eps       ncg     rms          rms(c)
DAV:   1     0.216096976202E+03   -0.72032E-09   -0.24582E-10   198   0.175E-09    0.649E-09
RMM:   2     0.216096976203E+03    0.74215E-09    0.86019-111     1   0.165E-09
 100 F= 0.21609698E+03 E0= 0.21612354E+03  d E =0.422006E-09
quench:  g(F)=  0.000E+00 g(S)=  0.000E+00 dE (1.order)= 0.000E+00
 bond charge predicted
       N       E                     dE             d eps       ncg     rms          rms(c)
DAV:   1     0.216096976203E+03    0.63301E-09   -0.28550E-10   198   0.195E-09    0.425E-09
RMM:   2     0.216096976202E+03   -0.26921E-09    0.11889-110     1   0.111E-09
 101 F= 0.21609698E+03 E0= 0.21612354E+03  d E =-.378350E-09
quench:  g(F)=  0.000E+00 g(S)=  0.000E+00 dE (1.order)= 0.000E+00
 bond charge predicted
       N       E                     dE             d eps       ncg     rms          rms(c)
DAV:   1     0.216096976202E+03   -0.28376E-09   -0.12092E-10   198   0.134E-09    0.375E-09
RMM:   2     0.216096976203E+03    0.37107E-09    0.85171-111     1   0.113E-09
 102 F= 0.21609698E+03 E0= 0.21612354E+03  d E =0.356522E-09
quench:  g(F)=  0.000E+00 g(S)=  0.000E+00 dE (1.order)= 0.000E+00
 bond charge predicted
       N       E                     dE             d eps       ncg     rms          rms(c)
DAV:   1     0.216096976202E+03   -0.53842E-09   -0.16331E-10   198   0.134E-09    0.752E-09
RMM:   2     0.216096976202E+03    0.23283E-09    0.11324-110     1   0.117E-09
 103 F= 0.21609698E+03 E0= 0.21612354E+03  d E =-.676664E-09
quench:  g(F)=  0.000E+00 g(S)=  0.000E+00 dE (1.order)= 0.000E+00
 bond charge predicted
       N       E                     dE             d eps       ncg     rms          rms(c)
DAV:   1     0.216096976201E+03   -0.37835E-09   -0.18496E-10   198   0.212E-09    0.665E-09
RMM:   2     0.216096976202E+03    0.69849E-09    0.78795-111     1   0.188E-09
 104 F= 0.21609698E+03 E0= 0.21612354E+03  d E =0.873115E-10
quench:  g(F)=  0.000E+00 g(S)=  0.000E+00 dE (1.order)= 0.000E+00
 bond charge predicted
       N       E                     dE             d eps       ncg     rms          rms(c)
DAV:   1     0.216096976203E+03    0.17826E-08   -0.22160E-10   198   0.216E-09    0.243E-09
RMM:   2     0.216096976202E+03   -0.83674E-09    0.10456-110     1   0.135E-09
 105 F= 0.21609698E+03 E0= 0.21612354E+03  d E =0.247383E-09
quench:  g(F)=  0.000E+00 g(S)=  0.000E+00 dE (1.order)= 0.000E+00
 bond charge predicted
       N       E                     dE             d eps       ncg     rms          rms(c)
DAV:   1     0.216096976202E+03   -0.11059E-08   -0.16321E-10   198   0.138E-09    0.117E-08
RMM:   2     0.216096976203E+03    0.56025E-09    0.75038-111     1   0.149E-09
 106 F= 0.21609698E+03 E0= 0.21612354E+03  d E =0.291038E-09
quench:  g(F)=  0.000E+00 g(S)=  0.000E+00 dE (1.order)= 0.000E+00
 bond charge predicted
       N       E                     dE             d eps       ncg     rms          rms(c)
DAV:   1     0.216096976202E+03    0.32014E-09   -0.19278E-10   198   0.202E-09    0.593E-09
RMM:   2     0.216096976202E+03   -0.94587E-10    0.10697-110     1   0.157E-09
 107 F= 0.21609698E+03 E0= 0.21612354E+03  d E =-.334694E-09
quench:  g(F)=  0.000E+00 g(S)=  0.000E+00 dE (1.order)= 0.000E+00
 bond charge predicted
       N       E                     dE             d eps       ncg     rms          rms(c)
DAV:   1     0.216096976202E+03    0.94587E-10   -0.27234E-10   198   0.217E-09    0.549E-09
RMM:   2     0.216096976203E+03    0.17462E-09    0.69702-111     1   0.113E-09
 108 F= 0.21609698E+03 E0= 0.21612354E+03  d E =0.363798E-09
quench:  g(F)=  0.000E+00 g(S)=  0.000E+00 dE (1.order)= 0.000E+00
 bond charge predicted
       N       E                     dE             d eps       ncg     rms          rms(c)
DAV:   1     0.216096976203E+03    0.26193E-09   -0.14892E-10   198   0.145E-09    0.107E-08
RMM:   2     0.216096976202E+03   -0.53114E-09    0.99339-111     1   0.139E-09
 109 F= 0.21609698E+03 E0= 0.21612354E+03  d E =-.443833E-09
quench:  g(F)=  0.000E+00 g(S)=  0.000E+00 dE (1.order)= 0.000E+00
 bond charge predicted
       N       E                     dE             d eps       ncg     rms          rms(c)
DAV:   1     0.216096976201E+03   -0.15571E-08   -0.86963E-11   198   0.262E-09    0.796E-09
RMM:   2     0.216096976202E+03    0.97498E-09    0.67393-111     1   0.135E-09
 110 F= 0.21609698E+03 E0= 0.21612354E+03  d E =-.509317E-10
quench:  g(F)=  0.000E+00 g(S)=  0.000E+00 dE (1.order)= 0.000E+00
 bond charge predicted
       N       E                     dE             d eps       ncg     rms          rms(c)
DAV:   1     0.216096976201E+03    0.33469E-09   -0.28930E-10   198   0.257E-09    0.525E-09
RMM:   2     0.216096976202E+03    0.63301E-09    0.88276-111     1   0.118E-09
 111 F= 0.21609698E+03 E0= 0.21612354E+03  d E =-.727596E-11
quench:  g(F)=  0.000E+00 g(S)=  0.000E+00 dE (1.order)= 0.000E+00
 bond charge predicted
       N       E                     dE             d eps       ncg     rms          rms(c)
DAV:   1     0.216096976203E+03    0.13388E-08   -0.11606E-10   198   0.166E-09    0.111E-08
RMM:   2     0.216096976202E+03   -0.53114E-09    0.67902-111     1   0.127E-09
 112 F= 0.21609698E+03 E0= 0.21612354E+03  d E =0.174623E-09
quench:  g(F)=  0.000E+00 g(S)=  0.000E+00 dE (1.order)= 0.000E+00
 bond charge predicted
       N       E                     dE             d eps       ncg     rms          rms(c)
DAV:   1     0.216096976202E+03   -0.10987E-08   -0.36501E-11   198   0.232E-09    0.647E-09
RMM:   2     0.216096976203E+03    0.86584E-09    0.93083-111     1   0.152E-09
 113 F= 0.21609698E+03 E0= 0.21612354E+03  d E =0.298314E-09
quench:  g(F)=  0.000E+00 g(S)=  0.000E+00 dE (1.order)= 0.000E+00
 bond charge predicted
       N       E                     dE             d eps       ncg     rms          rms(c)
DAV:   1     0.216096976201E+03   -0.22555E-09   -0.15353E-10   198   0.215E-09    0.400E-09
RMM:   2     0.216096976202E+03    0.65484E-09    0.62757-111     1   0.170E-09
 114 F= 0.21609698E+03 E0= 0.21612354E+03  d E =-.436557E-09
quench:  g(F)=  0.000E+00 g(S)=  0.000E+00 dE (1.order)= 0.000E+00
 bond charge predicted
       N       E                     dE             d eps       ncg     rms          rms(c)
DAV:   1     0.216096976202E+03    0.77853E-09   -0.16045E-10   198   0.181E-09    0.960E-09
RMM:   2     0.216096976202E+03    0.21828E-10    0.84712-111     1   0.121E-09
 115 F= 0.21609698E+03 E0= 0.21612354E+03  d E =0.145519E-09
quench:  g(F)=  0.000E+00 g(S)=  0.000E+00 dE (1.order)= 0.000E+00
 bond charge predicted
       N       E                     dE             d eps       ncg     rms          rms(c)
DAV:   1     0.216096976202E+03   -0.28376E-09   -0.26332E-10   198   0.236E-09    0.783E-09
RMM:   2     0.216096976202E+03    0.27649E-09    0.58914-111     1   0.135E-09
 116 F= 0.21609698E+03 E0= 0.21612354E+03  d E =-.291038E-10
quench:  g(F)=  0.000E+00 g(S)=  0.000E+00 dE (1.order)= 0.000E+00
 bond charge predicted
       N       E                     dE             d eps       ncg     rms          rms(c)
DAV:   1     0.216096976202E+03    0.49477E-09   -0.27343E-10   198   0.226E-09    0.397E-09
RMM:   2     0.216096976202E+03   -0.41473E-09    0.72256-111     1   0.114E-09
 117 F= 0.21609698E+03 E0= 0.21612354E+03  d E =-.196451E-09
quench:  g(F)=  0.000E+00 g(S)=  0.000E+00 dE (1.order)= 0.000E+00
 bond charge predicted
       N       E                     dE             d eps       ncg     rms          rms(c)
DAV:   1     0.216096976203E+03    0.17462E-09   -0.27293E-10   198   0.142E-09    0.155E-08
RMM:   2     0.216096976202E+03   -0.35652E-09    0.57121-111     1   0.153E-09
 118 F= 0.21609698E+03 E0= 0.21612354E+03  d E =0.232831E-09
quench:  g(F)=  0.000E+00 g(S)=  0.000E+00 dE (1.order)= 0.000E+00
 bond charge predicted
       N       E                     dE             d eps       ncg     rms          rms(c)
DAV:   1     0.216096976202E+03   -0.32014E-09   -0.12444E-10   198   0.245E-09    0.625E-09
RMM:   2     0.216096976202E+03   -0.10914E-09    0.74156-111     1   0.150E-09
 119 F= 0.21609698E+03 E0= 0.21612354E+03  d E =-.727596E-10
quench:  g(F)=  0.000E+00 g(S)=  0.000E+00 dE (1.order)= 0.000E+00
 bond charge predicted
       N       E                     dE             d eps       ncg     rms          rms(c)
DAV:   1     0.216096976203E+03    0.26193E-09   -0.14313E-10   198   0.238E-09    0.454E-09
RMM:   2     0.216096976202E+03   -0.26193E-09    0.53590-111     1   0.130E-09
 120 F= 0.21609698E+03 E0= 0.21612354E+03  d E =0.109139E-09
quench:  g(F)=  0.000E+00 g(S)=  0.000E+00 dE (1.order)= 0.000E+00
 bond charge predicted
       N       E                     dE             d eps       ncg     rms          rms(c)
DAV:   1     0.216096976203E+03    0.10186E-09   -0.77493E-11   198   0.151E-09    0.139E-08
RMM:   2     0.216096976202E+03   -0.24738E-09    0.69929-111     1   0.128E-09
 121 F= 0.21609698E+03 E0= 0.21612354E+03  d E =0.116415E-09
quench:  g(F)=  0.000E+00 g(S)=  0.000E+00 dE (1.order)= 0.000E+00
 bond charge predicted
       N       E                     dE             d eps       ncg     rms          rms(c)
DAV:   1     0.216096976203E+03   -0.16007E-09   -0.44744E-11   198   0.220E-09    0.381E-09
RMM:   2     0.216096976202E+03   -0.45839E-09    0.52975-111     1   0.138E-09
 122 F= 0.21609698E+03 E0= 0.21612354E+03  d E =-.371074E-09
quench:  g(F)=  0.000E+00 g(S)=  0.000E+00 dE (1.order)= 0.000E+00
 bond charge predicted
       N       E                     dE             d eps       ncg     rms          rms(c)
DAV:   1     0.216096976203E+03    0.32014E-09   -0.11080E-10   198   0.197E-09    0.844E-09
RMM:   2     0.216096976202E+03   -0.71304E-09    0.60944-111     1   0.128E-09
 123 F= 0.21609698E+03 E0= 0.21612354E+03  d E =0.654836E-10
quench:  g(F)=  0.000E+00 g(S)=  0.000E+00 dE (1.order)= 0.000E+00
 bond charge predicted
       N       E                     dE             d eps       ncg     rms          rms(c)
DAV:   1     0.216096976202E+03   -0.77125E-09   -0.77275E-11   198   0.147E-09    0.101E-08
RMM:   2     0.216096976202E+03    0.36380E-09    0.49195-111     1   0.113E-09
 124 F= 0.21609698E+03 E0= 0.21612354E+03  d E =0.305590E-09
quench:  g(F)=  0.000E+00 g(S)=  0.000E+00 dE (1.order)= 0.000E+00
 bond charge predicted
       N       E                     dE             d eps       ncg     rms          rms(c)
DAV:   1     0.216096976203E+03    0.91677E-09   -0.23774E-10   198   0.235E-09    0.520E-09
RMM:   2     0.216096976202E+03   -0.81491E-09    0.60641-111     1   0.128E-09
 125 F= 0.21609698E+03 E0= 0.21612354E+03  d E =-.261934E-09
quench:  g(F)=  0.000E+00 g(S)=  0.000E+00 dE (1.order)= 0.000E+00
 bond charge predicted
       N       E                     dE             d eps       ncg     rms          rms(c)
DAV:   1     0.216096976202E+03   -0.12951E-08   -0.11234E-10   198   0.205E-09    0.252E-09
RMM:   2     0.216096976202E+03    0.45111E-09    0.44922-111     1   0.104E-09
 126 F= 0.21609698E+03 E0= 0.21612354E+03  d E =-.291038E-10
quench:  g(F)=  0.000E+00 g(S)=  0.000E+00 dE (1.order)= 0.000E+00
 bond charge predicted
       N       E                     dE             d eps       ncg     rms          rms(c)
DAV:   1     0.216096976203E+03    0.12806E-08    0.99671E-12   198   0.112E-09    0.436E-09
RMM:   2     0.216096976202E+03   -0.10477E-08    0.60676-111     1   0.117E-09
 127 F= 0.21609698E+03 E0= 0.21612354E+03  d E =-.218279E-09
quench:  g(F)=  0.000E+00 g(S)=  0.000E+00 dE (1.order)= 0.000E+00
 bond charge predicted
       N       E                     dE             d eps       ncg     rms          rms(c)
DAV:   1     0.216096976203E+03   -0.39290E-09   -0.10637E-10   198   0.153E-09    0.670E-09
RMM:   2     0.216096976202E+03   -0.59663E-09    0.43037-111     1   0.128E-09
 128 F= 0.21609698E+03 E0= 0.21612354E+03  d E =0.582077E-10
quench:  g(F)=  0.000E+00 g(S)=  0.000E+00 dE (1.order)= 0.000E+00
 bond charge predicted
       N       E                     dE             d eps       ncg     rms          rms(c)
DAV:   1     0.216096976202E+03   -0.69849E-09   -0.96143E-11   198   0.204E-09    0.400E-09
RMM:   2     0.216096976202E+03   -0.72760E-11    0.53826-111     1   0.126E-09
 129 F= 0.21609698E+03 E0= 0.21612354E+03  d E =-.109139E-09
quench:  g(F)=  0.000E+00 g(S)=  0.000E+00 dE (1.order)= 0.000E+00
 bond charge predicted
       N       E                     dE             d eps       ncg     rms          rms(c)
DAV:   1     0.216096976202E+03    0.32014E-09   -0.13353E-10   198   0.177E-09    0.361E-09
RMM:   2     0.216096976203E+03    0.39290E-09    0.42292-111     1   0.120E-09
 130 F= 0.21609698E+03 E0= 0.21612354E+03  d E =0.720320E-09
quench:  g(F)=  0.000E+00 g(S)=  0.000E+00 dE (1.order)= 0.000E+00
 bond charge predicted
       N       E                     dE             d eps       ncg     rms          rms(c)
DAV:   1     0.216096976202E+03    0.11642E-09   -0.37187E-11   198   0.145E-09    0.623E-09
RMM:   2     0.216096976203E+03    0.29831E-09    0.54601-111     1   0.103E-09
 131 F= 0.21609698E+03 E0= 0.21612354E+03  d E =0.218279E-10
quench:  g(F)=  0.000E+00 g(S)=  0.000E+00 dE (1.order)= 0.000E+00
 bond charge predicted
       N       E                     dE             d eps       ncg     rms          rms(c)
DAV:   1     0.216096976202E+03   -0.58208E-09   -0.28308E-10   198   0.209E-09    0.117E-08
RMM:   2     0.216096976202E+03    0.41473E-09    0.39853-111     1   0.136E-09
 132 F= 0.21609698E+03 E0= 0.21612354E+03  d E =-.465661E-09
quench:  g(F)=  0.000E+00 g(S)=  0.000E+00 dE (1.order)= 0.000E+00
 bond charge predicted
       N       E                     dE             d eps       ncg     rms          rms(c)
DAV:   1     0.216096976202E+03    0.27649E-09   -0.14836E-10   198   0.332E-09    0.169E-08
RMM:   2     0.216096976202E+03    0.38563E-09    0.49542-111     1   0.210E-09
 133 F= 0.21609698E+03 E0= 0.21612354E+03  d E =0.247383E-09
quench:  g(F)=  0.000E+00 g(S)=  0.000E+00 dE (1.order)= 0.000E+00
 bond charge predicted
       N       E                     dE             d eps       ncg     rms          rms(c)
DAV:   1     0.216096976203E+03    0.80036E-09   -0.28524E-10   198   0.396E-09    0.977E-09
RMM:   2     0.216096976203E+03   -0.17462E-09    0.40060-111     1   0.171E-09
 134 F= 0.21609698E+03 E0= 0.21612354E+03  d E =0.240107E-09
quench:  g(F)=  0.000E+00 g(S)=  0.000E+00 dE (1.order)= 0.000E+00
 bond charge predicted
       N       E                     dE             d eps       ncg     rms          rms(c)
DAV:   1     0.216096976202E+03   -0.85856E-09   -0.21326E-11   198   0.323E-09    0.231E-08
RMM:   2     0.216096976202E+03   -0.72760E-10    0.55649-111     1   0.151E-09
 135 F= 0.21609698E+03 E0= 0.21612354E+03  d E =-.756700E-09
quench:  g(F)=  0.000E+00 g(S)=  0.000E+00 dE (1.order)= 0.000E+00
 bond charge predicted
       N       E                     dE             d eps       ncg     rms          rms(c)
DAV:   1     0.216096976203E+03    0.57480E-09   -0.17051E-10   198   0.192E-09    0.570E-09
RMM:   2     0.216096976202E+03   -0.43656E-09    0.38309-111     1   0.152E-09
 136 F= 0.21609698E+03 E0= 0.21612354E+03  d E =0.211003E-09
quench:  g(F)=  0.000E+00 g(S)=  0.000E+00 dE (1.order)= 0.000E+00
 bond charge predicted
       N       E                     dE             d eps       ncg     rms          rms(c)
DAV:   1     0.216096976203E+03    0.32742E-09   -0.26270E-10   198   0.234E-09    0.106E-08
RMM:   2     0.216096976202E+03   -0.93132E-09    0.41958-111     1   0.159E-09
 137 F= 0.21609698E+03 E0= 0.21612354E+03  d E =-.167347E-09
quench:  g(F)=  0.000E+00 g(S)=  0.000E+00 dE (1.order)= 0.000E+00
 bond charge predicted
       N       E                     dE             d eps       ncg     rms          rms(c)
DAV:   1     0.216096976201E+03   -0.15862E-08   -0.94273E-12   198   0.183E-09    0.401E-09
RMM:   2     0.216096976203E+03    0.13606E-08    0.34976-111     1   0.172E-09
 138 F= 0.21609698E+03 E0= 0.21612354E+03  d E =0.705768E-09
quench:  g(F)=  0.000E+00 g(S)=  0.000E+00 dE (1.order)= 0.000E+00
 bond charge predicted
       N       E                     dE             d eps       ncg     rms          rms(c)
DAV:   1     0.216096976202E+03    0.11933E-08   -0.10729E-10   198   0.169E-09    0.350E-09
RMM:   2     0.216096976202E+03   -0.53842E-09    0.39867-111     1   0.116E-09
 139 F= 0.21609698E+03 E0= 0.21612354E+03  d E =-.705768E-09
quench:  g(F)=  0.000E+00 g(S)=  0.000E+00 dE (1.order)= 0.000E+00
 bond charge predicted
       N       E                     dE             d eps       ncg     rms          rms(c)
DAV:   1     0.216096976201E+03   -0.98953E-09   -0.44724E-11   198   0.143E-09    0.740E-09
RMM:   2     0.216096976203E+03    0.11642E-08    0.33178-111     1   0.137E-09
 140 F= 0.21609698E+03 E0= 0.21612354E+03  d E =0.713044E-09
quench:  g(F)=  0.000E+00 g(S)=  0.000E+00 dE (1.order)= 0.000E+00
 bond charge predicted
       N       E                     dE             d eps       ncg     rms          rms(c)
DAV:   1     0.216096976202E+03    0.81491E-09   -0.12865E-10   198   0.207E-09    0.688E-09
RMM:   2     0.216096976202E+03    0.10186E-09    0.38854-111     1   0.123E-09
 141 F= 0.21609698E+03 E0= 0.21612354E+03  d E =-.247383E-09
quench:  g(F)=  0.000E+00 g(S)=  0.000E+00 dE (1.order)= 0.000E+00
 bond charge predicted
       N       E                     dE             d eps       ncg     rms          rms(c)
DAV:   1     0.216096976202E+03    0.18917E-09   -0.79859E-11   198   0.209E-09    0.639E-09
RMM:   2     0.216096976202E+03   -0.58208E-10    0.31593-111     1   0.142E-09
 142 F= 0.21609698E+03 E0= 0.21612354E+03  d E =0.291038E-10
quench:  g(F)=  0.000E+00 g(S)=  0.000E+00 dE (1.order)= 0.000E+00
 bond charge predicted
       N       E                     dE             d eps       ncg     rms          rms(c)
DAV:   1     0.216096976202E+03   -0.35652E-09   -0.21078E-10   198   0.181E-09    0.494E-09
RMM:   2     0.216096976203E+03    0.53114E-09    0.38009-111     1   0.121E-09
 143 F= 0.21609698E+03 E0= 0.21612354E+03  d E =0.232831E-09
quench:  g(F)=  0.000E+00 g(S)=  0.000E+00 dE (1.order)= 0.000E+00
 bond charge predicted
       N       E                     dE             d eps       ncg     rms          rms(c)
DAV:   1     0.216096976203E+03    0.60390E-09   -0.17365E-10   198   0.163E-09    0.455E-09
RMM:   2     0.216096976203E+03   -0.17462E-09    0.31951-111     1   0.168E-09
 144 F= 0.21609698E+03 E0= 0.21612354E+03  d E =-.101863E-09
quench:  g(F)=  0.000E+00 g(S)=  0.000E+00 dE (1.order)= 0.000E+00
 bond charge predicted
       N       E                     dE             d eps       ncg     rms          rms(c)
DAV:   1     0.216096976203E+03   -0.29104E-10   -0.91587E-11   198   0.185E-09    0.632E-09
RMM:   2     0.216096976202E+03   -0.56752E-09    0.36235-111     1   0.142E-09
 145 F= 0.21609698E+03 E0= 0.21612354E+03  d E =-.422006E-09
quench:  g(F)=  0.000E+00 g(S)=  0.000E+00 dE (1.order)= 0.000E+00
 bond charge predicted
       N       E                     dE             d eps       ncg     rms          rms(c)
DAV:   1     0.216096976203E+03   -0.13097E-09    0.60254E-11   198   0.193E-09    0.386E-09
RMM:   2     0.216096976202E+03   -0.87311E-10    0.29914-111     1   0.134E-09
 146 F= 0.21609698E+03 E0= 0.21612354E+03  d E =0.349246E-09
quench:  g(F)=  0.000E+00 g(S)=  0.000E+00 dE (1.order)= 0.000E+00
 bond charge predicted
       N       E                     dE             d eps       ncg     rms          rms(c)
DAV:   1     0.216096976203E+03    0.43656E-09   -0.96858E-11   198   0.168E-09    0.841E-09
RMM:   2     0.216096976202E+03   -0.72760E-09    0.34948-111     1   0.133E-09
 147 F= 0.21609698E+03 E0= 0.21612354E+03  d E =-.203727E-09
quench:  g(F)=  0.000E+00 g(S)=  0.000E+00 dE (1.order)= 0.000E+00
 bond charge predicted
       N       E                     dE             d eps       ncg     rms          rms(c)
DAV:   1     0.216096976202E+03   -0.13315E-08   -0.81161E-11   198   0.145E-09    0.602E-09
RMM:   2     0.216096976202E+03    0.25466E-09    0.25939-111     1   0.143E-09
 148 F= 0.21609698E+03 E0= 0.21612354E+03  d E =-.349246E-09
quench:  g(F)=  0.000E+00 g(S)=  0.000E+00 dE (1.order)= 0.000E+00
 bond charge predicted
       N       E                     dE             d eps       ncg     rms          rms(c)
DAV:   1     0.216096976202E+03    0.16735E-09   -0.69853E-11   198   0.152E-09    0.354E-09
RMM:   2     0.216096976203E+03    0.72032E-09    0.32056-111     1   0.111E-09
 149 F= 0.21609698E+03 E0= 0.21612354E+03  d E =0.633008E-09
quench:  g(F)=  0.000E+00 g(S)=  0.000E+00 dE (1.order)= 0.000E+00
 bond charge predicted
       N       E                     dE             d eps       ncg     rms          rms(c)
DAV:   1     0.216096976202E+03   -0.24011E-09   -0.56176E-12   198   0.141E-09    0.607E-09
RMM:   2     0.216096976202E+03    0.44383E-09    0.26663-111     1   0.140E-09
 150 F= 0.21609698E+03 E0= 0.21612354E+03  d E =-.516593E-09
quench:  g(F)=  0.000E+00 g(S)=  0.000E+00 dE (1.order)= 0.000E+00
 bond charge predicted
       N       E                     dE             d eps       ncg     rms          rms(c)
DAV:   1     0.216096976202E+03    0.58935E-09   -0.10763E-10   198   0.176E-09    0.406E-09
RMM:   2     0.216096976202E+03    0.27649E-09    0.31496-111     1   0.125E-09
 151 F= 0.21609698E+03 E0= 0.21612354E+03  d E =0.422006E-09
quench:  g(F)=  0.000E+00 g(S)=  0.000E+00 dE (1.order)= 0.000E+00
 bond charge predicted
       N       E                     dE             d eps       ncg     rms          rms(c)
DAV:   1     0.216096976203E+03    0.66939E-09   -0.16626E-10   198   0.158E-09    0.880E-09
RMM:   2     0.216096976202E+03   -0.45111E-09    0.26094-111     1   0.110E-09
 152 F= 0.21609698E+03 E0= 0.21612354E+03  d E =-.582077E-10
quench:  g(F)=  0.000E+00 g(S)=  0.000E+00 dE (1.order)= 0.000E+00
 bond charge predicted
       N       E                     dE             d eps       ncg     rms          rms(c)
DAV:   1     0.216096976203E+03   -0.26193E-09   -0.83532E-11   198   0.175E-09    0.487E-09
RMM:   2     0.216096976202E+03   -0.62573E-09    0.30486-111     1   0.138E-09
 153 F= 0.21609698E+03 E0= 0.21612354E+03  d E =-.436557E-09
quench:  g(F)=  0.000E+00 g(S)=  0.000E+00 dE (1.order)= 0.000E+00
 bond charge predicted
       N       E                     dE             d eps       ncg     rms          rms(c)
DAV:   1     0.216096976202E+03   -0.10623E-08   -0.26017E-10   198   0.182E-09    0.911E-09
RMM:   2     0.216096976202E+03    0.38563E-09    0.21429-111     1   0.114E-09
 154 F= 0.21609698E+03 E0= 0.21612354E+03  d E =-.509317E-10
quench:  g(F)=  0.000E+00 g(S)=  0.000E+00 dE (1.order)= 0.000E+00
 bond charge predicted
       N       E                     dE             d eps       ncg     rms          rms(c)
DAV:   1     0.216096976202E+03    0.90949E-09   -0.18388E-10   198   0.120E-09    0.604E-09
RMM:   2     0.216096976202E+03   -0.15280E-09    0.29198-111     1   0.100E-09
 155 F= 0.21609698E+03 E0= 0.21612354E+03  d E =0.371074E-09
quench:  g(F)=  0.000E+00 g(S)=  0.000E+00 dE (1.order)= 0.000E+00
 bond charge predicted
       N       E                     dE             d eps       ncg     rms          rms(c)
DAV:   1     0.216096976203E+03    0.46566E-09   -0.12142E-10   198   0.105E-09    0.292E-09
RMM:   2     0.216096976202E+03   -0.73487E-09    0.22943-111     1   0.129E-09
 156 F= 0.21609698E+03 E0= 0.21612354E+03  d E =-.116415E-09
quench:  g(F)=  0.000E+00 g(S)=  0.000E+00 dE (1.order)= 0.000E+00
 bond charge predicted
       N       E                     dE             d eps       ncg     rms          rms(c)
DAV:   1     0.216096976202E+03   -0.77853E-09   -0.28698E-10   198   0.117E-09    0.635E-09
RMM:   2     0.216096976202E+03   -0.58208E-10    0.25859-111     1   0.112E-09
 157 F= 0.21609698E+03 E0= 0.21612354E+03  d E =-.101863E-09
quench:  g(F)=  0.000E+00 g(S)=  0.000E+00 dE (1.order)= 0.000E+00
 bond charge predicted
       N       E                     dE             d eps       ncg     rms          rms(c)
DAV:   1     0.216096976203E+03    0.98953E-09   -0.13007E-10   198   0.171E-09    0.543E-09
RMM:   2     0.216096976202E+03   -0.93132E-09    0.23529-111     1   0.179E-09
 158 F= 0.21609698E+03 E0= 0.21612354E+03  d E =0.116415E-09
quench:  g(F)=  0.000E+00 g(S)=  0.000E+00 dE (1.order)= 0.000E+00
 bond charge predicted
       N       E                     dE             d eps       ncg     rms          rms(c)
DAV:   1     0.216096976203E+03   -0.54570E-09   -0.13550E-10   198   0.207E-09    0.854E-09
RMM:   2     0.216096976202E+03   -0.58208E-09    0.25454-111     1   0.174E-09
 159 F= 0.21609698E+03 E0= 0.21612354E+03  d E =-.196451E-09
quench:  g(F)=  0.000E+00 g(S)=  0.000E+00 dE (1.order)= 0.000E+00
 bond charge predicted
       N       E                     dE             d eps       ncg     rms          rms(c)
DAV:   1     0.216096976203E+03    0.34197E-09   -0.12084E-10   198   0.169E-09    0.992E-09
RMM:   2     0.216096976202E+03   -0.98953E-09    0.23345-111     1   0.118E-09
 160 F= 0.21609698E+03 E0= 0.21612354E+03  d E =-.654836E-10
quench:  g(F)=  0.000E+00 g(S)=  0.000E+00 dE (1.order)= 0.000E+00
 bond charge predicted
       N       E                     dE             d eps       ncg     rms          rms(c)
DAV:   1     0.216096976202E+03   -0.96770E-09   -0.23008E-10   198   0.156E-09    0.555E-09
RMM:   2     0.216096976202E+03    0.53114E-09    0.21210-111     1   0.136E-09
 161 F= 0.21609698E+03 E0= 0.21612354E+03  d E =0.552973E-09
quench:  g(F)=  0.000E+00 g(S)=  0.000E+00 dE (1.order)= 0.000E+00
 bond charge predicted
       N       E                     dE             d eps       ncg     rms          rms(c)
DAV:   1     0.216096976203E+03    0.65484E-09   -0.13746E-10   198   0.168E-09    0.424E-09
RMM:   2     0.216096976203E+03   -0.72760E-11    0.19546-111     1   0.129E-09
 162 F= 0.21609698E+03 E0= 0.21612354E+03  d E =0.116415E-09
quench:  g(F)=  0.000E+00 g(S)=  0.000E+00 dE (1.order)= 0.000E+00
 bond charge predicted
       N       E                     dE             d eps       ncg     rms          rms(c)
DAV:   1     0.216096976202E+03   -0.44383E-09   -0.82408E-11   198   0.167E-09    0.169E-08
RMM:   2     0.216096976202E+03    0.11642E-09    0.21048-111     1   0.127E-09
 163 F= 0.21609698E+03 E0= 0.21612354E+03  d E =-.320142E-09
quench:  g(F)=  0.000E+00 g(S)=  0.000E+00 dE (1.order)= 0.000E+00
 bond charge predicted
       N       E                     dE             d eps       ncg     rms          rms(c)
DAV:   1     0.216096976201E+03   -0.10041E-08   -0.10758E-10   198   0.320E-09    0.777E-09
RMM:   2     0.216096976202E+03    0.10405E-08    0.23670-111     1   0.201E-09
 164 F= 0.21609698E+03 E0= 0.21612354E+03  d E =-.800355E-10
quench:  g(F)=  0.000E+00 g(S)=  0.000E+00 dE (1.order)= 0.000E+00
 bond charge predicted
       N       E                     dE             d eps       ncg     rms          rms(c)
DAV:   1     0.216096976203E+03    0.15425E-08   -0.14720E-10   198   0.340E-09    0.442E-09
RMM:   2     0.216096976202E+03   -0.21828E-09    0.23048-111     1   0.133E-09
 165 F= 0.21609698E+03 E0= 0.21612354E+03  d E =0.283762E-09
quench:  g(F)=  0.000E+00 g(S)=  0.000E+00 dE (1.order)= 0.000E+00
 bond charge predicted
       N       E                     dE             d eps       ncg     rms          rms(c)
DAV:   1     0.216096976203E+03   -0.29104E-10   -0.15961E-10   198   0.149E-09    0.730E-09
RMM:   2     0.216096976202E+03   -0.76398E-09    0.20153-111     1   0.112E-09
 166 F= 0.21609698E+03 E0= 0.21612354E+03  d E =-.574801E-09
quench:  g(F)=  0.000E+00 g(S)=  0.000E+00 dE (1.order)= 0.000E+00
 bond charge predicted
       N       E                     dE             d eps       ncg     rms          rms(c)
DAV:   1     0.216096976202E+03   -0.65484E-09   -0.91548E-11   198   0.136E-09    0.701E-09
RMM:   2     0.216096976203E+03    0.49477E-09    0.17282-111     1   0.125E-09
 167 F= 0.21609698E+03 E0= 0.21612354E+03  d E =0.603904E-09
quench:  g(F)=  0.000E+00 g(S)=  0.000E+00 dE (1.order)= 0.000E+00
 bond charge predicted
       N       E                     dE             d eps       ncg     rms          rms(c)
DAV:   1     0.216096976202E+03   -0.26193E-09   -0.95906E-11   198   0.166E-09    0.812E-09
RMM:   2     0.216096976202E+03    0.58208E-09    0.16686-111     1   0.138E-09
 168 F= 0.21609698E+03 E0= 0.21612354E+03  d E =-.174623E-09
quench:  g(F)=  0.000E+00 g(S)=  0.000E+00 dE (1.order)= 0.000E+00
 bond charge predicted
       N       E                     dE             d eps       ncg     rms          rms(c)
DAV:   1     0.216096976203E+03    0.85856E-09   -0.16245E-10   198   0.190E-09    0.784E-09
RMM:   2     0.216096976202E+03   -0.69849E-09    0.18518-111     1   0.111E-09
 169 F= 0.21609698E+03 E0= 0.21612354E+03  d E =-.422006E-09
quench:  g(F)=  0.000E+00 g(S)=  0.000E+00 dE (1.order)= 0.000E+00
 bond charge predicted
       N       E                     dE             d eps       ncg     rms          rms(c)
DAV:   1     0.216096976203E+03    0.61846E-09   -0.11765E-10   198   0.174E-09    0.806E-09
RMM:   2     0.216096976202E+03   -0.10186E-08    0.19345-111     1   0.125E-09
 170 F= 0.21609698E+03 E0= 0.21612354E+03  d E =0.298314E-09
quench:  g(F)=  0.000E+00 g(S)=  0.000E+00 dE (1.order)= 0.000E+00
 bond charge predicted
       N       E                     dE             d eps       ncg     rms          rms(c)
DAV:   1     0.216096976202E+03   -0.11205E-08   -0.13943E-10   198   0.191E-09    0.549E-09
RMM:   2     0.216096976202E+03    0.31287E-09    0.22373-111     1   0.143E-09
 171 F= 0.21609698E+03 E0= 0.21612354E+03  d E =0.211003E-09
quench:  g(F)=  0.000E+00 g(S)=  0.000E+00 dE (1.order)= 0.000E+00
 bond charge predicted
       N       E                     dE             d eps       ncg     rms          rms(c)
DAV:   1     0.216096976202E+03   -0.22555E-09   -0.18790E-10   198   0.217E-09    0.136E-08
RMM:   2     0.216096976202E+03    0.22555E-09    0.13619-111     1   0.136E-09
 172 F= 0.21609698E+03 E0= 0.21612354E+03  d E =-.312866E-09
quench:  g(F)=  0.000E+00 g(S)=  0.000E+00 dE (1.order)= 0.000E+00
 bond charge predicted
       N       E                     dE             d eps       ncg     rms          rms(c)
DAV:   1     0.216096976202E+03    0.48749E-09   -0.14227E-10   198   0.230E-09    0.949E-09
RMM:   2     0.216096976202E+03   -0.32742E-09    0.21275-111     1   0.203E-09
 173 F= 0.21609698E+03 E0= 0.21612354E+03  d E =-.654836E-10
quench:  g(F)=  0.000E+00 g(S)=  0.000E+00 dE (1.order)= 0.000E+00
 bond charge predicted
       N       E                     dE             d eps       ncg     rms          rms(c)
DAV:   1     0.216096976203E+03    0.10841E-08   -0.18932E-10   198   0.280E-09    0.677E-09
RMM:   2     0.216096976202E+03   -0.15061E-08    0.12714-111     1   0.119E-09
 174 F= 0.21609698E+03 E0= 0.21612354E+03  d E =-.945874E-10
quench:  g(F)=  0.000E+00 g(S)=  0.000E+00 dE (1.order)= 0.000E+00
 bond charge predicted
       N       E                     dE             d eps       ncg     rms          rms(c)
DAV:   1     0.216096976202E+03   -0.15280E-08   -0.20566E-11   198   0.199E-09    0.645E-09
RMM:   2     0.216096976202E+03   -0.13097E-09    0.21779-111     1   0.162E-09
 175 F= 0.21609698E+03 E0= 0.21612354E+03  d E =-.152795E-09
quench:  g(F)=  0.000E+00 g(S)=  0.000E+00 dE (1.order)= 0.000E+00
 bond charge predicted
       N       E                     dE             d eps       ncg     rms          rms(c)
DAV:   1     0.216096976202E+03    0.10186E-09   -0.11882E-10   198   0.218E-09    0.853E-09
RMM:   2     0.216096976203E+03    0.65484E-09    0.10795-111     1   0.136E-09
 176 F= 0.21609698E+03 E0= 0.21612354E+03  d E =0.887667E-09
[...]
 bond charge predicted
       N       E                     dE             d eps       ncg     rms          rms(c)
DAV:   1     0.216096976202E+03    0.15280E-09   -0.11707E-10   198   0.174E-09    0.792E-09
RMM:   2     0.216096976202E+03    0.36380E-10    0.00000E+00     0   0.144E-09
 953 F= 0.21609698E+03 E0= 0.21612354E+03  d E =0.109139E-09
quench:  g(F)=  0.000E+00 g(S)=  0.000E+00 dE (1.order)= 0.000E+00
 bond charge predicted
       N       E                     dE             d eps       ncg     rms          rms(c)
DAV:   1     0.216096976202E+03    0.80036E-10   -0.25128E-10   198   0.228E-09    0.641E-09
RMM:   2     0.216096976202E+03    0.11642E-09    0.00000E+00     0   0.153E-09
 954 F= 0.21609698E+03 E0= 0.21612354E+03  d E =0.160071E-09
quench:  g(F)=  0.000E+00 g(S)=  0.000E+00 dE (1.order)= 0.000E+00
 bond charge predicted
       N       E                     dE             d eps       ncg     rms          rms(c)
DAV:   1     0.216096976202E+03   -0.42928E-09   -0.19470E-10   198   0.209E-09    0.485E-09
RMM:   2     0.216096976203E+03    0.59663E-09    0.00000E+00     0   0.110E-09
 955 F= 0.21609698E+03 E0= 0.21612354E+03  d E =0.509317E-10
quench:  g(F)=  0.000E+00 g(S)=  0.000E+00 dE (1.order)= 0.000E+00
 bond charge predicted
       N       E                     dE             d eps       ncg     rms          rms(c)
DAV:   1     0.216096976202E+03    0.10186E-09   -0.65422E-11   198   0.172E-09    0.743E-09
RMM:   2     0.216096976202E+03    0.32014E-09    0.00000E+00     0   0.139E-09
 956 F= 0.21609698E+03 E0= 0.21612354E+03  d E =-.174623E-09
quench:  g(F)=  0.000E+00 g(S)=  0.000E+00 dE (1.order)= 0.000E+00
 bond charge predicted
       N       E                     dE             d eps       ncg     rms          rms(c)
DAV:   1     0.216096976203E+03    0.64028E-09   -0.26784E-10   198   0.199E-09    0.380E-09
RMM:   2     0.216096976202E+03   -0.52387E-09    0.00000E+00     0   0.121E-09
 957 F= 0.21609698E+03 E0= 0.21612354E+03  d E =-.203727E-09
quench:  g(F)=  0.000E+00 g(S)=  0.000E+00 dE (1.order)= 0.000E+00
 bond charge predicted
       N       E                     dE             d eps       ncg     rms          rms(c)
DAV:   1     0.216096976202E+03   -0.10841E-08   -0.12393E-10   198   0.173E-09    0.514E-09
RMM:   2     0.216096976202E+03    0.37107E-09    0.00000E+00     0   0.151E-09
 958 F= 0.21609698E+03 E0= 0.21612354E+03  d E =-.189175E-09
quench:  g(F)=  0.000E+00 g(S)=  0.000E+00 dE (1.order)= 0.000E+00
 bond charge predicted
       N       E                     dE             d eps       ncg     rms          rms(c)
DAV:   1     0.216096976202E+03    0.82946E-09   -0.78614E-11   198   0.135E-09    0.585E-09
RMM:   2     0.216096976202E+03    0.65484E-10    0.00000E+00     0   0.108E-09
 959 F= 0.21609698E+03 E0= 0.21612354E+03  d E =0.523869E-09
quench:  g(F)=  0.000E+00 g(S)=  0.000E+00 dE (1.order)= 0.000E+00
 bond charge predicted
       N       E                     dE             d eps       ncg     rms          rms(c)
DAV:   1     0.216096976203E+03    0.31287E-09   -0.44818E-11   198   0.164E-09    0.154E-08
RMM:   2     0.216096976203E+03   -0.13097E-09    0.00000E+00     0   0.110E-09
 960 F= 0.21609698E+03 E0= 0.21612354E+03  d E =0.116415E-09
quench:  g(F)=  0.000E+00 g(S)=  0.000E+00 dE (1.order)= 0.000E+00
 bond charge predicted
       N       E                     dE             d eps       ncg     rms          rms(c)
DAV:   1     0.216096976203E+03    0.23283E-09   -0.18195E-10   198   0.338E-09    0.149E-08
RMM:   2     0.216096976202E+03   -0.46566E-09    0.00000E+00     0   0.173E-09
 961 F= 0.21609698E+03 E0= 0.21612354E+03  d E =-.101863E-09
quench:  g(F)=  0.000E+00 g(S)=  0.000E+00 dE (1.order)= 0.000E+00
 bond charge predicted
       N       E                     dE             d eps       ncg     rms          rms(c)
DAV:   1     0.216096976202E+03   -0.10332E-08   -0.28961E-10   198   0.354E-09    0.604E-09
RMM:   2     0.216096976202E+03    0.21828E-10    0.00000E+00     0   0.148E-09
 962 F= 0.21609698E+03 E0= 0.21612354E+03  d E =-.545697E-09
quench:  g(F)=  0.000E+00 g(S)=  0.000E+00 dE (1.order)= 0.000E+00
 bond charge predicted
       N       E                     dE             d eps       ncg     rms          rms(c)
DAV:   1     0.216096976202E+03   -0.14552E-10   -0.34081E-10   198   0.177E-09    0.443E-09
RMM:   2     0.216096976202E+03    0.29104E-10    0.00000E+00     0   0.133E-09
 963 F= 0.21609698E+03 E0= 0.21612354E+03  d E =-.727596E-11
quench:  g(F)=  0.000E+00 g(S)=  0.000E+00 dE (1.order)= 0.000E+00
 bond charge predicted
       N       E                     dE             d eps       ncg     rms          rms(c)
DAV:   1     0.216096976202E+03    0.19645E-09   -0.75808E-11   198   0.171E-09    0.678E-09
RMM:   2     0.216096976202E+03    0.22555E-09    0.00000E+00     0   0.142E-09
 964 F= 0.21609698E+03 E0= 0.21612354E+03  d E =0.392902E-09
quench:  g(F)=  0.000E+00 g(S)=  0.000E+00 dE (1.order)= 0.000E+00
 bond charge predicted
       N       E                     dE             d eps       ncg     rms          rms(c)
DAV:   1     0.216096976203E+03    0.79308E-09   -0.22252E-10   198   0.195E-09    0.158E-08
RMM:   2     0.216096976202E+03   -0.45839E-09    0.00000E+00     0   0.153E-09
 965 F= 0.21609698E+03 E0= 0.21612354E+03  d E =0.109139E-09
quench:  g(F)=  0.000E+00 g(S)=  0.000E+00 dE (1.order)= 0.000E+00
 bond charge predicted
       N       E                     dE             d eps       ncg     rms          rms(c)
DAV:   1     0.216096976202E+03   -0.94587E-09   -0.65093E-12   198   0.343E-09    0.609E-09
RMM:   2     0.216096976202E+03    0.40745E-09    0.00000E+00     0   0.187E-09
 966 F= 0.21609698E+03 E0= 0.21612354E+03  d E =-.800355E-10
quench:  g(F)=  0.000E+00 g(S)=  0.000E+00 dE (1.order)= 0.000E+00
 bond charge predicted
       N       E                     dE             d eps       ncg     rms          rms(c)
DAV:   1     0.216096976202E+03    0.38563E-09   -0.12189E-10   198   0.314E-09    0.875E-09
RMM:   2     0.216096976202E+03   -0.34197E-09    0.00000E+00     0   0.147E-09
 967 F= 0.21609698E+03 E0= 0.21612354E+03  d E =-.363798E-09
quench:  g(F)=  0.000E+00 g(S)=  0.000E+00 dE (1.order)= 0.000E+00
 bond charge predicted
       N       E                     dE             d eps       ncg     rms          rms(c)
DAV:   1     0.216096976202E+03   -0.16735E-09   -0.23668E-10   198   0.248E-09    0.124E-08
RMM:   2     0.216096976202E+03   -0.33469E-09    0.00000E+00     0   0.171E-09
 968 F= 0.21609698E+03 E0= 0.21612354E+03  d E =-.160071E-09
quench:  g(F)=  0.000E+00 g(S)=  0.000E+00 dE (1.order)= 0.000E+00
 bond charge predicted
       N       E                     dE             d eps       ncg     rms          rms(c)
DAV:   1     0.216096976202E+03    0.87311E-10   -0.29682E-10   198   0.287E-09    0.427E-09
RMM:   2     0.216096976202E+03   -0.34925E-09    0.00000E+00     0   0.125E-09
 969 F= 0.21609698E+03 E0= 0.21612354E+03  d E =0.727596E-10
quench:  g(F)=  0.000E+00 g(S)=  0.000E+00 dE (1.order)= 0.000E+00
 bond charge predicted
       N       E                     dE             d eps       ncg     rms          rms(c)
DAV:   1     0.216096976202E+03   -0.16007E-09   -0.28690E-11   198   0.184E-09    0.696E-09
RMM:   2     0.216096976202E+03   -0.29104E-10    0.00000E+00     0   0.134E-09
 970 F= 0.21609698E+03 E0= 0.21612354E+03  d E =0.160071E-09
quench:  g(F)=  0.000E+00 g(S)=  0.000E+00 dE (1.order)= 0.000E+00
 bond charge predicted
       N       E                     dE             d eps       ncg     rms          rms(c)
DAV:   1     0.216096976202E+03   -0.36380E-09   -0.13346E-10   198   0.125E-09    0.644E-09
RMM:   2     0.216096976202E+03    0.46566E-09    0.00000E+00     0   0.107E-09
 971 F= 0.21609698E+03 E0= 0.21612354E+03  d E =0.130967E-09
quench:  g(F)=  0.000E+00 g(S)=  0.000E+00 dE (1.order)= 0.000E+00
 bond charge predicted
       N       E                     dE             d eps       ncg     rms          rms(c)
DAV:   1     0.216096976202E+03    0.72760E-11   -0.89845E-11   198   0.149E-09    0.306E-09
RMM:   2     0.216096976202E+03    0.54570E-09    0.00000E+00     0   0.107E-09
 972 F= 0.21609698E+03 E0= 0.21612354E+03  d E =0.873115E-10
quench:  g(F)=  0.000E+00 g(S)=  0.000E+00 dE (1.order)= 0.000E+00
 bond charge predicted
       N       E                     dE             d eps       ncg     rms          rms(c)
DAV:   1     0.216096976202E+03   -0.16735E-09   -0.13644E-10   198   0.148E-09    0.259E-09
RMM:   2     0.216096976202E+03    0.24738E-09    0.00000E+00     0   0.111E-09
 973 F= 0.21609698E+03 E0= 0.21612354E+03  d E =-.465661E-09
quench:  g(F)=  0.000E+00 g(S)=  0.000E+00 dE (1.order)= 0.000E+00
 bond charge predicted
       N       E                     dE             d eps       ncg     rms          rms(c)
DAV:   1     0.216096976202E+03    0.81491E-09   -0.17532E-10   198   0.144E-09    0.670E-09
RMM:   2     0.216096976202E+03    0.87311E-10    0.00000E+00     0   0.140E-09
 974 F= 0.21609698E+03 E0= 0.21612354E+03  d E =0.654836E-09
quench:  g(F)=  0.000E+00 g(S)=  0.000E+00 dE (1.order)= 0.000E+00
 bond charge predicted
       N       E                     dE             d eps       ncg     rms          rms(c)
DAV:   1     0.216096976202E+03    0.21828E-10   -0.23856E-10   198   0.187E-09    0.415E-09
RMM:   2     0.216096976202E+03   -0.36380E-10    0.00000E+00     0   0.137E-09
 975 F= 0.21609698E+03 E0= 0.21612354E+03  d E =-.101863E-09
quench:  g(F)=  0.000E+00 g(S)=  0.000E+00 dE (1.order)= 0.000E+00
 bond charge predicted
       N       E                     dE             d eps       ncg     rms          rms(c)
DAV:   1     0.216096976202E+03   -0.65484E-10   -0.16520E-10   198   0.192E-09    0.624E-09
RMM:   2     0.216096976202E+03   -0.65484E-10    0.00000E+00     0   0.137E-09
 976 F= 0.21609698E+03 E0= 0.21612354E+03  d E =-.945874E-10
quench:  g(F)=  0.000E+00 g(S)=  0.000E+00 dE (1.order)= 0.000E+00
 bond charge predicted
       N       E                     dE             d eps       ncg     rms          rms(c)
DAV:   1     0.216096976203E+03    0.20373E-09   -0.17294E-10   198   0.164E-09    0.100E-08
RMM:   2     0.216096976202E+03   -0.18917E-09    0.00000E+00     0   0.118E-09
 977 F= 0.21609698E+03 E0= 0.21612354E+03  d E =0.800355E-10
quench:  g(F)=  0.000E+00 g(S)=  0.000E+00 dE (1.order)= 0.000E+00
 bond charge predicted
       N       E                     dE             d eps       ncg     rms          rms(c)
DAV:   1     0.216096976203E+03    0.68394E-09   -0.49119E-11   198   0.201E-09    0.115E-08
RMM:   2     0.216096976202E+03   -0.12078E-08    0.00000E+00     0   0.125E-09
 978 F= 0.21609698E+03 E0= 0.21612354E+03  d E =-.334694E-09
quench:  g(F)=  0.000E+00 g(S)=  0.000E+00 dE (1.order)= 0.000E+00
 bond charge predicted
       N       E                     dE             d eps       ncg     rms          rms(c)
DAV:   1     0.216096976203E+03   -0.45111E-09   -0.15024E-10   198   0.281E-09    0.600E-09
RMM:   2     0.216096976202E+03   -0.61118E-09    0.00000E+00     0   0.130E-09
 979 F= 0.21609698E+03 E0= 0.21612354E+03  d E =0.145519E-09
quench:  g(F)=  0.000E+00 g(S)=  0.000E+00 dE (1.order)= 0.000E+00
 bond charge predicted
       N       E                     dE             d eps       ncg     rms          rms(c)
DAV:   1     0.216096976202E+03   -0.11787E-08   -0.19362E-10   198   0.239E-09    0.708E-09
RMM:   2     0.216096976202E+03    0.29104E-09    0.00000E+00     0   0.140E-09
 980 F= 0.21609698E+03 E0= 0.21612354E+03  d E =-.276486E-09
quench:  g(F)=  0.000E+00 g(S)=  0.000E+00 dE (1.order)= 0.000E+00
 bond charge predicted
       N       E                     dE             d eps       ncg     rms          rms(c)
DAV:   1     0.216096976202E+03    0.14552E-09    0.29604E-11   198   0.213E-09    0.864E-09
RMM:   2     0.216096976202E+03    0.58208E-09    0.00000E+00     0   0.142E-09
 981 F= 0.21609698E+03 E0= 0.21612354E+03  d E =0.436557E-09
quench:  g(F)=  0.000E+00 g(S)=  0.000E+00 dE (1.order)= 0.000E+00
 bond charge predicted
       N       E                     dE             d eps       ncg     rms          rms(c)
DAV:   1     0.216096976202E+03    0.16735E-09   -0.22056E-10   198   0.260E-09    0.315E-09
RMM:   2     0.216096976203E+03    0.64028E-09    0.00000E+00     0   0.138E-09
 982 F= 0.21609698E+03 E0= 0.21612354E+03  d E =0.225555E-09
quench:  g(F)=  0.000E+00 g(S)=  0.000E+00 dE (1.order)= 0.000E+00
 bond charge predicted
       N       E                     dE             d eps       ncg     rms          rms(c)
DAV:   1     0.216096976202E+03   -0.18190E-09   -0.22537E-10   198   0.147E-09    0.135E-08
RMM:   2     0.216096976203E+03    0.82946E-09    0.00000E+00     0   0.100E-09
 983 F= 0.21609698E+03 E0= 0.21612354E+03  d E =0.727596E-11
quench:  g(F)=  0.000E+00 g(S)=  0.000E+00 dE (1.order)= 0.000E+00
 bond charge predicted
       N       E                     dE             d eps       ncg     rms          rms(c)
DAV:   1     0.216096976203E+03    0.14115E-08   -0.18326E-10   198   0.147E-09    0.109E-08
RMM:   2     0.216096976202E+03   -0.11350E-08    0.00000E+00     0   0.122E-09
 984 F= 0.21609698E+03 E0= 0.21612354E+03  d E =-.552973E-09
quench:  g(F)=  0.000E+00 g(S)=  0.000E+00 dE (1.order)= 0.000E+00
 bond charge predicted
       N       E                     dE             d eps       ncg     rms          rms(c)
DAV:   1     0.216096976202E+03   -0.14188E-08   -0.29067E-10   198   0.249E-09    0.554E-09
RMM:   2     0.216096976202E+03    0.46566E-09    0.00000E+00     0   0.149E-09
 985 F= 0.21609698E+03 E0= 0.21612354E+03  d E =0.181899E-09
quench:  g(F)=  0.000E+00 g(S)=  0.000E+00 dE (1.order)= 0.000E+00
 bond charge predicted
       N       E                     dE             d eps       ncg     rms          rms(c)
DAV:   1     0.216096976202E+03    0.63301E-09   -0.61489E-11   198   0.226E-09    0.369E-09
RMM:   2     0.216096976202E+03   -0.15280E-09    0.00000E+00     0   0.101E-09
 986 F= 0.21609698E+03 E0= 0.21612354E+03  d E =0.145519E-10
quench:  g(F)=  0.000E+00 g(S)=  0.000E+00 dE (1.order)= 0.000E+00
 bond charge predicted
       N       E                     dE             d eps       ncg     rms          rms(c)
DAV:   1     0.216096976201E+03   -0.91677E-09   -0.22366E-10   198   0.137E-09    0.149E-08
RMM:   2     0.216096976202E+03    0.85856E-09    0.00000E+00     0   0.121E-09
 987 F= 0.21609698E+03 E0= 0.21612354E+03  d E =0.945874E-10
quench:  g(F)=  0.000E+00 g(S)=  0.000E+00 dE (1.order)= 0.000E+00
 bond charge predicted
       N       E                     dE             d eps       ncg     rms          rms(c)
DAV:   1     0.216096976202E+03    0.88767E-09   -0.13786E-10   198   0.311E-09    0.116E-08
RMM:   2     0.216096976202E+03   -0.42201E-09    0.00000E+00     0   0.219E-09
 988 F= 0.21609698E+03 E0= 0.21612354E+03  d E =-.392902E-09
quench:  g(F)=  0.000E+00 g(S)=  0.000E+00 dE (1.order)= 0.000E+00
 bond charge predicted
       N       E                     dE             d eps       ncg     rms          rms(c)
DAV:   1     0.216096976202E+03   -0.72760E-10   -0.17797E-10   198   0.333E-09    0.324E-09
RMM:   2     0.216096976203E+03    0.32014E-09    0.00000E+00     0   0.128E-09
 989 F= 0.21609698E+03 E0= 0.21612354E+03  d E =0.669388E-09
quench:  g(F)=  0.000E+00 g(S)=  0.000E+00 dE (1.order)= 0.000E+00
 bond charge predicted
       N       E                     dE             d eps       ncg     rms          rms(c)
DAV:   1     0.216096976202E+03   -0.21828E-09   -0.15716E-11   198   0.131E-09    0.394E-09
RMM:   2     0.216096976202E+03    0.46566E-09    0.00000E+00     0   0.123E-09
 990 F= 0.21609698E+03 E0= 0.21612354E+03  d E =-.727596E-10
quench:  g(F)=  0.000E+00 g(S)=  0.000E+00 dE (1.order)= 0.000E+00
 bond charge predicted
       N       E                     dE             d eps       ncg     rms          rms(c)
DAV:   1     0.216096976202E+03   -0.72760E-10   -0.16874E-10   198   0.128E-09    0.606E-09
RMM:   2     0.216096976202E+03    0.37835E-09    0.00000E+00     0   0.106E-09
 991 F= 0.21609698E+03 E0= 0.21612354E+03  d E =-.160071E-09
quench:  g(F)=  0.000E+00 g(S)=  0.000E+00 dE (1.order)= 0.000E+00
 bond charge predicted
       N       E                     dE             d eps       ncg     rms          rms(c)
DAV:   1     0.216096976202E+03    0.18917E-09   -0.23118E-10   198   0.153E-09    0.331E-09
RMM:   2     0.216096976202E+03    0.00000E+00    0.00000E+00     0   0.922E-10
 992 F= 0.21609698E+03 E0= 0.21612354E+03  d E =-.189175E-09
quench:  g(F)=  0.000E+00 g(S)=  0.000E+00 dE (1.order)= 0.000E+00
 bond charge predicted
       N       E                     dE             d eps       ncg     rms          rms(c)
DAV:   1     0.216096976202E+03    0.24011E-09   -0.93964E-11   198   0.146E-09    0.892E-09
RMM:   2     0.216096976202E+03    0.36380E-10    0.00000E+00     0   0.106E-09
 993 F= 0.21609698E+03 E0= 0.21612354E+03  d E =0.276486E-09
quench:  g(F)=  0.000E+00 g(S)=  0.000E+00 dE (1.order)= 0.000E+00
 bond charge predicted
       N       E                     dE             d eps       ncg     rms          rms(c)
DAV:   1     0.216096976202E+03   -0.42928E-09   -0.16275E-10   198   0.144E-09    0.426E-09
RMM:   2     0.216096976202E+03    0.29104E-09    0.00000E+00     0   0.105E-09
 994 F= 0.21609698E+03 E0= 0.21612354E+03  d E =-.174623E-09
quench:  g(F)=  0.000E+00 g(S)=  0.000E+00 dE (1.order)= 0.000E+00
 bond charge predicted
       N       E                     dE             d eps       ncg     rms          rms(c)
DAV:   1     0.216096976202E+03    0.44383E-09   -0.16156E-10   198   0.164E-09    0.154E-08
RMM:   2     0.216096976203E+03    0.10186E-09    0.00000E+00     0   0.108E-09
 995 F= 0.21609698E+03 E0= 0.21612354E+03  d E =0.254659E-09
quench:  g(F)=  0.000E+00 g(S)=  0.000E+00 dE (1.order)= 0.000E+00
 bond charge predicted
       N       E                     dE             d eps       ncg     rms          rms(c)
DAV:   1     0.216096976203E+03    0.27649E-09   -0.10076E-10   198   0.167E-09    0.785E-09
RMM:   2     0.216096976203E+03   -0.65484E-10    0.00000E+00     0   0.145E-09
 996 F= 0.21609698E+03 E0= 0.21612354E+03  d E =0.109139E-09
quench:  g(F)=  0.000E+00 g(S)=  0.000E+00 dE (1.order)= 0.000E+00
 bond charge predicted
       N       E                     dE             d eps       ncg     rms          rms(c)
DAV:   1     0.216096976201E+03   -0.13533E-08   -0.12716E-10   198   0.218E-09    0.492E-09
RMM:   2     0.216096976203E+03    0.12878E-08    0.00000E+00     0   0.110E-09
 997 F= 0.21609698E+03 E0= 0.21612354E+03  d E =0.000000E+00
quench:  g(F)=  0.000E+00 g(S)=  0.000E+00 dE (1.order)= 0.000E+00
 bond charge predicted
       N       E                     dE             d eps       ncg     rms          rms(c)
DAV:   1     0.216096976202E+03    0.52387E-09   -0.60692E-11   198   0.155E-09    0.444E-09
RMM:   2     0.216096976202E+03    0.63301E-09    0.00000E+00     0   0.105E-09
 998 F= 0.21609698E+03 E0= 0.21612354E+03  d E =-.130967E-09
quench:  g(F)=  0.000E+00 g(S)=  0.000E+00 dE (1.order)= 0.000E+00
 bond charge predicted
       N       E                     dE             d eps       ncg     rms          rms(c)
DAV:   1     0.216096976202E+03    0.38563E-09   -0.30425E-10   198   0.154E-09    0.145E-08
RMM:   2     0.216096976202E+03   -0.24738E-09    0.00000E+00     0   0.962E-10
 999 F= 0.21609698E+03 E0= 0.21612354E+03  d E =-.494765E-09
quench:  g(F)=  0.000E+00 g(S)=  0.000E+00 dE (1.order)= 0.000E+00
 bond charge predicted
       N       E                     dE             d eps       ncg     rms          rms(c)
DAV:   1     0.216096976201E+03   -0.10768E-08   -0.32061E-11   198   0.162E-09    0.148E-08
RMM:   2     0.216096976202E+03    0.11423E-08    0.00000E+00     0   0.150E-09
1000 F= 0.21609698E+03 E0= 0.21612354E+03  d E =0.312866E-09
quench:  g(F)=  0.000E+00 g(S)=  0.000E+00 dE (1.order)= 0.000E+00
