  30  30   0   0
  0.2438108E+02  0.6744252E-09  0.6744252E-09  0.1768500E-08  0.5000000E-15
   1.0000000000000000E-004
  CAR 
 unknown system                          
     11.77639431    -22.00176442  301      2.44517796      1.00000000
    -22.002  0.0000E+00  0.0000E+00
    -21.889  0.0000E+00  0.0000E+00
    -21.777  0.0000E+00  0.0000E+00
    -21.664  0.0000E+00  0.0000E+00
    -21.551  0.0000E+00  0.0000E+00
    -21.439  0.0000E+00  0.0000E+00
    -21.326  0.0000E+00  0.0000E+00
    -21.214  0.0000E+00  0.0000E+00
    -21.101  0.0000E+00  0.0000E+00
    -20.988  0.0000E+00  0.0000E+00
    -20.876  0.0000E+00  0.0000E+00
    -20.763  0.0000E+00  0.0000E+00
    -20.651  0.6636E-07  0.7472E-08
    -20.538  0.1684E-01  0.1896E-02
    -20.425  0.1358E+01  0.1548E+00
    -20.313  0.7555E+00  0.2399E+00
    -20.200  0.1350E-02  0.2400E+00
    -20.088  0.3811E+00  0.2829E+00
    -19.975  0.1658E+01  0.4696E+00
    -19.862  0.9251E-01  0.4800E+00
    -19.750  0.2085E-05  0.4800E+00
    -19.637  0.3247E-14  0.4800E+00
    -19.525  0.0000E+00  0.4800E+00
    -19.412  0.0000E+00  0.4800E+00
    -19.300  0.0000E+00  0.4800E+00
    -19.187  0.0000E+00  0.4800E+00
    -19.074  0.0000E+00  0.4800E+00
    -18.962  0.2674E-11  0.4800E+00
    -18.849  0.7901E-04  0.4800E+00
    -18.737  0.3004E+00  0.5138E+00
    -18.624  0.3083E+01  0.8610E+00
    -18.511  0.1839E+01  0.1068E+01
    -18.399  0.1067E+00  0.1080E+01
    -18.286  0.1230E-04  0.1080E+01
    -18.174  0.1284E-12  0.1080E+01
    -18.061  0.0000E+00  0.1080E+01
    -17.948  0.0000E+00  0.1080E+01
    -17.836  0.0000E+00  0.1080E+01
    -17.723  0.0000E+00  0.1080E+01
    -17.611  0.0000E+00  0.1080E+01
    -17.498  0.0000E+00  0.1080E+01
    -17.385  0.0000E+00  0.1080E+01
    -17.273  0.0000E+00  0.1080E+01
    -17.160  0.0000E+00  0.1080E+01
    -17.048  0.0000E+00  0.1080E+01
    -16.935  0.0000E+00  0.1080E+01
    -16.822  0.0000E+00  0.1080E+01
    -16.710  0.0000E+00  0.1080E+01
    -16.597  0.0000E+00  0.1080E+01
    -16.485  0.0000E+00  0.1080E+01
    -16.372  0.0000E+00  0.1080E+01
    -16.259  0.0000E+00  0.1080E+01
    -16.147  0.0000E+00  0.1080E+01
    -16.034  0.0000E+00  0.1080E+01
    -15.922  0.0000E+00  0.1080E+01
    -15.809  0.0000E+00  0.1080E+01
    -15.697  0.0000E+00  0.1080E+01
    -15.584  0.0000E+00  0.1080E+01
    -15.471  0.0000E+00  0.1080E+01
    -15.359  0.0000E+00  0.1080E+01
    -15.246  0.0000E+00  0.1080E+01
    -15.134  0.0000E+00  0.1080E+01
    -15.021  0.0000E+00  0.1080E+01
    -14.908  0.0000E+00  0.1080E+01
    -14.796  0.0000E+00  0.1080E+01
    -14.683  0.0000E+00  0.1080E+01
    -14.571  0.0000E+00  0.1080E+01
    -14.458  0.0000E+00  0.1080E+01
    -14.345  0.0000E+00  0.1080E+01
    -14.233  0.0000E+00  0.1080E+01
    -14.120  0.0000E+00  0.1080E+01
    -14.008  0.0000E+00  0.1080E+01
    -13.895  0.0000E+00  0.1080E+01
    -13.782  0.0000E+00  0.1080E+01
    -13.670  0.0000E+00  0.1080E+01
    -13.557  0.0000E+00  0.1080E+01
    -13.445  0.0000E+00  0.1080E+01
    -13.332  0.0000E+00  0.1080E+01
    -13.219  0.0000E+00  0.1080E+01
    -13.107  0.0000E+00  0.1080E+01
    -12.994  0.0000E+00  0.1080E+01
    -12.882  0.0000E+00  0.1080E+01
    -12.769  0.0000E+00  0.1080E+01
    -12.656  0.0000E+00  0.1080E+01
    -12.544  0.0000E+00  0.1080E+01
    -12.431  0.0000E+00  0.1080E+01
    -12.319  0.0000E+00  0.1080E+01
    -12.206  0.0000E+00  0.1080E+01
    -12.094  0.0000E+00  0.1080E+01
    -11.981  0.0000E+00  0.1080E+01
    -11.868  0.0000E+00  0.1080E+01
    -11.756  0.0000E+00  0.1080E+01
    -11.643  0.0000E+00  0.1080E+01
    -11.531  0.0000E+00  0.1080E+01
    -11.418  0.0000E+00  0.1080E+01
    -11.305  0.0000E+00  0.1080E+01
    -11.193  0.0000E+00  0.1080E+01
    -11.080  0.0000E+00  0.1080E+01
    -10.968  0.0000E+00  0.1080E+01
    -10.855  0.0000E+00  0.1080E+01
    -10.742  0.6337E-09  0.1080E+01
    -10.630  0.2594E-03  0.1080E+01
    -10.517  0.1748E-01  0.1082E+01
    -10.405  0.8313E-01  0.1091E+01
    -10.292  0.6753E-01  0.1099E+01
    -10.179  0.1415E+00  0.1115E+01
    -10.067  0.4275E-01  0.1120E+01
     -9.954  0.9966E-01  0.1131E+01
     -9.842  0.8000E-01  0.1140E+01
     -9.729  0.2777E-01  0.1143E+01
     -9.616  0.1444E+00  0.1159E+01
     -9.504  0.6128E-01  0.1166E+01
     -9.391  0.1204E+00  0.1180E+01
     -9.279  0.7608E-01  0.1188E+01
     -9.166  0.7980E-01  0.1197E+01
     -9.053  0.3149E+00  0.1233E+01
     -8.941  0.2252E+00  0.1258E+01
     -8.828  0.1849E+00  0.1279E+01
     -8.716  0.2103E+00  0.1303E+01
     -8.603  0.2335E+00  0.1329E+01
     -8.491  0.3562E+00  0.1369E+01
     -8.378  0.2616E+00  0.1398E+01
     -8.265  0.1340E-01  0.1400E+01
     -8.153  0.2023E-05  0.1400E+01
     -8.040  0.3038E-13  0.1400E+01
     -7.928  0.0000E+00  0.1400E+01
     -7.815  0.0000E+00  0.1400E+01
     -7.702  0.0000E+00  0.1400E+01
     -7.590  0.0000E+00  0.1400E+01
     -7.477  0.0000E+00  0.1400E+01
     -7.365  0.0000E+00  0.1400E+01
     -7.252  0.0000E+00  0.1400E+01
     -7.139  0.0000E+00  0.1400E+01
     -7.027  0.0000E+00  0.1400E+01
     -6.914  0.0000E+00  0.1400E+01
     -6.802  0.0000E+00  0.1400E+01
     -6.689  0.0000E+00  0.1400E+01
     -6.576  0.0000E+00  0.1400E+01
     -6.464  0.0000E+00  0.1400E+01
     -6.351  0.0000E+00  0.1400E+01
     -6.239  0.0000E+00  0.1400E+01
     -6.126  0.0000E+00  0.1400E+01
     -6.013  0.0000E+00  0.1400E+01
     -5.901  0.0000E+00  0.1400E+01
     -5.788  0.0000E+00  0.1400E+01
     -5.676  0.0000E+00  0.1400E+01
     -5.563  0.0000E+00  0.1400E+01
     -5.450  0.0000E+00  0.1400E+01
     -5.338  0.0000E+00  0.1400E+01
     -5.225  0.0000E+00  0.1400E+01
     -5.113  0.0000E+00  0.1400E+01
     -5.000  0.3527E-13  0.1400E+01
     -4.887  0.1642E-05  0.1400E+01
     -4.775  0.8194E-02  0.1401E+01
     -4.662  0.8351E-01  0.1410E+01
     -4.550  0.1227E-01  0.1412E+01
     -4.437  0.3353E-01  0.1415E+01
     -4.325  0.4547E-01  0.1421E+01
     -4.212  0.1042E+00  0.1432E+01
     -4.099  0.4348E-01  0.1437E+01
     -3.987  0.4181E-01  0.1442E+01
     -3.874  0.4257E-01  0.1447E+01
     -3.762  0.1021E+00  0.1458E+01
     -3.649  0.1717E-01  0.1460E+01
     -3.536  0.5995E-01  0.1467E+01
     -3.424  0.9533E-01  0.1478E+01
     -3.311  0.1280E+00  0.1492E+01
     -3.199  0.7079E-01  0.1500E+01
     -3.086  0.4824E-01  0.1505E+01
     -2.973  0.4017E-01  0.1510E+01
     -2.861  0.8812E-01  0.1520E+01
     -2.748  0.8160E-03  0.1520E+01
     -2.636  0.1139E-08  0.1520E+01
     -2.523  0.0000E+00  0.1520E+01
     -2.410  0.0000E+00  0.1520E+01
     -2.298  0.0000E+00  0.1520E+01
     -2.185  0.0000E+00  0.1520E+01
     -2.073  0.0000E+00  0.1520E+01
     -1.960  0.3081E-11  0.1520E+01
     -1.847  0.1859E-04  0.1520E+01
     -1.735  0.1045E-01  0.1521E+01
     -1.622  0.1101E-01  0.1522E+01
     -1.510  0.6945E-01  0.1530E+01
     -1.397  0.7067E-01  0.1538E+01
     -1.284  0.1871E+00  0.1559E+01
     -1.172  0.1646E+00  0.1578E+01
     -1.059  0.1217E+00  0.1591E+01
     -0.947  0.1989E+00  0.1614E+01
     -0.834  0.1012E+00  0.1625E+01
     -0.722  0.1846E+00  0.1646E+01
     -0.609  0.2486E+00  0.1674E+01
     -0.496  0.1413E+00  0.1690E+01
     -0.384  0.1157E+00  0.1703E+01
     -0.271  0.2118E+00  0.1727E+01
     -0.159  0.1421E+00  0.1743E+01
     -0.046  0.2364E+00  0.1769E+01
      0.067  0.2245E+00  0.1795E+01
      0.179  0.2121E+00  0.1819E+01
      0.292  0.1303E+00  0.1833E+01
      0.404  0.2086E+00  0.1857E+01
      0.517  0.1244E+00  0.1871E+01
      0.630  0.5156E-01  0.1877E+01
      0.742  0.1727E+00  0.1896E+01
      0.855  0.2300E+00  0.1922E+01
      0.967  0.2374E+00  0.1949E+01
      1.080  0.2937E+00  0.1982E+01
      1.193  0.3640E+00  0.2023E+01
      1.305  0.1793E+00  0.2043E+01
      1.418  0.3097E+00  0.2078E+01
      1.530  0.4036E+00  0.2123E+01
      1.643  0.3697E+00  0.2165E+01
      1.756  0.3477E+00  0.2204E+01
      1.868  0.3843E+00  0.2247E+01
      1.981  0.2603E+00  0.2277E+01
      2.093  0.4437E+00  0.2327E+01
      2.206  0.2519E+00  0.2355E+01
      2.319  0.4520E-01  0.2360E+01
      2.431  0.4248E-04  0.2360E+01
      2.544  0.4179E-11  0.2360E+01
      2.656  0.0000E+00  0.2360E+01
      2.769  0.0000E+00  0.2360E+01
      2.881  0.0000E+00  0.2360E+01
      2.994  0.0000E+00  0.2360E+01
      3.107  0.0000E+00  0.2360E+01
      3.219  0.0000E+00  0.2360E+01
      3.332  0.0000E+00  0.2360E+01
      3.444  0.0000E+00  0.2360E+01
      3.557  0.0000E+00  0.2360E+01
      3.670  0.8973E-10  0.2360E+01
      3.782  0.1026E-03  0.2360E+01
      3.895  0.1437E-01  0.2362E+01
      4.007  0.5265E-02  0.2362E+01
      4.120  0.6888E-04  0.2362E+01
      4.233  0.4103E-01  0.2367E+01
      4.345  0.7611E-01  0.2375E+01
      4.458  0.7396E-01  0.2384E+01
      4.570  0.1250E+00  0.2398E+01
      4.683  0.1367E+00  0.2413E+01
      4.796  0.9276E-01  0.2424E+01
      4.908  0.1169E+00  0.2437E+01
      5.021  0.1781E+00  0.2457E+01
      5.133  0.1660E+00  0.2476E+01
      5.246  0.1985E-01  0.2478E+01
      5.359  0.1642E-01  0.2480E+01
      5.471  0.3018E-02  0.2480E+01
      5.584  0.2537E-06  0.2480E+01
      5.696  0.1416E-14  0.2480E+01
      5.809  0.0000E+00  0.2480E+01
      5.922  0.4183E-10  0.2480E+01
      6.034  0.7052E-04  0.2480E+01
      6.147  0.1354E-01  0.2482E+01
      6.259  0.1092E-01  0.2483E+01
      6.372  0.1741E+00  0.2502E+01
      6.484  0.1533E+00  0.2520E+01
      6.597  0.9950E-01  0.2531E+01
      6.710  0.1669E+00  0.2550E+01
      6.822  0.2150E+00  0.2574E+01
      6.935  0.1995E+00  0.2596E+01
      7.047  0.1876E+00  0.2617E+01
      7.160  0.1780E+00  0.2637E+01
      7.273  0.2658E+00  0.2667E+01
      7.385  0.1389E+00  0.2683E+01
      7.498  0.5099E-01  0.2689E+01
      7.610  0.2398E+00  0.2716E+01
      7.723  0.2673E+00  0.2746E+01
      7.836  0.2325E+00  0.2772E+01
      7.948  0.2464E+00  0.2800E+01
      8.061  0.1251E+00  0.2814E+01
      8.173  0.2355E+00  0.2840E+01
      8.286  0.2148E+00  0.2865E+01
      8.399  0.8996E-01  0.2875E+01
      8.511  0.1442E+00  0.2891E+01
      8.624  0.2033E+00  0.2914E+01
      8.736  0.1371E+00  0.2929E+01
      8.849  0.1560E+00  0.2947E+01
      8.962  0.1441E+00  0.2963E+01
      9.074  0.2283E+00  0.2989E+01
      9.187  0.1437E+00  0.3005E+01
      9.299  0.9977E-01  0.3016E+01
      9.412  0.1994E+00  0.3039E+01
      9.525  0.7533E-01  0.3047E+01
      9.637  0.1992E+00  0.3070E+01
      9.750  0.1482E+00  0.3086E+01
      9.862  0.1869E+00  0.3107E+01
      9.975  0.2518E+00  0.3136E+01
     10.087  0.2377E+00  0.3162E+01
     10.200  0.2493E+00  0.3190E+01
     10.313  0.8435E-01  0.3200E+01
     10.425  0.5675E-03  0.3200E+01
     10.538  0.1913E-08  0.3200E+01
     10.650  0.0000E+00  0.3200E+01
     10.763  0.0000E+00  0.3200E+01
     10.876  0.0000E+00  0.3200E+01
     10.988  0.0000E+00  0.3200E+01
     11.101  0.0000E+00  0.3200E+01
     11.213  0.0000E+00  0.3200E+01
     11.326  0.0000E+00  0.3200E+01
     11.439  0.0000E+00  0.3200E+01
     11.551  0.0000E+00  0.3200E+01
     11.664  0.0000E+00  0.3200E+01
     11.776  0.0000E+00  0.3200E+01
