       N       E                     dE             d eps       ncg     rms          rms(c)
DAV:   1     0.221440386327E+04    0.22144E+04   -0.96961E+04  1312   0.144E+03
DAV:   2     0.186780804492E+03   -0.20276E+04   -0.19541E+04  1344   0.420E+02
DAV:   3    -0.113443498761E+03   -0.30022E+03   -0.29555E+03  1536   0.158E+02
DAV:   4    -0.128009294932E+03   -0.14566E+02   -0.14497E+02  1632   0.374E+01
DAV:   5    -0.128389328462E+03   -0.38003E+00   -0.37994E+00  1536   0.624E+00    0.221E+01
DAV:   6    -0.121966681643E+03    0.64226E+01   -0.10462E+01  1920   0.118E+01    0.166E+01
DAV:   7    -0.121667992211E+03    0.29869E+00   -0.53079E+00  1664   0.492E+00    0.515E+00
DAV:   8    -0.121617335378E+03    0.50657E-01   -0.67379E-01  1824   0.284E+00    0.211E+00
DAV:   9    -0.121630344881E+03   -0.13010E-01   -0.77524E-02  1664   0.757E-01    0.490E-01
DAV:  10    -0.121631282487E+03   -0.93761E-03   -0.62066E-03  2048   0.238E-01    0.275E-01
DAV:  11    -0.121634766448E+03   -0.34840E-02   -0.45956E-03  1536   0.161E-01    0.611E-02
DAV:  12    -0.121634944441E+03   -0.17799E-03   -0.24417E-04  1664   0.414E-02    0.624E-02
DAV:  13    -0.121634997348E+03   -0.52908E-04   -0.45063E-05  1408   0.149E-02    0.332E-02
DAV:  14    -0.121635076680E+03   -0.79332E-04   -0.92388E-05  1408   0.224E-02    0.196E-02
DAV:  15    -0.121635083680E+03   -0.70000E-05   -0.95568E-06  1312   0.727E-03
   1 F= -.12163508E+03 E0= -.12163508E+03  d E =-.121635E+03
       N       E                     dE             d eps       ncg     rms          rms(c)
DAV:   1    -0.123220850325E+03   -0.15858E+01   -0.39234E+01  1792   0.344E+01    0.799E+00
DAV:   2    -0.122056201803E+03    0.11646E+01   -0.22642E+00  1792   0.757E+00    0.359E+00
DAV:   3    -0.121728370104E+03    0.32783E+00   -0.82419E-01  1792   0.439E+00    0.101E+00
DAV:   4    -0.121716320810E+03    0.12049E-01   -0.48675E-02  1504   0.687E-01    0.588E-01
DAV:   5    -0.121709098068E+03    0.72227E-02   -0.55563E-03  1792   0.318E-01    0.196E-01
DAV:   6    -0.121708828248E+03    0.26982E-03   -0.95559E-04  1664   0.132E-01    0.606E-02
DAV:   7    -0.121708802535E+03    0.25713E-04   -0.67849E-05  1664   0.238E-02    0.282E-02
DAV:   8    -0.121708802428E+03    0.10672E-06   -0.10022E-05  1120   0.114E-02
   2 F= -.12170880E+03 E0= -.12170880E+03  d E =-.737187E-01
       N       E                     dE             d eps       ncg     rms          rms(c)
DAV:   1    -0.121858480828E+03   -0.14968E+00   -0.33605E+00  1792   0.955E+00    0.245E+00
DAV:   2    -0.121753873290E+03    0.10461E+00   -0.20678E-01  1792   0.230E+00    0.107E+00
DAV:   3    -0.121725751902E+03    0.28121E-01   -0.68793E-02  1792   0.127E+00    0.331E-01
DAV:   4    -0.121724698562E+03    0.10533E-02   -0.40694E-03  1632   0.200E-01    0.196E-01
DAV:   5    -0.121724179281E+03    0.51928E-03   -0.45788E-04  1920   0.955E-02    0.626E-02
DAV:   6    -0.121724185646E+03   -0.63646E-05   -0.82321E-05  1632   0.367E-02
   3 F= -.12172419E+03 E0= -.12172419E+03  d E =-.891020E-01
       N       E                     dE             d eps       ncg     rms          rms(c)
DAV:   1    -0.121724229559E+03   -0.50278E-04   -0.11163E-03  1792   0.176E-01    0.443E-02
DAV:   2    -0.121724189887E+03    0.39672E-04   -0.70328E-05  1600   0.424E-02    0.196E-02
DAV:   3    -0.121724180091E+03    0.97965E-05   -0.21966E-05  1312   0.245E-02
   4 F= -.12172418E+03 E0= -.12172418E+03  d E =-.890964E-01
       N       E                     dE             d eps       ncg     rms          rms(c)
DAV:   1    -0.121724200439E+03   -0.10552E-04   -0.40015E-04  1760   0.991E-02    0.289E-02
DAV:   2    -0.121724191683E+03    0.87566E-05   -0.21344E-05  1280   0.242E-02
   5 F= -.12172419E+03 E0= -.12172419E+03  d E =-.891080E-01
       N       E                     dE             d eps       ncg     rms          rms(c)
DAV:   1    -0.121724195545E+03    0.48945E-05   -0.71043E-05  1248   0.495E-02    0.142E-02
DAV:   2    -0.121724191705E+03    0.38399E-05   -0.98780E-06   928   0.176E-02
   6 F= -.12172419E+03 E0= -.12172419E+03  d E =-.891080E-01
       N       E                     dE             d eps       ncg     rms          rms(c)
DAV:   1    -0.121734554287E+03   -0.10359E-01   -0.59680E-01  1856   0.264E+00    0.635E-01
DAV:   2    -0.121730151153E+03    0.44031E-02   -0.27635E-02  1664   0.635E-01    0.277E-01
DAV:   3    -0.121728692149E+03    0.14590E-02   -0.29583E-03  1792   0.223E-01    0.138E-01
DAV:   4    -0.121728338645E+03    0.35350E-03   -0.61080E-04  2016   0.951E-02    0.612E-02
DAV:   5    -0.121728282188E+03    0.56457E-04   -0.86765E-05  2048   0.339E-02    0.158E-02
DAV:   6    -0.121728276182E+03    0.60052E-05   -0.82215E-06  1024   0.117E-02
   7 F= -.12172828E+03 E0= -.12172828E+03  d E =-.408448E-02
       N       E                     dE             d eps       ncg     rms          rms(c)
DAV:   1    -0.121732702701E+03   -0.44205E-02   -0.31501E-01  1856   0.191E+00    0.459E-01
DAV:   2    -0.121730398994E+03    0.23037E-02   -0.14549E-02  1664   0.460E-01    0.201E-01
DAV:   3    -0.121729635788E+03    0.76321E-03   -0.15578E-03  1792   0.161E-01    0.997E-02
DAV:   4    -0.121729446541E+03    0.18925E-03   -0.32153E-04  2016   0.688E-02    0.444E-02
DAV:   5    -0.121729412690E+03    0.33852E-04   -0.43985E-05  1568   0.246E-02    0.113E-02
DAV:   6    -0.121729408466E+03    0.42239E-05   -0.54281E-06  1024   0.922E-03
   8 F= -.12172941E+03 E0= -.12172941E+03  d E =-.521676E-02
       N       E                     dE             d eps       ncg     rms          rms(c)
DAV:   1    -0.121733958461E+03   -0.45458E-02   -0.50416E-01  1664   0.206E+00    0.443E-01
DAV:   2    -0.121733049468E+03    0.90899E-03   -0.24090E-02  1664   0.510E-01    0.197E-01
DAV:   3    -0.121732350300E+03    0.69917E-03   -0.15602E-03  1728   0.155E-01    0.107E-01
DAV:   4    -0.121732130173E+03    0.22013E-03   -0.41860E-04  1824   0.734E-02    0.505E-02
DAV:   5    -0.121732104645E+03    0.25528E-04   -0.78575E-05  1600   0.276E-02    0.182E-02
DAV:   6    -0.121732100503E+03    0.41420E-05   -0.50195E-06  1024   0.817E-03
   9 F= -.12173210E+03 E0= -.12173210E+03  d E =-.269204E-02
