 vasp.6.3.2 27Jun22 (build Mar 25 2024 10:42:18) complex                         
 executed on             LinuxGNU date 2024.03.31  08:50:54
 running on   32 total cores
 distrk:  each k-point on   32 cores,    1 groups
 distr:  one band on NCORE=   1 cores,   32 groups


--------------------------------------------------------------------------------------------------------


 INCAR:
   ISTART = 0
   ICHARG = 2
   PREC = Accurate
   IBRION = -1
   EDIFF = 0.000000001
   EDIFFG = -0.0005
   NSW = 0
   NELM = 100
   ENCUT = 520
   ISMEAR = -5
   SIGMA = 0.05
   ISPIN = 2
   ISYM = 0
   LWAVE = False
   LCHARG = False
   LASPH = True
   LORBIT = 11
   ADDGRID = TRUE

 POTCAR:    PAW_PBE S 06Sep2000                   
 -----------------------------------------------------------------------------
|                                                                             |
|           W    W    AA    RRRRR   N    N  II  N    N   GGGG   !!!           |
|           W    W   A  A   R    R  NN   N  II  NN   N  G    G  !!!           |
|           W    W  A    A  R    R  N N  N  II  N N  N  G       !!!           |
|           W WW W  AAAAAA  RRRRR   N  N N  II  N  N N  G  GGG   !            |
|           WW  WW  A    A  R   R   N   NN  II  N   NN  G    G                |
|           W    W  A    A  R    R  N    N  II  N    N   GGGG   !!!           |
|                                                                             |
|     You use a magnetic or noncollinear calculation, but did not specify     |
|     the initial magnetic moment with the MAGMOM tag. Note that a            |
|     default of 1 will be used for all atoms. This ferromagnetic setup       |
|     may break the symmetry of the crystal, in particular it may rule        |
|     out finding an antiferromagnetic solution. Thence, we recommend         |
|     setting the initial magnetic moment manually or verifying carefully     |
|     that this magnetic setup is desired.                                    |
|                                                                             |
 -----------------------------------------------------------------------------

 -----------------------------------------------------------------------------
|                                                                             |
|           W    W    AA    RRRRR   N    N  II  N    N   GGGG   !!!           |
|           W    W   A  A   R    R  NN   N  II  NN   N  G    G  !!!           |
|           W    W  A    A  R    R  N N  N  II  N N  N  G       !!!           |
|           W WW W  AAAAAA  RRRRR   N  N N  II  N  N N  G  GGG   !            |
|           WW  WW  A    A  R   R   N   NN  II  N   NN  G    G                |
|           W    W  A    A  R    R  N    N  II  N    N   GGGG   !!!           |
|                                                                             |
|     For optimal performance we recommend to set                             |
|       NCORE = 2 up to number-of-cores-per-socket                            |
|     NCORE specifies how many cores store one orbital (NPAR=cpu/NCORE).      |
|     This setting can greatly improve the performance of VASP for DFT.       |
|     The default, NCORE=1 might be grossly inefficient on modern             |
|     multi-core architectures or massively parallel machines. Do your        |
|     own testing! More info at https://www.vasp.at/wiki/index.php/NCORE      |
|     Unfortunately you need to use the default for GW and RPA                |
|     calculations (for HF NCORE is supported but not extensively tested      |
|     yet).                                                                   |
|                                                                             |
 -----------------------------------------------------------------------------

 POTCAR:    PAW_PBE S 06Sep2000                   
   SHA256 =  0fc7481fb0695f01bdc6462160264c5c84044ae9ec85a907d398b887a2bc3132 S/POTCAR              
   COPYR  = (c) Copyright 06Sep2000 Georg Kresse                                                    
   COPYR  = This file is part of the software VASP. Any use, copying, and all other rights are regul
   COPYR  = If you do not have a valid VASP license, you may not use, copy or distribute this file. 
   VRHFIN =S : s2p4                                                                                 
   LEXCH  = PE                                                                                      
   EATOM  =   276.8230 eV,   20.3459 Ry                                                             
                                                                                                    
   TITEL  = PAW_PBE S 06Sep2000                                                                     
   LULTRA =        F    use ultrasoft PP ?                                                          
   IUNSCR =        1    unscreen: 0-lin 1-nonlin 2-no                                               
   RPACOR =    1.500    partial core radius                                                         
   POMASS =   32.066; ZVAL   =    6.000    mass and valenz                                          
   RCORE  =    1.900    outmost cutoff radius                                                       
   RWIGS  =    2.200; RWIGS  =    1.164    wigner-seitz radius (au A)                               
   ENMAX  =  258.689; ENMIN  =  194.016 eV                                                          
   ICORE  =        2    local potential                                                             
   LCOR   =        T    correct aug charges                                                         
   LPAW   =        T    paw PP                                                                      
   EAUG   =  335.092                                                                                
   DEXC   =    0.000                                                                                
   RMAX   =    1.942    core radius for proj-oper                                                   
   RAUG   =    1.300    factor for augmentation sphere                                              
   RDEP   =    1.954    radius for radial grids                                                     
   RDEPT  =    1.744    core radius for aug-charge                                                  
                                                                                                    
   Atomic configuration                                                                             
    6 entries                                                                                       
     n  l   j            E        occ.                                                              
     1  0  0.50     -2405.8406   2.0000                                                             
     2  0  0.50      -211.7007   2.0000                                                             
     2  1  1.50      -156.4958   6.0000                                                             
     3  0  0.50       -17.2562   2.0000                                                             
     3  1  0.50        -7.0085   4.0000                                                             
     3  2  1.50        -6.8029   0.0000                                                             
   Description                                                                                      
     l       E           TYP  RCUT    TYP  RCUT                                                     
     0    -17.2561641     23  1.900                                                                 
     0    -15.8743224     23  1.900                                                                 
     1     -7.0085400     23  1.900                                                                 
     1     -2.7779785     23  1.900                                                                 
     2     -6.8029130     23  1.900                                                                 
  local pseudopotential read in
  partial core-charges read in
  partial kinetic energy density read in
  atomic valenz-charges read in
  non local Contribution for L=           0  read in
    real space projection operators read in
  non local Contribution for L=           0  read in
    real space projection operators read in
  non local Contribution for L=           1  read in
    real space projection operators read in
  non local Contribution for L=           1  read in
    real space projection operators read in
    PAW grid and wavefunctions read in

   number of l-projection  operators is LMAX  =           4
   number of lm-projection operators is LMMAX =           8

 -----------------------------------------------------------------------------
|                                                                             |
|               ----> ADVICE to this user running VASP <----                  |
|                                                                             |
|     You have a (more or less) 'large supercell' and for larger cells it     |
|     might be more efficient to use real-space projection operators.         |
|     Therefore, try LREAL= Auto in the INCAR file.                           |
|     Mind: For very accurate calculation, you might also keep the            |
|     reciprocal projection scheme (i.e. LREAL=.FALSE.).                      |
|                                                                             |
 -----------------------------------------------------------------------------

  PAW_PBE S 06Sep2000                   :
 energy of atom  1       EATOM= -276.8230
 kinetic energy error for atom=    0.0016 (will be added to EATOM!!)


 POSCAR: generated by phonopy
  positions in direct lattice
  No initial velocities read in
 exchange correlation table for  LEXCH =        8
   RHO(1)=    0.500       N(1)  =     2000
   RHO(2)=  100.500       N(2)  =     4000



--------------------------------------------------------------------------------------------------------


 ion  position               nearest neighbor table
   1  0.887  0.467  0.678-  45 1.99  24 2.14
   2  0.886  0.967  0.678-  46 1.98  23 2.13
   3  0.330  0.189  0.551-  41 2.05  19 2.13
   4  0.330  0.689  0.551-  42 2.05  20 2.13
   5  0.913  0.105  0.912-  51 1.98  11 2.13
   6  0.913  0.605  0.912-  52 1.98  12 2.13
   7  0.240  0.301  0.777-  19 1.98  37 2.23
   8  0.240  0.801  0.777-  20 1.98  38 2.23
   9  0.144  0.306  0.224-  31 2.05  39 2.13
  10  0.144  0.806  0.224-  32 2.05  40 2.13
  11  0.856  0.194  0.776-  47 2.05   5 2.13
  12  0.856  0.694  0.776-  48 2.05   6 2.13
  13  0.760  0.199  0.223-  27 1.98  33 2.23
  14  0.760  0.699  0.223-  28 1.98  34 2.23
  15  0.170  0.439  0.449-  31 2.05  30 2.13
  16  0.170  0.939  0.449-  32 2.05  29 2.13
  17  0.413  0.145  0.912-  37 1.98  43 2.13
  18  0.413  0.645  0.912-  38 1.98  44 2.13
  19  0.386  0.283  0.678-   7 1.98   3 2.13
  20  0.386  0.783  0.678-   8 1.98   4 2.13
  21  0.644  0.444  0.224-  53 2.05  35 2.13
  22  0.644  0.944  0.224-  54 2.05  36 2.13
  23  0.830  0.061  0.551-  47 2.05   2 2.13
  24  0.830  0.561  0.551-  48 2.05   1 2.14
  25  0.260  0.051  0.223-  29 1.98  50 2.23
  26  0.260  0.551  0.223-  30 1.98  49 2.23
  27  0.614  0.217  0.322-  13 1.98  55 2.13
  28  0.614  0.717  0.322-  14 1.98  56 2.13
  29  0.114  0.033  0.322-  25 1.98  16 2.13
  30  0.114  0.533  0.322-  26 1.98  15 2.13
  31  0.060  0.345  0.374-   9 2.05  15 2.05
  32  0.060  0.845  0.374-  10 2.05  16 2.05
  33  0.743  0.289  0.071-  35 1.98  13 2.23
  34  0.743  0.789  0.071-  36 1.98  14 2.23
  35  0.587  0.355  0.088-  33 1.98  21 2.13
  36  0.587  0.855  0.088-  34 1.98  22 2.13
  37  0.257  0.211  0.929-  17 1.98   7 2.23
  38  0.257  0.711  0.929-  18 1.98   8 2.23
  39  0.087  0.395  0.088-  49 1.98   9 2.13
  40  0.087  0.895  0.088-  50 1.98  10 2.13
  41  0.440  0.095  0.626-  43 2.05   3 2.05
  42  0.440  0.595  0.626-  44 2.05   4 2.05
  43  0.356  0.056  0.776-  41 2.05  17 2.13
  44  0.356  0.556  0.776-  42 2.05  18 2.13
  45  0.740  0.449  0.777-   1 1.99  52 2.23
  46  0.740  0.949  0.777-   2 1.98  51 2.23
  47  0.940  0.155  0.626-  11 2.05  23 2.05
  48  0.940  0.655  0.626-  12 2.05  24 2.05
  49  0.243  0.461  0.071-  39 1.98  26 2.23
  50  0.243  0.961  0.071-  40 1.98  25 2.23
  51  0.757  0.039  0.929-   5 1.98  46 2.23
  52  0.757  0.539  0.929-   6 1.98  45 2.23
  53  0.560  0.405  0.374-  21 2.05  55 2.05
  54  0.560  0.905  0.374-  22 2.05  56 2.05
  55  0.670  0.311  0.449-  53 2.05  27 2.13
  56  0.670  0.811  0.449-  54 2.05  28 2.13


IMPORTANT INFORMATION: All symmetrisations will be switched off!
NOSYMM: (Re-)initialisation of all symmetry stuff for point group C_1.


----------------------------------------------------------------------------------------

                                     Primitive cell                                     

  volume of cell :    1863.6770

  direct lattice vectors                    reciprocal lattice vectors
     0.000000000 10.307367086 -0.372855731     0.000000000  0.096453423 -0.015606996
    16.788494411  0.000000000  0.000000000     0.059564603  0.000000000  0.000000000
     0.000000000 -1.732519801-10.707215182     0.000000000 -0.003358783 -0.092851486

  length of vectors
    10.314108670 16.788494411 10.846477853     0.097707938  0.059564603  0.092912216

  position of ions in fractional coordinates (direct lattice)
     0.887392687  0.467004751  0.678126386
     0.886423141  0.967004751  0.678126386
     0.329563264  0.188743823  0.550707721
     0.329563264  0.688743823  0.550707721
     0.912671285  0.105241885  0.911960471
     0.912671285  0.605241885  0.911960471
     0.239736405  0.300831047  0.776574189
     0.239736405  0.800831047  0.776574189
     0.144417516  0.305688762  0.224396680
     0.144417516  0.805688762  0.224396680
     0.855582484  0.194311238  0.775603320
     0.855582484  0.694311238  0.775603320
     0.760263595  0.199168953  0.223425811
     0.760263595  0.699168953  0.223425811
     0.170436736  0.438743823  0.449292279
     0.170436736  0.938743823  0.449292279
     0.412671285  0.144758115  0.911960471
     0.412671285  0.644758115  0.911960471
     0.386423141  0.282995249  0.678126386
     0.386423141  0.782995249  0.678126386
     0.644417516  0.444311238  0.224396680
     0.644417516  0.944311238  0.224396680
     0.829563264  0.061256177  0.550707721
     0.829563264  0.561256177  0.550707721
     0.260263595  0.050831047  0.223425811
     0.260263595  0.550831047  0.223425811
     0.613576859  0.217004751  0.321873614
     0.613576859  0.717004751  0.321873614
     0.113576859  0.032995249  0.321873614
     0.113576859  0.532995249  0.321873614
     0.059895700  0.345087734  0.374484367
     0.059895700  0.845087734  0.374484367
     0.743425210  0.289344343  0.071165234
     0.743425210  0.789344343  0.071165234
     0.587328715  0.355241885  0.088039529
     0.587328715  0.855241885  0.088039529
     0.256574790  0.210655657  0.928834766
     0.256574790  0.710655657  0.928834766
     0.087328715  0.394758115  0.088039529
     0.087328715  0.894758115  0.088039529
     0.440104300  0.095087734  0.625515633
     0.440104300  0.595087734  0.625515633
     0.355582484  0.055688762  0.775603320
     0.355582484  0.555688762  0.775603320
     0.739736405  0.449168953  0.776574189
     0.739736405  0.949168953  0.776574189
     0.940104300  0.154912266  0.625515633
     0.940104300  0.654912266  0.625515633
     0.243425210  0.460655657  0.071165234
     0.243425210  0.960655657  0.071165234
     0.756574790  0.039344343  0.928834766
     0.756574790  0.539344343  0.928834766
     0.559895700  0.404912266  0.374484367
     0.559895700  0.904912266  0.374484367
     0.670436736  0.311256177  0.449292279
     0.670436736  0.811256177  0.449292279

  ion indices of the primitive-cell ions
   primitive index   ion index
                 1           1
                 2           2
                 3           3
                 4           4
                 5           5
                 6           6
                 7           7
                 8           8
                 9           9
                10          10
                11          11
                12          12
                13          13
                14          14
                15          15
                16          16
                17          17
                18          18
                19          19
                20          20
                21          21
                22          22
                23          23
                24          24
                25          25
                26          26
                27          27
                28          28
                29          29
                30          30
                31          31
                32          32
                33          33
                34          34
                35          35
                36          36
                37          37
                38          38
                39          39
                40          40
                41          41
                42          42
                43          43
                44          44
                45          45
                46          46
                47          47
                48          48
                49          49
                50          50
                51          51
                52          52
                53          53
                54          54
                55          55
                56          56

----------------------------------------------------------------------------------------



 KPOINTS: pymatgen with grid density = 595 / numbe

Automatic generation of k-mesh.
 Grid dimensions read from file:
 generate k-points for:    2    2    2

 Generating k-lattice:

  Cartesian coordinates                     Fractional coordinates (reciprocal lattice)
     0.000000000  0.048226712 -0.007803498     0.500000000  0.000000000 -0.000000000
     0.029782301  0.000000000  0.000000000     0.000000000  0.500000000  0.000000000
     0.000000000 -0.001679391 -0.046425743    -0.000000000  0.000000000  0.500000000

  Length of vectors
     0.048853969  0.029782301  0.046456108

  Shift w.r.t. Gamma in fractional coordinates (k-lattice)
     0.000000000  0.000000000  0.000000000

 TETIRR: Found     24 inequivalent tetrahedra from       48
 
 Subroutine IBZKPT returns following result:
 ===========================================
 
 Found      8 irreducible k-points:
 
 Following reciprocal coordinates:
            Coordinates               Weight
  0.000000  0.000000  0.000000      1.000000
  0.500000  0.000000  0.000000      1.000000
  0.000000  0.500000  0.000000      1.000000
  0.500000  0.500000  0.000000      1.000000
  0.000000  0.000000  0.500000      1.000000
  0.500000  0.000000  0.500000      1.000000
  0.000000  0.500000  0.500000      1.000000
  0.500000  0.500000  0.500000      1.000000
 
 Following cartesian coordinates:
            Coordinates               Weight
  0.000000  0.000000 -0.000000      1.000000
  0.000000  0.048227 -0.007803      1.000000
  0.029782  0.000000 -0.000000      1.000000
  0.029782  0.048227 -0.007803      1.000000
  0.000000 -0.001679 -0.046426      1.000000
  0.000000  0.046547 -0.054229      1.000000
  0.029782 -0.001679 -0.046426      1.000000
  0.029782  0.046547 -0.054229      1.000000
 


--------------------------------------------------------------------------------------------------------




 Dimension of arrays:
   k-points           NKPTS =      8   k-points in BZ     NKDIM =      8   number of bands    NBANDS=    256
   number of dos      NEDOS =    301   number of ions     NIONS =     56
   non local maximal  LDIM  =      4   non local SUM 2l+1 LMDIM =      8
   total plane-waves  NPLWV = 846720
   max r-space proj   IRMAX =      1   max aug-charges    IRDMAX= 114695
   dimension x,y,z NGX =    80 NGY =  126 NGZ =   84
   dimension x,y,z NGXF=   160 NGYF=  252 NGZF=  168
   support grid    NGXF=   320 NGYF=  504 NGZF=  336
   ions per type =              56
   NGX,Y,Z   is equivalent  to a cutoff of  12.89, 12.48, 12.87 a.u.
   NGXF,Y,Z  is equivalent  to a cutoff of  25.79, 24.95, 25.75 a.u.

 SYSTEM =  unknown system                          
 POSCAR =  generated by phonopy                    

 Startparameter for this run:
   NWRITE =      2    write-flag & timer
   PREC   = accura    normal or accurate (medium, high low for compatibility)
   ISTART =      0    job   : 0-new  1-cont  2-samecut
   ICHARG =      2    charge: 1-file 2-atom 10-const
   ISPIN  =      2    spin polarized calculation?
   LNONCOLLINEAR =      F non collinear calculations
   LSORBIT =      F    spin-orbit coupling
   INIWAV =      1    electr: 0-lowe 1-rand  2-diag
   LASPH  =      T    aspherical Exc in radial PAW
 Electronic Relaxation 1
   ENCUT  =  520.0 eV  38.22 Ry    6.18 a.u.  19.18 31.22 20.17*2*pi/ulx,y,z
   ENINI  =  520.0     initial cutoff
   ENAUG  =  335.1 eV  augmentation charge cutoff
   NELM   =    100;   NELMIN=  2; NELMDL= -5     # of ELM steps 
   EDIFF  = 0.1E-08   stopping-criterion for ELM
   LREAL  =      F    real-space projection
   NLSPLINE    = F    spline interpolate recip. space projectors
   LCOMPAT=      F    compatible to vasp.4.4
   GGA_COMPAT  = T    GGA compatible to vasp.4.4-vasp.4.6
   LMAXPAW     = -100 max onsite density
   LMAXMIX     =    2 max onsite mixed and CHGCAR
   VOSKOWN=      0    Vosko Wilk Nusair interpolation
   ROPT   =    0.00000
 Ionic relaxation
   EDIFFG = -.5E-03   stopping-criterion for IOM
   NSW    =      0    number of steps for IOM
   NBLOCK =      1;   KBLOCK =      1    inner block; outer block 
   IBRION =     -1    ionic relax: 0-MD 1-quasi-New 2-CG
   NFREE  =      0    steps in history (QN), initial steepest desc. (CG)
   ISIF   =      2    stress and relaxation
   IWAVPR =     10    prediction:  0-non 1-charg 2-wave 3-comb
   ISYM   =      0    0-nonsym 1-usesym 2-fastsym
   LCORR  =      T    Harris-Foulkes like correction to forces

   POTIM  = 0.5000    time-step for ionic-motion
   TEIN   =    0.0    initial temperature
   TEBEG  =    0.0;   TEEND  =   0.0 temperature during run
   SMASS  =  -3.00    Nose mass-parameter (am)
   estimated Nose-frequenzy (Omega)   =  0.10E-29 period in steps = 0.13E+47 mass=  -0.243E-26a.u.
   SCALEE = 1.0000    scale energy and forces
   NPACO  =    256;   APACO  = 10.0  distance and # of slots for P.C.
   PSTRESS=    0.0 pullay stress

  Mass of Ions in am
   POMASS =  32.07
  Ionic Valenz
   ZVAL   =   6.00
  Atomic Wigner-Seitz radii
   RWIGS  =  -1.00
  virtual crystal weights 
   VCA    =   1.00
   NELECT =     336.0000    total number of electrons
   NUPDOWN=      -1.0000    fix difference up-down

 DOS related values:
   EMIN   =  10.00;   EMAX   =-10.00  energy-range for DOS
   EFERMI =   0.00
   ISMEAR =    -5;   SIGMA  =   0.05  broadening in eV -4-tet -1-fermi 0-gaus

 Electronic relaxation 2 (details)
   IALGO  =     38    algorithm
   LDIAG  =      T    sub-space diagonalisation (order eigenvalues)
   LSUBROT=      F    optimize rotation matrix (better conditioning)
   TURBO    =      0    0=normal 1=particle mesh
   IRESTART =      0    0=no restart 2=restart with 2 vectors
   NREBOOT  =      0    no. of reboots
   NMIN     =      0    reboot dimension
   EREF     =   0.00    reference energy to select bands
   IMIX   =      4    mixing-type and parameters
     AMIX     =   0.40;   BMIX     =  1.00
     AMIX_MAG =   1.60;   BMIX_MAG =  1.00
     AMIN     =   0.10
     WC   =   100.;   INIMIX=   1;  MIXPRE=   1;  MAXMIX= -45

 Intra band minimization:
   WEIMIN = 0.0000     energy-eigenvalue tresh-hold
   EBREAK =  0.98E-12  absolut break condition
   DEPER  =   0.30     relativ break condition  

   TIME   =   0.40     timestep for ELM

  volume/ion in A,a.u.               =      33.28       224.58
  Fermi-wavevector in a.u.,A,eV,Ry     =   0.924835  1.747685 11.637339  0.855320
  Thomas-Fermi vector in A             =   2.050624

 Write flags
   LWAVE        =      F    write WAVECAR
   LDOWNSAMPLE  =      F    k-point downsampling of WAVECAR
   LCHARG       =      F    write CHGCAR
   LVTOT        =      F    write LOCPOT, total local potential
   LVHAR        =      F    write LOCPOT, Hartree potential only
   LELF         =      F    write electronic localiz. function (ELF)
   LORBIT       =     11    0 simple, 1 ext, 2 COOP (PROOUT), +10 PAW based schemes


 Dipole corrections
   LMONO  =      F    monopole corrections only (constant potential shift)
   LDIPOL =      F    correct potential (dipole corrections)
   IDIPOL =      0    1-x, 2-y, 3-z, 4-all directions 
   EPSILON=  1.0000000 bulk dielectric constant

 Exchange correlation treatment:
   GGA     =    --    GGA type
   LEXCH   =     8    internal setting for exchange type
   LIBXC   =     F    Libxc                    
   VOSKOWN =     0    Vosko Wilk Nusair interpolation
   LHFCALC =     F    Hartree Fock is set to
   LHFONE  =     F    Hartree Fock one center treatment
   AEXX    =    0.0000 exact exchange contribution

 Linear response parameters
   LEPSILON=     F    determine dielectric tensor
   LRPA    =     F    only Hartree local field effects (RPA)
   LNABLA  =     F    use nabla operator in PAW spheres
   LVEL    =     F    velocity operator in full k-point grid
   CSHIFT  =0.1000    complex shift for real part using Kramers Kronig
   OMEGAMAX=  -1.0    maximum frequency
   DEG_THRESHOLD= 0.2000000E-02 threshold for treating states as degnerate
   RTIME   =   -0.100 relaxation time in fs
  (WPLASMAI=    0.000 imaginary part of plasma frequency in eV, 0.658/RTIME)
   DFIELD  = 0.0000000 0.0000000 0.0000000 field for delta impulse in time

  Optional k-point grid parameters
   LKPOINTS_OPT  =     F    use optional k-point grid
   KPOINTS_OPT_MODE=     1    mode for optional k-point grid

 Orbital magnetization related:
   ORBITALMAG=     F  switch on orbital magnetization
   LCHIMAG   =     F  perturbation theory with respect to B field
   DQ        =  0.001000  dq finite difference perturbation B field
   LLRAUG    =     F  two centre corrections for induced B field



--------------------------------------------------------------------------------------------------------


 Static calculation
 charge density and potential will be updated during run
 spin polarized calculation
 Variant of blocked Davidson
 Davidson routine will perform the subspace rotation
 perform sub-space diagonalisation
    after iterative eigenvector-optimisation
 modified Broyden-mixing scheme, WC =      100.0
 initial mixing is a Kerker type mixing with AMIX =  0.4000 and BMIX =      1.0000
 Hartree-type preconditioning will be used
 using additional bands           88
 reciprocal scheme for non local part
 use partial core corrections
 calculate Harris-corrections to forces   (improved forces if not selfconsistent)
 use gradient corrections 
 use of overlap-Matrix (Vanderbilt PP)
 Fermi weights with tetrahedron method with Bloechl corrections


--------------------------------------------------------------------------------------------------------


  energy-cutoff  :      520.00
  volume of cell :     1863.68
      direct lattice vectors                 reciprocal lattice vectors
     0.000000000 10.307367086 -0.372855731     0.000000000  0.096453423 -0.015606996
    16.788494411  0.000000000  0.000000000     0.059564603  0.000000000  0.000000000
     0.000000000 -1.732519801-10.707215182     0.000000000 -0.003358783 -0.092851486

  length of vectors
    10.314108670 16.788494411 10.846477853     0.097707938  0.059564603  0.092912216



 k-points in units of 2pi/SCALE and weight: pymatgen with grid density = 595 / numbe
   0.00000000  0.00000000 -0.00000000       0.125
   0.00000000  0.04822671 -0.00780350       0.125
   0.02978230  0.00000000 -0.00000000       0.125
   0.02978230  0.04822671 -0.00780350       0.125
   0.00000000 -0.00167939 -0.04642574       0.125
   0.00000000  0.04654732 -0.05422924       0.125
   0.02978230 -0.00167939 -0.04642574       0.125
   0.02978230  0.04654732 -0.05422924       0.125

 k-points in reciprocal lattice and weights: pymatgen with grid density = 595 / numbe
   0.00000000  0.00000000  0.00000000       0.125
   0.50000000  0.00000000  0.00000000       0.125
   0.00000000  0.50000000  0.00000000       0.125
   0.50000000  0.50000000  0.00000000       0.125
   0.00000000  0.00000000  0.50000000       0.125
   0.50000000  0.00000000  0.50000000       0.125
   0.00000000  0.50000000  0.50000000       0.125
   0.50000000  0.50000000  0.50000000       0.125

 position of ions in fractional coordinates (direct lattice) 
   0.88739269  0.46700475  0.67812639
   0.88642314  0.96700475  0.67812639
   0.32956326  0.18874382  0.55070772
   0.32956326  0.68874382  0.55070772
   0.91267129  0.10524188  0.91196047
   0.91267129  0.60524188  0.91196047
   0.23973640  0.30083105  0.77657419
   0.23973640  0.80083105  0.77657419
   0.14441752  0.30568876  0.22439668
   0.14441752  0.80568876  0.22439668
   0.85558248  0.19431124  0.77560332
   0.85558248  0.69431124  0.77560332
   0.76026360  0.19916895  0.22342581
   0.76026360  0.69916895  0.22342581
   0.17043674  0.43874382  0.44929228
   0.17043674  0.93874382  0.44929228
   0.41267129  0.14475812  0.91196047
   0.41267129  0.64475812  0.91196047
   0.38642314  0.28299525  0.67812639
   0.38642314  0.78299525  0.67812639
   0.64441752  0.44431124  0.22439668
   0.64441752  0.94431124  0.22439668
   0.82956326  0.06125618  0.55070772
   0.82956326  0.56125618  0.55070772
   0.26026360  0.05083105  0.22342581
   0.26026360  0.55083105  0.22342581
   0.61357686  0.21700475  0.32187361
   0.61357686  0.71700475  0.32187361
   0.11357686  0.03299525  0.32187361
   0.11357686  0.53299525  0.32187361
   0.05989570  0.34508773  0.37448437
   0.05989570  0.84508773  0.37448437
   0.74342521  0.28934434  0.07116523
   0.74342521  0.78934434  0.07116523
   0.58732871  0.35524188  0.08803953
   0.58732871  0.85524188  0.08803953
   0.25657479  0.21065566  0.92883477
   0.25657479  0.71065566  0.92883477
   0.08732871  0.39475812  0.08803953
   0.08732871  0.89475812  0.08803953
   0.44010430  0.09508773  0.62551563
   0.44010430  0.59508773  0.62551563
   0.35558248  0.05568876  0.77560332
   0.35558248  0.55568876  0.77560332
   0.73973640  0.44916895  0.77657419
   0.73973640  0.94916895  0.77657419
   0.94010430  0.15491227  0.62551563
   0.94010430  0.65491227  0.62551563
   0.24342521  0.46065566  0.07116523
   0.24342521  0.96065566  0.07116523
   0.75657479  0.03934434  0.92883477
   0.75657479  0.53934434  0.92883477
   0.55989570  0.40491227  0.37448437
   0.55989570  0.90491227  0.37448437
   0.67043674  0.31125618  0.44929228
   0.67043674  0.81125618  0.44929228

 position of ions in cartesian coordinates  (Angst):
   7.84030666  7.97181478 -7.59171458
  16.23455387  7.96182132 -7.59135308
   3.16872461  2.44281751 -6.01942562
  11.56297182  2.44281751 -6.01942562
   1.76685280  7.82724839-10.10485172
  10.16110000  7.82724839-10.10485172
   5.05050035  1.12562097 -8.40433404
  13.44474755  1.12562097 -8.40433404
   5.13205407  1.09979266 -2.45651044
  13.52630128  1.09979266 -2.45651044
   3.26219313  7.47505463 -8.62356047
  11.65644034  7.47505463 -8.62356047
   3.34374686  7.44922632 -2.67573688
  11.73799406  7.44922632 -2.67573688
   7.36584822  0.97834624 -4.87421742
  15.76009542  0.97834624 -4.87421742
   2.43027081  2.67356485 -9.91842386
  10.82451801  2.67356485 -9.91842386
   4.75106415  2.80813777 -7.40492521
  13.14531135  2.80813777 -7.40492521
   7.45931673  6.25347620 -2.64293831
  15.85356394  6.25347620 -2.64293831
   1.02839899  7.59650105 -6.20585349
   9.42264619  7.59650105 -6.20585349
   0.85337674  2.29554277 -2.48930901
   9.24762395  2.29554277 -2.48930901
   3.64318306  5.76670951 -3.67514570
  12.03743026  5.76670951 -3.67514570
   0.55394055  0.61302597 -3.48871783
   8.94818775  0.61302597 -3.48871783
   5.79350349 -0.03143461 -4.03201715
  14.18775070 -0.03143461 -4.03201715
   4.85765589  7.53946136 -1.03917182
  13.25190310  7.53946136 -1.03917182
   5.96397640  5.90128244 -1.16164705
  14.35822361  5.90128244 -1.16164705
   3.53659131  1.03538593-10.04089909
  11.93083852  1.03538593-10.04089909
   6.62739441  0.74759889 -0.97521919
  15.02164161  0.74759889 -0.97521919
   1.59637989  3.45259836 -6.86162589
   9.99062710  3.45259836 -6.86162589
   0.93493047  2.32137108 -8.43713261
   9.32917768  2.32137108 -8.43713261
   7.54087046  6.27930451 -8.59076190
  15.93511767  6.27930451 -8.59076190
   2.60074371  8.60628190 -7.04805376
  10.99499092  8.60628190 -7.04805376
   7.73371492  2.38577782 -0.85274396
  16.12796212  2.38577782 -0.85274396
   0.66053229  6.18906947-10.22732695
   9.05477950  6.18906947-10.22732695
   6.79786731  5.12224893 -4.21844502
  15.19211452  5.12224893 -4.21844502
   5.22552259  6.13202978 -5.06064529
  13.61976980  6.13202978 -5.06064529



--------------------------------------------------------------------------------------------------------


 k-point   1 :   0.0000 0.0000 0.0000  plane waves:   50179
 k-point   2 :   0.5000 0.0000 0.0000  plane waves:   50160
 k-point   3 :   0.0000 0.5000 0.0000  plane waves:   50162
 k-point   4 :   0.5000 0.5000 0.0000  plane waves:   50192
 k-point   5 :   0.0000 0.0000 0.5000  plane waves:   50190
 k-point   6 :   0.5000 0.0000 0.5000  plane waves:   50190
 k-point   7 :   0.0000 0.5000 0.5000  plane waves:   50172
 k-point   8 :   0.5000 0.5000 0.5000  plane waves:   50200

 maximum and minimum number of plane-waves per node :     50200    50160

 maximum number of plane-waves:     50200
 maximum index in each direction: 
   IXMAX=   19   IYMAX=   31   IZMAX=   20
   IXMIN=  -19   IYMIN=  -31   IZMIN=  -20


 serial   3D FFT for wavefunctions
 parallel 3D FFT for charge:
    minimum data exchange during FFTs selected (reduces bandwidth)


 total amount of memory used by VASP MPI-rank0   322725. kBytes
=======================================================================

   base      :      30000. kBytes
   nonl-proj :      70692. kBytes
   fftplans  :      34504. kBytes
   grid      :      83442. kBytes
   one-center:        344. kBytes
   wavefun   :     103743. kBytes

     INWAV:  cpu time      0.0000: real time      0.0002
 Broyden mixing: mesh for mixing (old mesh)
   NGX = 39   NGY = 63   NGZ = 41
  (NGX  =160   NGY  =252   NGZ  =168)
  gives a total of 100737 points

 initial charge density was supplied:
 charge density of overlapping atoms calculated
 number of electron     336.0000000 magnetization      56.0000000
 keeping initial charge density in first step


--------------------------------------------------------------------------------------------------------


 Maximum index for augmentation-charges         3947 (set IRDMAX)


--------------------------------------------------------------------------------------------------------


 First call to EWALD:  gamma=   0.144
 Maximum number of real-space cells 3x 2x 3
 Maximum number of reciprocal cells 2x 4x 2

    FEWALD:  cpu time      0.0020: real time      0.0020


--------------------------------------- Iteration      1(   1)  ---------------------------------------


    POTLOK:  cpu time      0.4814: real time      0.4900
    SETDIJ:  cpu time     27.2288: real time     27.2316
     EDDAV:  cpu time     50.0253: real time     50.0349
 BZINTS: Fermi energy:   10.165809;  336.000000 electrons
         Band energy: 0.225215E+03;  BLOECHL correction:   -0.008997
       DOS:  cpu time      0.0492: real time      0.0492
    --------------------------------------------
      LOOP:  cpu time     77.7847: real time     77.8057

 eigenvalue-minimisations  :  8192
 total energy-change (2. order) : 0.2105988E+04  (-0.1333783E+05)
 number of electron     336.0000000 magnetization      56.0000000
 augmentation part      336.0000000 magnetization      56.0000000

 Free energy of the ion-electron system (eV)
  ---------------------------------------------------
  alpha Z        PSCENC =       253.99581917
  Ewald energy   TEWEN  =     -9972.06266210
  -Hartree energ DENC   =     -4764.89852093
  -exchange      EXHF   =         0.00000000
  -V(xc)+E(xc)   XCENC  =       682.49095017
  PAW double counting   =     12174.71095765   -11995.46358648
  entropy T*S    EENTRO =         0.00000000
  eigenvalues    EBANDS =       225.21530660
  atomic energy  EATOM  =     15501.99929693
  Solvation  Ediel_sol  =         0.00000000
  ---------------------------------------------------
  free energy    TOTEN  =      2105.98756103 eV

  energy without entropy =     2105.98756103  energy(sigma->0) =     2105.98756103


--------------------------------------------------------------------------------------------------------




--------------------------------------- Iteration      1(   2)  ---------------------------------------


     EDDAV:  cpu time     58.9018: real time     58.9141
 BZINTS: Fermi energy:    1.452986;  336.000000 electrons
         Band energy:-0.187452E+04;  BLOECHL correction:    0.000000
       DOS:  cpu time      0.0263: real time      0.0263
    --------------------------------------------
      LOOP:  cpu time     58.9281: real time     58.9404

 eigenvalue-minimisations  : 10272
 total energy-change (2. order) :-0.2099739E+04  (-0.2021558E+04)
 number of electron     336.0000000 magnetization      56.0000000
 augmentation part      336.0000000 magnetization      56.0000000

 Free energy of the ion-electron system (eV)
  ---------------------------------------------------
  alpha Z        PSCENC =       253.99581917
  Ewald energy   TEWEN  =     -9972.06266210
  -Hartree energ DENC   =     -4764.89852093
  -exchange      EXHF   =         0.00000000
  -V(xc)+E(xc)   XCENC  =       682.49095017
  PAW double counting   =     12174.71095765   -11995.46358648
  entropy T*S    EENTRO =         0.00000000
  eigenvalues    EBANDS =     -1874.52389666
  atomic energy  EATOM  =     15501.99929693
  Solvation  Ediel_sol  =         0.00000000
  ---------------------------------------------------
  free energy    TOTEN  =         6.24835777 eV

  energy without entropy =        6.24835777  energy(sigma->0) =        6.24835777


--------------------------------------------------------------------------------------------------------




--------------------------------------- Iteration      1(   3)  ---------------------------------------


     EDDAV:  cpu time     58.7247: real time     58.7372
 BZINTS: Fermi energy:    0.220983;  336.000000 electrons
         Band energy:-0.209435E+04;  BLOECHL correction:    0.000000
       DOS:  cpu time      0.0262: real time      0.0262
    --------------------------------------------
      LOOP:  cpu time     58.7508: real time     58.7634

 eigenvalue-minimisations  : 10240
 total energy-change (2. order) :-0.2198272E+03  (-0.2171402E+03)
 number of electron     336.0000000 magnetization      56.0000000
 augmentation part      336.0000000 magnetization      56.0000000

 Free energy of the ion-electron system (eV)
  ---------------------------------------------------
  alpha Z        PSCENC =       253.99581917
  Ewald energy   TEWEN  =     -9972.06266210
  -Hartree energ DENC   =     -4764.89852093
  -exchange      EXHF   =         0.00000000
  -V(xc)+E(xc)   XCENC  =       682.49095017
  PAW double counting   =     12174.71095765   -11995.46358648
  entropy T*S    EENTRO =         0.00000000
  eigenvalues    EBANDS =     -2094.35109348
  atomic energy  EATOM  =     15501.99929693
  Solvation  Ediel_sol  =         0.00000000
  ---------------------------------------------------
  free energy    TOTEN  =      -213.57883906 eV

  energy without entropy =     -213.57883906  energy(sigma->0) =     -213.57883906


--------------------------------------------------------------------------------------------------------




--------------------------------------- Iteration      1(   4)  ---------------------------------------


     EDDAV:  cpu time     60.9635: real time     60.9832
 BZINTS: Fermi energy:    0.193166;  336.000000 electrons
         Band energy:-0.209925E+04;  BLOECHL correction:    0.000000
       DOS:  cpu time      0.0260: real time      0.0261
    --------------------------------------------
      LOOP:  cpu time     60.9896: real time     61.0092

 eigenvalue-minimisations  : 10368
 total energy-change (2. order) :-0.4897784E+01  (-0.4879430E+01)
 number of electron     336.0000000 magnetization      56.0000000
 augmentation part      336.0000000 magnetization      56.0000000

 Free energy of the ion-electron system (eV)
  ---------------------------------------------------
  alpha Z        PSCENC =       253.99581917
  Ewald energy   TEWEN  =     -9972.06266210
  -Hartree energ DENC   =     -4764.89852093
  -exchange      EXHF   =         0.00000000
  -V(xc)+E(xc)   XCENC  =       682.49095017
  PAW double counting   =     12174.71095765   -11995.46358648
  entropy T*S    EENTRO =         0.00000000
  eigenvalues    EBANDS =     -2099.24887723
  atomic energy  EATOM  =     15501.99929693
  Solvation  Ediel_sol  =         0.00000000
  ---------------------------------------------------
  free energy    TOTEN  =      -218.47662280 eV

  energy without entropy =     -218.47662280  energy(sigma->0) =     -218.47662280


--------------------------------------------------------------------------------------------------------




--------------------------------------- Iteration      1(   5)  ---------------------------------------


     EDDAV:  cpu time     59.0449: real time     59.0612
 BZINTS: Fermi energy:    0.193075;  336.000000 electrons
         Band energy:-0.209938E+04;  BLOECHL correction:    0.000000
       DOS:  cpu time      0.0267: real time      0.0268
    CHARGE:  cpu time     13.3238: real time     13.3261
    MIXING:  cpu time      0.0196: real time      0.0196
    --------------------------------------------
      LOOP:  cpu time     72.4150: real time     72.4337

 eigenvalue-minimisations  : 10144
 total energy-change (2. order) :-0.1350603E+00  (-0.1349947E+00)
 number of electron     335.9999996 magnetization      44.9918631
 augmentation part      -47.3221375 magnetization      44.8832517

 Broyden mixing:
  rms(total) = 0.82844E+01    rms(broyden)= 0.82844E+01
  rms(prec ) = 0.83044E+01
  weight for this iteration     100.00

 Free energy of the ion-electron system (eV)
  ---------------------------------------------------
  alpha Z        PSCENC =       253.99581917
  Ewald energy   TEWEN  =     -9972.06266210
  -Hartree energ DENC   =     -4764.89852093
  -exchange      EXHF   =         0.00000000
  -V(xc)+E(xc)   XCENC  =       682.49095017
  PAW double counting   =     12174.71095765   -11995.46358648
  entropy T*S    EENTRO =         0.00000000
  eigenvalues    EBANDS =     -2099.38393756
  atomic energy  EATOM  =     15501.99929693
  Solvation  Ediel_sol  =         0.00000000
  ---------------------------------------------------
  free energy    TOTEN  =      -218.61168313 eV

  energy without entropy =     -218.61168313  energy(sigma->0) =     -218.61168313


--------------------------------------------------------------------------------------------------------




--------------------------------------- Iteration      1(   6)  ---------------------------------------


    POTLOK:  cpu time      0.4377: real time      0.4398
    SETDIJ:  cpu time     25.5708: real time     25.5748
     EDDAV:  cpu time     55.5596: real time     55.5703
 BZINTS: Fermi energy:    0.410421;  336.000000 electrons
         Band energy:-0.201394E+04;  BLOECHL correction:   -0.000000
       DOS:  cpu time      0.0256: real time      0.0256
    CHARGE:  cpu time     24.3233: real time     24.3259
    MIXING:  cpu time      0.0141: real time      0.0141
    --------------------------------------------
      LOOP:  cpu time    105.9311: real time    105.9505

 eigenvalue-minimisations  :  9664
 total energy-change (2. order) : 0.1022801E+03  (-0.2668082E+02)
 number of electron     335.9999996 magnetization      26.4823772
 augmentation part      -47.6485216 magnetization      27.5405274

 Broyden mixing:
  rms(total) = 0.49344E+01    rms(broyden)= 0.49344E+01
  rms(prec ) = 0.49568E+01
  weight for this iteration     100.00

 eigenvalues of (default mixing * dielectric matrix)
  average eigenvalue GAMMA=   1.6674
  1.6674

 Free energy of the ion-electron system (eV)
  ---------------------------------------------------
  alpha Z        PSCENC =       253.99581917
  Ewald energy   TEWEN  =     -9972.06266210
  -Hartree energ DENC   =     -4809.17326265
  -exchange      EXHF   =         0.00000000
  -V(xc)+E(xc)   XCENC  =       746.06557929
  PAW double counting   =     20725.12213667   -20548.34060670
  entropy T*S    EENTRO =         0.00000000
  eigenvalues    EBANDS =     -2013.93786016
  atomic energy  EATOM  =     15501.99929693
  Solvation  Ediel_sol  =         0.00000000
  ---------------------------------------------------
  free energy    TOTEN  =      -116.33155955 eV

  energy without entropy =     -116.33155955  energy(sigma->0) =     -116.33155955


--------------------------------------------------------------------------------------------------------




--------------------------------------- Iteration      1(   7)  ---------------------------------------


    POTLOK:  cpu time      0.4378: real time      0.4403
    SETDIJ:  cpu time     25.9541: real time     25.9569
     EDDAV:  cpu time     58.8394: real time     58.8513
 BZINTS: Fermi energy:    0.739479;  336.000000 electrons
         Band energy:-0.186754E+04;  BLOECHL correction:    0.000000
       DOS:  cpu time      0.0256: real time      0.0257
    CHARGE:  cpu time     22.3293: real time     22.3323
    MIXING:  cpu time      0.0153: real time      0.0153
    --------------------------------------------
      LOOP:  cpu time    107.6016: real time    107.6218

 eigenvalue-minimisations  : 10144
 total energy-change (2. order) :-0.1113844E+02  (-0.2697075E+01)
 number of electron     335.9999996 magnetization      19.7303389
 augmentation part      -47.3164034 magnetization      20.9358790

 Broyden mixing:
  rms(total) = 0.14018E+01    rms(broyden)= 0.14018E+01
  rms(prec ) = 0.14055E+01
  weight for this iteration     100.00

 eigenvalues of (default mixing * dielectric matrix)
  average eigenvalue GAMMA=   1.4834
  0.7881  2.1787

 Free energy of the ion-electron system (eV)
  ---------------------------------------------------
  alpha Z        PSCENC =       253.99581917
  Ewald energy   TEWEN  =     -9972.06266210
  -Hartree energ DENC   =     -4968.63672202
  -exchange      EXHF   =         0.00000000
  -V(xc)+E(xc)   XCENC  =       751.40723349
  PAW double counting   =     37026.92541059   -36853.55362972
  entropy T*S    EENTRO =         0.00000000
  eigenvalues    EBANDS =     -1867.54474394
  atomic energy  EATOM  =     15501.99929693
  Solvation  Ediel_sol  =         0.00000000
  ---------------------------------------------------
  free energy    TOTEN  =      -127.46999760 eV

  energy without entropy =     -127.46999760  energy(sigma->0) =     -127.46999760


--------------------------------------------------------------------------------------------------------




--------------------------------------- Iteration      1(   8)  ---------------------------------------


    POTLOK:  cpu time      0.4359: real time      0.4362
    SETDIJ:  cpu time     11.6075: real time     11.6110
     EDDAV:  cpu time     52.2327: real time     52.2411
 BZINTS: Fermi energy:    0.707187;  336.000000 electrons
         Band energy:-0.185510E+04;  BLOECHL correction:    0.000000
       DOS:  cpu time      0.0254: real time      0.0255
    CHARGE:  cpu time     17.7449: real time     17.7467
    MIXING:  cpu time      0.0186: real time      0.0186
    --------------------------------------------
      LOOP:  cpu time     82.0650: real time     82.0791

 eigenvalue-minimisations  :  9312
 total energy-change (2. order) :-0.4267401E+02  (-0.1972136E+01)
 number of electron     335.9999997 magnetization      16.0579695
 augmentation part      -47.0123995 magnetization      17.1026835

 Broyden mixing:
  rms(total) = 0.78374E+00    rms(broyden)= 0.78374E+00
  rms(prec ) = 0.78887E+00
  weight for this iteration     100.00

 eigenvalues of (default mixing * dielectric matrix)
  average eigenvalue GAMMA=   1.3389
  2.4910  0.9433  0.5825

 Free energy of the ion-electron system (eV)
  ---------------------------------------------------
  alpha Z        PSCENC =       253.99581917
  Ewald energy   TEWEN  =     -9972.06266210
  -Hartree energ DENC   =     -4998.13158010
  -exchange      EXHF   =         0.00000000
  -V(xc)+E(xc)   XCENC  =       726.55114140
  PAW double counting   =     40157.49741352   -39984.89249121
  entropy T*S    EENTRO =         0.00000000
  eigenvalues    EBANDS =     -1855.10094597
  atomic energy  EATOM  =     15501.99929693
  Solvation  Ediel_sol  =         0.00000000
  ---------------------------------------------------
  free energy    TOTEN  =      -170.14400836 eV

  energy without entropy =     -170.14400836  energy(sigma->0) =     -170.14400836


--------------------------------------------------------------------------------------------------------




--------------------------------------- Iteration      1(   9)  ---------------------------------------


    POTLOK:  cpu time      0.4432: real time      0.4434
    SETDIJ:  cpu time     22.3398: real time     22.3426
     EDDAV:  cpu time     59.4169: real time     59.4280
 BZINTS: Fermi energy:    0.629231;  336.000000 electrons
         Band energy:-0.186633E+04;  BLOECHL correction:    0.000000
       DOS:  cpu time      0.0264: real time      0.0264
    CHARGE:  cpu time     20.8206: real time     20.8228
    MIXING:  cpu time      1.3151: real time      1.3152
    --------------------------------------------
      LOOP:  cpu time    104.3620: real time    104.3785

 eigenvalue-minimisations  : 10240
 total energy-change (2. order) :-0.1683368E+02  (-0.6463140E+00)
 number of electron     335.9999997 magnetization      11.5307079
 augmentation part      -46.9153263 magnetization      12.3683999

 Broyden mixing:
  rms(total) = 0.43644E+00    rms(broyden)= 0.43644E+00
  rms(prec ) = 0.44851E+00
  weight for this iteration     100.00

 eigenvalues of (default mixing * dielectric matrix)
  average eigenvalue GAMMA=   1.3242
  2.5745  1.3004  0.7109  0.7109

 Free energy of the ion-electron system (eV)
  ---------------------------------------------------
  alpha Z        PSCENC =       253.99581917
  Ewald energy   TEWEN  =     -9972.06266210
  -Hartree energ DENC   =     -4994.38633152
  -exchange      EXHF   =         0.00000000
  -V(xc)+E(xc)   XCENC  =       717.18337221
  PAW double counting   =     40941.30073299   -40768.67609420
  entropy T*S    EENTRO =         0.00000000
  eigenvalues    EBANDS =     -1866.33182478
  atomic energy  EATOM  =     15501.99929693
  Solvation  Ediel_sol  =         0.00000000
  ---------------------------------------------------
  free energy    TOTEN  =      -186.97769129 eV

  energy without entropy =     -186.97769129  energy(sigma->0) =     -186.97769129


--------------------------------------------------------------------------------------------------------




--------------------------------------- Iteration      1(  10)  ---------------------------------------


    POTLOK:  cpu time      0.4657: real time      0.4661
    SETDIJ:  cpu time     17.1819: real time     17.1844
     EDDAV:  cpu time     59.7677: real time     59.7851
 BZINTS: Fermi energy:    0.475902;  336.000000 electrons
         Band energy:-0.190086E+04;  BLOECHL correction:    0.000000
       DOS:  cpu time      0.0269: real time      0.0269
    CHARGE:  cpu time     19.8770: real time     19.8793
    MIXING:  cpu time      0.0158: real time      0.0158
    --------------------------------------------
      LOOP:  cpu time     97.3350: real time     97.3577

 eigenvalue-minimisations  :  9984
 total energy-change (2. order) :-0.2005548E+02  (-0.1302354E+01)
 number of electron     335.9999997 magnetization       5.3074551
 augmentation part      -46.8735949 magnetization       5.8419288

 Broyden mixing:
  rms(total) = 0.32402E+00    rms(broyden)= 0.32402E+00
  rms(prec ) = 0.33699E+00
  weight for this iteration     100.00

 eigenvalues of (default mixing * dielectric matrix)
  average eigenvalue GAMMA=   1.4490
  2.4864  2.4864  0.9412  0.7292  0.6020

 Free energy of the ion-electron system (eV)
  ---------------------------------------------------
  alpha Z        PSCENC =       253.99581917
  Ewald energy   TEWEN  =     -9972.06266210
  -Hartree energ DENC   =     -4968.99335713
  -exchange      EXHF   =         0.00000000
  -V(xc)+E(xc)   XCENC  =       705.60982510
  PAW double counting   =     40948.43294380   -40775.15377378
  entropy T*S    EENTRO =         0.00000000
  eigenvalues    EBANDS =     -1900.86125896
  atomic energy  EATOM  =     15501.99929693
  Solvation  Ediel_sol  =         0.00000000
  ---------------------------------------------------
  free energy    TOTEN  =      -207.03316696 eV

  energy without entropy =     -207.03316696  energy(sigma->0) =     -207.03316696


--------------------------------------------------------------------------------------------------------




--------------------------------------- Iteration      1(  11)  ---------------------------------------


    POTLOK:  cpu time      0.4292: real time      0.4295
    SETDIJ:  cpu time     17.8178: real time     17.8197
     EDDAV:  cpu time     55.5295: real time     55.5405
 BZINTS: Fermi energy:    0.258261;  336.000000 electrons
         Band energy:-0.195823E+04;  BLOECHL correction:    0.000000
       DOS:  cpu time      0.0264: real time      0.0265
    CHARGE:  cpu time     20.7848: real time     20.7870
    MIXING:  cpu time      0.0138: real time      0.0138
    --------------------------------------------
      LOOP:  cpu time     94.6015: real time     94.6170

 eigenvalue-minimisations  :  9952
 total energy-change (2. order) :-0.1784468E+02  (-0.2165064E+01)
 number of electron     335.9999997 magnetization       3.5701558
 augmentation part      -46.9052187 magnetization       3.7534128

 Broyden mixing:
  rms(total) = 0.18649E+00    rms(broyden)= 0.18649E+00
  rms(prec ) = 0.20020E+00
  weight for this iteration     100.00

 eigenvalues of (default mixing * dielectric matrix)
  average eigenvalue GAMMA=   1.4668
  2.7975  2.7975  1.0275  0.8886  0.6996  0.5902

 Free energy of the ion-electron system (eV)
  ---------------------------------------------------
  alpha Z        PSCENC =       253.99581917
  Ewald energy   TEWEN  =     -9972.06266210
  -Hartree energ DENC   =     -4919.42510484
  -exchange      EXHF   =         0.00000000
  -V(xc)+E(xc)   XCENC  =       694.50342722
  PAW double counting   =     40376.02712998   -40201.68889495
  entropy T*S    EENTRO =         0.00000000
  eigenvalues    EBANDS =     -1958.22686014
  atomic energy  EATOM  =     15501.99929693
  Solvation  Ediel_sol  =         0.00000000
  ---------------------------------------------------
  free energy    TOTEN  =      -224.87784873 eV

  energy without entropy =     -224.87784873  energy(sigma->0) =     -224.87784873


--------------------------------------------------------------------------------------------------------




--------------------------------------- Iteration      1(  12)  ---------------------------------------


    POTLOK:  cpu time      0.4392: real time      0.4398
    SETDIJ:  cpu time     25.4172: real time     25.4206
     EDDAV:  cpu time     57.5273: real time     57.5401
 BZINTS: Fermi energy:    0.184846;  336.000000 electrons
         Band energy:-0.197891E+04;  BLOECHL correction:    0.000000
       DOS:  cpu time      0.0257: real time      0.0257
    CHARGE:  cpu time     17.4889: real time     17.4907
    MIXING:  cpu time      0.0145: real time      0.0145
    --------------------------------------------
      LOOP:  cpu time    100.9127: real time    100.9314

 eigenvalue-minimisations  : 10080
 total energy-change (2. order) :-0.3387775E+01  (-0.3882641E+00)
 number of electron     335.9999997 magnetization       2.3904194
 augmentation part      -46.9154613 magnetization       2.4734027

 Broyden mixing:
  rms(total) = 0.15957E+00    rms(broyden)= 0.15957E+00
  rms(prec ) = 0.17212E+00
  weight for this iteration     100.00

 eigenvalues of (default mixing * dielectric matrix)
  average eigenvalue GAMMA=   1.4919
  3.1011  3.1011  1.0553  1.0553  0.7811  0.7811  0.5684

 Free energy of the ion-electron system (eV)
  ---------------------------------------------------
  alpha Z        PSCENC =       253.99581917
  Ewald energy   TEWEN  =     -9972.06266210
  -Hartree energ DENC   =     -4899.91632571
  -exchange      EXHF   =         0.00000000
  -V(xc)+E(xc)   XCENC  =       692.04884553
  PAW double counting   =     39943.84494820   -39769.26949108
  entropy T*S    EENTRO =         0.00000000
  eigenvalues    EBANDS =     -1978.90605452
  atomic energy  EATOM  =     15501.99929693
  Solvation  Ediel_sol  =         0.00000000
  ---------------------------------------------------
  free energy    TOTEN  =      -228.26562358 eV

  energy without entropy =     -228.26562358  energy(sigma->0) =     -228.26562358


--------------------------------------------------------------------------------------------------------




--------------------------------------- Iteration      1(  13)  ---------------------------------------


    POTLOK:  cpu time      0.4868: real time      0.4872
    SETDIJ:  cpu time     15.8276: real time     15.8295
     EDDAV:  cpu time     56.9526: real time     56.9635
 BZINTS: Fermi energy:    0.116999;  336.000000 electrons
         Band energy:-0.200133E+04;  BLOECHL correction:    0.000000
       DOS:  cpu time      0.0265: real time      0.0266
    CHARGE:  cpu time     15.7969: real time     15.7991
    MIXING:  cpu time      0.0158: real time      0.0158
    --------------------------------------------
      LOOP:  cpu time     89.1062: real time     89.1216

 eigenvalue-minimisations  :  9536
 total energy-change (2. order) :-0.1050502E+01  (-0.1334398E+00)
 number of electron     335.9999997 magnetization       0.8876232
 augmentation part      -46.9736541 magnetization       0.9135873

 Broyden mixing:
  rms(total) = 0.92972E-01    rms(broyden)= 0.92972E-01
  rms(prec ) = 0.99794E-01
  weight for this iteration     100.00

 eigenvalues of (default mixing * dielectric matrix)
  average eigenvalue GAMMA=   1.5515
  3.3226  3.3226  1.5821  1.2847  0.9276  0.6998  0.6998  0.5728

 Free energy of the ion-electron system (eV)
  ---------------------------------------------------
  alpha Z        PSCENC =       253.99581917
  Ewald energy   TEWEN  =     -9972.06266210
  -Hartree energ DENC   =     -4876.79908253
  -exchange      EXHF   =         0.00000000
  -V(xc)+E(xc)   XCENC  =       690.06805950
  PAW double counting   =     39124.15698304   -38949.34242622
  entropy T*S    EENTRO =         0.00000000
  eigenvalues    EBANDS =     -2001.33211298
  atomic energy  EATOM  =     15501.99929693
  Solvation  Ediel_sol  =         0.00000000
  ---------------------------------------------------
  free energy    TOTEN  =      -229.31612519 eV

  energy without entropy =     -229.31612519  energy(sigma->0) =     -229.31612519


--------------------------------------------------------------------------------------------------------




--------------------------------------- Iteration      1(  14)  ---------------------------------------


    POTLOK:  cpu time      0.4332: real time      0.4336
    SETDIJ:  cpu time     20.8587: real time     20.8615
     EDDAV:  cpu time     53.6070: real time     53.6216
 BZINTS: Fermi energy:    0.081684;  336.000000 electrons
         Band energy:-0.201179E+04;  BLOECHL correction:    0.000000
       DOS:  cpu time      0.0256: real time      0.0256
    CHARGE:  cpu time     21.6767: real time     21.6788
    MIXING:  cpu time      0.0167: real time      0.0167
    --------------------------------------------
      LOOP:  cpu time     96.6179: real time     96.6379

 eigenvalue-minimisations  :  8992
 total energy-change (2. order) :-0.6345927E-01  (-0.1616293E-01)
 number of electron     335.9999997 magnetization       0.4180229
 augmentation part      -47.0007347 magnetization       0.4250040

 Broyden mixing:
  rms(total) = 0.43675E-01    rms(broyden)= 0.43675E-01
  rms(prec ) = 0.46378E-01
  weight for this iteration     100.00

 eigenvalues of (default mixing * dielectric matrix)
  average eigenvalue GAMMA=   1.5785
  4.1301  2.5570  2.5570  1.0965  1.0965  0.7712  0.7712  0.5753  0.6520

 Free energy of the ion-electron system (eV)
  ---------------------------------------------------
  alpha Z        PSCENC =       253.99581917
  Ewald energy   TEWEN  =     -9972.06266210
  -Hartree energ DENC   =     -4865.44472605
  -exchange      EXHF   =         0.00000000
  -V(xc)+E(xc)   XCENC  =       689.15611534
  PAW double counting   =     39063.26209216   -38888.49271279
  entropy T*S    EENTRO =         0.00000000
  eigenvalues    EBANDS =     -2011.79280713
  atomic energy  EATOM  =     15501.99929693
  Solvation  Ediel_sol  =         0.00000000
  ---------------------------------------------------
  free energy    TOTEN  =      -229.37958446 eV

  energy without entropy =     -229.37958446  energy(sigma->0) =     -229.37958446


--------------------------------------------------------------------------------------------------------




--------------------------------------- Iteration      1(  15)  ---------------------------------------


    POTLOK:  cpu time      0.4441: real time      0.4443
    SETDIJ:  cpu time     27.6572: real time     27.6605
     EDDAV:  cpu time     55.2950: real time     55.3056
 BZINTS: Fermi energy:    0.079893;  336.000000 electrons
         Band energy:-0.201148E+04;  BLOECHL correction:    0.000000
       DOS:  cpu time      0.0257: real time      0.0258
    CHARGE:  cpu time     17.4781: real time     17.4806
    MIXING:  cpu time      0.0160: real time      0.0160
    --------------------------------------------
      LOOP:  cpu time    100.9161: real time    100.9329

 eigenvalue-minimisations  :  9568
 total energy-change (2. order) : 0.1292978E-02  (-0.2082332E-02)
 number of electron     335.9999997 magnetization       0.1723913
 augmentation part      -46.9945799 magnetization       0.1766966

 Broyden mixing:
  rms(total) = 0.20215E-01    rms(broyden)= 0.20215E-01
  rms(prec ) = 0.21788E-01
  weight for this iteration     100.00

 eigenvalues of (default mixing * dielectric matrix)
  average eigenvalue GAMMA=   1.5647
  4.5528  2.5271  2.5271  1.3358  0.9964  0.9964  0.7588  0.7588  0.6240  0.5697

 Free energy of the ion-electron system (eV)
  ---------------------------------------------------
  alpha Z        PSCENC =       253.99581917
  Ewald energy   TEWEN  =     -9972.06266210
  -Hartree energ DENC   =     -4865.62955092
  -exchange      EXHF   =         0.00000000
  -V(xc)+E(xc)   XCENC  =       689.11873558
  PAW double counting   =     39148.88376458   -38974.20157290
  entropy T*S    EENTRO =         0.00000000
  eigenvalues    EBANDS =     -2011.48212183
  atomic energy  EATOM  =     15501.99929693
  Solvation  Ediel_sol  =         0.00000000
  ---------------------------------------------------
  free energy    TOTEN  =      -229.37829149 eV

  energy without entropy =     -229.37829149  energy(sigma->0) =     -229.37829149


--------------------------------------------------------------------------------------------------------




--------------------------------------- Iteration      1(  16)  ---------------------------------------


    POTLOK:  cpu time      0.4310: real time      0.4314
    SETDIJ:  cpu time     21.9236: real time     21.9280
     EDDAV:  cpu time     54.2497: real time     54.2602
 BZINTS: Fermi energy:    0.077852;  336.000000 electrons
         Band energy:-0.201195E+04;  BLOECHL correction:    0.000000
       DOS:  cpu time      0.0256: real time      0.0257
    CHARGE:  cpu time     24.9718: real time     24.9752
    MIXING:  cpu time      0.0171: real time      0.0171
    --------------------------------------------
      LOOP:  cpu time    101.6189: real time    101.6374

 eigenvalue-minimisations  :  9120
 total energy-change (2. order) : 0.3106814E-02  (-0.5515746E-03)
 number of electron     335.9999997 magnetization       0.0697612
 augmentation part      -46.9934399 magnetization       0.0705626

 Broyden mixing:
  rms(total) = 0.12331E-01    rms(broyden)= 0.12331E-01
  rms(prec ) = 0.13341E-01
  weight for this iteration     100.00

 eigenvalues of (default mixing * dielectric matrix)
  average eigenvalue GAMMA=   1.5467
  4.7574  2.4278  2.4278  1.8411  0.9961  0.9961  0.9229  0.7283  0.7283  0.5813
  0.6064

 Free energy of the ion-electron system (eV)
  ---------------------------------------------------
  alpha Z        PSCENC =       253.99581917
  Ewald energy   TEWEN  =     -9972.06266210
  -Hartree energ DENC   =     -4865.06716079
  -exchange      EXHF   =         0.00000000
  -V(xc)+E(xc)   XCENC  =       689.05039191
  PAW double counting   =     39118.80377919   -38944.14538749
  entropy T*S    EENTRO =         0.00000000
  eigenvalues    EBANDS =     -2011.94926149
  atomic energy  EATOM  =     15501.99929693
  Solvation  Ediel_sol  =         0.00000000
  ---------------------------------------------------
  free energy    TOTEN  =      -229.37518467 eV

  energy without entropy =     -229.37518467  energy(sigma->0) =     -229.37518467


--------------------------------------------------------------------------------------------------------




--------------------------------------- Iteration      1(  17)  ---------------------------------------


    POTLOK:  cpu time      0.4334: real time      0.4338
    SETDIJ:  cpu time     19.4525: real time     19.4545
     EDDAV:  cpu time     59.5700: real time     59.5811
 BZINTS: Fermi energy:    0.079612;  336.000000 electrons
         Band energy:-0.201102E+04;  BLOECHL correction:    0.000000
       DOS:  cpu time      0.0265: real time      0.0265
    CHARGE:  cpu time     17.4937: real time     17.4965
    MIXING:  cpu time      0.0195: real time      0.0195
    --------------------------------------------
      LOOP:  cpu time     96.9957: real time     97.0120

 eigenvalue-minimisations  :  9504
 total energy-change (2. order) :-0.5076170E-03  (-0.1197308E-03)
 number of electron     335.9999997 magnetization       0.0177870
 augmentation part      -46.9883665 magnetization       0.0181863

 Broyden mixing:
  rms(total) = 0.49263E-02    rms(broyden)= 0.49263E-02
  rms(prec ) = 0.55244E-02
  weight for this iteration     100.00

 eigenvalues of (default mixing * dielectric matrix)
  average eigenvalue GAMMA=   1.5760
  4.9480  2.6012  2.6012  2.2014  1.1772  0.9962  0.9962  0.7615  0.7615  0.6824
  0.5889  0.5962

 Free energy of the ion-electron system (eV)
  ---------------------------------------------------
  alpha Z        PSCENC =       253.99581917
  Ewald energy   TEWEN  =     -9972.06266210
  -Hartree energ DENC   =     -4866.02997689
  -exchange      EXHF   =         0.00000000
  -V(xc)+E(xc)   XCENC  =       689.11035867
  PAW double counting   =     39159.74599653   -38985.11190839
  entropy T*S    EENTRO =         0.00000000
  eigenvalues    EBANDS =     -2011.02261621
  atomic energy  EATOM  =     15501.99929693
  Solvation  Ediel_sol  =         0.00000000
  ---------------------------------------------------
  free energy    TOTEN  =      -229.37569229 eV

  energy without entropy =     -229.37569229  energy(sigma->0) =     -229.37569229


--------------------------------------------------------------------------------------------------------




--------------------------------------- Iteration      1(  18)  ---------------------------------------


    POTLOK:  cpu time      0.4378: real time      0.4404
    SETDIJ:  cpu time     19.0467: real time     19.0492
     EDDAV:  cpu time     58.4486: real time     58.4594
 BZINTS: Fermi energy:    0.080989;  336.000000 electrons
         Band energy:-0.201050E+04;  BLOECHL correction:    0.000000
       DOS:  cpu time      0.0256: real time      0.0256
    CHARGE:  cpu time     19.7131: real time     19.7153
    MIXING:  cpu time      0.0208: real time      0.0208
    --------------------------------------------
      LOOP:  cpu time     97.6926: real time     97.7108

 eigenvalue-minimisations  :  9440
 total energy-change (2. order) :-0.1155441E-03  (-0.3939237E-04)
 number of electron     335.9999997 magnetization       0.0051875
 augmentation part      -46.9850449 magnetization       0.0057258

 Broyden mixing:
  rms(total) = 0.44419E-02    rms(broyden)= 0.44419E-02
  rms(prec ) = 0.46940E-02
  weight for this iteration     100.00

 eigenvalues of (default mixing * dielectric matrix)
  average eigenvalue GAMMA=   1.5444
  5.0020  2.6450  2.6450  2.2634  1.1297  1.1297  0.9912  0.9912  0.7251  0.7251
  0.5790  0.6449  0.6062

 Free energy of the ion-electron system (eV)
  ---------------------------------------------------
  alpha Z        PSCENC =       253.99581917
  Ewald energy   TEWEN  =     -9972.06266210
  -Hartree energ DENC   =     -4866.57123744
  -exchange      EXHF   =         0.00000000
  -V(xc)+E(xc)   XCENC  =       689.14553339
  PAW double counting   =     39188.46508195   -39013.84576406
  entropy T*S    EENTRO =         0.00000000
  eigenvalues    EBANDS =     -2010.50187568
  atomic energy  EATOM  =     15501.99929693
  Solvation  Ediel_sol  =         0.00000000
  ---------------------------------------------------
  free energy    TOTEN  =      -229.37580783 eV

  energy without entropy =     -229.37580783  energy(sigma->0) =     -229.37580783


--------------------------------------------------------------------------------------------------------




--------------------------------------- Iteration      1(  19)  ---------------------------------------


    POTLOK:  cpu time      0.4093: real time      0.4097
    SETDIJ:  cpu time     20.0860: real time     20.0882
     EDDAV:  cpu time     56.3618: real time     56.3729
 BZINTS: Fermi energy:    0.079989;  336.000000 electrons
         Band energy:-0.201076E+04;  BLOECHL correction:   -0.000000
       DOS:  cpu time      0.0268: real time      0.0268
    CHARGE:  cpu time     19.4487: real time     19.4514
    MIXING:  cpu time      0.0185: real time      0.0185
    --------------------------------------------
      LOOP:  cpu time     96.3511: real time     96.3676

 eigenvalue-minimisations  :  9792
 total energy-change (2. order) :-0.6095674E-05  (-0.6189727E-05)
 number of electron     335.9999997 magnetization      -0.0005370
 augmentation part      -46.9858741 magnetization      -0.0002956

 Broyden mixing:
  rms(total) = 0.20202E-02    rms(broyden)= 0.20201E-02
  rms(prec ) = 0.21948E-02
  weight for this iteration     100.00

 eigenvalues of (default mixing * dielectric matrix)
  average eigenvalue GAMMA=   1.5455
  5.0453  2.7065  2.7065  2.1100  1.4088  1.4088  1.0330  1.0330  0.8578  0.7535
  0.7535  0.5805  0.6088  0.6314

 Free energy of the ion-electron system (eV)
  ---------------------------------------------------
  alpha Z        PSCENC =       253.99581917
  Ewald energy   TEWEN  =     -9972.06266210
  -Hartree energ DENC   =     -4866.29848633
  -exchange      EXHF   =         0.00000000
  -V(xc)+E(xc)   XCENC  =       689.12872677
  PAW double counting   =     39187.13906727   -39012.51662422
  entropy T*S    EENTRO =         0.00000000
  eigenvalues    EBANDS =     -2010.76095143
  atomic energy  EATOM  =     15501.99929693
  Solvation  Ediel_sol  =         0.00000000
  ---------------------------------------------------
  free energy    TOTEN  =      -229.37581393 eV

  energy without entropy =     -229.37581393  energy(sigma->0) =     -229.37581393


--------------------------------------------------------------------------------------------------------




--------------------------------------- Iteration      1(  20)  ---------------------------------------


    POTLOK:  cpu time      0.4241: real time      0.4312
    SETDIJ:  cpu time     13.2344: real time     13.2358
     EDDAV:  cpu time     53.8952: real time     53.9052
 BZINTS: Fermi energy:    0.079654;  336.000000 electrons
         Band energy:-0.201090E+04;  BLOECHL correction:    0.000000
       DOS:  cpu time      0.0263: real time      0.0263
    CHARGE:  cpu time     15.6871: real time     15.6891
    MIXING:  cpu time      0.0208: real time      0.0208
    --------------------------------------------
      LOOP:  cpu time     83.2879: real time     83.3084

 eigenvalue-minimisations  :  9184
 total energy-change (2. order) :-0.1050057E-04  (-0.3476405E-05)
 number of electron     335.9999997 magnetization      -0.0016247
 augmentation part      -46.9864034 magnetization      -0.0015471

 Broyden mixing:
  rms(total) = 0.94489E-03    rms(broyden)= 0.94476E-03
  rms(prec ) = 0.10040E-02
  weight for this iteration     100.00

 eigenvalues of (default mixing * dielectric matrix)
  average eigenvalue GAMMA=   1.5472
  5.0951  2.7073  2.7073  2.1011  2.1011  1.2296  1.2296  0.9907  0.9907  0.7797
  0.7329  0.7329  0.5784  0.6157  0.6157

 Free energy of the ion-electron system (eV)
  ---------------------------------------------------
  alpha Z        PSCENC =       253.99581917
  Ewald energy   TEWEN  =     -9972.06266210
  -Hartree energ DENC   =     -4866.15540318
  -exchange      EXHF   =         0.00000000
  -V(xc)+E(xc)   XCENC  =       689.12168928
  PAW double counting   =     39192.28496847   -39017.66061336
  entropy T*S    EENTRO =         0.00000000
  eigenvalues    EBANDS =     -2010.89891964
  atomic energy  EATOM  =     15501.99929693
  Solvation  Ediel_sol  =         0.00000000
  ---------------------------------------------------
  free energy    TOTEN  =      -229.37582443 eV

  energy without entropy =     -229.37582443  energy(sigma->0) =     -229.37582443


--------------------------------------------------------------------------------------------------------




--------------------------------------- Iteration      1(  21)  ---------------------------------------


    POTLOK:  cpu time      0.4124: real time      0.4127
    SETDIJ:  cpu time     21.1458: real time     21.1484
     EDDAV:  cpu time     51.7510: real time     51.7613
 BZINTS: Fermi energy:    0.079615;  336.000000 electrons
         Band energy:-0.201095E+04;  BLOECHL correction:    0.000000
       DOS:  cpu time      0.0266: real time      0.0266
    CHARGE:  cpu time     20.7570: real time     20.7599
    MIXING:  cpu time      0.0148: real time      0.0148
    --------------------------------------------
      LOOP:  cpu time     94.1075: real time     94.1237

 eigenvalue-minimisations  :  9216
 total energy-change (2. order) : 0.1155247E-05  (-0.8868973E-06)
 number of electron     335.9999997 magnetization      -0.0013468
 augmentation part      -46.9865962 magnetization      -0.0013504

 Broyden mixing:
  rms(total) = 0.42336E-03    rms(broyden)= 0.42309E-03
  rms(prec ) = 0.44539E-03
  weight for this iteration     100.00

 eigenvalues of (default mixing * dielectric matrix)
  average eigenvalue GAMMA=   1.5119
  5.0970  2.6677  2.6677  2.5701  1.6165  1.4015  1.1542  1.1542  0.9273  0.9273
  0.7393  0.7393  0.7249  0.5781  0.6124  0.6124

 Free energy of the ion-electron system (eV)
  ---------------------------------------------------
  alpha Z        PSCENC =       253.99581917
  Ewald energy   TEWEN  =     -9972.06266210
  -Hartree energ DENC   =     -4866.09676481
  -exchange      EXHF   =         0.00000000
  -V(xc)+E(xc)   XCENC  =       689.11809966
  PAW double counting   =     39191.74002063   -39017.11486062
  entropy T*S    EENTRO =         0.00000000
  eigenvalues    EBANDS =     -2010.95477214
  atomic energy  EATOM  =     15501.99929693
  Solvation  Ediel_sol  =         0.00000000
  ---------------------------------------------------
  free energy    TOTEN  =      -229.37582327 eV

  energy without entropy =     -229.37582327  energy(sigma->0) =     -229.37582327


--------------------------------------------------------------------------------------------------------




--------------------------------------- Iteration      1(  22)  ---------------------------------------


    POTLOK:  cpu time      0.4254: real time      0.4293
    SETDIJ:  cpu time     26.8276: real time     26.8307
     EDDAV:  cpu time     55.3863: real time     55.3967
 BZINTS: Fermi energy:    0.079447;  336.000000 electrons
         Band energy:-0.201098E+04;  BLOECHL correction:    0.000000
       DOS:  cpu time      0.0257: real time      0.0257
    CHARGE:  cpu time     17.3927: real time     17.3953
    MIXING:  cpu time      0.0189: real time      0.0189
    --------------------------------------------
      LOOP:  cpu time    100.0766: real time    100.0966

 eigenvalue-minimisations  :  9856
 total energy-change (2. order) : 0.4662215E-06  (-0.1397131E-06)
 number of electron     335.9999997 magnetization      -0.0004689
 augmentation part      -46.9866662 magnetization      -0.0004907

 Broyden mixing:
  rms(total) = 0.23096E-03    rms(broyden)= 0.23046E-03
  rms(prec ) = 0.24511E-03
  weight for this iteration     100.00

 eigenvalues of (default mixing * dielectric matrix)
  average eigenvalue GAMMA=   1.5002
  5.0912  2.6560  2.6560  2.6232  1.6756  1.4372  1.4372  1.0816  1.0816  0.9008
  0.9008  0.7422  0.7422  0.6733  0.5793  0.6124  0.6124

 Free energy of the ion-electron system (eV)
  ---------------------------------------------------
  alpha Z        PSCENC =       253.99581917
  Ewald energy   TEWEN  =     -9972.06266210
  -Hartree energ DENC   =     -4866.07499645
  -exchange      EXHF   =         0.00000000
  -V(xc)+E(xc)   XCENC  =       689.11651246
  PAW double counting   =     39190.33025107   -39015.70478117
  entropy T*S    EENTRO =         0.00000000
  eigenvalues    EBANDS =     -2010.97526273
  atomic energy  EATOM  =     15501.99929693
  Solvation  Ediel_sol  =         0.00000000
  ---------------------------------------------------
  free energy    TOTEN  =      -229.37582281 eV

  energy without entropy =     -229.37582281  energy(sigma->0) =     -229.37582281


--------------------------------------------------------------------------------------------------------




--------------------------------------- Iteration      1(  23)  ---------------------------------------


    POTLOK:  cpu time      0.4479: real time      0.4482
    SETDIJ:  cpu time     18.2010: real time     18.2035
     EDDAV:  cpu time     53.5395: real time     53.5494
 BZINTS: Fermi energy:    0.079494;  336.000000 electrons
         Band energy:-0.201097E+04;  BLOECHL correction:    0.000000
       DOS:  cpu time      0.0257: real time      0.0257
    CHARGE:  cpu time     23.0795: real time     23.0823
    MIXING:  cpu time      0.0240: real time      0.0240
    --------------------------------------------
      LOOP:  cpu time     95.3175: real time     95.3331

 eigenvalue-minimisations  :  9216
 total energy-change (2. order) :-0.2343368E-06  (-0.5666395E-07)
 number of electron     335.9999997 magnetization      -0.0002580
 augmentation part      -46.9866382 magnetization      -0.0002542

 Broyden mixing:
[...]

  length of vectors
    10.314108670 16.788494411 10.846477853     0.097707938  0.059564603  0.092912216


 FORCES acting on ions
    electron-ion (+dipol)            ewald-force                    non-local-force                 convergence-correction
 -----------------------------------------------------------------------------------------------
   0.987E+02 -.104E+03 -.117E+02   -.104E+03 0.113E+03 0.104E+02   0.490E+01 -.899E+01 0.126E+01   0.192E-05 -.613E-07 0.548E-06
   0.986E+02 -.105E+03 -.125E+02   -.104E+03 0.113E+03 0.112E+02   0.495E+01 -.888E+01 0.132E+01   0.152E-05 -.145E-06 0.729E-06
   -.124E+02 0.420E+02 -.127E+03   0.126E+02 -.472E+02 0.134E+03   -.246E+00 0.519E+01 -.705E+01   0.101E-06 -.162E-06 -.135E-05
   -.124E+02 0.420E+02 -.127E+03   0.126E+02 -.471E+02 0.134E+03   -.246E+00 0.519E+01 -.705E+01   0.484E-07 -.109E-06 -.157E-05
   -.211E+02 -.902E+02 0.981E+02   0.198E+02 0.989E+02 -.103E+03   0.134E+01 -.874E+01 0.530E+01   -.643E-07 0.125E-06 0.191E-05
   -.211E+02 -.901E+02 0.981E+02   0.198E+02 0.988E+02 -.103E+03   0.134E+01 -.873E+01 0.530E+01   -.679E-07 0.122E-06 0.214E-05
   -.108E+03 0.949E+02 0.628E+01   0.114E+03 -.101E+03 -.416E+01   -.534E+01 0.592E+01 -.212E+01   -.147E-05 -.170E-06 0.737E-06
   -.108E+03 0.950E+02 0.626E+01   0.114E+03 -.101E+03 -.414E+01   -.534E+01 0.592E+01 -.212E+01   -.194E-05 -.118E-07 0.709E-06
   0.136E+03 -.540E+02 -.187E+02   -.143E+03 0.595E+02 0.193E+02   0.680E+01 -.552E+01 -.559E+00   0.167E-05 0.657E-08 -.969E-06
   0.136E+03 -.540E+02 -.187E+02   -.143E+03 0.595E+02 0.193E+02   0.680E+01 -.552E+01 -.558E+00   0.154E-05 0.509E-07 -.966E-06
   -.136E+03 0.540E+02 0.187E+02   0.143E+03 -.595E+02 -.193E+02   -.680E+01 0.552E+01 0.558E+00   -.147E-05 0.161E-06 0.101E-05
   -.136E+03 0.540E+02 0.187E+02   0.143E+03 -.595E+02 -.192E+02   -.680E+01 0.552E+01 0.557E+00   -.181E-05 0.955E-07 0.103E-05
   0.108E+03 -.950E+02 -.625E+01   -.114E+03 0.101E+03 0.414E+01   0.534E+01 -.592E+01 0.212E+01   0.164E-05 0.185E-06 -.660E-06
   0.108E+03 -.950E+02 -.625E+01   -.114E+03 0.101E+03 0.414E+01   0.534E+01 -.592E+01 0.212E+01   0.173E-05 0.140E-06 -.615E-06
   -.123E+02 -.421E+02 0.127E+03   0.126E+02 0.473E+02 -.134E+03   -.245E+00 -.519E+01 0.705E+01   0.267E-06 -.712E-07 0.884E-06
   -.124E+02 -.420E+02 0.127E+03   0.126E+02 0.472E+02 -.134E+03   -.246E+00 -.519E+01 0.705E+01   -.100E-08 0.115E-06 0.106E-05
   0.211E+02 -.902E+02 0.981E+02   -.198E+02 0.989E+02 -.103E+03   -.134E+01 -.874E+01 0.530E+01   -.149E-07 -.242E-06 0.202E-05
   0.211E+02 -.902E+02 0.981E+02   -.198E+02 0.990E+02 -.103E+03   -.134E+01 -.874E+01 0.530E+01   0.600E-07 -.148E-06 0.223E-05
   -.986E+02 -.105E+03 -.125E+02   0.104E+03 0.114E+03 0.112E+02   -.495E+01 -.888E+01 0.132E+01   -.158E-05 -.473E-06 0.713E-06
   -.986E+02 -.105E+03 -.125E+02   0.104E+03 0.113E+03 0.112E+02   -.495E+01 -.888E+01 0.132E+01   -.189E-05 -.365E-06 0.661E-06
   -.136E+03 -.539E+02 -.187E+02   0.143E+03 0.595E+02 0.192E+02   -.680E+01 -.552E+01 -.558E+00   -.145E-05 0.126E-07 -.934E-06
   -.136E+03 -.540E+02 -.187E+02   0.143E+03 0.595E+02 0.193E+02   -.680E+01 -.552E+01 -.558E+00   -.174E-05 -.110E-06 -.963E-06
   0.124E+02 0.420E+02 -.127E+03   -.126E+02 -.472E+02 0.134E+03   0.246E+00 0.519E+01 -.705E+01   -.194E-06 0.667E-07 -.134E-05
   0.126E+02 0.424E+02 -.127E+03   -.128E+02 -.476E+02 0.134E+03   0.216E+00 0.523E+01 -.705E+01   0.235E-08 0.108E-06 -.167E-05
   -.108E+03 -.950E+02 -.625E+01   0.114E+03 0.101E+03 0.414E+01   -.534E+01 -.592E+01 0.212E+01   -.175E-05 0.281E-07 -.651E-06
   -.108E+03 -.950E+02 -.625E+01   0.114E+03 0.101E+03 0.413E+01   -.534E+01 -.592E+01 0.212E+01   -.160E-05 -.914E-07 -.564E-06
   0.986E+02 0.105E+03 0.125E+02   -.104E+03 -.113E+03 -.112E+02   0.495E+01 0.888E+01 -.132E+01   0.161E-05 0.120E-06 -.874E-06
   0.987E+02 0.105E+03 0.126E+02   -.104E+03 -.113E+03 -.112E+02   0.495E+01 0.888E+01 -.132E+01   0.172E-05 0.182E-06 -.952E-06
   -.986E+02 0.105E+03 0.125E+02   0.104E+03 -.113E+03 -.112E+02   -.495E+01 0.888E+01 -.132E+01   -.175E-05 0.415E-06 -.852E-06
   -.987E+02 0.105E+03 0.125E+02   0.104E+03 -.113E+03 -.112E+02   -.495E+01 0.888E+01 -.132E+01   -.162E-05 0.298E-06 -.978E-06
   0.728E+02 0.961E+02 0.632E+02   -.756E+02 -.106E+03 -.653E+02   0.274E+01 0.971E+01 0.207E+01   0.973E-06 0.631E-06 0.341E-06
   0.728E+02 0.961E+02 0.632E+02   -.755E+02 -.106E+03 -.653E+02   0.274E+01 0.971E+01 0.207E+01   0.745E-06 0.570E-06 0.380E-06
   0.218E+02 -.938E+02 -.889E+02   -.205E+02 0.100E+03 0.940E+02   -.133E+01 -.628E+01 -.509E+01   0.380E-06 0.257E-06 -.124E-05
   0.218E+02 -.938E+02 -.889E+02   -.205E+02 0.100E+03 0.940E+02   -.133E+01 -.628E+01 -.509E+01   0.142E-06 0.119E-06 -.123E-05
   -.211E+02 0.902E+02 -.981E+02   0.198E+02 -.989E+02 0.103E+03   0.134E+01 0.874E+01 -.530E+01   0.669E-07 -.489E-07 -.152E-05
   -.211E+02 0.902E+02 -.981E+02   0.198E+02 -.989E+02 0.103E+03   0.134E+01 0.874E+01 -.530E+01   -.177E-06 -.786E-07 -.163E-05
   -.218E+02 0.938E+02 0.889E+02   0.205E+02 -.100E+03 -.940E+02   0.133E+01 0.628E+01 0.509E+01   -.236E-06 -.169E-06 0.162E-05
   -.218E+02 0.938E+02 0.889E+02   0.205E+02 -.100E+03 -.940E+02   0.133E+01 0.628E+01 0.509E+01   -.405E-06 -.131E-06 0.181E-05
   0.211E+02 0.902E+02 -.980E+02   -.198E+02 -.990E+02 0.103E+03   -.134E+01 0.874E+01 -.530E+01   0.201E-06 0.159E-06 -.158E-05
   0.211E+02 0.902E+02 -.981E+02   -.198E+02 -.989E+02 0.103E+03   -.134E+01 0.874E+01 -.530E+01   -.735E-07 0.198E-06 -.173E-05
   0.728E+02 -.962E+02 -.632E+02   -.755E+02 0.106E+03 0.653E+02   0.274E+01 -.971E+01 -.207E+01   0.782E-06 -.644E-06 -.620E-06
   0.728E+02 -.962E+02 -.632E+02   -.755E+02 0.106E+03 0.653E+02   0.274E+01 -.971E+01 -.207E+01   0.967E-06 -.566E-06 -.869E-06
   0.136E+03 0.539E+02 0.187E+02   -.143E+03 -.595E+02 -.193E+02   0.680E+01 0.552E+01 0.558E+00   0.150E-05 -.495E-07 0.104E-05
   0.136E+03 0.538E+02 0.187E+02   -.143E+03 -.594E+02 -.193E+02   0.680E+01 0.552E+01 0.558E+00   0.175E-05 -.130E-06 0.109E-05
   0.108E+03 0.942E+02 0.540E+01   -.114E+03 -.100E+03 -.328E+01   0.534E+01 0.606E+01 -.207E+01   0.203E-05 0.584E-07 0.725E-06
   0.108E+03 0.950E+02 0.625E+01   -.114E+03 -.101E+03 -.414E+01   0.534E+01 0.592E+01 -.212E+01   0.151E-05 -.158E-06 0.715E-06
   -.728E+02 -.961E+02 -.633E+02   0.755E+02 0.106E+03 0.653E+02   -.274E+01 -.971E+01 -.207E+01   -.790E-06 -.246E-06 -.675E-06
   -.728E+02 -.960E+02 -.633E+02   0.756E+02 0.106E+03 0.653E+02   -.275E+01 -.971E+01 -.208E+01   -.963E-06 -.289E-06 -.840E-06
   -.218E+02 -.938E+02 -.889E+02   0.205E+02 0.100E+03 0.939E+02   0.133E+01 -.628E+01 -.509E+01   -.121E-06 -.667E-07 -.109E-05
   -.218E+02 -.938E+02 -.889E+02   0.205E+02 0.100E+03 0.940E+02   0.133E+01 -.628E+01 -.509E+01   -.372E-06 0.143E-06 -.135E-05
   0.218E+02 0.938E+02 0.889E+02   -.205E+02 -.100E+03 -.940E+02   -.133E+01 0.628E+01 0.509E+01   0.183E-06 -.142E-06 0.159E-05
   0.219E+02 0.938E+02 0.887E+02   -.206E+02 -.100E+03 -.938E+02   -.135E+01 0.628E+01 0.513E+01   0.471E-06 0.145E-07 0.190E-05
   -.728E+02 0.961E+02 0.633E+02   0.755E+02 -.106E+03 -.654E+02   -.274E+01 0.971E+01 0.207E+01   -.709E-06 0.293E-06 0.284E-06
   -.728E+02 0.961E+02 0.633E+02   0.755E+02 -.106E+03 -.653E+02   -.274E+01 0.971E+01 0.207E+01   -.960E-06 0.286E-06 0.450E-06
   0.123E+02 -.420E+02 0.127E+03   -.125E+02 0.472E+02 -.134E+03   0.246E+00 -.519E+01 0.705E+01   0.843E-08 0.234E-07 0.911E-06
   0.124E+02 -.420E+02 0.127E+03   -.126E+02 0.472E+02 -.134E+03   0.246E+00 -.519E+01 0.705E+01   -.269E-06 -.721E-07 0.983E-06
 -----------------------------------------------------------------------------------------------
   0.916E-01 -.674E-01 -.925E-02   0.711E-14 -.121E-12 0.142E-12   -.916E-01 0.674E-01 0.926E-02   0.347E-07 0.326E-07 -.921E-07


 POSITION                                       TOTAL-FORCE (eV/Angst)
 -----------------------------------------------------------------------------------
      7.84031      7.97181     -7.59171         0.008829     -0.154550     -0.036825
     16.23455      7.96182     -7.59135         0.002478     -0.001237      0.001013
      3.16872      2.44282     -6.01943         0.002160     -0.000938     -0.002562
     11.56297      2.44282     -6.01943         0.002108     -0.001007     -0.002552
      1.76685      7.82725    -10.10485        -0.000013      0.000117     -0.000306
     10.16110      7.82725    -10.10485         0.002941     -0.003879     -0.002505
      5.05050      1.12562     -8.40433         0.001489     -0.000630     -0.000702
     13.44475      1.12562     -8.40433         0.001581     -0.000615     -0.000630
      5.13205      1.09979     -2.45651         0.000148      0.000552     -0.000579
     13.52630      1.09979     -2.45651        -0.000108      0.000435     -0.000274
      3.26219      7.47505     -8.62356         0.000224     -0.000382      0.000230
     11.65644      7.47505     -8.62356         0.000055      0.001285     -0.001749
      3.34375      7.44923     -2.67574        -0.001359      0.000689      0.000891
     11.73799      7.44923     -2.67574        -0.001713      0.001136      0.001066
      7.36585      0.97835     -4.87422         0.002271      0.001102      0.002191
     15.76010      0.97835     -4.87422         0.002151      0.000887      0.002524
      2.43027      2.67356     -9.91842         0.000161      0.000005     -0.000430
     10.82452      2.67356     -9.91842         0.000128     -0.000042     -0.000527
      4.75106      2.80814     -7.40493        -0.002462     -0.001126      0.001023
     13.14531      2.80814     -7.40493        -0.002410     -0.001288      0.000875
      7.45932      6.25348     -2.64294        -0.000024      0.000393     -0.000201
     15.85356      6.25348     -2.64294         0.000072      0.000467     -0.000307
      1.02840      7.59650     -6.20585        -0.002211     -0.000882     -0.002489
      9.42265      7.59650     -6.20585        -0.025550      0.030271     -0.033059
      0.85338      2.29554     -2.48931         0.001566      0.000622      0.000669
      9.24762      2.29554     -2.48931         0.001548      0.000637      0.000661
      3.64318      5.76671     -3.67515         0.002487      0.001003     -0.001225
     12.03743      5.76671     -3.67515         0.002248      0.001000     -0.001287
      0.55394      0.61303     -3.48872        -0.002468      0.001271     -0.000934
      8.94819      0.61303     -3.48872        -0.002101      0.001244     -0.000613
      5.79350     -0.03143     -4.03202        -0.001733      0.001351      0.000453
     14.18775     -0.03143     -4.03202        -0.001208      0.001794      0.000186
      4.85766      7.53946     -1.03917        -0.003788      0.001989     -0.000002
     13.25190      7.53946     -1.03917        -0.004011      0.001995     -0.000356
      5.96398      5.90128     -1.16165        -0.000269      0.000265      0.000516
     14.35822      5.90128     -1.16165        -0.000048     -0.000052      0.000401
      3.53659      1.03539    -10.04090         0.003842     -0.002097      0.000204
     11.93084      1.03539    -10.04090         0.003911     -0.002055      0.000227
      6.62739      0.74760     -0.97522         0.000120     -0.000190      0.000577
     15.02164      0.74760     -0.97522         0.000077      0.000019      0.000491
      1.59638      3.45260     -6.86163        -0.001168     -0.001744     -0.000239
      9.99063      3.45260     -6.86163        -0.001283     -0.001589     -0.000092
      0.93493      2.32137     -8.43713        -0.000094     -0.000502      0.000281
      9.32918      2.32137     -8.43713        -0.000210     -0.000197      0.000330
      7.54087      6.27930     -8.59076         0.015979      0.124233      0.050574
     15.93512      6.27930     -8.59076        -0.001649     -0.000681     -0.000713
      2.60074      8.60628     -7.04805         0.001195     -0.001835     -0.000383
     10.99499      8.60628     -7.04805         0.006294     -0.007661      0.009157
      7.73371      2.38578     -0.85274         0.003874      0.002078     -0.000393
     16.12796      2.38578     -0.85274         0.003939      0.002042     -0.000265
      0.66053      6.18907    -10.22733        -0.003931     -0.002161      0.000240
      9.05478      6.18907    -10.22733        -0.012510      0.002923      0.012298
      6.79787      5.12225     -4.21845         0.001256      0.001909      0.000003
     15.19211      5.12225     -4.21845         0.001161      0.001761      0.000307
      5.22552      6.13203     -5.06065        -0.002040      0.000939      0.002384
     13.61977      6.13203     -5.06065        -0.001933      0.000932      0.002424
 -----------------------------------------------------------------------------------
    total drift:                                0.000003      0.000010      0.000003


--------------------------------------------------------------------------------------------------------



  FREE ENERGIE OF THE ION-ELECTRON SYSTEM (eV)
  ---------------------------------------------------
  free  energy   TOTEN  =      -229.37582284 eV

  energy  without entropy=     -229.37582284  energy(sigma->0) =     -229.37582284



--------------------------------------------------------------------------------------------------------


    POTLOK:  cpu time     20.7294: real time     20.7350


--------------------------------------------------------------------------------------------------------


     LOOP+:  cpu time   3550.7446: real time   3551.4419
    4ORBIT:  cpu time      0.0000: real time      0.0000



 total charge

# of ion       s       p       d       tot
------------------------------------------
    1        1.376   2.243   0.000   3.619
    2        1.376   2.247   0.000   3.623
    3        1.376   2.258   0.000   3.635
    4        1.376   2.258   0.000   3.635
    5        1.376   2.247   0.000   3.623
    6        1.376   2.247   0.000   3.622
    7        1.375   2.262   0.000   3.638
    8        1.375   2.262   0.000   3.638
    9        1.377   2.257   0.000   3.634
   10        1.377   2.257   0.000   3.634
   11        1.377   2.257   0.000   3.634
   12        1.377   2.257   0.000   3.634
   13        1.375   2.262   0.000   3.638
   14        1.375   2.262   0.000   3.638
   15        1.376   2.258   0.000   3.635
   16        1.376   2.258   0.000   3.635
   17        1.376   2.247   0.000   3.622
   18        1.376   2.247   0.000   3.623
   19        1.376   2.247   0.000   3.623
   20        1.376   2.247   0.000   3.623
   21        1.377   2.257   0.000   3.634
   22        1.377   2.257   0.000   3.634
   23        1.376   2.258   0.000   3.635
   24        1.377   2.257   0.000   3.634
   25        1.375   2.262   0.000   3.638
   26        1.375   2.262   0.000   3.638
   27        1.376   2.247   0.000   3.623
   28        1.376   2.247   0.000   3.623
   29        1.376   2.247   0.000   3.623
   30        1.376   2.247   0.000   3.623
   31        1.376   2.254   0.000   3.630
   32        1.376   2.254   0.000   3.630
   33        1.375   2.263   0.000   3.638
   34        1.375   2.263   0.000   3.638
   35        1.376   2.247   0.000   3.623
   36        1.376   2.247   0.000   3.623
   37        1.375   2.263   0.000   3.638
   38        1.375   2.263   0.000   3.638
   39        1.376   2.247   0.000   3.622
   40        1.376   2.247   0.000   3.623
   41        1.376   2.254   0.000   3.630
   42        1.376   2.254   0.000   3.630
   43        1.377   2.257   0.000   3.634
   44        1.377   2.257   0.000   3.634
   45        1.376   2.259   0.000   3.634
   46        1.375   2.262   0.000   3.638
   47        1.376   2.254   0.000   3.630
   48        1.376   2.254   0.000   3.630
   49        1.375   2.263   0.000   3.638
   50        1.375   2.263   0.000   3.638
   51        1.375   2.263   0.000   3.638
   52        1.375   2.263   0.000   3.638
   53        1.376   2.254   0.000   3.630
   54        1.376   2.254   0.000   3.630
   55        1.376   2.258   0.000   3.635
   56        1.376   2.258   0.000   3.635
--------------------------------------------------
tot         77.050 126.303   0.000 203.353



 magnetization (x)

# of ion       s       p       d       tot
------------------------------------------
    1        0.000   0.000   0.000   0.000
    2        0.000   0.000   0.000   0.000
    3        0.000   0.000   0.000   0.000
    4        0.000   0.000   0.000   0.000
    5        0.000   0.000   0.000   0.000
    6        0.000   0.000   0.000   0.000
    7        0.000   0.000   0.000   0.000
    8        0.000   0.000   0.000   0.000
    9        0.000   0.000   0.000   0.000
   10        0.000   0.000   0.000   0.000
   11        0.000   0.000   0.000   0.000
   12        0.000   0.000   0.000   0.000
   13        0.000   0.000   0.000   0.000
   14        0.000   0.000   0.000   0.000
   15        0.000   0.000   0.000   0.000
   16        0.000   0.000   0.000   0.000
   17        0.000   0.000   0.000   0.000
   18        0.000   0.000   0.000   0.000
   19        0.000   0.000   0.000   0.000
   20        0.000   0.000   0.000   0.000
   21        0.000   0.000   0.000   0.000
   22        0.000   0.000   0.000   0.000
   23        0.000   0.000   0.000   0.000
   24        0.000   0.000   0.000   0.000
   25        0.000   0.000   0.000   0.000
   26        0.000   0.000   0.000   0.000
   27        0.000   0.000   0.000   0.000
   28        0.000   0.000   0.000   0.000
   29        0.000   0.000   0.000   0.000
   30        0.000   0.000   0.000   0.000
   31        0.000   0.000   0.000   0.000
   32        0.000   0.000   0.000   0.000
   33        0.000   0.000   0.000   0.000
   34        0.000   0.000   0.000   0.000
   35        0.000   0.000   0.000   0.000
   36        0.000   0.000   0.000   0.000
   37        0.000   0.000   0.000   0.000
   38        0.000   0.000   0.000   0.000
   39        0.000   0.000   0.000   0.000
   40        0.000  -0.000   0.000   0.000
   41        0.000   0.000   0.000   0.000
   42        0.000   0.000   0.000   0.000
   43        0.000   0.000   0.000   0.000
   44        0.000   0.000   0.000   0.000
   45        0.000   0.000   0.000   0.000
   46        0.000   0.000   0.000   0.000
   47        0.000   0.000   0.000   0.000
   48        0.000   0.000   0.000   0.000
   49        0.000   0.000   0.000   0.000
   50        0.000   0.000   0.000   0.000
   51        0.000   0.000   0.000   0.000
   52        0.000   0.000   0.000   0.000
   53        0.000   0.000   0.000   0.000
   54        0.000   0.000   0.000   0.000
   55        0.000   0.000   0.000   0.000
   56        0.000   0.000   0.000   0.000
--------------------------------------------------
tot          0.000   0.000   0.000   0.000

 BZINTS: Fermi energy:    0.079530;  336.000000 electrons
         Band energy:-0.201098E+04;  BLOECHL correction:    0.000000

 total amount of memory used by VASP MPI-rank0   322725. kBytes
=======================================================================

   base      :      30000. kBytes
   nonl-proj :      70692. kBytes
   fftplans  :      34504. kBytes
   grid      :      83442. kBytes
   one-center:        344. kBytes
   wavefun   :     103743. kBytes

  
  
 General timing and accounting informations for this job:
 ========================================================
  
                  Total CPU time used (sec):     3597.539
                            User time (sec):     3596.219
                          System time (sec):        1.320
                         Elapsed time (sec):     3598.925
  
                   Maximum memory used (kb):      610468.
                   Average memory used (kb):          N/A
  
                          Minor page faults:       532737
                          Major page faults:           99
                 Voluntary context switches:         7153
