  55  55   0   0
  0.2301251E+02  0.1218282E-08  0.7661564E-09  0.1373046E-08  0.0000000E+00
   1.0000000000000000E-004
  CAR 
 NEB_refined                             
      9.30528965    -23.65698009  301      1.29181408      1.00000000
    -23.657  0.0000E+00  0.0000E+00
    -23.547  0.0000E+00  0.0000E+00
    -23.437  0.0000E+00  0.0000E+00
    -23.327 -0.4361E-31 -0.4791E-32
    -23.217 -0.2926E-27 -0.3216E-28
    -23.108 -0.1066E-23 -0.1172E-24
    -22.998 -0.2116E-20 -0.2326E-21
    -22.888 -0.2286E-17 -0.2514E-18
    -22.778 -0.1305E-14 -0.1436E-15
    -22.668 -0.4152E-12 -0.4576E-13
    -22.558 -0.7203E-10 -0.7960E-11
    -22.448 -0.6819E-08 -0.7572E-09
    -22.338 -0.3533E-06 -0.3958E-07
    -22.229 -0.1005E-04 -0.1144E-05
    -22.119 -0.1568E-03 -0.1837E-04
    -22.009 -0.1323E-02 -0.1637E-03
    -21.899 -0.5641E-02 -0.7835E-03
    -21.789 -0.8562E-02 -0.1724E-02
    -21.679  0.1970E-01  0.4400E-03
    -21.569  0.1236E+00  0.1403E-01
    -21.459  0.3219E+00  0.4940E-01
    -21.350  0.5511E+00  0.1100E+00
    -21.240  0.6456E+00  0.1809E+00
    -21.130  0.5244E+00  0.2385E+00
    -21.020  0.2829E+00  0.2696E+00
    -20.910  0.7876E-01  0.2782E+00
    -20.800 -0.5122E-02  0.2777E+00
    -20.690 -0.1127E-01  0.2764E+00
    -20.581 -0.3498E-02  0.2761E+00
    -20.471 -0.5109E-03  0.2760E+00
    -20.361 -0.3930E-04  0.2760E+00
    -20.251 -0.1634E-05  0.2760E+00
    -20.141 -0.3695E-07  0.2760E+00
    -20.031 -0.4553E-09  0.2760E+00
    -19.921 -0.3058E-11  0.2760E+00
    -19.811 -0.1117E-13  0.2760E+00
    -19.702 -0.2425E-16  0.2760E+00
    -19.592  0.0000E+00  0.2760E+00
    -19.482  0.0000E+00  0.2760E+00
    -19.372  0.0000E+00  0.2760E+00
    -19.262  0.0000E+00  0.2760E+00
    -19.152  0.0000E+00  0.2760E+00
    -19.042  0.0000E+00  0.2760E+00
    -18.932  0.0000E+00  0.2760E+00
    -18.823  0.0000E+00  0.2760E+00
    -18.713  0.0000E+00  0.2760E+00
    -18.603  0.0000E+00  0.2760E+00
    -18.493  0.0000E+00  0.2760E+00
    -18.383  0.0000E+00  0.2760E+00
    -18.273  0.0000E+00  0.2760E+00
    -18.163  0.0000E+00  0.2760E+00
    -18.053  0.0000E+00  0.2760E+00
    -17.944  0.0000E+00  0.2760E+00
    -17.834  0.0000E+00  0.2760E+00
    -17.724  0.0000E+00  0.2760E+00
    -17.614  0.0000E+00  0.2760E+00
    -17.504  0.0000E+00  0.2760E+00
    -17.394  0.0000E+00  0.2760E+00
    -17.284  0.0000E+00  0.2760E+00
    -17.174  0.0000E+00  0.2760E+00
    -17.065  0.0000E+00  0.2760E+00
    -16.955  0.0000E+00  0.2760E+00
    -16.845  0.0000E+00  0.2760E+00
    -16.735  0.0000E+00  0.2760E+00
    -16.625  0.0000E+00  0.2760E+00
    -16.515  0.0000E+00  0.2760E+00
    -16.405  0.0000E+00  0.2760E+00
    -16.295  0.0000E+00  0.2760E+00
    -16.186  0.0000E+00  0.2760E+00
    -16.076  0.0000E+00  0.2760E+00
    -15.966  0.0000E+00  0.2760E+00
    -15.856  0.0000E+00  0.2760E+00
    -15.746  0.0000E+00  0.2760E+00
    -15.636  0.0000E+00  0.2760E+00
    -15.526  0.0000E+00  0.2760E+00
    -15.416  0.0000E+00  0.2760E+00
    -15.307  0.0000E+00  0.2760E+00
    -15.197  0.0000E+00  0.2760E+00
    -15.087  0.0000E+00  0.2760E+00
    -14.977  0.0000E+00  0.2760E+00
    -14.867  0.0000E+00  0.2760E+00
    -14.757  0.0000E+00  0.2760E+00
    -14.647  0.0000E+00  0.2760E+00
    -14.537  0.0000E+00  0.2760E+00
    -14.428  0.0000E+00  0.2760E+00
    -14.318  0.0000E+00  0.2760E+00
    -14.208  0.0000E+00  0.2760E+00
    -14.098  0.0000E+00  0.2760E+00
    -13.988  0.0000E+00  0.2760E+00
    -13.878  0.0000E+00  0.2760E+00
    -13.768  0.0000E+00  0.2760E+00
    -13.658  0.0000E+00  0.2760E+00
    -13.549  0.0000E+00  0.2760E+00
    -13.439  0.0000E+00  0.2760E+00
    -13.329  0.0000E+00  0.2760E+00
    -13.219  0.0000E+00  0.2760E+00
    -13.109  0.0000E+00  0.2760E+00
    -12.999  0.0000E+00  0.2760E+00
    -12.889  0.0000E+00  0.2760E+00
    -12.779  0.0000E+00  0.2760E+00
    -12.670  0.0000E+00  0.2760E+00
    -12.560 -0.6090E-31  0.2760E+00
    -12.450 -0.3986E-27  0.2760E+00
    -12.340 -0.1418E-23  0.2760E+00
    -12.230 -0.2746E-20  0.2760E+00
    -12.120 -0.2890E-17  0.2760E+00
    -12.010 -0.1602E-14  0.2760E+00
    -11.900 -0.4934E-12  0.2760E+00
    -11.791 -0.8226E-10  0.2760E+00
    -11.681 -0.7401E-08  0.2760E+00
    -11.571 -0.3577E-06  0.2760E+00
    -11.461 -0.9214E-05  0.2760E+00
    -11.351 -0.1241E-03  0.2760E+00
    -11.241 -0.8282E-03  0.2759E+00
    -11.131 -0.2193E-02  0.2757E+00
    -11.021  0.2051E-02  0.2759E+00
    -10.912  0.2435E-01  0.2786E+00
    -10.802  0.5327E-01  0.2844E+00
    -10.692  0.5110E-01  0.2900E+00
    -10.582  0.2057E-01  0.2923E+00
    -10.472  0.2517E-03  0.2923E+00
    -10.362 -0.2949E-02  0.2920E+00
    -10.252 -0.2774E-02  0.2917E+00
    -10.142  0.6931E-03  0.2918E+00
    -10.033  0.1876E-01  0.2938E+00
     -9.923  0.4989E-01  0.2993E+00
     -9.813  0.7552E-01  0.3076E+00
     -9.703  0.8460E-01  0.3169E+00
     -9.593  0.8621E-01  0.3264E+00
     -9.483  0.1052E+00  0.3379E+00
     -9.373  0.1318E+00  0.3524E+00
     -9.263  0.1182E+00  0.3654E+00
     -9.154  0.5891E-01  0.3719E+00
     -9.044  0.8600E-02  0.3728E+00
     -8.934 -0.4725E-02  0.3723E+00
     -8.824 -0.2276E-02  0.3720E+00
     -8.714 -0.3878E-03  0.3720E+00
     -8.604 -0.3172E-04  0.3720E+00
     -8.494 -0.1335E-05  0.3720E+00
     -8.384 -0.2972E-07  0.3720E+00
     -8.275 -0.3541E-09  0.3720E+00
     -8.165 -0.2273E-11  0.3720E+00
     -8.055 -0.7898E-14  0.3720E+00
     -7.945 -0.1617E-16  0.3720E+00
     -7.835  0.0000E+00  0.3720E+00
     -7.725  0.0000E+00  0.3720E+00
     -7.615  0.0000E+00  0.3720E+00
     -7.505  0.0000E+00  0.3720E+00
     -7.396  0.0000E+00  0.3720E+00
     -7.286  0.0000E+00  0.3720E+00
     -7.176  0.0000E+00  0.3720E+00
     -7.066  0.0000E+00  0.3720E+00
     -6.956  0.0000E+00  0.3720E+00
     -6.846  0.0000E+00  0.3720E+00
     -6.736  0.0000E+00  0.3720E+00
     -6.626  0.0000E+00  0.3720E+00
     -6.517  0.0000E+00  0.3720E+00
     -6.407  0.0000E+00  0.3720E+00
     -6.297  0.0000E+00  0.3720E+00
     -6.187  0.0000E+00  0.3720E+00
     -6.077  0.0000E+00  0.3720E+00
     -5.967  0.0000E+00  0.3720E+00
     -5.857  0.0000E+00  0.3720E+00
     -5.747  0.0000E+00  0.3720E+00
     -5.638  0.0000E+00  0.3720E+00
     -5.528  0.0000E+00  0.3720E+00
     -5.418  0.0000E+00  0.3720E+00
     -5.308  0.0000E+00  0.3720E+00
     -5.198  0.0000E+00  0.3720E+00
     -5.088  0.0000E+00  0.3720E+00
     -4.978  0.0000E+00  0.3720E+00
     -4.868 -0.1168E-31  0.3720E+00
     -4.759 -0.8746E-28  0.3720E+00
     -4.649 -0.3495E-24  0.3720E+00
     -4.539 -0.7612E-21  0.3720E+00
     -4.429 -0.9030E-18  0.3720E+00
     -4.319 -0.5649E-15  0.3720E+00
     -4.209 -0.1973E-12  0.3720E+00
     -4.099 -0.3730E-10  0.3720E+00
     -3.989 -0.3810E-08  0.3720E+00
     -3.880 -0.2091E-06  0.3720E+00
     -3.770 -0.6104E-05  0.3720E+00
     -3.660 -0.9290E-04  0.3720E+00
     -3.550 -0.7031E-03  0.3719E+00
     -3.440 -0.2265E-02  0.3717E+00
     -3.330 -0.1552E-03  0.3716E+00
     -3.220  0.1789E-01  0.3736E+00
     -3.110  0.5344E-01  0.3795E+00
     -3.001  0.8588E-01  0.3889E+00
     -2.891  0.8555E-01  0.3983E+00
     -2.781  0.4715E-01  0.4035E+00
     -2.671  0.9496E-02  0.4045E+00
     -2.561 -0.2691E-02  0.4042E+00
     -2.451 -0.1826E-02  0.4040E+00
     -2.341 -0.4098E-03  0.4040E+00
     -2.232 -0.3040E-03  0.4040E+00
     -2.122 -0.1335E-02  0.4038E+00
     -2.012 -0.2137E-02  0.4036E+00
     -1.902  0.6362E-02  0.4043E+00
     -1.792  0.3292E-01  0.4079E+00
     -1.682  0.6085E-01  0.4146E+00
     -1.572  0.6907E-01  0.4222E+00
     -1.462  0.6937E-01  0.4298E+00
     -1.353  0.7143E-01  0.4376E+00
     -1.243  0.6230E-01  0.4445E+00
     -1.133  0.4496E-01  0.4494E+00
     -1.023  0.4075E-01  0.4539E+00
     -0.913  0.5191E-01  0.4596E+00
     -0.803  0.5589E-01  0.4658E+00
     -0.693  0.4214E-01  0.4704E+00
     -0.583  0.3916E-01  0.4747E+00
     -0.474  0.7444E-01  0.4829E+00
     -0.364  0.1239E+00  0.4965E+00
     -0.254  0.1381E+00  0.5117E+00
     -0.144  0.1090E+00  0.5236E+00
     -0.034  0.7449E-01  0.5318E+00
      0.076  0.6898E-01  0.5394E+00
      0.186  0.8551E-01  0.5488E+00
      0.296  0.8571E-01  0.5582E+00
      0.405  0.6853E-01  0.5657E+00
      0.515  0.7200E-01  0.5736E+00
      0.625  0.1086E+00  0.5856E+00
      0.735  0.1457E+00  0.6016E+00
      0.845  0.1497E+00  0.6180E+00
      0.955  0.1273E+00  0.6320E+00
      1.065  0.9770E-01  0.6428E+00
      1.175  0.7759E-01  0.6513E+00
      1.284  0.5843E-01  0.6577E+00
      1.394  0.2429E-01  0.6604E+00
      1.504  0.5101E-03  0.6604E+00
      1.614 -0.2839E-02  0.6601E+00
      1.724 -0.8725E-03  0.6600E+00
      1.834 -0.1108E-03  0.6600E+00
      1.944 -0.6973E-05  0.6600E+00
      2.054 -0.2294E-06  0.6600E+00
      2.163 -0.4033E-08  0.6600E+00
      2.273 -0.3825E-10  0.6600E+00
      2.383 -0.1967E-12  0.6600E+00
      2.493 -0.5497E-15  0.6600E+00
      2.603 -0.1805E-29  0.6600E+00
      2.713 -0.9365E-26  0.6600E+00
      2.823 -0.2644E-22  0.6600E+00
      2.933 -0.4056E-19  0.6600E+00
      3.042 -0.3377E-16  0.6600E+00
      3.152 -0.1472E-13  0.6600E+00
      3.262 -0.3561E-11  0.6600E+00
      3.372 -0.4626E-09  0.6600E+00
      3.482 -0.3203E-07  0.6600E+00
      3.592 -0.1168E-05  0.6600E+00
      3.702 -0.2187E-04  0.6600E+00
      3.812 -0.1989E-03  0.6600E+00
      3.921 -0.7324E-03  0.6599E+00
      4.031  0.1095E-03  0.6599E+00
      4.141  0.6992E-02  0.6607E+00
      4.251  0.1561E-01  0.6624E+00
      4.361  0.1273E-01  0.6638E+00
      4.471  0.3208E-02  0.6641E+00
      4.581 -0.7138E-03  0.6641E+00
      4.691 -0.4842E-03  0.6640E+00
      4.800 -0.1029E-03  0.6640E+00
      4.910 -0.2090E-03  0.6640E+00
      5.020 -0.1135E-02  0.6639E+00
      5.130 -0.2129E-02  0.6636E+00
      5.240  0.4894E-02  0.6642E+00
      5.350  0.2899E-01  0.6673E+00
      5.460  0.5534E-01  0.6734E+00
      5.570  0.5747E-01  0.6797E+00
      5.679  0.4295E-01  0.6845E+00
      5.789  0.4271E-01  0.6891E+00
      5.899  0.4841E-01  0.6945E+00
      6.009  0.4265E-01  0.6992E+00
      6.119  0.4850E-01  0.7045E+00
      6.229  0.6703E-01  0.7118E+00
      6.339  0.6848E-01  0.7194E+00
      6.449  0.5779E-01  0.7257E+00
      6.558  0.5951E-01  0.7323E+00
      6.668  0.6895E-01  0.7398E+00
      6.778  0.6826E-01  0.7473E+00
      6.888  0.7044E-01  0.7551E+00
      6.998  0.9279E-01  0.7653E+00
      7.108  0.1065E+00  0.7770E+00
      7.218  0.8173E-01  0.7860E+00
      7.328  0.4264E-01  0.7906E+00
      7.437  0.1440E-01  0.7922E+00
      7.547  0.6016E-03  0.7923E+00
      7.657 -0.1797E-02  0.7921E+00
      7.767 -0.6771E-03  0.7920E+00
      7.877 -0.1039E-03  0.7920E+00
      7.987 -0.7801E-05  0.7920E+00
      8.097 -0.3027E-06  0.7920E+00
      8.207 -0.6208E-08  0.7920E+00
      8.316 -0.6803E-10  0.7920E+00
      8.426 -0.4009E-12  0.7920E+00
      8.536 -0.1285E-14  0.7920E+00
      8.646  0.0000E+00  0.7920E+00
      8.756  0.0000E+00  0.7920E+00
      8.866  0.0000E+00  0.7920E+00
      8.976  0.0000E+00  0.7920E+00
      9.086  0.0000E+00  0.7920E+00
      9.195  0.0000E+00  0.7920E+00
      9.305  0.0000E+00  0.7920E+00
