  19  19   0   0
  0.2504161E+02  0.6834254E-09  0.8835925E-09  0.7880486E-09  0.0000000E+00
   1.0000000000000000E-004
  CAR 
 NEB_bottleneck                          
      9.66140512    -24.79850171  301      1.02433407      1.00000000
    -24.799  0.0000E+00  0.0000E+00
    -24.684  0.0000E+00  0.0000E+00
    -24.569  0.0000E+00  0.0000E+00
    -24.454 -0.7453E-31 -0.8561E-32
    -24.339 -0.6829E-27 -0.7845E-28
    -24.224 -0.3209E-23 -0.3687E-24
    -24.109 -0.7778E-20 -0.8938E-21
    -23.994 -0.9719E-17 -0.1117E-17
    -23.880 -0.6051E-14 -0.6961E-15
    -23.765 -0.1990E-11 -0.2293E-12
    -23.650 -0.3355E-09 -0.3877E-10
    -23.535 -0.2883E-07 -0.3351E-08
    -23.420 -0.1250E-05 -0.1469E-06
    -23.305 -0.2669E-04 -0.3213E-05
    -23.190 -0.2657E-03 -0.3374E-04
    -23.076 -0.1015E-02 -0.1503E-03
    -22.961  0.4033E-03 -0.1040E-03
    -22.846  0.1105E-01  0.1165E-02
    -22.731  0.2318E-01  0.3828E-02
    -22.616  0.1719E-01  0.5803E-02
    -22.501  0.3426E-02  0.6196E-02
    -22.386 -0.1104E-02  0.6070E-02
    -22.271 -0.5453E-03  0.6007E-02
    -22.157 -0.3323E-03  0.5969E-02
    -22.042 -0.1719E-02  0.5771E-02
    -21.927 -0.3607E-02  0.5357E-02
    -21.812  0.9013E-02  0.6392E-02
    -21.697  0.5186E-01  0.1235E-01
    -21.582  0.9118E-01  0.2282E-01
    -21.467  0.9060E-01  0.3323E-01
    -21.353  0.7116E-01  0.4140E-01
    -21.238  0.5936E-01  0.4822E-01
    -21.123  0.4177E-01  0.5302E-01
    -21.008  0.1242E-01  0.5445E-01
    -20.893 -0.1857E-02  0.5423E-01
    -20.778 -0.1689E-02  0.5404E-01
    -20.663 -0.3123E-03  0.5400E-01
    -20.548 -0.2434E-04  0.5400E-01
    -20.434 -0.8988E-06  0.5400E-01
    -20.319 -0.1640E-07  0.5400E-01
    -20.204 -0.1505E-09  0.5400E-01
    -20.089 -0.7026E-12  0.5400E-01
    -19.974 -0.1678E-14  0.5400E-01
    -19.859  0.0000E+00  0.5400E-01
    -19.744  0.0000E+00  0.5400E-01
    -19.630  0.0000E+00  0.5400E-01
    -19.515  0.0000E+00  0.5400E-01
    -19.400  0.0000E+00  0.5400E-01
    -19.285  0.0000E+00  0.5400E-01
    -19.170  0.0000E+00  0.5400E-01
    -19.055  0.0000E+00  0.5400E-01
    -18.940  0.0000E+00  0.5400E-01
    -18.825  0.0000E+00  0.5400E-01
    -18.711  0.0000E+00  0.5400E-01
    -18.596  0.0000E+00  0.5400E-01
    -18.481  0.0000E+00  0.5400E-01
    -18.366  0.0000E+00  0.5400E-01
    -18.251  0.0000E+00  0.5400E-01
    -18.136  0.0000E+00  0.5400E-01
    -18.021  0.0000E+00  0.5400E-01
    -17.907  0.0000E+00  0.5400E-01
    -17.792  0.0000E+00  0.5400E-01
    -17.677  0.0000E+00  0.5400E-01
    -17.562  0.0000E+00  0.5400E-01
    -17.447  0.0000E+00  0.5400E-01
    -17.332  0.0000E+00  0.5400E-01
    -17.217  0.0000E+00  0.5400E-01
    -17.102  0.0000E+00  0.5400E-01
    -16.988  0.0000E+00  0.5400E-01
    -16.873  0.0000E+00  0.5400E-01
    -16.758  0.0000E+00  0.5400E-01
    -16.643  0.0000E+00  0.5400E-01
    -16.528  0.0000E+00  0.5400E-01
    -16.413  0.0000E+00  0.5400E-01
    -16.298  0.0000E+00  0.5400E-01
    -16.184  0.0000E+00  0.5400E-01
    -16.069  0.0000E+00  0.5400E-01
    -15.954  0.0000E+00  0.5400E-01
    -15.839  0.0000E+00  0.5400E-01
    -15.724  0.0000E+00  0.5400E-01
    -15.609  0.0000E+00  0.5400E-01
    -15.494  0.0000E+00  0.5400E-01
    -15.379  0.0000E+00  0.5400E-01
    -15.265  0.0000E+00  0.5400E-01
    -15.150  0.0000E+00  0.5400E-01
    -15.035  0.0000E+00  0.5400E-01
    -14.920 -0.5964E-31  0.5400E-01
    -14.805 -0.5442E-27  0.5400E-01
    -14.690 -0.2553E-23  0.5400E-01
    -14.575 -0.6150E-20  0.5400E-01
    -14.461 -0.7601E-17  0.5400E-01
    -14.346 -0.4649E-14  0.5400E-01
    -14.231 -0.1490E-11  0.5400E-01
    -14.116 -0.2421E-09  0.5400E-01
    -14.001 -0.1979E-07  0.5400E-01
    -13.886 -0.8017E-06  0.5400E-01
    -13.771 -0.1563E-04  0.5400E-01
    -13.656 -0.1364E-03  0.5398E-01
    -13.542 -0.4027E-03  0.5394E-01
    -13.427  0.6346E-03  0.5401E-01
    -13.312  0.5098E-02  0.5459E-01
    -13.197  0.8044E-02  0.5552E-01
    -13.082  0.4125E-02  0.5599E-01
    -12.967 -0.6553E-03  0.5592E-01
    -12.852 -0.6146E-03  0.5585E-01
    -12.738  0.7914E-02  0.5676E-01
    -12.623  0.2373E-01  0.5948E-01
    -12.508  0.3617E-01  0.6364E-01
    -12.393  0.3582E-01  0.6775E-01
    -12.278  0.2582E-01  0.7072E-01
    -12.163  0.1833E-01  0.7282E-01
    -12.048  0.1006E-01  0.7398E-01
    -11.933  0.1464E-02  0.7415E-01
    -11.819 -0.8815E-03  0.7404E-01
    -11.704 -0.3421E-03  0.7401E-01
    -11.589 -0.4373E-04  0.7400E-01
    -11.474 -0.2485E-05  0.7400E-01
    -11.359 -0.6781E-07  0.7400E-01
    -11.244 -0.9580E-09  0.7400E-01
    -11.129 -0.4362E-08  0.7400E-01
    -11.015 -0.2281E-06  0.7400E-01
    -10.900 -0.5828E-05  0.7400E-01
    -10.785 -0.6920E-04  0.7399E-01
    -10.670 -0.3299E-03  0.7395E-01
    -10.555 -0.1642E-03  0.7393E-01
    -10.440  0.2854E-02  0.7426E-01
    -10.325  0.7715E-02  0.7515E-01
    -10.210  0.9654E-02  0.7626E-01
    -10.096  0.9181E-02  0.7731E-01
     -9.981  0.5506E-02  0.7794E-01
     -9.866  0.4933E-03  0.7800E-01
     -9.751 -0.7282E-03  0.7792E-01
     -9.636  0.3595E-02  0.7833E-01
     -9.521  0.1172E-01  0.7968E-01
     -9.406  0.1962E-01  0.8193E-01
     -9.292  0.2756E-01  0.8510E-01
     -9.177  0.2762E-01  0.8827E-01
     -9.062  0.1442E-01  0.8993E-01
     -8.947  0.2190E-02  0.9018E-01
     -8.832 -0.9991E-03  0.9006E-01
     -8.717 -0.4660E-03  0.9001E-01
     -8.602 -0.7298E-04  0.9000E-01
     -8.487 -0.5251E-05  0.9000E-01
     -8.373 -0.1851E-06  0.9000E-01
     -8.258 -0.3265E-08  0.9000E-01
     -8.143 -0.2912E-10  0.9000E-01
     -8.028 -0.1321E-12  0.9000E-01
     -7.913 -0.3054E-15  0.9000E-01
     -7.798  0.0000E+00  0.9000E-01
     -7.683  0.0000E+00  0.9000E-01
     -7.569  0.0000E+00  0.9000E-01
     -7.454  0.0000E+00  0.9000E-01
     -7.339  0.0000E+00  0.9000E-01
     -7.224  0.0000E+00  0.9000E-01
     -7.109  0.0000E+00  0.9000E-01
     -6.994  0.0000E+00  0.9000E-01
     -6.879  0.0000E+00  0.9000E-01
     -6.764  0.0000E+00  0.9000E-01
     -6.650  0.0000E+00  0.9000E-01
     -6.535  0.0000E+00  0.9000E-01
     -6.420  0.0000E+00  0.9000E-01
     -6.305  0.0000E+00  0.9000E-01
     -6.190  0.0000E+00  0.9000E-01
     -6.075  0.0000E+00  0.9000E-01
     -5.960  0.0000E+00  0.9000E-01
     -5.846  0.0000E+00  0.9000E-01
     -5.731  0.0000E+00  0.9000E-01
     -5.616  0.0000E+00  0.9000E-01
     -5.501  0.0000E+00  0.9000E-01
     -5.386  0.0000E+00  0.9000E-01
     -5.271  0.0000E+00  0.9000E-01
     -5.156 -0.1932E-32  0.9000E-01
     -5.041 -0.2237E-28  0.9000E-01
     -4.927 -0.1332E-24  0.9000E-01
     -4.812 -0.4076E-21  0.9000E-01
     -4.697 -0.6400E-18  0.9000E-01
     -4.582 -0.4985E-15  0.9000E-01
     -4.467 -0.2037E-12  0.9000E-01
     -4.352 -0.4225E-10  0.9000E-01
     -4.237 -0.4423E-08  0.9000E-01
     -4.123 -0.2310E-06  0.9000E-01
     -4.008 -0.5882E-05  0.9000E-01
     -3.893 -0.6944E-04  0.8999E-01
     -3.778 -0.3245E-03  0.8995E-01
     -3.663 -0.8854E-04  0.8994E-01
     -3.548  0.3149E-02  0.9031E-01
     -3.433  0.7444E-02  0.9116E-01
     -3.318  0.6044E-02  0.9185E-01
     -3.204  0.4207E-02  0.9234E-01
     -3.089  0.7182E-02  0.9316E-01
     -2.974  0.6331E-02  0.9389E-01
     -2.859  0.1574E-02  0.9407E-01
     -2.744 -0.3707E-03  0.9403E-01
     -2.629 -0.2143E-03  0.9400E-01
     -2.514 -0.3194E-04  0.9400E-01
     -2.400 -0.2052E-05  0.9400E-01
     -2.285 -0.4049E-06  0.9400E-01
     -2.170 -0.8050E-05  0.9400E-01
     -2.055 -0.8699E-04  0.9399E-01
     -1.940 -0.3640E-03  0.9395E-01
     -1.825 -0.9888E-05  0.9395E-01
     -1.710  0.3289E-02  0.9432E-01
     -1.595  0.7376E-02  0.9517E-01
     -1.481  0.9252E-02  0.9623E-01
     -1.366  0.1496E-01  0.9795E-01
     -1.251  0.1985E-01  0.1002E+00
     -1.136  0.1426E-01  0.1019E+00
     -1.021  0.8246E-02  0.1028E+00
     -0.906  0.6739E-02  0.1036E+00
     -0.791  0.4329E-02  0.1041E+00
     -0.677  0.5463E-02  0.1047E+00
     -0.562  0.8059E-02  0.1056E+00
     -0.447  0.8880E-02  0.1067E+00
     -0.332  0.1138E-01  0.1080E+00
     -0.217  0.1563E-01  0.1098E+00
     -0.102  0.2279E-01  0.1124E+00
      0.013  0.2635E-01  0.1154E+00
      0.127  0.2079E-01  0.1178E+00
      0.242  0.2033E-01  0.1201E+00
      0.357  0.2602E-01  0.1231E+00
      0.472  0.2322E-01  0.1258E+00
      0.587  0.1857E-01  0.1279E+00
      0.702  0.2022E-01  0.1302E+00
      0.817  0.2370E-01  0.1330E+00
      0.932  0.2234E-01  0.1355E+00
      1.046  0.1496E-01  0.1373E+00
      1.161  0.6503E-02  0.1380E+00
      1.276  0.8538E-03  0.1381E+00
      1.391 -0.5659E-03  0.1380E+00
      1.506 -0.2391E-03  0.1380E+00
      1.621 -0.3403E-04  0.1380E+00
      1.736 -0.2162E-05  0.1380E+00
      1.850 -0.6592E-07  0.1380E+00
      1.965 -0.9936E-09  0.1380E+00
      2.080 -0.8132E-11  0.1380E+00
      2.195 -0.1116E-09  0.1380E+00
      2.310 -0.1019E-07  0.1380E+00
      2.425 -0.4632E-06  0.1380E+00
      2.540 -0.1019E-04  0.1380E+00
      2.655 -0.1022E-03  0.1380E+00
      2.769 -0.3771E-03  0.1379E+00
      2.884  0.2489E-03  0.1380E+00
      2.999  0.4240E-02  0.1385E+00
      3.114  0.8053E-02  0.1394E+00
      3.229  0.5223E-02  0.1400E+00
      3.344  0.7004E-03  0.1401E+00
      3.459 -0.4044E-03  0.1400E+00
      3.573 -0.1421E-03  0.1400E+00
      3.688 -0.1830E-04  0.1400E+00
      3.803 -0.2851E-04  0.1400E+00
      3.918 -0.1963E-03  0.1400E+00
      4.033 -0.3875E-03  0.1399E+00
      4.148  0.1369E-02  0.1401E+00
      4.263  0.6247E-02  0.1408E+00
      4.378  0.7729E-02  0.1417E+00
      4.492  0.3169E-02  0.1421E+00
      4.607 -0.1027E-03  0.1420E+00
      4.722 -0.4139E-03  0.1420E+00
      4.837 -0.4333E-03  0.1419E+00
      4.952  0.1139E-03  0.1420E+00
      5.067  0.3782E-02  0.1424E+00
      5.182  0.7586E-02  0.1433E+00
      5.296  0.6348E-02  0.1440E+00
      5.411  0.6086E-02  0.1447E+00
      5.526  0.7213E-02  0.1455E+00
      5.641  0.6358E-02  0.1463E+00
      5.756  0.9230E-02  0.1473E+00
      5.871  0.1266E-01  0.1488E+00
      5.986  0.1269E-01  0.1502E+00
      6.101  0.1336E-01  0.1518E+00
      6.215  0.1243E-01  0.1532E+00
      6.330  0.6436E-02  0.1539E+00
      6.445  0.3409E-02  0.1543E+00
      6.560  0.6533E-02  0.1551E+00
      6.675  0.7410E-02  0.1559E+00
      6.790  0.7090E-02  0.1567E+00
      6.905  0.7644E-02  0.1576E+00
      7.019  0.8010E-02  0.1585E+00
      7.134  0.1439E-01  0.1602E+00
      7.249  0.2431E-01  0.1630E+00
      7.364  0.2099E-01  0.1654E+00
      7.479  0.6883E-02  0.1662E+00
      7.594  0.3428E-02  0.1666E+00
      7.709  0.7252E-02  0.1674E+00
      7.824  0.5056E-02  0.1680E+00
      7.938  0.6780E-03  0.1681E+00
      8.053 -0.4045E-03  0.1680E+00
      8.168 -0.1411E-03  0.1680E+00
      8.283 -0.1644E-04  0.1680E+00
      8.398 -0.8560E-06  0.1680E+00
      8.513 -0.2143E-07  0.1680E+00
      8.628 -0.2657E-09  0.1680E+00
      8.742 -0.1657E-11  0.1680E+00
      8.857 -0.5242E-14  0.1680E+00
      8.972 -0.7732E-17  0.1680E+00
      9.087  0.0000E+00  0.1680E+00
      9.202  0.0000E+00  0.1680E+00
      9.317  0.0000E+00  0.1680E+00
      9.432  0.0000E+00  0.1680E+00
      9.547  0.0000E+00  0.1680E+00
      9.661  0.0000E+00  0.1680E+00
