  19  19   0   0
  0.2504161E+02  0.6834254E-09  0.8835925E-09  0.7880486E-09  0.0000000E+00
   1.0000000000000000E-004
  CAR 
 NEB_bottleneck                          
     10.71086433    -60.88081787  301      1.32916927      1.00000000
    -60.881  0.0000E+00  0.0000E+00
    -60.642  0.0000E+00  0.0000E+00
    -60.404  0.0000E+00  0.0000E+00
    -60.165  0.0000E+00  0.0000E+00
    -59.926  0.0000E+00  0.0000E+00
    -59.688  0.0000E+00  0.0000E+00
    -59.449 -0.1893E-37 -0.4517E-38
    -59.210 -0.1099E-28 -0.2623E-29
    -58.972 -0.3618E-21 -0.8635E-22
    -58.733 -0.6476E-15 -0.1545E-15
    -58.494 -0.6485E-10 -0.1548E-10
    -58.256 -0.3386E-06 -0.8082E-07
    -58.017 -0.7754E-04 -0.1858E-04
    -57.779  0.2548E-03  0.4222E-04
    -57.540  0.6793E-02  0.1663E-02
    -57.301  0.1594E-02  0.2044E-02
    -57.063 -0.1808E-03  0.2000E-02
    -56.824 -0.2063E-05  0.2000E-02
    -56.585 -0.9007E-09  0.2000E-02
    -56.347 -0.1999E-13  0.2000E-02
    -56.108  0.0000E+00  0.2000E-02
    -55.869  0.0000E+00  0.2000E-02
    -55.631  0.0000E+00  0.2000E-02
    -55.392  0.0000E+00  0.2000E-02
    -55.153  0.0000E+00  0.2000E-02
    -54.915  0.0000E+00  0.2000E-02
    -54.676  0.0000E+00  0.2000E-02
    -54.438  0.0000E+00  0.2000E-02
    -54.199  0.0000E+00  0.2000E-02
    -53.960  0.0000E+00  0.2000E-02
    -53.722  0.0000E+00  0.2000E-02
    -53.483  0.0000E+00  0.2000E-02
    -53.244  0.0000E+00  0.2000E-02
    -53.006 -0.2416E-31  0.2000E-02
    -52.767 -0.1988E-23  0.2000E-02
    -52.528 -0.8758E-17  0.2000E-02
    -52.290 -0.2284E-11  0.2000E-02
    -52.051 -0.3133E-07  0.2000E-02
    -51.813 -0.2149E-04  0.1995E-02
    -51.574 -0.4340E-03  0.1891E-02
    -51.335  0.6252E-02  0.3383E-02
    -51.097  0.1099E-01  0.6006E-02
    -50.858  0.7596E-04  0.6024E-02
    -50.619 -0.9936E-04  0.6000E-02
    -50.381 -0.4351E-06  0.6000E-02
    -50.142 -0.8919E-10  0.6000E-02
    -49.903 -0.9677E-15  0.6000E-02
    -49.665  0.0000E+00  0.6000E-02
    -49.426  0.0000E+00  0.6000E-02
    -49.188  0.0000E+00  0.6000E-02
    -48.949  0.0000E+00  0.6000E-02
    -48.710  0.0000E+00  0.6000E-02
    -48.472  0.0000E+00  0.6000E-02
    -48.233  0.0000E+00  0.6000E-02
    -47.994  0.0000E+00  0.6000E-02
    -47.756  0.0000E+00  0.6000E-02
    -47.517  0.0000E+00  0.6000E-02
    -47.278  0.0000E+00  0.6000E-02
    -47.040  0.0000E+00  0.6000E-02
    -46.801  0.0000E+00  0.6000E-02
    -46.562  0.0000E+00  0.6000E-02
    -46.324  0.0000E+00  0.6000E-02
    -46.085  0.0000E+00  0.6000E-02
    -45.847  0.0000E+00  0.6000E-02
    -45.608  0.0000E+00  0.6000E-02
    -45.369  0.0000E+00  0.6000E-02
    -45.131  0.0000E+00  0.6000E-02
    -44.892  0.0000E+00  0.6000E-02
    -44.653  0.0000E+00  0.6000E-02
    -44.415  0.0000E+00  0.6000E-02
    -44.176  0.0000E+00  0.6000E-02
    -43.937  0.0000E+00  0.6000E-02
    -43.699  0.0000E+00  0.6000E-02
    -43.460  0.0000E+00  0.6000E-02
    -43.222  0.0000E+00  0.6000E-02
    -42.983  0.0000E+00  0.6000E-02
    -42.744  0.0000E+00  0.6000E-02
    -42.506  0.0000E+00  0.6000E-02
    -42.267  0.0000E+00  0.6000E-02
    -42.028  0.0000E+00  0.6000E-02
    -41.790  0.0000E+00  0.6000E-02
    -41.551  0.0000E+00  0.6000E-02
    -41.312  0.0000E+00  0.6000E-02
    -41.074  0.0000E+00  0.6000E-02
    -40.835  0.0000E+00  0.6000E-02
    -40.597  0.0000E+00  0.6000E-02
    -40.358  0.0000E+00  0.6000E-02
    -40.119  0.0000E+00  0.6000E-02
    -39.881  0.0000E+00  0.6000E-02
    -39.642  0.0000E+00  0.6000E-02
    -39.403  0.0000E+00  0.6000E-02
    -39.165  0.0000E+00  0.6000E-02
    -38.926  0.0000E+00  0.6000E-02
    -38.687  0.0000E+00  0.6000E-02
    -38.449  0.0000E+00  0.6000E-02
    -38.210  0.0000E+00  0.6000E-02
    -37.971  0.0000E+00  0.6000E-02
    -37.733  0.0000E+00  0.6000E-02
    -37.494  0.0000E+00  0.6000E-02
    -37.256  0.0000E+00  0.6000E-02
    -37.017  0.0000E+00  0.6000E-02
    -36.778  0.0000E+00  0.6000E-02
    -36.540  0.0000E+00  0.6000E-02
    -36.301  0.0000E+00  0.6000E-02
    -36.062  0.0000E+00  0.6000E-02
    -35.824  0.0000E+00  0.6000E-02
    -35.585  0.0000E+00  0.6000E-02
    -35.346  0.0000E+00  0.6000E-02
    -35.108  0.0000E+00  0.6000E-02
    -34.869  0.0000E+00  0.6000E-02
    -34.631  0.0000E+00  0.6000E-02
    -34.392  0.0000E+00  0.6000E-02
    -34.153  0.0000E+00  0.6000E-02
    -33.915  0.0000E+00  0.6000E-02
    -33.676  0.0000E+00  0.6000E-02
    -33.437  0.0000E+00  0.6000E-02
    -33.199  0.0000E+00  0.6000E-02
    -32.960  0.0000E+00  0.6000E-02
    -32.721  0.0000E+00  0.6000E-02
    -32.483  0.0000E+00  0.6000E-02
    -32.244  0.0000E+00  0.6000E-02
    -32.006  0.0000E+00  0.6000E-02
    -31.767  0.0000E+00  0.6000E-02
    -31.528  0.0000E+00  0.6000E-02
    -31.290  0.0000E+00  0.6000E-02
    -31.051  0.0000E+00  0.6000E-02
    -30.812  0.0000E+00  0.6000E-02
    -30.574  0.0000E+00  0.6000E-02
    -30.335  0.0000E+00  0.6000E-02
    -30.096  0.0000E+00  0.6000E-02
    -29.858  0.0000E+00  0.6000E-02
    -29.619  0.0000E+00  0.6000E-02
    -29.380  0.0000E+00  0.6000E-02
    -29.142  0.0000E+00  0.6000E-02
    -28.903  0.0000E+00  0.6000E-02
    -28.665  0.0000E+00  0.6000E-02
    -28.426  0.0000E+00  0.6000E-02
    -28.187  0.0000E+00  0.6000E-02
    -27.949  0.0000E+00  0.6000E-02
    -27.710  0.0000E+00  0.6000E-02
    -27.471  0.0000E+00  0.6000E-02
    -27.233  0.0000E+00  0.6000E-02
    -26.994  0.0000E+00  0.6000E-02
    -26.755  0.0000E+00  0.6000E-02
    -26.517 -0.3969E-36  0.6000E-02
    -26.278 -0.1534E-27  0.6000E-02
    -26.040 -0.3355E-20  0.6000E-02
    -25.801 -0.3974E-14  0.6000E-02
    -25.562 -0.2627E-09  0.6000E-02
    -25.324 -0.8939E-06  0.6000E-02
    -25.085 -0.1256E-03  0.5970E-02
    -24.846  0.8360E-03  0.6169E-02
    -24.608  0.7003E-02  0.7840E-02
    -24.369  0.4899E-03  0.7957E-02
    -24.130  0.3462E-02  0.8784E-02
    -23.892  0.7689E-02  0.1062E-01
    -23.653  0.1455E-01  0.1409E-01
    -23.415  0.2111E-01  0.1913E-01
    -23.176  0.1235E-01  0.2207E-01
    -22.937  0.9060E-03  0.2229E-01
    -22.699  0.1123E-01  0.2497E-01
    -22.460  0.9788E-02  0.2731E-01
    -22.221  0.1120E-01  0.2998E-01
    -21.983  0.4060E-02  0.3095E-01
    -21.744  0.1566E-01  0.3468E-01
    -21.505  0.6442E-02  0.3622E-01
    -21.267  0.1880E-01  0.4071E-01
    -21.028  0.4113E-01  0.5052E-01
    -20.789  0.1600E-01  0.5434E-01
    -20.551 -0.1384E-02  0.5401E-01
    -20.312 -0.4179E-04  0.5400E-01
    -20.074 -0.4419E-07  0.5400E-01
    -19.835 -0.2464E-11  0.5400E-01
    -19.596 -0.7444E-17  0.5400E-01
    -19.358  0.0000E+00  0.5400E-01
    -19.119  0.0000E+00  0.5400E-01
    -18.880  0.0000E+00  0.5400E-01
    -18.642  0.0000E+00  0.5400E-01
    -18.403  0.0000E+00  0.5400E-01
    -18.164  0.0000E+00  0.5400E-01
    -17.926  0.0000E+00  0.5400E-01
    -17.687  0.0000E+00  0.5400E-01
    -17.449  0.0000E+00  0.5400E-01
    -17.210  0.0000E+00  0.5400E-01
    -16.971  0.0000E+00  0.5400E-01
    -16.733  0.0000E+00  0.5400E-01
    -16.494  0.0000E+00  0.5400E-01
    -16.255  0.0000E+00  0.5400E-01
    -16.017  0.0000E+00  0.5400E-01
    -15.778  0.0000E+00  0.5400E-01
    -15.539  0.0000E+00  0.5400E-01
    -15.301  0.0000E+00  0.5400E-01
    -15.062  0.0000E+00  0.5400E-01
    -14.824  0.0000E+00  0.5400E-01
    -14.585 -0.1374E-29  0.5400E-01
    -14.346 -0.6204E-22  0.5400E-01
    -14.108 -0.1530E-15  0.5400E-01
    -13.869 -0.2119E-10  0.5400E-01
    -13.630 -0.1565E-06  0.5400E-01
    -13.392 -0.5663E-04  0.5399E-01
    -13.153 -0.4622E-03  0.5388E-01
    -12.914  0.9749E-02  0.5620E-01
    -12.676  0.2206E-01  0.6147E-01
    -12.437  0.1794E-01  0.6575E-01
    -12.198  0.2292E-01  0.7122E-01
    -11.960  0.1209E-01  0.7410E-01
    -11.721 -0.3443E-03  0.7402E-01
    -11.483 -0.8703E-04  0.7400E-01
    -11.244 -0.2438E-06  0.7400E-01
    -11.005 -0.5519E-08  0.7400E-01
    -10.767 -0.6759E-05  0.7400E-01
    -10.528 -0.2643E-03  0.7394E-01
    -10.289  0.3015E-02  0.7465E-01
    -10.051  0.6333E-02  0.7617E-01
     -9.812  0.6565E-02  0.7773E-01
     -9.573  0.2863E-02  0.7842E-01
     -9.335  0.1256E-01  0.8141E-01
     -9.096  0.1618E-01  0.8527E-01
     -8.858  0.1518E-01  0.8890E-01
     -8.619  0.5136E-02  0.9012E-01
     -8.380 -0.5033E-03  0.9000E-01
     -8.142 -0.1041E-04  0.9000E-01
     -7.903 -0.7336E-08  0.9000E-01
     -7.664 -0.2581E-12  0.9000E-01
     -7.426  0.0000E+00  0.9000E-01
     -7.187  0.0000E+00  0.9000E-01
     -6.948  0.0000E+00  0.9000E-01
     -6.710  0.0000E+00  0.9000E-01
     -6.471  0.0000E+00  0.9000E-01
     -6.233  0.0000E+00  0.9000E-01
     -5.994 -0.2115E-30  0.9000E-01
     -5.755 -0.1264E-22  0.9000E-01
     -5.517 -0.4111E-16  0.9000E-01
     -5.278 -0.7568E-11  0.9000E-01
     -5.039 -0.7344E-07  0.9000E-01
     -4.801 -0.3324E-04  0.8999E-01
     -4.562 -0.1831E-03  0.8995E-01
     -4.323  0.5703E-02  0.9131E-01
     -4.085  0.3166E-02  0.9206E-01
     -3.846 -0.2656E-03  0.9200E-01
     -3.607 -0.7899E-04  0.9198E-01
     -3.369  0.1933E-03  0.9203E-01
     -3.130  0.6685E-02  0.9362E-01
     -2.892  0.1603E-02  0.9401E-01
     -2.653  0.5815E-02  0.9539E-01
     -2.414  0.2766E-02  0.9605E-01
     -2.176 -0.4725E-03  0.9594E-01
     -1.937  0.5410E-02  0.9723E-01
     -1.698  0.3291E-02  0.9802E-01
     -1.460  0.1143E-02  0.9829E-01
     -1.221  0.1122E-01  0.1010E+00
     -0.982  0.7380E-02  0.1027E+00
     -0.744  0.1305E-01  0.1058E+00
     -0.505  0.8888E-02  0.1080E+00
     -0.267  0.6209E-02  0.1094E+00
     -0.028  0.1534E-01  0.1131E+00
      0.211  0.1587E-01  0.1169E+00
      0.449  0.1316E-01  0.1200E+00
      0.688  0.2184E-01  0.1252E+00
      0.927  0.1518E-01  0.1289E+00
      1.165  0.2105E-01  0.1339E+00
      1.404  0.1635E-01  0.1378E+00
      1.643  0.1101E-02  0.1381E+00
      1.881 -0.2329E-03  0.1380E+00
      2.120 -0.2698E-05  0.1380E+00
      2.359 -0.9540E-04  0.1380E+00
      2.597  0.4617E-03  0.1381E+00
      2.836  0.6941E-02  0.1397E+00
      3.074  0.1173E-02  0.1400E+00
      3.313 -0.1095E-03  0.1400E+00
      3.552  0.6398E-02  0.1415E+00
      3.790  0.2554E-02  0.1421E+00
      4.029  0.6438E-02  0.1437E+00
      4.268  0.5438E-02  0.1450E+00
      4.506  0.4343E-02  0.1460E+00
      4.745  0.5045E-02  0.1472E+00
      4.984  0.8994E-02  0.1494E+00
      5.222  0.3540E-02  0.1502E+00
      5.461  0.6544E-02  0.1518E+00
      5.699  0.2601E-02  0.1524E+00
      5.938  0.6269E-02  0.1539E+00
      6.177  0.8266E-02  0.1558E+00
      6.415  0.1411E-01  0.1592E+00
      6.654  0.3889E-02  0.1601E+00
      6.893  0.1037E-01  0.1626E+00
      7.131  0.1137E-01  0.1653E+00
      7.370  0.4499E-02  0.1664E+00
      7.609  0.6500E-02  0.1680E+00
      7.847  0.2472E-03  0.1680E+00
      8.086 -0.7755E-04  0.1680E+00
      8.324 -0.3386E-06  0.1680E+00
      8.563 -0.6485E-10  0.1680E+00
      8.802 -0.6476E-15  0.1680E+00
      9.040  0.0000E+00  0.1680E+00
      9.279  0.0000E+00  0.1680E+00
      9.518  0.0000E+00  0.1680E+00
      9.756  0.0000E+00  0.1680E+00
      9.995  0.0000E+00  0.1680E+00
     10.234  0.0000E+00  0.1680E+00
     10.472  0.0000E+00  0.1680E+00
     10.711  0.0000E+00  0.1680E+00
