 vasp.6.3.2 27Jun22 (build Jun 14 2024 17:29:11) complex                         
 POSCAR found type information on POSCAR NaInS 
 06/POSCAR found :  3 types and      19 ions
 LDA part: xc-table for Pade appr. of Perdew
 POSCAR found type information on POSCAR NaInS 
 00/POSCAR found :  3 types and      19 ions
 POSCAR found type information on POSCAR NaInS 
 10/POSCAR found :  3 types and      19 ions
 POSCAR, INCAR and KPOINTS ok, starting setup
 FFT: planning ... GRIDC
 FFT: planning ... GRID_SOFT
 FFT: planning ... GRID
 WAVECAR not read
 entering main loop
       N       E                     dE             d eps       ncg     rms          rms(c)
DAV:   1     0.145395457845E+04    0.14540E+04   -0.63051E+04   168   0.166E+03
DAV:   2     0.173929188761E+03   -0.12800E+04   -0.12410E+04   168   0.450E+02
DAV:   3    -0.514354973183E+02   -0.22536E+03   -0.21865E+03   195   0.194E+02
DAV:   4    -0.685444941517E+02   -0.17109E+02   -0.16932E+02   210   0.485E+01
DAV:   5    -0.691297737271E+02   -0.58528E+00   -0.58365E+00   246   0.101E+01    0.148E+01
RMM:   6    -0.645954298831E+02    0.45343E+01   -0.82628E+00   192   0.728E+00    0.921E+00
RMM:   7    -0.643848270522E+02    0.21060E+00   -0.55680E+00   202   0.502E+00    0.646E+00
RMM:   8    -0.642376898821E+02    0.14714E+00   -0.82847E-01   216   0.288E+00    0.406E+00
RMM:   9    -0.642677544661E+02   -0.30065E-01   -0.48342E-01   201   0.222E+00    0.129E+00
RMM:  10    -0.642282049322E+02    0.39550E-01   -0.50607E-02   199   0.121E+00    0.847E-01
RMM:  11    -0.642204454589E+02    0.77595E-02   -0.35544E-02   202   0.562E-01    0.591E-01
RMM:  12    -0.642219418851E+02   -0.14964E-02   -0.11369E-02   252   0.325E-01    0.496E-01
RMM:  13    -0.642236828556E+02   -0.17410E-02   -0.15500E-03   210   0.141E-01    0.271E-01
RMM:  14    -0.642255043228E+02   -0.18215E-02   -0.30772E-03   171   0.169E-01    0.126E-01
RMM:  15    -0.642253687794E+02    0.13554E-03   -0.46841E-04   230   0.717E-02    0.755E-02
RMM:  16    -0.642254124522E+02   -0.43673E-04   -0.24571E-04   204   0.436E-02    0.229E-02
RMM:  17    -0.642254293692E+02   -0.16917E-04   -0.74787E-05   192   0.268E-02    0.163E-02
RMM:  18    -0.642254303459E+02   -0.97664E-06   -0.17792E-05   185   0.139E-02    0.170E-02
RMM:  19    -0.642254313656E+02   -0.10197E-05   -0.40464E-06   139   0.781E-03    0.151E-02
RMM:  20    -0.642254308188E+02    0.54673E-06   -0.24538E-06   114   0.561E-03
   1 F= -.64225431E+02 E0= -.64225107E+02  d E =-.642254E+02
quench:  g(F)=  0.000E+00 g(S)=  0.000E+00 dE (1.order)= 0.000E+00
 bond charge predicted
       N       E                     dE             d eps       ncg     rms          rms(c)
DAV:   1    -0.642254308130E+02    0.55258E-06   -0.67570E-07   114   0.490E-03    0.430E-03
RMM:   2    -0.642254309302E+02   -0.11722E-06   -0.28228E-07    98   0.335E-03
   2 F= -.64225431E+02 E0= -.64225100E+02  d E =-.111373E-06
quench:  g(F)=  0.000E+00 g(S)=  0.000E+00 dE (1.order)= 0.000E+00
 bond charge predicted
       N       E                     dE             d eps       ncg     rms          rms(c)
DAV:   1    -0.642254310274E+02   -0.21443E-06   -0.68102E-07   138   0.278E-03    0.224E-03
RMM:   2    -0.642254311072E+02   -0.79728E-07   -0.15703E-07    93   0.175E-03
   3 F= -.64225431E+02 E0= -.64225094E+02  d E =-.176940E-06
quench:  g(F)=  0.000E+00 g(S)=  0.000E+00 dE (1.order)= 0.000E+00
 bond charge predicted
       N       E                     dE             d eps       ncg     rms          rms(c)
DAV:   1    -0.642254309983E+02    0.29180E-07   -0.78898E-07   120   0.197E-03    0.135E-03
RMM:   2    -0.642254309918E+02    0.64047E-08   -0.44662E-08    71   0.110E-03
   4 F= -.64225431E+02 E0= -.64225106E+02  d E =0.115313E-06
quench:  g(F)=  0.000E+00 g(S)=  0.000E+00 dE (1.order)= 0.000E+00
 bond charge predicted
       N       E                     dE             d eps       ncg     rms          rms(c)
DAV:   1    -0.642254309774E+02    0.20820E-07   -0.32988E-08   120   0.986E-04    0.218E-04
RMM:   2    -0.642254309735E+02    0.39508E-08   -0.25192E-09    25   0.685E-04
   5 F= -.64225431E+02 E0= -.64225107E+02  d E =0.183663E-07
quench:  g(F)=  0.000E+00 g(S)=  0.000E+00 dE (1.order)= 0.000E+00
 bond charge predicted
       N       E                     dE             d eps       ncg     rms          rms(c)
DAV:   1    -0.642254309739E+02    0.35052E-08   -0.17744E-08   120   0.627E-04    0.317E-04
RMM:   2    -0.642254309744E+02   -0.49113E-09    0.00000E+00    11   0.332E-04
   6 F= -.64225431E+02 E0= -.64225106E+02  d E =-.936780E-09
quench:  g(F)=  0.000E+00 g(S)=  0.000E+00 dE (1.order)= 0.000E+00
 bond charge predicted
       N       E                     dE             d eps       ncg     rms          rms(c)
DAV:   1    -0.642254309755E+02   -0.15680E-08   -0.55220E-09   111   0.355E-04    0.136E-04
RMM:   2    -0.642254309740E+02    0.14479E-08    0.00000E+00     9   0.195E-04
   7 F= -.64225431E+02 E0= -.64225106E+02  d E =0.371074E-09
quench:  g(F)=  0.000E+00 g(S)=  0.000E+00 dE (1.order)= 0.000E+00
 bond charge predicted
       N       E                     dE             d eps       ncg     rms          rms(c)
DAV:   1    -0.642254309730E+02    0.25193E-08   -0.48848E-09   120   0.217E-04    0.891E-05
RMM:   2    -0.642254309731E+02   -0.16007E-09    0.00000E+00     8   0.147E-04
   8 F= -.64225431E+02 E0= -.64225106E+02  d E =0.911314E-09
quench:  g(F)=  0.000E+00 g(S)=  0.000E+00 dE (1.order)= 0.000E+00
 bond charge predicted
       N       E                     dE             d eps       ncg     rms          rms(c)
DAV:   1    -0.642254309732E+02   -0.26193E-09   -0.82259E-10    93   0.158E-04    0.673E-05
RMM:   2    -0.642254309723E+02    0.91495E-09    0.00000E+00     7   0.111E-04
   9 F= -.64225431E+02 E0= -.64225106E+02  d E =0.813088E-09
quench:  g(F)=  0.000E+00 g(S)=  0.000E+00 dE (1.order)= 0.000E+00
 bond charge predicted
       N       E                     dE             d eps       ncg     rms          rms(c)
DAV:   1    -0.642254309722E+02    0.10732E-08   -0.46709E-10    93   0.120E-04    0.449E-05
RMM:   2    -0.642254309722E+02   -0.56389E-10    0.00000E+00     7   0.798E-05
  10 F= -.64225431E+02 E0= -.64225106E+02  d E =0.101863E-09
quench:  g(F)=  0.000E+00 g(S)=  0.000E+00 dE (1.order)= 0.000E+00
 bond charge predicted
       N       E                     dE             d eps       ncg     rms          rms(c)
DAV:   1    -0.642254309720E+02    0.14006E-09   -0.25498E-10    93   0.817E-05    0.361E-05
RMM:   2    -0.642254309719E+02    0.13461E-09    0.00000E+00     5   0.633E-05
  11 F= -.64225431E+02 E0= -.64225106E+02  d E =0.331056E-09
quench:  g(F)=  0.000E+00 g(S)=  0.000E+00 dE (1.order)= 0.000E+00
 bond charge predicted
       N       E                     dE             d eps       ncg     rms          rms(c)
DAV:   1    -0.642254309715E+02    0.53660E-09   -0.11922E-10    93   0.677E-05    0.315E-05
RMM:   2    -0.642254309718E+02   -0.30013E-09    0.00000E+00     5   0.498E-05
  12 F= -.64225431E+02 E0= -.64225106E+02  d E =0.101863E-09
quench:  g(F)=  0.000E+00 g(S)=  0.000E+00 dE (1.order)= 0.000E+00
 bond charge predicted
       N       E                     dE             d eps       ncg     rms          rms(c)
DAV:   1    -0.642254309722E+02   -0.72396E-09   -0.21239E-10    93   0.520E-05    0.240E-05
RMM:   2    -0.642254309716E+02    0.58753E-09    0.00000E+00     3   0.386E-05
  13 F= -.64225431E+02 E0= -.64225106E+02  d E =0.163709E-09
quench:  g(F)=  0.000E+00 g(S)=  0.000E+00 dE (1.order)= 0.000E+00
 bond charge predicted
       N       E                     dE             d eps       ncg     rms          rms(c)
DAV:   1    -0.642254309715E+02    0.67848E-09   -0.30743E-11    93   0.411E-05    0.213E-05
RMM:   2    -0.642254309717E+02   -0.20555E-09    0.00000E+00     3   0.313E-05
  14 F= -.64225431E+02 E0= -.64225106E+02  d E =-.114596E-09
quench:  g(F)=  0.000E+00 g(S)=  0.000E+00 dE (1.order)= 0.000E+00
 bond charge predicted
       N       E                     dE             d eps       ncg     rms          rms(c)
DAV:   1    -0.642254309718E+02   -0.25466E-09    0.39563E-12    93   0.328E-05    0.158E-05
RMM:   2    -0.642254309715E+02    0.33106E-09    0.00000E+00     2   0.240E-05
  15 F= -.64225431E+02 E0= -.64225106E+02  d E =0.281943E-09
quench:  g(F)=  0.000E+00 g(S)=  0.000E+00 dE (1.order)= 0.000E+00
 bond charge predicted
       N       E                     dE             d eps       ncg     rms          rms(c)
DAV:   1    -0.642254309715E+02    0.30195E-09   -0.23680E-12    93   0.257E-05    0.135E-05
RMM:   2    -0.642254309715E+02    0.00000E+00    0.00000E+00     2   0.196E-05
  16 F= -.64225431E+02 E0= -.64225106E+02  d E =-.291038E-10
quench:  g(F)=  0.000E+00 g(S)=  0.000E+00 dE (1.order)= 0.000E+00
 bond charge predicted
       N       E                     dE             d eps       ncg     rms          rms(c)
DAV:   1    -0.642254309717E+02   -0.18190E-09    0.22599E-11    93   0.206E-05    0.101E-05
RMM:   2    -0.642254309714E+02    0.31105E-09    0.00000E+00     2   0.151E-05
  17 F= -.64225431E+02 E0= -.64225106E+02  d E =0.129148E-09
quench:  g(F)=  0.000E+00 g(S)=  0.000E+00 dE (1.order)= 0.000E+00
 bond charge predicted
       N       E                     dE             d eps       ncg     rms          rms(c)
DAV:   1    -0.642254309714E+02    0.30559E-09   -0.31436E-12    93   0.161E-05    0.880E-06
RMM:   2    -0.642254309714E+02   -0.25466E-10    0.00000E+00     2   0.124E-05
  18 F= -.64225431E+02 E0= -.64225106E+02  d E =-.309228E-10
quench:  g(F)=  0.000E+00 g(S)=  0.000E+00 dE (1.order)= 0.000E+00
 bond charge predicted
       N       E                     dE             d eps       ncg     rms          rms(c)
DAV:   1    -0.642254309712E+02    0.17280E-09   -0.19506E-11    93   0.130E-05    0.640E-06
RMM:   2    -0.642254309713E+02   -0.12915E-09    0.00000E+00     2   0.947E-06
  19 F= -.64225431E+02 E0= -.64225106E+02  d E =0.691216E-10
quench:  g(F)=  0.000E+00 g(S)=  0.000E+00 dE (1.order)= 0.000E+00
 bond charge predicted
       N       E                     dE             d eps       ncg     rms          rms(c)
DAV:   1    -0.642254309709E+02    0.27649E-09   -0.29315E-11    93   0.102E-05    0.576E-06
RMM:   2    -0.642254309712E+02   -0.32924E-09    0.00000E+00     2   0.756E-06
  20 F= -.64225431E+02 E0= -.64225106E+02  d E =0.763976E-10
quench:  g(F)=  0.000E+00 g(S)=  0.000E+00 dE (1.order)= 0.000E+00
 bond charge predicted
       N       E                     dE             d eps       ncg     rms          rms(c)
DAV:   1    -0.642254309716E+02   -0.72214E-09   -0.15095E-11    93   0.806E-06    0.399E-06
RMM:   2    -0.642254309712E+02    0.42928E-09    0.00000E+00     2   0.608E-06
  21 F= -.64225431E+02 E0= -.64225106E+02  d E =0.363798E-10
quench:  g(F)=  0.000E+00 g(S)=  0.000E+00 dE (1.order)= 0.000E+00
 bond charge predicted
       N       E                     dE             d eps       ncg     rms          rms(c)
DAV:   1    -0.642254309713E+02    0.32014E-09    0.82844E-13    93   0.655E-06    0.325E-06
RMM:   2    -0.642254309713E+02    0.45475E-10    0.00000E+00     2   0.470E-06
  22 F= -.64225431E+02 E0= -.64225106E+02  d E =-.636646E-10
quench:  g(F)=  0.000E+00 g(S)=  0.000E+00 dE (1.order)= 0.000E+00
 bond charge predicted
       N       E                     dE             d eps       ncg     rms          rms(c)
DAV:   1    -0.642254309714E+02   -0.11642E-09   -0.11565E-11    93   0.502E-06    0.247E-06
RMM:   2    -0.642254309712E+02    0.26557E-09    0.00000E+00     2   0.385E-06
  23 F= -.64225431E+02 E0= -.64225106E+02  d E =0.103682E-09
quench:  g(F)=  0.000E+00 g(S)=  0.000E+00 dE (1.order)= 0.000E+00
 bond charge predicted
       N       E                     dE             d eps       ncg     rms          rms(c)
DAV:   1    -0.642254309713E+02    0.11096E-09    0.15296E-10    93   0.414E-06    0.191E-06
RMM:   2    -0.642254309712E+02    0.14552E-09    0.00000E+00     2   0.294E-06
  24 F= -.64225431E+02 E0= -.64225106E+02  d E =-.909495E-11
quench:  g(F)=  0.000E+00 g(S)=  0.000E+00 dE (1.order)= 0.000E+00
 bond charge predicted
       N       E                     dE             d eps       ncg     rms          rms(c)
DAV:   1    -0.642254309712E+02    0.14552E-09   -0.30366E-11    93   0.313E-06    0.137E-06
RMM:   2    -0.642254309711E+02    0.27285E-10    0.00000E+00     2   0.238E-06
  25 F= -.64225431E+02 E0= -.64225106E+02  d E =0.272848E-10
quench:  g(F)=  0.000E+00 g(S)=  0.000E+00 dE (1.order)= 0.000E+00
 bond charge predicted
       N       E                     dE             d eps       ncg     rms          rms(c)
DAV:   1    -0.642254309708E+02    0.40382E-09   -0.16408E-11    93   0.256E-06    0.112E-06
RMM:   2    -0.642254309713E+02   -0.52569E-09    0.00000E+00     2   0.185E-06
  26 F= -.64225431E+02 E0= -.64225106E+02  d E =-.149157E-09
quench:  g(F)=  0.000E+00 g(S)=  0.000E+00 dE (1.order)= 0.000E+00
 bond charge predicted
       N       E                     dE             d eps       ncg     rms          rms(c)
DAV:   1    -0.642254309712E+02   -0.46748E-09    0.15370E-11    93   0.197E-06    0.814E-07
RMM:   2    -0.642254309713E+02   -0.63665E-10    0.00000E+00     2   0.153E-06
  27 F= -.64225431E+02 E0= -.64225106E+02  d E =-.545697E-11
quench:  g(F)=  0.000E+00 g(S)=  0.000E+00 dE (1.order)= 0.000E+00
 bond charge predicted
       N       E                     dE             d eps       ncg     rms          rms(c)
DAV:   1    -0.642254309711E+02    0.12733E-09    0.39299E-11    93   0.164E-06    0.667E-07
RMM:   2    -0.642254309712E+02   -0.13279E-09    0.00000E+00     2   0.116E-06
  28 F= -.64225431E+02 E0= -.64225106E+02  d E =0.582077E-10
quench:  g(F)=  0.000E+00 g(S)=  0.000E+00 dE (1.order)= 0.000E+00
 bond charge predicted
       N       E                     dE             d eps       ncg     rms          rms(c)
DAV:   1    -0.642254309712E+02   -0.58208E-10   -0.46749E-11    93   0.125E-06    0.482E-07
RMM:   2    -0.642254309713E+02   -0.11096E-09    0.00000E+00     2   0.985E-07
  29 F= -.64225431E+02 E0= -.64225106E+02  d E =-.363798E-10
quench:  g(F)=  0.000E+00 g(S)=  0.000E+00 dE (1.order)= 0.000E+00
 bond charge predicted
       N       E                     dE             d eps       ncg     rms          rms(c)
DAV:   1    -0.642254309708E+02    0.40927E-09    0.25369E-11    93   0.105E-06    0.399E-07
RMM:   2    -0.642254309711E+02   -0.37289E-09    0.00000E+00     2   0.747E-07
  30 F= -.64225431E+02 E0= -.64225106E+02  d E =0.147338E-09
quench:  g(F)=  0.000E+00 g(S)=  0.000E+00 dE (1.order)= 0.000E+00
 bond charge predicted
       N       E                     dE             d eps       ncg     rms          rms(c)
DAV:   1    -0.642254309715E+02   -0.72214E-09   -0.42379E-11    93   0.801E-07    0.305E-07
RMM:   2    -0.642254309711E+02    0.34197E-09    0.00000E+00     1   0.635E-07
  31 F= -.64225431E+02 E0= -.64225106E+02  d E =-.727596E-11
quench:  g(F)=  0.000E+00 g(S)=  0.000E+00 dE (1.order)= 0.000E+00
 bond charge predicted
       N       E                     dE             d eps       ncg     rms          rms(c)
DAV:   1    -0.642254309706E+02    0.93314E-09   -0.29816E-11    84   0.679E-07    0.252E-07
RMM:   2    -0.642254309712E+02   -0.63483E-09    0.00000E+00     1   0.480E-07
  32 F= -.64225431E+02 E0= -.64225106E+02  d E =-.436557E-10
quench:  g(F)=  0.000E+00 g(S)=  0.000E+00 dE (1.order)= 0.000E+00
 bond charge predicted
       N       E                     dE             d eps       ncg     rms          rms(c)
DAV:   1    -0.642254309714E+02   -0.87493E-09   -0.39765E-11    84   0.515E-07    0.181E-07
RMM:   2    -0.642254309711E+02    0.29104E-09    0.00000E+00     1   0.408E-07
  33 F= -.64225431E+02 E0= -.64225106E+02  d E =0.509317E-10
quench:  g(F)=  0.000E+00 g(S)=  0.000E+00 dE (1.order)= 0.000E+00
 bond charge predicted
       N       E                     dE             d eps       ncg     rms          rms(c)
DAV:   1    -0.642254309713E+02    0.13097E-09   -0.74818E-11    84   0.435E-07    0.158E-07
RMM:   2    -0.642254309712E+02    0.87311E-10    0.00000E+00     1   0.311E-07
  34 F= -.64225431E+02 E0= -.64225106E+02  d E =-.727596E-10
quench:  g(F)=  0.000E+00 g(S)=  0.000E+00 dE (1.order)= 0.000E+00
 bond charge predicted
       N       E                     dE             d eps       ncg     rms          rms(c)
DAV:   1    -0.642254309713E+02   -0.47294E-10   -0.16402E-10    84   0.335E-07    0.119E-07
RMM:   2    -0.642254309713E+02    0.85493E-10    0.00000E+00     1   0.266E-07
  35 F= -.64225431E+02 E0= -.64225106E+02  d E =-.491127E-10
quench:  g(F)=  0.000E+00 g(S)=  0.000E+00 dE (1.order)= 0.000E+00
 bond charge predicted
       N       E                     dE             d eps       ncg     rms          rms(c)
DAV:   1    -0.642254309712E+02    0.92768E-10    0.29053E-11    84   0.284E-07    0.101E-07
RMM:   2    -0.642254309712E+02    0.20009E-10    0.00000E+00     1   0.201E-07
  36 F= -.64225431E+02 E0= -.64225106E+02  d E =0.272848E-10
quench:  g(F)=  0.000E+00 g(S)=  0.000E+00 dE (1.order)= 0.000E+00
 bond charge predicted
       N       E                     dE             d eps       ncg     rms          rms(c)
DAV:   1    -0.642254309714E+02   -0.13279E-09   -0.25663E-11    84   0.216E-07    0.714E-08
RMM:   2    -0.642254309711E+02    0.26739E-09    0.00000E+00     1   0.172E-07
  37 F= -.64225431E+02 E0= -.64225106E+02  d E =0.114596E-09
quench:  g(F)=  0.000E+00 g(S)=  0.000E+00 dE (1.order)= 0.000E+00
 bond charge predicted
       N       E                     dE             d eps       ncg     rms          rms(c)
DAV:   1    -0.642254309710E+02    0.40018E-09   -0.14165E-10    84   0.183E-07    0.632E-08
RMM:   2    -0.642254309711E+02   -0.13642E-09    0.00000E+00     1   0.131E-07
  38 F= -.64225431E+02 E0= -.64225106E+02  d E =-.363798E-11
quench:  g(F)=  0.000E+00 g(S)=  0.000E+00 dE (1.order)= 0.000E+00
 bond charge predicted
       N       E                     dE             d eps       ncg     rms          rms(c)
DAV:   1    -0.642254309712E+02   -0.24556E-09   -0.11825E-10    84   0.141E-07    0.447E-08
RMM:   2    -0.642254309712E+02   -0.20009E-10    0.00000E+00     1   0.112E-07
  39 F= -.64225431E+02 E0= -.64225106E+02  d E =-.129148E-09
quench:  g(F)=  0.000E+00 g(S)=  0.000E+00 dE (1.order)= 0.000E+00
 bond charge predicted
       N       E                     dE             d eps       ncg     rms          rms(c)
DAV:   1    -0.642254309715E+02   -0.24374E-09   -0.38085E-11    84   0.119E-07    0.395E-08
RMM:   2    -0.642254309712E+02    0.29104E-09    0.00000E+00     1   0.850E-08
  40 F= -.64225431E+02 E0= -.64225106E+02  d E =0.673026E-10
quench:  g(F)=  0.000E+00 g(S)=  0.000E+00 dE (1.order)= 0.000E+00
 bond charge predicted
       N       E                     dE             d eps       ncg     rms          rms(c)
DAV:   1    -0.642254309711E+02    0.36562E-09   -0.78509E-11    84   0.921E-08    0.285E-08
RMM:   2    -0.642254309712E+02   -0.13097E-09    0.00000E+00     1   0.731E-08
  41 F= -.64225431E+02 E0= -.64225106E+02  d E =-.563887E-10
quench:  g(F)=  0.000E+00 g(S)=  0.000E+00 dE (1.order)= 0.000E+00
 bond charge predicted
       N       E                     dE             d eps       ncg     rms          rms(c)
DAV:   1    -0.642254309712E+02   -0.13461E-09   -0.81511E-12    84   0.779E-08    0.252E-08
RMM:   2    -0.642254309713E+02   -0.10914E-10    0.00000E+00     1   0.555E-08
  42 F= -.64225431E+02 E0= -.64225106E+02  d E =-.145519E-10
quench:  g(F)=  0.000E+00 g(S)=  0.000E+00 dE (1.order)= 0.000E+00
 bond charge predicted
       N       E                     dE             d eps       ncg     rms          rms(c)
DAV:   1    -0.642254309712E+02    0.29104E-10   -0.78776E-11    84   0.601E-08    0.186E-08
RMM:   2    -0.642254309712E+02    0.10914E-10    0.00000E+00     1   0.477E-08
  43 F= -.64225431E+02 E0= -.64225106E+02  d E =0.509317E-10
quench:  g(F)=  0.000E+00 g(S)=  0.000E+00 dE (1.order)= 0.000E+00
 bond charge predicted
       N       E                     dE             d eps       ncg     rms          rms(c)
DAV:   1    -0.642254309716E+02   -0.36380E-09   -0.34202E-11    84   0.508E-08    0.162E-08
RMM:   2    -0.642254309712E+02    0.38926E-09    0.00000E+00     1   0.361E-08
  44 F= -.64225431E+02 E0= -.64225106E+02  d E =0.145519E-10
quench:  g(F)=  0.000E+00 g(S)=  0.000E+00 dE (1.order)= 0.000E+00
 bond charge predicted
       N       E                     dE             d eps       ncg     rms          rms(c)
DAV:   1    -0.642254309714E+02    0.20736E-09   -0.10398E-10    84   0.391E-08    0.116E-08
RMM:   2    -0.642254309712E+02    0.17280E-09    0.00000E+00     1   0.311E-08
  45 F= -.64225431E+02 E0= -.64225106E+02  d E =-.909495E-11
quench:  g(F)=  0.000E+00 g(S)=  0.000E+00 dE (1.order)= 0.000E+00
 bond charge predicted
       N       E                     dE             d eps       ncg     rms          rms(c)
DAV:   1    -0.642254309717E+02   -0.36925E-09   -0.11459E-10    84   0.331E-08    0.107E-08
RMM:   2    -0.642254309711E+02    0.60209E-09    0.00000E+00     1   0.237E-08
  46 F= -.64225431E+02 E0= -.64225106E+02  d E =0.600267E-10
quench:  g(F)=  0.000E+00 g(S)=  0.000E+00 dE (1.order)= 0.000E+00
 bond charge predicted
       N       E                     dE             d eps       ncg     rms          rms(c)
DAV:   1    -0.642254309711E+02    0.59481E-09   -0.41379E-11    84   0.256E-08    0.755E-09
RMM:   2    -0.642254309712E+02   -0.72760E-10    0.00000E+00     1   0.204E-08
  47 F= -.64225431E+02 E0= -.64225106E+02  d E =-.800355E-10
quench:  g(F)=  0.000E+00 g(S)=  0.000E+00 dE (1.order)= 0.000E+00
 bond charge predicted
       N       E                     dE             d eps       ncg     rms          rms(c)
DAV:   1    -0.642254309704E+02    0.76579E-09   -0.51166E-11    84   0.217E-08    0.693E-09
RMM:   2    -0.642254309712E+02   -0.79490E-09    0.00000E+00     1   0.155E-08
  48 F= -.64225431E+02 E0= -.64225106E+02  d E =0.436557E-10
quench:  g(F)=  0.000E+00 g(S)=  0.000E+00 dE (1.order)= 0.000E+00
 bond charge predicted
       N       E                     dE             d eps       ncg     rms          rms(c)
DAV:   1    -0.642254309709E+02   -0.54206E-09   -0.62275E-11    84   0.166E-08    0.528E-09
RMM:   2    -0.642254309712E+02   -0.23283E-09    0.00000E+00     1   0.133E-08
  49 F= -.64225431E+02 E0= -.64225106E+02  d E =0.200089E-10
quench:  g(F)=  0.000E+00 g(S)=  0.000E+00 dE (1.order)= 0.000E+00
 bond charge predicted
       N       E                     dE             d eps       ncg     rms          rms(c)
DAV:   1    -0.642254309709E+02   -0.21828E-10    0.41159E-11    84   0.142E-08    0.459E-09
RMM:   2    -0.642254309712E+02   -0.30741E-09    0.00000E+00     1   0.101E-08
  50 F= -.64225431E+02 E0= -.64225106E+02  d E =-.964064E-10
quench:  g(F)=  0.000E+00 g(S)=  0.000E+00 dE (1.order)= 0.000E+00
 bond charge predicted
       N       E                     dE             d eps       ncg     rms          rms(c)
DAV:   1    -0.642254309714E+02   -0.46384E-09    0.43358E-11    84   0.108E-08    0.360E-09
RMM:   2    -0.642254309712E+02    0.16553E-09    0.00000E+00     1   0.865E-09
  51 F= -.64225431E+02 E0= -.64225106E+02  d E =0.909495E-11
quench:  g(F)=  0.000E+00 g(S)=  0.000E+00 dE (1.order)= 0.000E+00
 bond charge predicted
       N       E                     dE             d eps       ncg     rms          rms(c)
DAV:   1    -0.642254309709E+02    0.50204E-09   -0.36455E-11    84   0.923E-09    0.338E-09
RMM:   2    -0.642254309711E+02   -0.20009E-09    0.00000E+00     1   0.667E-09
  52 F= -.64225431E+02 E0= -.64225106E+02  d E =0.136424E-09
quench:  g(F)=  0.000E+00 g(S)=  0.000E+00 dE (1.order)= 0.000E+00
 bond charge predicted
       N       E                     dE             d eps       ncg     rms          rms(c)
DAV:   1    -0.642254309713E+02   -0.41473E-09   -0.17153E-11    84   0.732E-09    0.196E-09
RMM:   2    -0.642254309711E+02    0.19281E-09    0.00000E+00     1   0.565E-09
  53 F= -.64225431E+02 E0= -.64225106E+02  d E =-.218279E-10
quench:  g(F)=  0.000E+00 g(S)=  0.000E+00 dE (1.order)= 0.000E+00
 bond charge predicted
       N       E                     dE             d eps       ncg     rms          rms(c)
DAV:   1    -0.642254309720E+02   -0.70941E-09    0.27967E-13    84   0.600E-09    0.162E-09
RMM:   2    -0.642254309711E+02    0.94951E-09    0.00000E+00     1   0.431E-09
  54 F= -.64225431E+02 E0= -.64225106E+02  d E =0.472937E-10
quench:  g(F)=  0.000E+00 g(S)=  0.000E+00 dE (1.order)= 0.000E+00
 bond charge predicted
       N       E                     dE             d eps       ncg     rms          rms(c)
DAV:   1    -0.642254309707E+02    0.12878E-08   -0.55930E-11    84   0.445E-09    0.148E-09
RMM:   2    -0.642254309711E+02   -0.40018E-09    0.00000E+00     1   0.365E-09
  55 F= -.64225431E+02 E0= -.64225106E+02  d E =-.618456E-10
quench:  g(F)=  0.000E+00 g(S)=  0.000E+00 dE (1.order)= 0.000E+00
 bond charge predicted
       N       E                     dE             d eps       ncg     rms          rms(c)
DAV:   1    -0.642254309712E+02   -0.49295E-09   -0.12439E-11    84   0.383E-09    0.134E-09
RMM:   2    -0.642254309712E+02   -0.18190E-11    0.00000E+00     1   0.284E-09
  56 F= -.64225431E+02 E0= -.64225106E+02  d E =-.945874E-10
quench:  g(F)=  0.000E+00 g(S)=  0.000E+00 dE (1.order)= 0.000E+00
 bond charge predicted
       N       E                     dE             d eps       ncg     rms          rms(c)
DAV:   1    -0.642254309718E+02   -0.60572E-09   -0.74414E-11    84   0.315E-09    0.796E-10
RMM:   2    -0.642254309711E+02    0.72396E-09    0.00000E+00     1   0.243E-09
  57 F= -.64225431E+02 E0= -.64225106E+02  d E =0.120053E-09
quench:  g(F)=  0.000E+00 g(S)=  0.000E+00 dE (1.order)= 0.000E+00
 bond charge predicted
       N       E                     dE             d eps       ncg     rms          rms(c)
DAV:   1    -0.642254309707E+02    0.11369E-08   -0.60026E-11    84   0.260E-09    0.664E-10
RMM:   2    -0.642254309712E+02   -0.46384E-09    0.00000E+00     1   0.188E-09
  58 F= -.64225431E+02 E0= -.64225106E+02  d E =-.509317E-10
quench:  g(F)=  0.000E+00 g(S)=  0.000E+00 dE (1.order)= 0.000E+00
 bond charge predicted
       N       E                     dE             d eps       ncg     rms          rms(c)
DAV:   1    -0.642254309711E+02   -0.37107E-09   -0.61185E-11    84   0.196E-09    0.832E-10
RMM:   2    -0.642254309712E+02   -0.12551E-09    0.00000E+00     1   0.159E-09
  59 F= -.64225431E+02 E0= -.64225106E+02  d E =-.327418E-10
quench:  g(F)=  0.000E+00 g(S)=  0.000E+00 dE (1.order)= 0.000E+00
 bond charge predicted
       N       E                     dE             d eps       ncg     rms          rms(c)
DAV:   1    -0.642254309708E+02    0.26193E-09    0.28239E-11    84   0.172E-09    0.655E-10
RMM:   2    -0.642254309711E+02   -0.32560E-09    0.00000E+00     1   0.132E-09
  60 F= -.64225431E+02 E0= -.64225106E+02  d E =0.618456E-10
quench:  g(F)=  0.000E+00 g(S)=  0.000E+00 dE (1.order)= 0.000E+00
 bond charge predicted
       N       E                     dE             d eps       ncg     rms          rms(c)
DAV:   1    -0.642254309712E+02   -0.42746E-09   -0.45913E-12    84   0.137E-09    0.398E-10
RMM:   2    -0.642254309711E+02    0.11642E-09    0.00000E+00     1   0.106E-09
  61 F= -.64225431E+02 E0= -.64225106E+02  d E =0.145519E-10
quench:  g(F)=  0.000E+00 g(S)=  0.000E+00 dE (1.order)= 0.000E+00
 bond charge predicted
       N       E                     dE             d eps       ncg     rms          rms(c)
DAV:   1    -0.642254309709E+02    0.35470E-09   -0.14109E-10    84   0.108E-09    0.321E-10
RMM:   2    -0.642254309712E+02   -0.29468E-09    0.00000E+00     1   0.878E-10
  62 F= -.64225431E+02 E0= -.64225106E+02  d E =-.563887E-10
quench:  g(F)=  0.000E+00 g(S)=  0.000E+00 dE (1.order)= 0.000E+00
 bond charge predicted
       N       E                     dE             d eps       ncg     rms          rms(c)
DAV:   1    -0.642254309709E+02    0.10914E-10   -0.49775E-11    84   0.869E-10    0.471E-10
RMM:   2    -0.642254309711E+02   -0.27285E-09    0.00000E+00     1   0.708E-10
  63 F= -.64225431E+02 E0= -.64225106E+02  d E =0.327418E-10
quench:  g(F)=  0.000E+00 g(S)=  0.000E+00 dE (1.order)= 0.000E+00
 bond charge predicted
       N       E                     dE             d eps       ncg     rms          rms(c)
DAV:   1    -0.642254309720E+02   -0.11205E-08   -0.14414E-11    84   0.782E-10    0.256E-10
RMM:   2    -0.642254309712E+02    0.76216E-09    0.00000E+00     1   0.594E-10
  64 F= -.64225431E+02 E0= -.64225106E+02  d E =-.854925E-10
quench:  g(F)=  0.000E+00 g(S)=  0.000E+00 dE (1.order)= 0.000E+00
 bond charge predicted
       N       E                     dE             d eps       ncg     rms          rms(c)
DAV:   1    -0.642254309712E+02    0.80581E-09   -0.97360E-11    84   0.650E-10    0.346E-10
RMM:   2    -0.642254309713E+02   -0.87311E-10    0.00000E+00     1   0.614E-10
  65 F= -.64225431E+02 E0= -.64225106E+02  d E =-.436557E-10
quench:  g(F)=  0.000E+00 g(S)=  0.000E+00 dE (1.order)= 0.000E+00
 bond charge predicted
       N       E                     dE             d eps       ncg     rms          rms(c)
DAV:   1    -0.642254309706E+02    0.60390E-09   -0.39662E-11    84   0.639E-10    0.293E-10
RMM:   2    -0.642254309713E+02   -0.67485E-09    0.00000E+00     1   0.442E-10
  66 F= -.64225431E+02 E0= -.64225106E+02  d E =0.163709E-10
quench:  g(F)=  0.000E+00 g(S)=  0.000E+00 dE (1.order)= 0.000E+00
 bond charge predicted
       N       E                     dE             d eps       ncg     rms          rms(c)
DAV:   1    -0.642254309713E+02   -0.74579E-09   -0.65750E-11    84   0.436E-10    0.392E-10
RMM:   2    -0.642254309712E+02    0.14370E-09    0.00000E+00     1   0.401E-10
  67 F= -.64225431E+02 E0= -.64225106E+02  d E =0.727596E-10
quench:  g(F)=  0.000E+00 g(S)=  0.000E+00 dE (1.order)= 0.000E+00
 bond charge predicted
       N       E                     dE             d eps       ncg     rms          rms(c)
DAV:   1    -0.642254309723E+02   -0.99681E-09    0.51282E-12    84   0.471E-10    0.549E-10
RMM:   2    -0.642254309711E+02    0.11933E-08    0.00000E+00     1   0.381E-10
  68 F= -.64225431E+02 E0= -.64225106E+02  d E =0.527507E-10
quench:  g(F)=  0.000E+00 g(S)=  0.000E+00 dE (1.order)= 0.000E+00
 bond charge predicted
       N       E                     dE             d eps       ncg     rms          rms(c)
DAV:   1    -0.642254309711E+02    0.12296E-08   -0.41066E-12    84   0.420E-10    0.538E-10
RMM:   2    -0.642254309711E+02    0.20009E-10    0.00000E+00     1   0.426E-10
  69 F= -.64225431E+02 E0= -.64225106E+02  d E =0.563887E-10
quench:  g(F)=  0.000E+00 g(S)=  0.000E+00 dE (1.order)= 0.000E+00
 bond charge predicted
       N       E                     dE             d eps       ncg     rms          rms(c)
DAV:   1    -0.642254309709E+02    0.16007E-09   -0.51885E-11    84   0.446E-10    0.259E-10
RMM:   2    -0.642254309713E+02   -0.32196E-09    0.00000E+00     1   0.259E-10
  70 F= -.64225431E+02 E0= -.64225106E+02  d E =-.181899E-09
quench:  g(F)=  0.000E+00 g(S)=  0.000E+00 dE (1.order)= 0.000E+00
 bond charge predicted
       N       E                     dE             d eps       ncg     rms          rms(c)
DAV:   1    -0.642254309712E+02   -0.31105E-09   -0.70777E-11    84   0.338E-10    0.414E-10
RMM:   2    -0.642254309711E+02    0.17099E-09    0.00000E+00     1   0.326E-10
  71 F= -.64225431E+02 E0= -.64225106E+02  d E =0.181899E-09
quench:  g(F)=  0.000E+00 g(S)=  0.000E+00 dE (1.order)= 0.000E+00
 bond charge predicted
       N       E                     dE             d eps       ncg     rms          rms(c)
DAV:   1    -0.642254309712E+02    0.90949E-11   -0.70627E-11    84   0.436E-10    0.376E-10
RMM:   2    -0.642254309711E+02    0.16553E-09    0.00000E+00     1   0.307E-10
  72 F= -.64225431E+02 E0= -.64225106E+02  d E =0.363798E-11
quench:  g(F)=  0.000E+00 g(S)=  0.000E+00 dE (1.order)= 0.000E+00
 bond charge predicted
       N       E                     dE             d eps       ncg     rms          rms(c)
DAV:   1    -0.642254309711E+02    0.98225E-10    0.42007E-11    84   0.352E-10    0.165E-10
RMM:   2    -0.642254309711E+02    0.65484E-10    0.00000E+00     1   0.272E-10
  73 F= -.64225431E+02 E0= -.64225106E+02  d E =-.181899E-11
quench:  g(F)=  0.000E+00 g(S)=  0.000E+00 dE (1.order)= 0.000E+00
 bond charge predicted
       N       E                     dE             d eps       ncg     rms          rms(c)
DAV:   1    -0.642254309714E+02   -0.31105E-09   -0.88707E-11    84   0.221E-10    0.264E-10
RMM:   2    -0.642254309711E+02    0.39108E-09    0.00000E+00     1   0.243E-10
  74 F= -.64225431E+02 E0= -.64225106E+02  d E =0.145519E-10
quench:  g(F)=  0.000E+00 g(S)=  0.000E+00 dE (1.order)= 0.000E+00
 bond charge predicted
       N       E                     dE             d eps       ncg     rms          rms(c)
DAV:   1    -0.642254309702E+02    0.12624E-08   -0.10117E-10    84   0.280E-10    0.174E-10
RMM:   2    -0.642254309711E+02   -0.94769E-09    0.00000E+00     1   0.166E-10
  75 F= -.64225431E+02 E0= -.64225106E+02  d E =-.763976E-10
quench:  g(F)=  0.000E+00 g(S)=  0.000E+00 dE (1.order)= 0.000E+00
 bond charge predicted
       N       E                     dE             d eps       ncg     rms          rms(c)
DAV:   1    -0.642254309711E+02   -0.92768E-09   -0.86983E-11    84   0.158E-10    0.147E-10
RMM:   2    -0.642254309711E+02    0.40018E-10    0.00000E+00     1   0.149E-10
  76 F= -.64225431E+02 E0= -.64225106E+02  d E =0.600267E-10
quench:  g(F)=  0.000E+00 g(S)=  0.000E+00 dE (1.order)= 0.000E+00
 bond charge predicted
       N       E                     dE             d eps       ncg     rms          rms(c)
DAV:   1    -0.642254309711E+02    0.54570E-10   -0.73125E-11    84   0.211E-10    0.547E-10
RMM:   2    -0.642254309712E+02   -0.12915E-09    0.00000E+00     1   0.272E-10
  77 F= -.64225431E+02 E0= -.64225106E+02  d E =-.114596E-09
quench:  g(F)=  0.000E+00 g(S)=  0.000E+00 dE (1.order)= 0.000E+00
 bond charge predicted
       N       E                     dE             d eps       ncg     rms          rms(c)
DAV:   1    -0.642254309707E+02    0.31469E-09   -0.67301E-11    84   0.387E-10    0.183E-10
RMM:   2    -0.642254309712E+02   -0.42746E-09    0.00000E+00     1   0.182E-10
  78 F= -.64225431E+02 E0= -.64225106E+02  d E =0.163709E-10
quench:  g(F)=  0.000E+00 g(S)=  0.000E+00 dE (1.order)= 0.000E+00
 bond charge predicted
       N       E                     dE             d eps       ncg     rms          rms(c)
DAV:   1    -0.642254309712E+02   -0.48021E-09   -0.89108E-11    84   0.212E-10    0.272E-10
RMM:   2    -0.642254309711E+02    0.15280E-09    0.00000E+00     1   0.169E-10
  79 F= -.64225431E+02 E0= -.64225106E+02  d E =0.100044E-09
quench:  g(F)=  0.000E+00 g(S)=  0.000E+00 dE (1.order)= 0.000E+00
 bond charge predicted
       N       E                     dE             d eps       ncg     rms          rms(c)
DAV:   1    -0.642254309711E+02    0.10914E-09   -0.18250E-11    84   0.266E-10    0.411E-10
RMM:   2    -0.642254309712E+02   -0.65484E-10    0.00000E+00     1   0.177E-10
  80 F= -.64225431E+02 E0= -.64225106E+02  d E =-.109139E-09
quench:  g(F)=  0.000E+00 g(S)=  0.000E+00 dE (1.order)= 0.000E+00
 bond charge predicted
       N       E                     dE             d eps       ncg     rms          rms(c)
DAV:   1    -0.642254309713E+02   -0.15098E-09   -0.65477E-12    84   0.194E-10    0.222E-10
RMM:   2    -0.642254309711E+02    0.15098E-09    0.00000E+00     1   0.233E-10
  81 F= -.64225431E+02 E0= -.64225106E+02  d E =0.654836E-10
quench:  g(F)=  0.000E+00 g(S)=  0.000E+00 dE (1.order)= 0.000E+00
 bond charge predicted
       N       E                     dE             d eps       ncg     rms          rms(c)
DAV:   1    -0.642254309709E+02    0.32560E-09   -0.81150E-11    84   0.183E-10    0.160E-10
RMM:   2    -0.642254309712E+02   -0.29468E-09    0.00000E+00     1   0.171E-10
  82 F= -.64225431E+02 E0= -.64225106E+02  d E =-.120053E-09
quench:  g(F)=  0.000E+00 g(S)=  0.000E+00 dE (1.order)= 0.000E+00
 bond charge predicted
       N       E                     dE             d eps       ncg     rms          rms(c)
DAV:   1    -0.642254309709E+02    0.47294E-10   -0.51515E-11    84   0.165E-10    0.213E-10
RMM:   2    -0.642254309712E+02   -0.31287E-09    0.00000E+00     1   0.153E-10
  83 F= -.64225431E+02 E0= -.64225106E+02  d E =0.291038E-10
quench:  g(F)=  0.000E+00 g(S)=  0.000E+00 dE (1.order)= 0.000E+00
 bond charge predicted
       N       E                     dE             d eps       ncg     rms          rms(c)
DAV:   1    -0.642254309707E+02    0.23101E-09   -0.13800E-11    84   0.203E-10    0.183E-10
RMM:   2    -0.642254309711E+02   -0.41655E-09    0.00000E+00     1   0.128E-10
  84 F= -.64225431E+02 E0= -.64225106E+02  d E =0.127329E-09
quench:  g(F)=  0.000E+00 g(S)=  0.000E+00 dE (1.order)= 0.000E+00
 bond charge predicted
       N       E                     dE             d eps       ncg     rms          rms(c)
DAV:   1    -0.642254309709E+02   -0.20736E-09   -0.27113E-11    84   0.207E-10    0.337E-10
RMM:   2    -0.642254309711E+02   -0.20555E-09    0.00000E+00     1   0.276E-10
  85 F= -.64225431E+02 E0= -.64225106E+02  d E =0.363798E-11
quench:  g(F)=  0.000E+00 g(S)=  0.000E+00 dE (1.order)= 0.000E+00
 bond charge predicted
       N       E                     dE             d eps       ncg     rms          rms(c)
DAV:   1    -0.642254309706E+02    0.29468E-09   -0.65304E-11    84   0.235E-10    0.222E-10
RMM:   2    -0.642254309711E+02   -0.51659E-09    0.00000E+00     1   0.140E-10
  86 F= -.64225431E+02 E0= -.64225106E+02  d E =-.163709E-10
quench:  g(F)=  0.000E+00 g(S)=  0.000E+00 dE (1.order)= 0.000E+00
 bond charge predicted
       N       E                     dE             d eps       ncg     rms          rms(c)
DAV:   1    -0.642254309721E+02   -0.15370E-08   -0.68841E-11    84   0.193E-10    0.419E-10
RMM:   2    -0.642254309713E+02    0.85129E-09    0.00000E+00     1   0.219E-10
  87 F= -.64225431E+02 E0= -.64225106E+02  d E =-.169166E-09
quench:  g(F)=  0.000E+00 g(S)=  0.000E+00 dE (1.order)= 0.000E+00
 bond charge predicted
       N       E                     dE             d eps       ncg     rms          rms(c)
DAV:   1    -0.642254309708E+02    0.13006E-08   -0.85627E-11    84   0.288E-10    0.232E-10
RMM:   2    -0.642254309711E+02   -0.30559E-09    0.00000E+00     1   0.191E-10
  88 F= -.64225431E+02 E0= -.64225106E+02  d E =0.143700E-09
quench:  g(F)=  0.000E+00 g(S)=  0.000E+00 dE (1.order)= 0.000E+00
 bond charge predicted
       N       E                     dE             d eps       ncg     rms          rms(c)
DAV:   1    -0.642254309711E+02   -0.24011E-09   -0.15256E-10    84   0.248E-10    0.245E-10
RMM:   2    -0.642254309711E+02   -0.23647E-10    0.00000E+00     1   0.175E-10
  89 F= -.64225431E+02 E0= -.64225106E+02  d E =0.418368E-10
quench:  g(F)=  0.000E+00 g(S)=  0.000E+00 dE (1.order)= 0.000E+00
 bond charge predicted
       N       E                     dE             d eps       ncg     rms          rms(c)
DAV:   1    -0.642254309708E+02    0.25830E-09   -0.42536E-11    84   0.284E-10    0.194E-10
RMM:   2    -0.642254309712E+02   -0.43656E-09    0.00000E+00     1   0.221E-10
  90 F= -.64225431E+02 E0= -.64225106E+02  d E =-.154614E-09
quench:  g(F)=  0.000E+00 g(S)=  0.000E+00 dE (1.order)= 0.000E+00
 bond charge predicted
       N       E                     dE             d eps       ncg     rms          rms(c)
DAV:   1    -0.642254309712E+02   -0.37289E-09   -0.70136E-11    84   0.239E-10    0.146E-10
RMM:   2    -0.642254309711E+02    0.20009E-10    0.00000E+00     1   0.190E-10
  91 F= -.64225431E+02 E0= -.64225106E+02  d E =0.836735E-10
quench:  g(F)=  0.000E+00 g(S)=  0.000E+00 dE (1.order)= 0.000E+00
 bond charge predicted
       N       E                     dE             d eps       ncg     rms          rms(c)
DAV:   1    -0.642254309713E+02   -0.15825E-09   -0.85828E-11    84   0.140E-10    0.316E-10
RMM:   2    -0.642254309711E+02    0.18736E-09    0.00000E+00     1   0.201E-10
  92 F= -.64225431E+02 E0= -.64225106E+02  d E =0.909495E-11
quench:  g(F)=  0.000E+00 g(S)=  0.000E+00 dE (1.order)= 0.000E+00
 bond charge predicted
       N       E                     dE             d eps       ncg     rms          rms(c)
DAV:   1    -0.642254309714E+02   -0.27285E-10   -0.61906E-11    84   0.262E-10    0.255E-10
RMM:   2    -0.642254309712E+02    0.16007E-09    0.00000E+00     1   0.304E-10
  93 F= -.64225431E+02 E0= -.64225106E+02  d E =-.545697E-10
quench:  g(F)=  0.000E+00 g(S)=  0.000E+00 dE (1.order)= 0.000E+00
 bond charge predicted
       N       E                     dE             d eps       ncg     rms          rms(c)
DAV:   1    -0.642254309710E+02    0.34197E-09   -0.53662E-11    84   0.273E-10    0.197E-10
RMM:   2    -0.642254309713E+02   -0.24556E-09    0.00000E+00     1   0.188E-10
  94 F= -.64225431E+02 E0= -.64225106E+02  d E =-.636646E-10
quench:  g(F)=  0.000E+00 g(S)=  0.000E+00 dE (1.order)= 0.000E+00
 bond charge predicted
       N       E                     dE             d eps       ncg     rms          rms(c)
DAV:   1    -0.642254309720E+02   -0.10223E-08   -0.43042E-11    84   0.167E-10    0.262E-10
RMM:   2    -0.642254309712E+02    0.86948E-09    0.00000E+00     1   0.184E-10
  95 F= -.64225431E+02 E0= -.64225106E+02  d E =0.927685E-10
quench:  g(F)=  0.000E+00 g(S)=  0.000E+00 dE (1.order)= 0.000E+00
 bond charge predicted
       N       E                     dE             d eps       ncg     rms          rms(c)
DAV:   1    -0.642254309711E+02    0.92041E-09   -0.46644E-11    84   0.216E-10    0.202E-10
RMM:   2    -0.642254309712E+02   -0.96406E-10    0.00000E+00     1   0.171E-10
  96 F= -.64225431E+02 E0= -.64225106E+02  d E =-.454747E-10
quench:  g(F)=  0.000E+00 g(S)=  0.000E+00 dE (1.order)= 0.000E+00
 bond charge predicted
       N       E                     dE             d eps       ncg     rms          rms(c)
DAV:   1    -0.642254309711E+02   -0.29104E-10   -0.97293E-11    84   0.183E-10    0.333E-10
RMM:   2    -0.642254309712E+02   -0.14552E-10    0.00000E+00     1   0.192E-10
  97 F= -.64225431E+02 E0= -.64225106E+02  d E =0.527507E-10
quench:  g(F)=  0.000E+00 g(S)=  0.000E+00 dE (1.order)= 0.000E+00
 bond charge predicted
       N       E                     dE             d eps       ncg     rms          rms(c)
DAV:   1    -0.642254309706E+02    0.49477E-09   -0.77714E-11    84   0.247E-10    0.219E-10
RMM:   2    -0.642254309711E+02   -0.44383E-09    0.00000E+00     1   0.146E-10
  98 F= -.64225431E+02 E0= -.64225106E+02  d E =0.654836E-10
quench:  g(F)=  0.000E+00 g(S)=  0.000E+00 dE (1.order)= 0.000E+00
 bond charge predicted
       N       E                     dE             d eps       ncg     rms          rms(c)
DAV:   1    -0.642254309716E+02   -0.96952E-09   -0.80209E-11    84   0.203E-10    0.370E-10
RMM:   2    -0.642254309712E+02    0.42019E-09    0.00000E+00     1   0.189E-10
  99 F= -.64225431E+02 E0= -.64225106E+02  d E =-.105501E-09
quench:  g(F)=  0.000E+00 g(S)=  0.000E+00 dE (1.order)= 0.000E+00
 bond charge predicted
       N       E                     dE             d eps       ncg     rms          rms(c)
DAV:   1    -0.642254309714E+02    0.18554E-09   -0.67636E-11    84   0.226E-10    0.301E-10
RMM:   2    -0.642254309712E+02    0.21282E-09    0.00000E+00     1   0.189E-10
 100 F= -.64225431E+02 E0= -.64225106E+02  d E =-.218279E-10
quench:  g(F)=  0.000E+00 g(S)=  0.000E+00 dE (1.order)= 0.000E+00
 bond charge predicted
       N       E                     dE             d eps       ncg     rms          rms(c)
DAV:   1    -0.642254309716E+02   -0.12005E-09   -0.33631E-11    84   0.234E-10    0.327E-10
RMM:   2    -0.642254309712E+02    0.39290E-09    0.00000E+00     1   0.277E-10
 101 F= -.64225431E+02 E0= -.64225106E+02  d E =0.600267E-10
quench:  g(F)=  0.000E+00 g(S)=  0.000E+00 dE (1.order)= 0.000E+00
 bond charge predicted
       N       E                     dE             d eps       ncg     rms          rms(c)
DAV:   1    -0.642254309709E+02    0.66211E-09   -0.64469E-11    84   0.280E-10    0.257E-10
RMM:   2    -0.642254309711E+02   -0.25466E-09    0.00000E+00     1   0.193E-10
 102 F= -.64225431E+02 E0= -.64225106E+02  d E =0.145519E-10
quench:  g(F)=  0.000E+00 g(S)=  0.000E+00 dE (1.order)= 0.000E+00
 bond charge predicted
       N       E                     dE             d eps       ncg     rms          rms(c)
DAV:   1    -0.642254309708E+02    0.61846E-10   -0.26962E-11    84   0.208E-10    0.242E-10
RMM:   2    -0.642254309712E+02   -0.35288E-09    0.00000E+00     1   0.204E-10
 103 F= -.64225431E+02 E0= -.64225106E+02  d E =-.363798E-10
quench:  g(F)=  0.000E+00 g(S)=  0.000E+00 dE (1.order)= 0.000E+00
 bond charge predicted
       N       E                     dE             d eps       ncg     rms          rms(c)
DAV:   1    -0.642254309713E+02   -0.44929E-09   -0.29339E-11    84   0.182E-10    0.239E-10
RMM:   2    -0.642254309713E+02    0.25466E-10    0.00000E+00     1   0.167E-10
 104 F= -.64225431E+02 E0= -.64225106E+02  d E =-.709406E-10
quench:  g(F)=  0.000E+00 g(S)=  0.000E+00 dE (1.order)= 0.000E+00
 bond charge predicted
       N       E                     dE             d eps       ncg     rms          rms(c)
DAV:   1    -0.642254309717E+02   -0.40927E-09   -0.35493E-12    84   0.201E-10    0.437E-10
RMM:   2    -0.642254309711E+02    0.59845E-09    0.00000E+00     1   0.252E-10
 105 F= -.64225431E+02 E0= -.64225106E+02  d E =0.163709E-09
quench:  g(F)=  0.000E+00 g(S)=  0.000E+00 dE (1.order)= 0.000E+00
 bond charge predicted
       N       E                     dE             d eps       ncg     rms          rms(c)
DAV:   1    -0.642254309709E+02    0.76943E-09   -0.11775E-10    84   0.343E-10    0.189E-10
RMM:   2    -0.642254309712E+02   -0.27285E-09    0.00000E+00     1   0.179E-10
 106 F= -.64225431E+02 E0= -.64225106E+02  d E =-.101863E-09
quench:  g(F)=  0.000E+00 g(S)=  0.000E+00 dE (1.order)= 0.000E+00
 bond charge predicted
       N       E                     dE             d eps       ncg     rms          rms(c)
DAV:   1    -0.642254309713E+02   -0.36016E-09   -0.17381E-11    84   0.214E-10    0.139E-10
RMM:   2    -0.642254309712E+02    0.49113E-10    0.00000E+00     1   0.226E-10
 107 F= -.64225431E+02 E0= -.64225106E+02  d E =-.381988E-10
quench:  g(F)=  0.000E+00 g(S)=  0.000E+00 dE (1.order)= 0.000E+00
 bond charge predicted
       N       E                     dE             d eps       ncg     rms          rms(c)
DAV:   1    -0.642254309715E+02   -0.26193E-09   -0.48441E-11    84   0.189E-10    0.400E-10
RMM:   2    -0.642254309712E+02    0.38199E-09    0.00000E+00     1   0.213E-10
 108 F= -.64225431E+02 E0= -.64225106E+02  d E =0.709406E-10
quench:  g(F)=  0.000E+00 g(S)=  0.000E+00 dE (1.order)= 0.000E+00
 bond charge predicted
       N       E                     dE             d eps       ncg     rms          rms(c)
DAV:   1    -0.642254309715E+02    0.69122E-10   -0.51825E-11    84   0.286E-10    0.318E-10
RMM:   2    -0.642254309711E+02    0.38744E-09    0.00000E+00     1   0.255E-10
 109 F= -.64225431E+02 E0= -.64225106E+02  d E =0.745786E-10
quench:  g(F)=  0.000E+00 g(S)=  0.000E+00 dE (1.order)= 0.000E+00
 bond charge predicted
       N       E                     dE             d eps       ncg     rms          rms(c)
DAV:   1    -0.642254309710E+02    0.47658E-09   -0.71502E-11    84   0.256E-10    0.410E-10
RMM:   2    -0.642254309711E+02   -0.11096E-09    0.00000E+00     1   0.227E-10
 110 F= -.64225431E+02 E0= -.64225106E+02  d E =-.218279E-10
quench:  g(F)=  0.000E+00 g(S)=  0.000E+00 dE (1.order)= 0.000E+00
 bond charge predicted
       N       E                     dE             d eps       ncg     rms          rms(c)
DAV:   1    -0.642254309710E+02    0.18190E-11   -0.60291E-11    84   0.376E-10    0.550E-10
RMM:   2    -0.642254309712E+02   -0.17099E-09    0.00000E+00     1   0.325E-10
 111 F= -.64225431E+02 E0= -.64225106E+02  d E =-.582077E-10
quench:  g(F)=  0.000E+00 g(S)=  0.000E+00 dE (1.order)= 0.000E+00
 bond charge predicted
       N       E                     dE             d eps       ncg     rms          rms(c)
DAV:   1    -0.642254309711E+02   -0.15643E-09   -0.47214E-11    84   0.385E-10    0.330E-10
RMM:   2    -0.642254309712E+02   -0.65484E-10    0.00000E+00     1   0.221E-10
 112 F= -.64225431E+02 E0= -.64225106E+02  d E =-.509317E-10
quench:  g(F)=  0.000E+00 g(S)=  0.000E+00 dE (1.order)= 0.000E+00
 bond charge predicted
       N       E                     dE             d eps       ncg     rms          rms(c)
DAV:   1    -0.642254309709E+02    0.26557E-09   -0.98339E-12    84   0.355E-10    0.301E-10
RMM:   2    -0.642254309710E+02   -0.15098E-09    0.00000E+00     0   0.265E-10
 113 F= -.64225431E+02 E0= -.64225106E+02  d E =0.180080E-09
quench:  g(F)=  0.000E+00 g(S)=  0.000E+00 dE (1.order)= 0.000E+00
 bond charge predicted
       N       E                     dE             d eps       ncg     rms          rms(c)
DAV:   1    -0.642254309710E+02   -0.15280E-09   -0.11565E-10    84   0.249E-10    0.246E-10
RMM:   2    -0.642254309712E+02   -0.12915E-09    0.00000E+00     1   0.192E-10
 114 F= -.64225431E+02 E0= -.64225106E+02  d E =-.130967E-09
quench:  g(F)=  0.000E+00 g(S)=  0.000E+00 dE (1.order)= 0.000E+00
 bond charge predicted
       N       E                     dE             d eps       ncg     rms          rms(c)
DAV:   1    -0.642254309712E+02   -0.17644E-09   -0.55646E-11    84   0.212E-10    0.274E-10
RMM:   2    -0.642254309711E+02    0.65484E-10    0.00000E+00     0   0.185E-10
 115 F= -.64225431E+02 E0= -.64225106E+02  d E =0.181899E-10
quench:  g(F)=  0.000E+00 g(S)=  0.000E+00 dE (1.order)= 0.000E+00
 bond charge predicted
       N       E                     dE             d eps       ncg     rms          rms(c)
DAV:   1    -0.642254309710E+02    0.23283E-09   -0.51707E-11    84   0.230E-10    0.378E-10
RMM:   2    -0.642254309711E+02   -0.10914E-09    0.00000E+00     1   0.190E-10
 116 F= -.64225431E+02 E0= -.64225106E+02  d E =0.582077E-10
quench:  g(F)=  0.000E+00 g(S)=  0.000E+00 dE (1.order)= 0.000E+00
 bond charge predicted
       N       E                     dE             d eps       ncg     rms          rms(c)
DAV:   1    -0.642254309702E+02    0.77307E-09    0.23415E-11    84   0.255E-10    0.367E-10
RMM:   2    -0.642254309712E+02   -0.10041E-08    0.00000E+00     0   0.202E-10
 117 F= -.64225431E+02 E0= -.64225106E+02  d E =-.121872E-09
quench:  g(F)=  0.000E+00 g(S)=  0.000E+00 dE (1.order)= 0.000E+00
 bond charge predicted
       N       E                     dE             d eps       ncg     rms          rms(c)
DAV:   1    -0.642254309717E+02   -0.15389E-08   -0.65511E-11    84   0.342E-10    0.247E-10
RMM:   2    -0.642254309712E+02    0.51477E-09    0.00000E+00     1   0.213E-10
 118 F= -.64225431E+02 E0= -.64225106E+02  d E =-.200089E-10
quench:  g(F)=  0.000E+00 g(S)=  0.000E+00 dE (1.order)= 0.000E+00
 bond charge predicted
       N       E                     dE             d eps       ncg     rms          rms(c)
DAV:   1    -0.642254309713E+02    0.47294E-09   -0.83902E-12    84   0.210E-10    0.379E-10
RMM:   2    -0.642254309712E+02    0.11096E-09    0.00000E+00     0   0.247E-10
 119 F= -.64225431E+02 E0= -.64225106E+02  d E =0.691216E-10
quench:  g(F)=  0.000E+00 g(S)=  0.000E+00 dE (1.order)= 0.000E+00
 bond charge predicted
       N       E                     dE             d eps       ncg     rms          rms(c)
DAV:   1    -0.642254309711E+02    0.21646E-09   -0.56176E-11    84   0.283E-10    0.230E-10
RMM:   2    -0.642254309711E+02   -0.94587E-10    0.00000E+00     1   0.261E-10
 120 F= -.64225431E+02 E0= -.64225106E+02  d E =0.109139E-10
quench:  g(F)=  0.000E+00 g(S)=  0.000E+00 dE (1.order)= 0.000E+00
 bond charge predicted
       N       E                     dE             d eps       ncg     rms          rms(c)
DAV:   1    -0.642254309713E+02   -0.19645E-09   -0.12531E-12    84   0.232E-10    0.470E-10
RMM:   2    -0.642254309713E+02   -0.36380E-11    0.00000E+00     0   0.272E-10
 121 F= -.64225431E+02 E0= -.64225106E+02  d E =-.105501E-09
quench:  g(F)=  0.000E+00 g(S)=  0.000E+00 dE (1.order)= 0.000E+00
 bond charge predicted
       N       E                     dE             d eps       ncg     rms          rms(c)
DAV:   1    -0.642254309718E+02   -0.50568E-09   -0.62467E-11    84   0.330E-10    0.288E-10
RMM:   2    -0.642254309712E+02    0.56389E-09    0.00000E+00     1   0.222E-10
 122 F= -.64225431E+02 E0= -.64225106E+02  d E =0.618456E-10
quench:  g(F)=  0.000E+00 g(S)=  0.000E+00 dE (1.order)= 0.000E+00
 bond charge predicted
       N       E                     dE             d eps       ncg     rms          rms(c)
DAV:   1    -0.642254309721E+02   -0.38926E-09   -0.16085E-11    84   0.208E-10    0.189E-10
RMM:   2    -0.642254309712E+02    0.94406E-09    0.00000E+00     0   0.197E-10
 123 F= -.64225431E+02 E0= -.64225106E+02  d E =-.909495E-11
quench:  g(F)=  0.000E+00 g(S)=  0.000E+00 dE (1.order)= 0.000E+00
 bond charge predicted
       N       E                     dE             d eps       ncg     rms          rms(c)
DAV:   1    -0.642254309710E+02    0.11642E-08   -0.88686E-11    84   0.158E-10    0.162E-10
RMM:   2    -0.642254309712E+02   -0.17826E-09    0.00000E+00     1   0.138E-10
 124 F= -.64225431E+02 E0= -.64225106E+02  d E =0.418368E-10
quench:  g(F)=  0.000E+00 g(S)=  0.000E+00 dE (1.order)= 0.000E+00
 bond charge predicted
       N       E                     dE             d eps       ncg     rms          rms(c)
DAV:   1    -0.642254309705E+02    0.53114E-09   -0.25070E-11    84   0.228E-10    0.458E-10
RMM:   2    -0.642254309711E+02   -0.61664E-09    0.00000E+00     0   0.246E-10
 125 F= -.64225431E+02 E0= -.64225106E+02  d E =0.927685E-10
quench:  g(F)=  0.000E+00 g(S)=  0.000E+00 dE (1.order)= 0.000E+00
 bond charge predicted
       N       E                     dE             d eps       ncg     rms          rms(c)
DAV:   1    -0.642254309707E+02   -0.26739E-09   -0.42388E-11    84   0.324E-10    0.234E-10
RMM:   2    -0.642254309712E+02   -0.43292E-09    0.00000E+00     1   0.257E-10
 126 F= -.64225431E+02 E0= -.64225106E+02  d E =-.836735E-10
quench:  g(F)=  0.000E+00 g(S)=  0.000E+00 dE (1.order)= 0.000E+00
 bond charge predicted
       N       E                     dE             d eps       ncg     rms          rms(c)
DAV:   1    -0.642254309719E+02   -0.11387E-08   -0.35375E-11    84   0.241E-10    0.362E-10
RMM:   2    -0.642254309711E+02    0.77489E-09    0.00000E+00     0   0.217E-10
 127 F= -.64225431E+02 E0= -.64225106E+02  d E =0.691216E-10
quench:  g(F)=  0.000E+00 g(S)=  0.000E+00 dE (1.order)= 0.000E+00
 bond charge predicted
       N       E                     dE             d eps       ncg     rms          rms(c)
DAV:   1    -0.642254309717E+02    0.18554E-09   -0.73073E-11    84   0.271E-10    0.402E-10
RMM:   2    -0.642254309711E+02    0.59481E-09    0.00000E+00     1   0.348E-10
 128 F= -.64225431E+02 E0= -.64225106E+02  d E =0.545697E-11
quench:  g(F)=  0.000E+00 g(S)=  0.000E+00 dE (1.order)= 0.000E+00
 bond charge predicted
       N       E                     dE             d eps       ncg     rms          rms(c)
DAV:   1    -0.642254309716E+02    0.70941E-10    0.31025E-12    84   0.292E-10    0.124E-10
RMM:   2    -0.642254309711E+02    0.50022E-09    0.00000E+00     0   0.138E-10
 129 F= -.64225431E+02 E0= -.64225106E+02  d E =-.236469E-10
quench:  g(F)=  0.000E+00 g(S)=  0.000E+00 dE (1.order)= 0.000E+00
 bond charge predicted
       N       E                     dE             d eps       ncg     rms          rms(c)
DAV:   1    -0.642254309720E+02   -0.44020E-09   -0.87865E-11    84   0.138E-10    0.189E-10
RMM:   2    -0.642254309712E+02    0.79490E-09    0.00000E+00     1   0.107E-10
 130 F= -.64225431E+02 E0= -.64225106E+02  d E =-.145519E-09
quench:  g(F)=  0.000E+00 g(S)=  0.000E+00 dE (1.order)= 0.000E+00
 bond charge predicted
       N       E                     dE             d eps       ncg     rms          rms(c)
DAV:   1    -0.642254309709E+02    0.11787E-08   -0.22793E-11    84   0.156E-10    0.206E-10
RMM:   2    -0.642254309712E+02   -0.29831E-09    0.00000E+00     0   0.172E-10
 131 F= -.64225431E+02 E0= -.64225106E+02  d E =0.854925E-10
quench:  g(F)=  0.000E+00 g(S)=  0.000E+00 dE (1.order)= 0.000E+00
 bond charge predicted
       N       E                     dE             d eps       ncg     rms          rms(c)
DAV:   1    -0.642254309710E+02   -0.18190E-09    0.13951E-11    84   0.303E-10    0.647E-10
RMM:   2    -0.642254309712E+02   -0.11460E-09    0.00000E+00     1   0.451E-10
 132 F= -.64225431E+02 E0= -.64225106E+02  d E =0.181899E-11
quench:  g(F)=  0.000E+00 g(S)=  0.000E+00 dE (1.order)= 0.000E+00
 bond charge predicted
       N       E                     dE             d eps       ncg     rms          rms(c)
DAV:   1    -0.642254309714E+02   -0.30741E-09   -0.99630E-11    84   0.404E-10    0.209E-10
RMM:   2    -0.642254309711E+02    0.22555E-09    0.00000E+00     0   0.296E-10
 133 F= -.64225431E+02 E0= -.64225106E+02  d E =0.327418E-10
quench:  g(F)=  0.000E+00 g(S)=  0.000E+00 dE (1.order)= 0.000E+00
 bond charge predicted
       N       E                     dE             d eps       ncg     rms          rms(c)
DAV:   1    -0.642254309708E+02    0.51477E-09   -0.38967E-11    84   0.196E-10    0.237E-10
RMM:   2    -0.642254309711E+02   -0.23283E-09    0.00000E+00     1   0.300E-10
 134 F= -.64225431E+02 E0= -.64225106E+02  d E =0.563887E-10
quench:  g(F)=  0.000E+00 g(S)=  0.000E+00 dE (1.order)= 0.000E+00
 bond charge predicted
       N       E                     dE             d eps       ncg     rms          rms(c)
DAV:   1    -0.642254309712E+02   -0.40018E-09   -0.25923E-11    84   0.202E-10    0.370E-10
RMM:   2    -0.642254309712E+02    0.61846E-10    0.00000E+00     0   0.222E-10
 135 F= -.64225431E+02 E0= -.64225106E+02  d E =-.105501E-09
quench:  g(F)=  0.000E+00 g(S)=  0.000E+00 dE (1.order)= 0.000E+00
 bond charge predicted
       N       E                     dE             d eps       ncg     rms          rms(c)
DAV:   1    -0.642254309711E+02    0.16735E-09   -0.58600E-11    84   0.281E-10    0.236E-10
RMM:   2    -0.642254309713E+02   -0.18372E-09    0.00000E+00     1   0.176E-10
 136 F= -.64225431E+02 E0= -.64225106E+02  d E =-.782165E-10
quench:  g(F)=  0.000E+00 g(S)=  0.000E+00 dE (1.order)= 0.000E+00
 bond charge predicted
       N       E                     dE             d eps       ncg     rms          rms(c)
DAV:   1    -0.642254309714E+02   -0.28922E-09   -0.46409E-11    84   0.166E-10    0.287E-10
RMM:   2    -0.642254309711E+02    0.24738E-09    0.00000E+00     0   0.196E-10
 137 F= -.64225431E+02 E0= -.64225106E+02  d E =0.141881E-09
quench:  g(F)=  0.000E+00 g(S)=  0.000E+00 dE (1.order)= 0.000E+00
 bond charge predicted
       N       E                     dE             d eps       ncg     rms          rms(c)
DAV:   1    -0.642254309718E+02   -0.47658E-09   -0.29264E-11    84   0.252E-10    0.482E-10
RMM:   2    -0.642254309711E+02    0.75488E-09    0.00000E+00     1   0.272E-10
 138 F= -.64225431E+02 E0= -.64225106E+02  d E =0.309228E-10
quench:  g(F)=  0.000E+00 g(S)=  0.000E+00 dE (1.order)= 0.000E+00
 bond charge predicted
       N       E                     dE             d eps       ncg     rms          rms(c)
DAV:   1    -0.642254309712E+02    0.62028E-09   -0.26443E-11    84   0.367E-10    0.202E-10
RMM:   2    -0.642254309713E+02   -0.52751E-10    0.00000E+00     0   0.155E-10
 139 F= -.64225431E+02 E0= -.64225106E+02  d E =-.187356E-09
quench:  g(F)=  0.000E+00 g(S)=  0.000E+00 dE (1.order)= 0.000E+00
 bond charge predicted
       N       E                     dE             d eps       ncg     rms          rms(c)
DAV:   1    -0.642254309707E+02    0.52569E-09   -0.99833E-11    84   0.229E-10    0.339E-10
RMM:   2    -0.642254309712E+02   -0.47476E-09    0.00000E+00     1   0.295E-10
 140 F= -.64225431E+02 E0= -.64225106E+02  d E =0.103682E-09
quench:  g(F)=  0.000E+00 g(S)=  0.000E+00 dE (1.order)= 0.000E+00
 bond charge predicted
       N       E                     dE             d eps       ncg     rms          rms(c)
DAV:   1    -0.642254309715E+02   -0.83674E-09   -0.71090E-11    84   0.244E-10    0.482E-10
RMM:   2    -0.642254309712E+02    0.30195E-09    0.00000E+00     0   0.276E-10
 141 F= -.64225431E+02 E0= -.64225106E+02  d E =-.600267E-10
quench:  g(F)=  0.000E+00 g(S)=  0.000E+00 dE (1.order)= 0.000E+00
 bond charge predicted
       N       E                     dE             d eps       ncg     rms          rms(c)
DAV:   1    -0.642254309713E+02    0.26921E-09   -0.39252E-11    84   0.348E-10    0.268E-10
RMM:   2    -0.642254309711E+02    0.15825E-09    0.00000E+00     1   0.174E-10
 142 F= -.64225431E+02 E0= -.64225106E+02  d E =0.125510E-09
quench:  g(F)=  0.000E+00 g(S)=  0.000E+00 dE (1.order)= 0.000E+00
 bond charge predicted
       N       E                     dE             d eps       ncg     rms          rms(c)
DAV:   1    -0.642254309712E+02    0.21828E-10   -0.79142E-11    84   0.208E-10    0.243E-10
RMM:   2    -0.642254309712E+02    0.72760E-10    0.00000E+00     0   0.253E-10
 143 F= -.64225431E+02 E0= -.64225106E+02  d E =-.636646E-10
quench:  g(F)=  0.000E+00 g(S)=  0.000E+00 dE (1.order)= 0.000E+00
 bond charge predicted
       N       E                     dE             d eps       ncg     rms          rms(c)
DAV:   1    -0.642254309711E+02    0.10732E-09   -0.31258E-11    84   0.301E-10    0.406E-10
RMM:   2    -0.642254309712E+02   -0.32742E-10    0.00000E+00     1   0.341E-10
 144 F= -.64225431E+02 E0= -.64225106E+02  d E =0.181899E-11
quench:  g(F)=  0.000E+00 g(S)=  0.000E+00 dE (1.order)= 0.000E+00
 bond charge predicted
       N       E                     dE             d eps       ncg     rms          rms(c)
DAV:   1    -0.642254309711E+02   -0.36380E-11   -0.47227E-11    84   0.301E-10    0.196E-10
RMM:   2    -0.642254309712E+02   -0.58208E-10    0.00000E+00     0   0.189E-10
 145 F= -.64225431E+02 E0= -.64225106E+02  d E =-.291038E-10
quench:  g(F)=  0.000E+00 g(S)=  0.000E+00 dE (1.order)= 0.000E+00
 bond charge predicted
       N       E                     dE             d eps       ncg     rms          rms(c)
DAV:   1    -0.642254309715E+02   -0.33106E-09   -0.57842E-11    84   0.196E-10    0.141E-10
RMM:   2    -0.642254309712E+02    0.27467E-09    0.00000E+00     1   0.113E-10
 146 F= -.64225431E+02 E0= -.64225106E+02  d E =0.181899E-11
quench:  g(F)=  0.000E+00 g(S)=  0.000E+00 dE (1.order)= 0.000E+00
 bond charge predicted
       N       E                     dE             d eps       ncg     rms          rms(c)
DAV:   1    -0.642254309707E+02    0.74033E-09   -0.19612E-11    84   0.124E-10    0.273E-10
RMM:   2    -0.642254309712E+02   -0.44929E-09    0.00000E+00     0   0.206E-10
 147 F= -.64225431E+02 E0= -.64225106E+02  d E =0.163709E-10
quench:  g(F)=  0.000E+00 g(S)=  0.000E+00 dE (1.order)= 0.000E+00
 bond charge predicted
       N       E                     dE             d eps       ncg     rms          rms(c)
DAV:   1    -0.642254309712E+02   -0.51296E-09   -0.11347E-10    84   0.200E-10    0.248E-10
RMM:   2    -0.642254309711E+02    0.12005E-09    0.00000E+00     1   0.143E-10
 148 F= -.64225431E+02 E0= -.64225106E+02  d E =0.563887E-10
quench:  g(F)=  0.000E+00 g(S)=  0.000E+00 dE (1.order)= 0.000E+00
 bond charge predicted
       N       E                     dE             d eps       ncg     rms          rms(c)
DAV:   1    -0.642254309713E+02   -0.18190E-10    0.31470E-11    84   0.178E-10    0.202E-10
RMM:   2    -0.642254309712E+02    0.38199E-10    0.00000E+00     0   0.121E-10
 149 F= -.64225431E+02 E0= -.64225106E+02  d E =-.100044E-09
quench:  g(F)=  0.000E+00 g(S)=  0.000E+00 dE (1.order)= 0.000E+00
 bond charge predicted
       N       E                     dE             d eps       ncg     rms          rms(c)
DAV:   1    -0.642254309713E+02   -0.25466E-10   -0.11112E-10    84   0.223E-10    0.265E-10
RMM:   2    -0.642254309712E+02    0.90949E-10    0.00000E+00     0   0.230E-10
 150 F= -.64225431E+02 E0= -.64225106E+02  d E =0.272848E-10
quench:  g(F)=  0.000E+00 g(S)=  0.000E+00 dE (1.order)= 0.000E+00
 bond charge predicted
       N       E                     dE             d eps       ncg     rms          rms(c)
DAV:   1    -0.642254309715E+02   -0.21282E-09   -0.69799E-11    84   0.303E-10    0.365E-10
RMM:   2    -0.642254309712E+02    0.28012E-09    0.00000E+00     0   0.395E-10
 151 F= -.64225431E+02 E0= -.64225106E+02  d E =-.236469E-10
quench:  g(F)=  0.000E+00 g(S)=  0.000E+00 dE (1.order)= 0.000E+00
 bond charge predicted
       N       E                     dE             d eps       ncg     rms          rms(c)
DAV:   1    -0.642254309711E+02    0.39836E-09   -0.56239E-11    84   0.272E-10    0.159E-10
RMM:   2    -0.642254309711E+02   -0.41837E-10    0.00000E+00     0   0.145E-10
 152 F= -.64225431E+02 E0= -.64225106E+02  d E =0.763976E-10
quench:  g(F)=  0.000E+00 g(S)=  0.000E+00 dE (1.order)= 0.000E+00
 bond charge predicted
       N       E                     dE             d eps       ncg     rms          rms(c)
DAV:   1    -0.642254309705E+02    0.59845E-09   -0.46702E-12    84   0.182E-10    0.222E-10
RMM:   2    -0.642254309712E+02   -0.66757E-09    0.00000E+00     0   0.305E-10
 153 F= -.64225431E+02 E0= -.64225106E+02  d E =-.272848E-10
quench:  g(F)=  0.000E+00 g(S)=  0.000E+00 dE (1.order)= 0.000E+00
 bond charge predicted
       N       E                     dE             d eps       ncg     rms          rms(c)
DAV:   1    -0.642254309712E+02   -0.69849E-09   -0.44474E-11    84   0.216E-10    0.160E-10
RMM:   2    -0.642254309711E+02    0.72760E-10    0.00000E+00     0   0.139E-10
 154 F= -.64225431E+02 E0= -.64225106E+02  d E =0.418368E-10
quench:  g(F)=  0.000E+00 g(S)=  0.000E+00 dE (1.order)= 0.000E+00
 bond charge predicted
       N       E                     dE             d eps       ncg     rms          rms(c)
DAV:   1    -0.642254309712E+02    0.72760E-11    0.16371E-11    84   0.207E-10    0.478E-10
RMM:   2    -0.642254309712E+02    0.27285E-10    0.00000E+00     0   0.350E-10
 155 F= -.64225431E+02 E0= -.64225106E+02  d E =-.381988E-10
quench:  g(F)=  0.000E+00 g(S)=  0.000E+00 dE (1.order)= 0.000E+00
 bond charge predicted
       N       E                     dE             d eps       ncg     rms          rms(c)
DAV:   1    -0.642254309710E+02    0.17099E-09   -0.86332E-11    84   0.276E-10    0.328E-10
RMM:   2    -0.642254309712E+02   -0.20191E-09    0.00000E+00     0   0.269E-10
 156 F= -.64225431E+02 E0= -.64225106E+02  d E =-.582077E-10
quench:  g(F)=  0.000E+00 g(S)=  0.000E+00 dE (1.order)= 0.000E+00
 bond charge predicted
       N       E                     dE             d eps       ncg     rms          rms(c)
DAV:   1    -0.642254309708E+02    0.25102E-09   -0.26967E-11    84   0.239E-10    0.382E-10
RMM:   2    -0.642254309712E+02   -0.48021E-09    0.00000E+00     0   0.222E-10
 157 F= -.64225431E+02 E0= -.64225106E+02  d E =-.272848E-10
quench:  g(F)=  0.000E+00 g(S)=  0.000E+00 dE (1.order)= 0.000E+00
 bond charge predicted
       N       E                     dE             d eps       ncg     rms          rms(c)
DAV:   1    -0.642254309703E+02    0.45657E-09   -0.51103E-11    84   0.264E-10    0.213E-10
RMM:   2    -0.642254309713E+02   -0.94406E-09    0.00000E+00     0   0.206E-10
 158 F= -.64225431E+02 E0= -.64225106E+02  d E =-.727596E-11
quench:  g(F)=  0.000E+00 g(S)=  0.000E+00 dE (1.order)= 0.000E+00
 bond charge predicted
       N       E                     dE             d eps       ncg     rms          rms(c)
DAV:   1    -0.642254309717E+02   -0.13570E-08   -0.61745E-11    84   0.195E-10    0.163E-10
RMM:   2    -0.642254309713E+02    0.41109E-09    0.00000E+00     0   0.136E-10
 159 F= -.64225431E+02 E0= -.64225106E+02  d E =-.181899E-11
quench:  g(F)=  0.000E+00 g(S)=  0.000E+00 dE (1.order)= 0.000E+00
 bond charge predicted
       N       E                     dE             d eps       ncg     rms          rms(c)
DAV:   1    -0.642254309713E+02    0.32742E-09   -0.59587E-11    84   0.151E-10    0.263E-10
RMM:   2    -0.642254309712E+02    0.15825E-09    0.00000E+00     0   0.153E-10
 160 F= -.64225431E+02 E0= -.64225106E+02  d E =0.745786E-10
quench:  g(F)=  0.000E+00 g(S)=  0.000E+00 dE (1.order)= 0.000E+00
 bond charge predicted
       N       E                     dE             d eps       ncg     rms          rms(c)
DAV:   1    -0.642254309712E+02    0.12733E-09   -0.37652E-11    84   0.194E-10    0.235E-10
RMM:   2    -0.642254309712E+02   -0.72760E-11    0.00000E+00     0   0.201E-10
 161 F= -.64225431E+02 E0= -.64225106E+02  d E =-.381988E-10
quench:  g(F)=  0.000E+00 g(S)=  0.000E+00 dE (1.order)= 0.000E+00
 bond charge predicted
       N       E                     dE             d eps       ncg     rms          rms(c)
DAV:   1    -0.642254309713E+02   -0.43656E-10   -0.57380E-11    84   0.269E-10    0.357E-10
RMM:   2    -0.642254309712E+02    0.65484E-10    0.00000E+00     0   0.261E-10
 162 F= -.64225431E+02 E0= -.64225106E+02  d E =0.291038E-10
quench:  g(F)=  0.000E+00 g(S)=  0.000E+00 dE (1.order)= 0.000E+00
 bond charge predicted
       N       E                     dE             d eps       ncg     rms          rms(c)
DAV:   1    -0.642254309707E+02    0.52569E-09   -0.80618E-11    84   0.235E-10    0.180E-10
RMM:   2    -0.642254309712E+02   -0.48021E-09    0.00000E+00     0   0.149E-10
 163 F= -.64225431E+02 E0= -.64225106E+02  d E =-.200089E-10
quench:  g(F)=  0.000E+00 g(S)=  0.000E+00 dE (1.order)= 0.000E+00
 bond charge predicted
       N       E                     dE             d eps       ncg     rms          rms(c)
DAV:   1    -0.642254309709E+02   -0.13097E-09   -0.57085E-11    84   0.152E-10    0.190E-10
RMM:   2    -0.642254309712E+02   -0.32196E-09    0.00000E+00     0   0.135E-10
 164 F= -.64225431E+02 E0= -.64225106E+02  d E =0.272848E-10
quench:  g(F)=  0.000E+00 g(S)=  0.000E+00 dE (1.order)= 0.000E+00
 bond charge predicted
       N       E                     dE             d eps       ncg     rms          rms(c)
DAV:   1    -0.642254309717E+02   -0.80763E-09   -0.61466E-11    84   0.163E-10    0.194E-10
RMM:   2    -0.642254309712E+02    0.48567E-09    0.00000E+00     0   0.167E-10
 165 F= -.64225431E+02 E0= -.64225106E+02  d E =0.000000E+00
quench:  g(F)=  0.000E+00 g(S)=  0.000E+00 dE (1.order)= 0.000E+00
 bond charge predicted
       N       E                     dE             d eps       ncg     rms          rms(c)
DAV:   1    -0.642254309712E+02    0.47294E-09   -0.11088E-10    84   0.174E-10    0.248E-10
RMM:   2    -0.642254309711E+02    0.90949E-10    0.00000E+00     0   0.162E-10
 166 F= -.64225431E+02 E0= -.64225106E+02  d E =0.782165E-10
quench:  g(F)=  0.000E+00 g(S)=  0.000E+00 dE (1.order)= 0.000E+00
 bond charge predicted
       N       E                     dE             d eps       ncg     rms          rms(c)
DAV:   1    -0.642254309706E+02    0.63665E-09   -0.54102E-11    84   0.223E-10    0.496E-10
RMM:   2    -0.642254309711E+02   -0.55661E-09    0.00000E+00     0   0.350E-10
 167 F= -.64225431E+02 E0= -.64225106E+02  d E =-.109139E-10
quench:  g(F)=  0.000E+00 g(S)=  0.000E+00 dE (1.order)= 0.000E+00
 bond charge predicted
       N       E                     dE             d eps       ncg     rms          rms(c)
DAV:   1    -0.642254309709E+02   -0.38744E-09    0.23696E-11    84   0.314E-10    0.219E-10
RMM:   2    -0.642254309712E+02   -0.21464E-09    0.00000E+00     0   0.180E-10
 168 F= -.64225431E+02 E0= -.64225106E+02  d E =-.454747E-10
quench:  g(F)=  0.000E+00 g(S)=  0.000E+00 dE (1.order)= 0.000E+00
 bond charge predicted
       N       E                     dE             d eps       ncg     rms          rms(c)
DAV:   1    -0.642254309709E+02    0.16371E-10   -0.48429E-12    84   0.225E-10    0.583E-10
RMM:   2    -0.642254309711E+02   -0.21646E-09    0.00000E+00     0   0.297E-10
 169 F= -.64225431E+02 E0= -.64225106E+02  d E =0.145519E-10
quench:  g(F)=  0.000E+00 g(S)=  0.000E+00 dE (1.order)= 0.000E+00
 bond charge predicted
       N       E                     dE             d eps       ncg     rms          rms(c)
DAV:   1    -0.642254309711E+02   -0.12369E-09   -0.86199E-11    84   0.429E-10    0.234E-10
RMM:   2    -0.642254309711E+02   -0.50932E-10    0.00000E+00     0   0.174E-10
 170 F= -.64225431E+02 E0= -.64225106E+02  d E =0.418368E-10
quench:  g(F)=  0.000E+00 g(S)=  0.000E+00 dE (1.order)= 0.000E+00
 bond charge predicted
       N       E                     dE             d eps       ncg     rms          rms(c)
DAV:   1    -0.642254309710E+02    0.10004E-09    0.87364E-12    84   0.213E-10    0.112E-10
RMM:   2    -0.642254309711E+02   -0.18008E-09    0.00000E+00     0   0.151E-10
 171 F= -.64225431E+02 E0= -.64225106E+02  d E =-.291038E-10
quench:  g(F)=  0.000E+00 g(S)=  0.000E+00 dE (1.order)= 0.000E+00
 bond charge predicted
       N       E                     dE             d eps       ncg     rms          rms(c)
DAV:   1    -0.642254309719E+02   -0.98953E-09   -0.21126E-11    84   0.178E-10    0.317E-10
RMM:   2    -0.642254309712E+02    0.75124E-09    0.00000E+00     0   0.138E-10
 172 F= -.64225431E+02 E0= -.64225106E+02  d E =-.582077E-10
quench:  g(F)=  0.000E+00 g(S)=  0.000E+00 dE (1.order)= 0.000E+00
 bond charge predicted
       N       E                     dE             d eps       ncg     rms          rms(c)
DAV:   1    -0.642254309715E+02    0.40745E-09   -0.73955E-11    84   0.289E-10    0.418E-10
RMM:   2    -0.642254309711E+02    0.46930E-09    0.00000E+00     0   0.253E-10
 173 F= -.64225431E+02 E0= -.64225106E+02  d E =0.125510E-09
quench:  g(F)=  0.000E+00 g(S)=  0.000E+00 dE (1.order)= 0.000E+00
 bond charge predicted
       N       E                     dE             d eps       ncg     rms          rms(c)
DAV:   1    -0.642254309716E+02   -0.78217E-10   -0.30909E-11    84   0.329E-10    0.424E-10
RMM:   2    -0.642254309713E+02    0.34379E-09    0.00000E+00     0   0.247E-10
 174 F= -.64225431E+02 E0= -.64225106E+02  d E =-.203727E-09
quench:  g(F)=  0.000E+00 g(S)=  0.000E+00 dE (1.order)= 0.000E+00
 bond charge predicted
       N       E                     dE             d eps       ncg     rms          rms(c)
DAV:   1    -0.642254309711E+02    0.53114E-09   -0.94484E-11    84   0.320E-10    0.204E-10
RMM:   2    -0.642254309711E+02   -0.36380E-10    0.00000E+00     0   0.208E-10
 175 F= -.64225431E+02 E0= -.64225106E+02  d E =0.150976E-09
quench:  g(F)=  0.000E+00 g(S)=  0.000E+00 dE (1.order)= 0.000E+00
 bond charge predicted
       N       E                     dE             d eps       ncg     rms          rms(c)
DAV:   1    -0.642254309708E+02    0.30377E-09   -0.76577E-11    84   0.248E-10    0.233E-10
RMM:   2    -0.642254309713E+02   -0.48021E-09    0.00000E+00     0   0.192E-10
 176 F= -.64225431E+02 E0= -.64225106E+02  d E =-.140062E-09
quench:  g(F)=  0.000E+00 g(S)=  0.000E+00 dE (1.order)= 0.000E+00
 bond charge predicted
       N       E                     dE             d eps       ncg     rms          rms(c)
DAV:   1    -0.642254309707E+02    0.45475E-10   -0.59603E-11    84   0.188E-10    0.124E-10
RMM:   2    -0.642254309712E+02   -0.42746E-09    0.00000E+00     0   0.149E-10
 177 F= -.64225431E+02 E0= -.64225106E+02  d E =0.982254E-10
quench:  g(F)=  0.000E+00 g(S)=  0.000E+00 dE (1.order)= 0.000E+00
 bond charge predicted
       N       E                     dE             d eps       ncg     rms          rms(c)
DAV:   1    -0.642254309714E+02   -0.65302E-09   -0.56573E-11    84   0.135E-10    0.239E-10
RMM:   2    -0.642254309711E+02    0.25284E-09    0.00000E+00     0   0.197E-10
 178 F= -.64225431E+02 E0= -.64225106E+02  d E =0.272848E-10
quench:  g(F)=  0.000E+00 g(S)=  0.000E+00 dE (1.order)= 0.000E+00
 bond charge predicted
       N       E                     dE             d eps       ncg     rms          rms(c)
DAV:   1    -0.642254309719E+02   -0.48567E-09   -0.94656E-11    84   0.240E-10    0.315E-10
RMM:   2    -0.642254309711E+02    0.74579E-09    0.00000E+00     0   0.208E-10
 179 F= -.64225431E+02 E0= -.64225106E+02  d E =0.727596E-11
quench:  g(F)=  0.000E+00 g(S)=  0.000E+00 dE (1.order)= 0.000E+00
 bond charge predicted
       N       E                     dE             d eps       ncg     rms          rms(c)
DAV:   1    -0.642254309713E+02    0.54024E-09   -0.10791E-11    84   0.290E-10    0.502E-10
RMM:   2    -0.642254309712E+02    0.83674E-10    0.00000E+00     0   0.266E-10
 180 F= -.64225431E+02 E0= -.64225106E+02  d E =-.121872E-09
quench:  g(F)=  0.000E+00 g(S)=  0.000E+00 dE (1.order)= 0.000E+00
 bond charge predicted
       N       E                     dE             d eps       ncg     rms          rms(c)
DAV:   1    -0.642254309712E+02    0.11278E-09   -0.51663E-11    84   0.312E-10    0.419E-10
RMM:   2    -0.642254309712E+02   -0.23647E-10    0.00000E+00     0   0.244E-10
 181 F= -.64225431E+02 E0= -.64225106E+02  d E =0.545697E-11
quench:  g(F)=  0.000E+00 g(S)=  0.000E+00 dE (1.order)= 0.000E+00
 bond charge predicted
       N       E                     dE             d eps       ncg     rms          rms(c)
DAV:   1    -0.642254309712E+02    0.18190E-10   -0.29071E-11    84   0.298E-10    0.273E-10
RMM:   2    -0.642254309713E+02   -0.72760E-10    0.00000E+00     0   0.235E-10
 182 F= -.64225431E+02 E0= -.64225106E+02  d E =-.309228E-10
quench:  g(F)=  0.000E+00 g(S)=  0.000E+00 dE (1.order)= 0.000E+00
 bond charge predicted
       N       E                     dE             d eps       ncg     rms          rms(c)
DAV:   1    -0.642254309711E+02    0.13461E-09    0.23946E-11    84   0.275E-10    0.144E-10
RMM:   2    -0.642254309712E+02   -0.11460E-09    0.00000E+00     0   0.172E-10
 183 F= -.64225431E+02 E0= -.64225106E+02  d E =0.927685E-10
quench:  g(F)=  0.000E+00 g(S)=  0.000E+00 dE (1.order)= 0.000E+00
 bond charge predicted
       N       E                     dE             d eps       ncg     rms          rms(c)
DAV:   1    -0.642254309710E+02    0.23647E-10   -0.11107E-10    84   0.178E-10    0.383E-10
RMM:   2    -0.642254309711E+02   -0.80036E-10    0.00000E+00     0   0.184E-10
 184 F= -.64225431E+02 E0= -.64225106E+02  d E =0.582077E-10
quench:  g(F)=  0.000E+00 g(S)=  0.000E+00 dE (1.order)= 0.000E+00
 bond charge predicted
       N       E                     dE             d eps       ncg     rms          rms(c)
DAV:   1    -0.642254309715E+02   -0.47476E-09   -0.14826E-11    84   0.321E-10    0.223E-10
RMM:   2    -0.642254309711E+02    0.43838E-09    0.00000E+00     0   0.230E-10
 185 F= -.64225431E+02 E0= -.64225106E+02  d E =0.436557E-10
quench:  g(F)=  0.000E+00 g(S)=  0.000E+00 dE (1.order)= 0.000E+00
 bond charge predicted
       N       E                     dE             d eps       ncg     rms          rms(c)
DAV:   1    -0.642254309714E+02    0.11460E-09   -0.34095E-11    84   0.240E-10    0.101E-10
RMM:   2    -0.642254309712E+02    0.17280E-09    0.00000E+00     0   0.182E-10
 186 F= -.64225431E+02 E0= -.64225106E+02  d E =-.150976E-09
quench:  g(F)=  0.000E+00 g(S)=  0.000E+00 dE (1.order)= 0.000E+00
 bond charge predicted
       N       E                     dE             d eps       ncg     rms          rms(c)
DAV:   1    -0.642254309709E+02    0.53296E-09   -0.46729E-11    84   0.147E-10    0.325E-10
RMM:   2    -0.642254309711E+02   -0.21464E-09    0.00000E+00     0   0.184E-10
 187 F= -.64225431E+02 E0= -.64225106E+02  d E =0.145519E-09
quench:  g(F)=  0.000E+00 g(S)=  0.000E+00 dE (1.order)= 0.000E+00
 bond charge predicted
[...]
 bond charge predicted
       N       E                     dE             d eps       ncg     rms          rms(c)
DAV:   1    -0.642254309706E+02    0.79854E-09   -0.55764E-11    84   0.160E-10    0.178E-10
RMM:   2    -0.642254309712E+02   -0.57116E-09    0.00000E+00     0   0.144E-10
 953 F= -.64225431E+02 E0= -.64225106E+02  d E =0.509317E-10
quench:  g(F)=  0.000E+00 g(S)=  0.000E+00 dE (1.order)= 0.000E+00
 bond charge predicted
       N       E                     dE             d eps       ncg     rms          rms(c)
DAV:   1    -0.642254309714E+02   -0.81127E-09   -0.38898E-11    84   0.164E-10    0.290E-10
RMM:   2    -0.642254309712E+02    0.25830E-09    0.00000E+00     0   0.200E-10
 954 F= -.64225431E+02 E0= -.64225106E+02  d E =0.181899E-10
quench:  g(F)=  0.000E+00 g(S)=  0.000E+00 dE (1.order)= 0.000E+00
 bond charge predicted
       N       E                     dE             d eps       ncg     rms          rms(c)
DAV:   1    -0.642254309709E+02    0.54752E-09   -0.70224E-12    84   0.237E-10    0.428E-10
RMM:   2    -0.642254309711E+02   -0.23101E-09    0.00000E+00     0   0.280E-10
 955 F= -.64225431E+02 E0= -.64225106E+02  d E =0.582077E-10
quench:  g(F)=  0.000E+00 g(S)=  0.000E+00 dE (1.order)= 0.000E+00
 bond charge predicted
       N       E                     dE             d eps       ncg     rms          rms(c)
DAV:   1    -0.642254309716E+02   -0.75124E-09   -0.10573E-10    84   0.369E-10    0.384E-10
RMM:   2    -0.642254309711E+02    0.58753E-09    0.00000E+00     0   0.212E-10
 956 F= -.64225431E+02 E0= -.64225106E+02  d E =0.673026E-10
quench:  g(F)=  0.000E+00 g(S)=  0.000E+00 dE (1.order)= 0.000E+00
 bond charge predicted
       N       E                     dE             d eps       ncg     rms          rms(c)
DAV:   1    -0.642254309708E+02    0.83674E-09   -0.39753E-11    84   0.277E-10    0.150E-10
RMM:   2    -0.642254309713E+02   -0.45839E-09    0.00000E+00     0   0.122E-10
 957 F= -.64225431E+02 E0= -.64225106E+02  d E =-.209184E-09
quench:  g(F)=  0.000E+00 g(S)=  0.000E+00 dE (1.order)= 0.000E+00
 bond charge predicted
       N       E                     dE             d eps       ncg     rms          rms(c)
DAV:   1    -0.642254309716E+02   -0.80945E-09   -0.36241E-11    84   0.189E-10    0.375E-10
RMM:   2    -0.642254309711E+02    0.49658E-09    0.00000E+00     0   0.248E-10
 958 F= -.64225431E+02 E0= -.64225106E+02  d E =0.145519E-09
quench:  g(F)=  0.000E+00 g(S)=  0.000E+00 dE (1.order)= 0.000E+00
 bond charge predicted
       N       E                     dE             d eps       ncg     rms          rms(c)
DAV:   1    -0.642254309722E+02   -0.53842E-09   -0.72849E-12    84   0.360E-10    0.208E-10
RMM:   2    -0.642254309711E+02    0.10605E-08    0.00000E+00     0   0.206E-10
 959 F= -.64225431E+02 E0= -.64225106E+02  d E =0.254659E-10
quench:  g(F)=  0.000E+00 g(S)=  0.000E+00 dE (1.order)= 0.000E+00
 bond charge predicted
       N       E                     dE             d eps       ncg     rms          rms(c)
DAV:   1    -0.642254309713E+02    0.82582E-09   -0.41263E-11    84   0.330E-10    0.314E-10
RMM:   2    -0.642254309712E+02    0.14188E-09    0.00000E+00     0   0.291E-10
 960 F= -.64225431E+02 E0= -.64225106E+02  d E =-.927685E-10
quench:  g(F)=  0.000E+00 g(S)=  0.000E+00 dE (1.order)= 0.000E+00
 bond charge predicted
       N       E                     dE             d eps       ncg     rms          rms(c)
DAV:   1    -0.642254309716E+02   -0.26739E-09   -0.85463E-11    84   0.362E-10    0.261E-10
RMM:   2    -0.642254309711E+02    0.52023E-09    0.00000E+00     0   0.196E-10
 961 F= -.64225431E+02 E0= -.64225106E+02  d E =0.110958E-09
quench:  g(F)=  0.000E+00 g(S)=  0.000E+00 dE (1.order)= 0.000E+00
 bond charge predicted
       N       E                     dE             d eps       ncg     rms          rms(c)
DAV:   1    -0.642254309715E+02    0.14006E-09   -0.86322E-11    84   0.244E-10    0.232E-10
RMM:   2    -0.642254309712E+02    0.28376E-09    0.00000E+00     0   0.143E-10
 962 F= -.64225431E+02 E0= -.64225106E+02  d E =-.964064E-10
quench:  g(F)=  0.000E+00 g(S)=  0.000E+00 dE (1.order)= 0.000E+00
 bond charge predicted
       N       E                     dE             d eps       ncg     rms          rms(c)
DAV:   1    -0.642254309713E+02    0.12915E-09   -0.10568E-10    84   0.190E-10    0.418E-10
RMM:   2    -0.642254309711E+02    0.26739E-09    0.00000E+00     0   0.230E-10
 963 F= -.64225431E+02 E0= -.64225106E+02  d E =0.112777E-09
quench:  g(F)=  0.000E+00 g(S)=  0.000E+00 dE (1.order)= 0.000E+00
 bond charge predicted
       N       E                     dE             d eps       ncg     rms          rms(c)
DAV:   1    -0.642254309716E+02   -0.27467E-09   -0.57863E-11    84   0.313E-10    0.529E-10
RMM:   2    -0.642254309712E+02    0.41837E-09    0.00000E+00     0   0.291E-10
 964 F= -.64225431E+02 E0= -.64225106E+02  d E =-.123691E-09
quench:  g(F)=  0.000E+00 g(S)=  0.000E+00 dE (1.order)= 0.000E+00
 bond charge predicted
       N       E                     dE             d eps       ncg     rms          rms(c)
DAV:   1    -0.642254309712E+02    0.37835E-09   -0.59882E-11    84   0.409E-10    0.246E-10
RMM:   2    -0.642254309712E+02    0.58208E-10    0.00000E+00     0   0.229E-10
 965 F= -.64225431E+02 E0= -.64225106E+02  d E =0.181899E-10
quench:  g(F)=  0.000E+00 g(S)=  0.000E+00 dE (1.order)= 0.000E+00
 bond charge predicted
       N       E                     dE             d eps       ncg     rms          rms(c)
DAV:   1    -0.642254309715E+02   -0.23101E-09   -0.49687E-11    84   0.197E-10    0.196E-10
RMM:   2    -0.642254309711E+02    0.31650E-09    0.00000E+00     0   0.219E-10
 966 F= -.64225431E+02 E0= -.64225106E+02  d E =0.272848E-10
quench:  g(F)=  0.000E+00 g(S)=  0.000E+00 dE (1.order)= 0.000E+00
 bond charge predicted
       N       E                     dE             d eps       ncg     rms          rms(c)
DAV:   1    -0.642254309713E+02    0.10368E-09   -0.10370E-10    84   0.173E-10    0.385E-10
RMM:   2    -0.642254309711E+02    0.27649E-09    0.00000E+00     0   0.218E-10
 967 F= -.64225431E+02 E0= -.64225106E+02  d E =0.636646E-10
quench:  g(F)=  0.000E+00 g(S)=  0.000E+00 dE (1.order)= 0.000E+00
 bond charge predicted
       N       E                     dE             d eps       ncg     rms          rms(c)
DAV:   1    -0.642254309719E+02   -0.56752E-09   -0.10455E-10    84   0.335E-10    0.415E-10
RMM:   2    -0.642254309711E+02    0.78398E-09    0.00000E+00     0   0.267E-10
 968 F= -.64225431E+02 E0= -.64225106E+02  d E =-.600267E-10
quench:  g(F)=  0.000E+00 g(S)=  0.000E+00 dE (1.order)= 0.000E+00
 bond charge predicted
       N       E                     dE             d eps       ncg     rms          rms(c)
DAV:   1    -0.642254309714E+02    0.49113E-09   -0.24482E-11    84   0.270E-10    0.284E-10
RMM:   2    -0.642254309712E+02    0.24738E-09    0.00000E+00     0   0.323E-10
 969 F= -.64225431E+02 E0= -.64225106E+02  d E =-.454747E-10
quench:  g(F)=  0.000E+00 g(S)=  0.000E+00 dE (1.order)= 0.000E+00
 bond charge predicted
       N       E                     dE             d eps       ncg     rms          rms(c)
DAV:   1    -0.642254309709E+02    0.49658E-09    0.32717E-12    84   0.182E-10    0.191E-10
RMM:   2    -0.642254309712E+02   -0.26739E-09    0.00000E+00     0   0.137E-10
 970 F= -.64225431E+02 E0= -.64225106E+02  d E =-.181899E-10
quench:  g(F)=  0.000E+00 g(S)=  0.000E+00 dE (1.order)= 0.000E+00
 bond charge predicted
       N       E                     dE             d eps       ncg     rms          rms(c)
DAV:   1    -0.642254309707E+02    0.22010E-09   -0.54922E-11    84   0.183E-10    0.163E-10
RMM:   2    -0.642254309712E+02   -0.53842E-09    0.00000E+00     0   0.114E-10
 971 F= -.64225431E+02 E0= -.64225106E+02  d E =-.509317E-10
quench:  g(F)=  0.000E+00 g(S)=  0.000E+00 dE (1.order)= 0.000E+00
 bond charge predicted
       N       E                     dE             d eps       ncg     rms          rms(c)
DAV:   1    -0.642254309718E+02   -0.10859E-08   -0.57704E-11    84   0.201E-10    0.578E-10
RMM:   2    -0.642254309711E+02    0.71486E-09    0.00000E+00     0   0.165E-10
 972 F= -.64225431E+02 E0= -.64225106E+02  d E =0.167347E-09
quench:  g(F)=  0.000E+00 g(S)=  0.000E+00 dE (1.order)= 0.000E+00
 bond charge predicted
       N       E                     dE             d eps       ncg     rms          rms(c)
DAV:   1    -0.642254309710E+02    0.75670E-09   -0.87746E-11    84   0.320E-10    0.974E-11
RMM:   2    -0.642254309711E+02   -0.43656E-10    0.00000E+00     0   0.170E-10
 973 F= -.64225431E+02 E0= -.64225106E+02  d E =-.181899E-11
quench:  g(F)=  0.000E+00 g(S)=  0.000E+00 dE (1.order)= 0.000E+00
 bond charge predicted
       N       E                     dE             d eps       ncg     rms          rms(c)
DAV:   1    -0.642254309717E+02   -0.67485E-09   -0.10745E-10    84   0.190E-10    0.200E-10
RMM:   2    -0.642254309711E+02    0.60390E-09    0.00000E+00     0   0.184E-10
 974 F= -.64225431E+02 E0= -.64225106E+02  d E =-.272848E-10
quench:  g(F)=  0.000E+00 g(S)=  0.000E+00 dE (1.order)= 0.000E+00
 bond charge predicted
       N       E                     dE             d eps       ncg     rms          rms(c)
DAV:   1    -0.642254309710E+02    0.68758E-09   -0.30852E-11    84   0.203E-10    0.256E-10
RMM:   2    -0.642254309712E+02   -0.18372E-09    0.00000E+00     0   0.142E-10
 975 F= -.64225431E+02 E0= -.64225106E+02  d E =-.100044E-09
quench:  g(F)=  0.000E+00 g(S)=  0.000E+00 dE (1.order)= 0.000E+00
 bond charge predicted
       N       E                     dE             d eps       ncg     rms          rms(c)
DAV:   1    -0.642254309709E+02    0.11823E-09    0.14146E-11    84   0.177E-10    0.328E-10
RMM:   2    -0.642254309712E+02   -0.25102E-09    0.00000E+00     0   0.199E-10
 976 F= -.64225431E+02 E0= -.64225106E+02  d E =0.509317E-10
quench:  g(F)=  0.000E+00 g(S)=  0.000E+00 dE (1.order)= 0.000E+00
 bond charge predicted
       N       E                     dE             d eps       ncg     rms          rms(c)
DAV:   1    -0.642254309709E+02   -0.36380E-10   -0.11215E-10    84   0.264E-10    0.230E-10
RMM:   2    -0.642254309711E+02   -0.19827E-09    0.00000E+00     0   0.174E-10
 977 F= -.64225431E+02 E0= -.64225106E+02  d E =0.163709E-10
quench:  g(F)=  0.000E+00 g(S)=  0.000E+00 dE (1.order)= 0.000E+00
 bond charge predicted
       N       E                     dE             d eps       ncg     rms          rms(c)
DAV:   1    -0.642254309716E+02   -0.66757E-09   -0.26435E-11    84   0.213E-10    0.478E-10
RMM:   2    -0.642254309712E+02    0.44201E-09    0.00000E+00     0   0.314E-10
 978 F= -.64225431E+02 E0= -.64225106E+02  d E =-.272848E-10
quench:  g(F)=  0.000E+00 g(S)=  0.000E+00 dE (1.order)= 0.000E+00
 bond charge predicted
       N       E                     dE             d eps       ncg     rms          rms(c)
DAV:   1    -0.642254309712E+02    0.41837E-09   -0.27842E-11    84   0.414E-10    0.446E-10
RMM:   2    -0.642254309712E+02    0.30923E-10    0.00000E+00     0   0.293E-10
 979 F= -.64225431E+02 E0= -.64225106E+02  d E =0.727596E-11
quench:  g(F)=  0.000E+00 g(S)=  0.000E+00 dE (1.order)= 0.000E+00
 bond charge predicted
       N       E                     dE             d eps       ncg     rms          rms(c)
DAV:   1    -0.642254309717E+02   -0.48567E-09   -0.39244E-11    84   0.285E-10    0.185E-10
RMM:   2    -0.642254309711E+02    0.53660E-09    0.00000E+00     0   0.188E-10
 980 F= -.64225431E+02 E0= -.64225106E+02  d E =0.200089E-10
quench:  g(F)=  0.000E+00 g(S)=  0.000E+00 dE (1.order)= 0.000E+00
 bond charge predicted
       N       E                     dE             d eps       ncg     rms          rms(c)
DAV:   1    -0.642254309713E+02    0.36744E-09   -0.70502E-11    84   0.173E-10    0.135E-10
RMM:   2    -0.642254309711E+02    0.18372E-09    0.00000E+00     0   0.113E-10
 981 F= -.64225431E+02 E0= -.64225106E+02  d E =0.145519E-10
quench:  g(F)=  0.000E+00 g(S)=  0.000E+00 dE (1.order)= 0.000E+00
 bond charge predicted
       N       E                     dE             d eps       ncg     rms          rms(c)
DAV:   1    -0.642254309717E+02   -0.38744E-09   -0.35810E-11    84   0.176E-10    0.145E-10
RMM:   2    -0.642254309711E+02    0.60390E-09    0.00000E+00     0   0.174E-10
 982 F= -.64225431E+02 E0= -.64225106E+02  d E =0.327418E-10
quench:  g(F)=  0.000E+00 g(S)=  0.000E+00 dE (1.order)= 0.000E+00
 bond charge predicted
       N       E                     dE             d eps       ncg     rms          rms(c)
DAV:   1    -0.642254309713E+02    0.36380E-09   -0.55432E-11    84   0.150E-10    0.240E-10
RMM:   2    -0.642254309712E+02    0.14370E-09    0.00000E+00     0   0.167E-10
 983 F= -.64225431E+02 E0= -.64225106E+02  d E =-.964064E-10
quench:  g(F)=  0.000E+00 g(S)=  0.000E+00 dE (1.order)= 0.000E+00
 bond charge predicted
       N       E                     dE             d eps       ncg     rms          rms(c)
DAV:   1    -0.642254309711E+02    0.25830E-09   -0.12138E-10    84   0.210E-10    0.419E-10
RMM:   2    -0.642254309711E+02   -0.32742E-10    0.00000E+00     0   0.245E-10
 984 F= -.64225431E+02 E0= -.64225106E+02  d E =0.818545E-10
quench:  g(F)=  0.000E+00 g(S)=  0.000E+00 dE (1.order)= 0.000E+00
 bond charge predicted
       N       E                     dE             d eps       ncg     rms          rms(c)
DAV:   1    -0.642254309715E+02   -0.46930E-09   -0.11455E-10    84   0.334E-10    0.315E-10
RMM:   2    -0.642254309712E+02    0.31105E-09    0.00000E+00     0   0.235E-10
 985 F= -.64225431E+02 E0= -.64225106E+02  d E =-.125510E-09
quench:  g(F)=  0.000E+00 g(S)=  0.000E+00 dE (1.order)= 0.000E+00
 bond charge predicted
       N       E                     dE             d eps       ncg     rms          rms(c)
DAV:   1    -0.642254309714E+02    0.10550E-09   -0.52875E-11    84   0.278E-10    0.189E-10
RMM:   2    -0.642254309712E+02    0.28558E-09    0.00000E+00     0   0.214E-10
 986 F= -.64225431E+02 E0= -.64225106E+02  d E =0.800355E-10
quench:  g(F)=  0.000E+00 g(S)=  0.000E+00 dE (1.order)= 0.000E+00
 bond charge predicted
       N       E                     dE             d eps       ncg     rms          rms(c)
DAV:   1    -0.642254309699E+02    0.15789E-08   -0.54820E-11    84   0.245E-10    0.559E-10
RMM:   2    -0.642254309712E+02   -0.12951E-08    0.00000E+00     0   0.252E-10
 987 F= -.64225431E+02 E0= -.64225106E+02  d E =-.181899E-11
quench:  g(F)=  0.000E+00 g(S)=  0.000E+00 dE (1.order)= 0.000E+00
 bond charge predicted
       N       E                     dE             d eps       ncg     rms          rms(c)
DAV:   1    -0.642254309714E+02   -0.15461E-08   -0.10729E-10    84   0.275E-10    0.286E-10
RMM:   2    -0.642254309711E+02    0.28376E-09    0.00000E+00     0   0.124E-10
 988 F= -.64225431E+02 E0= -.64225106E+02  d E =0.327418E-10
quench:  g(F)=  0.000E+00 g(S)=  0.000E+00 dE (1.order)= 0.000E+00
 bond charge predicted
       N       E                     dE             d eps       ncg     rms          rms(c)
DAV:   1    -0.642254309708E+02    0.61482E-09   -0.10583E-10    84   0.226E-10    0.403E-10
RMM:   2    -0.642254309712E+02   -0.44201E-09    0.00000E+00     0   0.211E-10
 989 F= -.64225431E+02 E0= -.64225106E+02  d E =-.110958E-09
quench:  g(F)=  0.000E+00 g(S)=  0.000E+00 dE (1.order)= 0.000E+00
 bond charge predicted
       N       E                     dE             d eps       ncg     rms          rms(c)
DAV:   1    -0.642254309707E+02    0.65484E-10   -0.59667E-12    84   0.248E-10    0.386E-10
RMM:   2    -0.642254309711E+02   -0.33469E-09    0.00000E+00     0   0.216E-10
 990 F= -.64225431E+02 E0= -.64225106E+02  d E =0.172804E-09
quench:  g(F)=  0.000E+00 g(S)=  0.000E+00 dE (1.order)= 0.000E+00
 bond charge predicted
       N       E                     dE             d eps       ncg     rms          rms(c)
DAV:   1    -0.642254309719E+02   -0.11423E-08   -0.92112E-11    84   0.305E-10    0.280E-10
RMM:   2    -0.642254309711E+02    0.74579E-09    0.00000E+00     0   0.240E-10
 991 F= -.64225431E+02 E0= -.64225106E+02  d E =-.618456E-10
quench:  g(F)=  0.000E+00 g(S)=  0.000E+00 dE (1.order)= 0.000E+00
 bond charge predicted
       N       E                     dE             d eps       ncg     rms          rms(c)
DAV:   1    -0.642254309713E+02    0.54570E-09   -0.24699E-11    84   0.227E-10    0.257E-10
RMM:   2    -0.642254309712E+02    0.96406E-10    0.00000E+00     0   0.172E-10
 992 F= -.64225431E+02 E0= -.64225106E+02  d E =-.103682E-09
quench:  g(F)=  0.000E+00 g(S)=  0.000E+00 dE (1.order)= 0.000E+00
 bond charge predicted
       N       E                     dE             d eps       ncg     rms          rms(c)
DAV:   1    -0.642254309710E+02    0.27649E-09   -0.73391E-11    84   0.269E-10    0.233E-10
RMM:   2    -0.642254309712E+02   -0.10732E-09    0.00000E+00     0   0.197E-10
 993 F= -.64225431E+02 E0= -.64225106E+02  d E =0.727596E-10
quench:  g(F)=  0.000E+00 g(S)=  0.000E+00 dE (1.order)= 0.000E+00
 bond charge predicted
       N       E                     dE             d eps       ncg     rms          rms(c)
DAV:   1    -0.642254309705E+02    0.55661E-09   -0.39836E-11    84   0.198E-10    0.284E-10
RMM:   2    -0.642254309711E+02   -0.61118E-09    0.00000E+00     0   0.198E-10
 994 F= -.64225431E+02 E0= -.64225106E+02  d E =0.527507E-10
quench:  g(F)=  0.000E+00 g(S)=  0.000E+00 dE (1.order)= 0.000E+00
 bond charge predicted
       N       E                     dE             d eps       ncg     rms          rms(c)
DAV:   1    -0.642254309716E+02   -0.10932E-08   -0.42346E-11    84   0.255E-10    0.300E-10
RMM:   2    -0.642254309711E+02    0.45839E-09    0.00000E+00     0   0.230E-10
 995 F= -.64225431E+02 E0= -.64225106E+02  d E =-.236469E-10
quench:  g(F)=  0.000E+00 g(S)=  0.000E+00 dE (1.order)= 0.000E+00
 bond charge predicted
       N       E                     dE             d eps       ncg     rms          rms(c)
DAV:   1    -0.642254309712E+02    0.37289E-09    0.57736E-12    84   0.268E-10    0.253E-10
RMM:   2    -0.642254309712E+02   -0.38199E-10    0.00000E+00     0   0.156E-10
 996 F= -.64225431E+02 E0= -.64225106E+02  d E =-.123691E-09
quench:  g(F)=  0.000E+00 g(S)=  0.000E+00 dE (1.order)= 0.000E+00
 bond charge predicted
       N       E                     dE             d eps       ncg     rms          rms(c)
DAV:   1    -0.642254309711E+02    0.11642E-09   -0.38143E-11    84   0.189E-10    0.153E-10
RMM:   2    -0.642254309711E+02   -0.23647E-10    0.00000E+00     0   0.131E-10
 997 F= -.64225431E+02 E0= -.64225106E+02  d E =0.130967E-09
quench:  g(F)=  0.000E+00 g(S)=  0.000E+00 dE (1.order)= 0.000E+00
 bond charge predicted
       N       E                     dE             d eps       ncg     rms          rms(c)
DAV:   1    -0.642254309710E+02    0.12551E-09   -0.55213E-11    84   0.236E-10    0.417E-10
RMM:   2    -0.642254309711E+02   -0.12005E-09    0.00000E+00     0   0.389E-10
 998 F= -.64225431E+02 E0= -.64225106E+02  d E =0.291038E-10
quench:  g(F)=  0.000E+00 g(S)=  0.000E+00 dE (1.order)= 0.000E+00
 bond charge predicted
       N       E                     dE             d eps       ncg     rms          rms(c)
DAV:   1    -0.642254309713E+02   -0.28194E-09   -0.10565E-11    84   0.227E-10    0.288E-10
RMM:   2    -0.642254309712E+02    0.80036E-10    0.00000E+00     0   0.311E-10
 999 F= -.64225431E+02 E0= -.64225106E+02  d E =-.818545E-10
quench:  g(F)=  0.000E+00 g(S)=  0.000E+00 dE (1.order)= 0.000E+00
 bond charge predicted
       N       E                     dE             d eps       ncg     rms          rms(c)
DAV:   1    -0.642254309710E+02    0.25830E-09   -0.46817E-11    84   0.282E-10    0.513E-10
RMM:   2    -0.642254309711E+02   -0.13461E-09    0.00000E+00     0   0.226E-10
1000 F= -.64225431E+02 E0= -.64225106E+02  d E =0.436557E-10
quench:  g(F)=  0.000E+00 g(S)=  0.000E+00 dE (1.order)= 0.000E+00
