 vasp.6.3.2 27Jun22 (build Mar 25 2024 10:42:18) complex                         
 executed on             LinuxGNU date 2024.03.29  14:57:59
 running on   32 total cores
 distrk:  each k-point on   32 cores,    1 groups
 distr:  one band on NCORE=   1 cores,   32 groups


--------------------------------------------------------------------------------------------------------


 INCAR:
   ISTART = 0
   ICHARG = 2
   PREC = Accurate
   IBRION = -1
   EDIFF = 0.000000001
   EDIFFG = -0.0005
   NSW = 0
   NELM = 100
   ENCUT = 520
   ISMEAR = -5
   SIGMA = 0.05
   ISPIN = 2
   ISYM = 0
   LWAVE = False
   LCHARG = False
   LASPH = True
   LORBIT = 11
   ADDGRID = TRUE

 POTCAR:    PAW_PBE Na_pv 19Sep2006               
 POTCAR:    PAW_PBE S 06Sep2000                   
 -----------------------------------------------------------------------------
|                                                                             |
|           W    W    AA    RRRRR   N    N  II  N    N   GGGG   !!!           |
|           W    W   A  A   R    R  NN   N  II  NN   N  G    G  !!!           |
|           W    W  A    A  R    R  N N  N  II  N N  N  G       !!!           |
|           W WW W  AAAAAA  RRRRR   N  N N  II  N  N N  G  GGG   !            |
|           WW  WW  A    A  R   R   N   NN  II  N   NN  G    G                |
|           W    W  A    A  R    R  N    N  II  N    N   GGGG   !!!           |
|                                                                             |
|     You use a magnetic or noncollinear calculation, but did not specify     |
|     the initial magnetic moment with the MAGMOM tag. Note that a            |
|     default of 1 will be used for all atoms. This ferromagnetic setup       |
|     may break the symmetry of the crystal, in particular it may rule        |
|     out finding an antiferromagnetic solution. Thence, we recommend         |
|     setting the initial magnetic moment manually or verifying carefully     |
|     that this magnetic setup is desired.                                    |
|                                                                             |
 -----------------------------------------------------------------------------

 -----------------------------------------------------------------------------
|                                                                             |
|           W    W    AA    RRRRR   N    N  II  N    N   GGGG   !!!           |
|           W    W   A  A   R    R  NN   N  II  NN   N  G    G  !!!           |
|           W    W  A    A  R    R  N N  N  II  N N  N  G       !!!           |
|           W WW W  AAAAAA  RRRRR   N  N N  II  N  N N  G  GGG   !            |
|           WW  WW  A    A  R   R   N   NN  II  N   NN  G    G                |
|           W    W  A    A  R    R  N    N  II  N    N   GGGG   !!!           |
|                                                                             |
|     For optimal performance we recommend to set                             |
|       NCORE = 2 up to number-of-cores-per-socket                            |
|     NCORE specifies how many cores store one orbital (NPAR=cpu/NCORE).      |
|     This setting can greatly improve the performance of VASP for DFT.       |
|     The default, NCORE=1 might be grossly inefficient on modern             |
|     multi-core architectures or massively parallel machines. Do your        |
|     own testing! More info at https://www.vasp.at/wiki/index.php/NCORE      |
|     Unfortunately you need to use the default for GW and RPA                |
|     calculations (for HF NCORE is supported but not extensively tested      |
|     yet).                                                                   |
|                                                                             |
 -----------------------------------------------------------------------------

 POTCAR:    PAW_PBE Na_pv 19Sep2006               
   SHA256 =  6a2f546d9e11350984debacf3dc457d8cffc0868e817d445faca461816a32b94 Na_pv/POTCAR          
   COPYR  = (c) Copyright 19Sep2006 Georg Kresse                                                    
   COPYR  = This file is part of the software VASP. Any use, copying, and all other rights are regul
   COPYR  = If you do not have a valid VASP license, you may not use, copy or distribute this file. 
   VRHFIN =Na: p6s1                                                                                 
   LEXCH  = PE                                                                                      
   EATOM  =   766.0439 eV,   56.3026 Ry                                                             
                                                                                                    
   TITEL  = PAW_PBE Na_pv 19Sep2006                                                                 
   LULTRA =        F    use ultrasoft PP ?                                                          
   IUNSCR =        1    unscreen: 0-lin 1-nonlin 2-no                                               
   RPACOR =    1.800    partial core radius                                                         
   POMASS =   22.990; ZVAL   =    7.000    mass and valenz                                          
   RCORE  =    2.200    outmost cutoff radius                                                       
   RWIGS  =    2.200; RWIGS  =    1.164    wigner-seitz radius (au A)                               
   ENMAX  =  259.561; ENMIN  =  194.671 eV                                                          
   ICORE  =        2    local potential                                                             
   LCOR   =        T    correct aug charges                                                         
   LPAW   =        T    paw PP                                                                      
   EAUG   =  368.056                                                                                
   DEXC   =    0.000                                                                                
   RMAX   =    2.245    core radius for proj-oper                                                   
   RAUG   =    1.300    factor for augmentation sphere                                              
   RDEP   =    2.259    radius for radial grids                                                     
   RDEPT  =    1.738    core radius for aug-charge                                                  
                                                                                                    
   Atomic configuration                                                                             
    5 entries                                                                                       
     n  l   j            E        occ.                                                              
     1  0  0.50     -1033.6933   2.0000                                                             
     2  0  0.50       -56.7526   2.0000                                                             
     2  1  1.50       -28.6721   6.0000                                                             
     3  0  0.50        -2.7440   1.0000                                                             
     3  2  1.50        -1.3606   0.0000                                                             
   Description                                                                                      
     l       E           TYP  RCUT    TYP  RCUT                                                     
     1    -28.6720912     23  2.000                                                                 
     1      6.8029130     23  2.000                                                                 
     0     -2.7439560     23  2.200                                                                 
     0     34.0145650     23  2.200                                                                 
     2     -1.3605826     23  2.200                                                                 
  local pseudopotential read in
  partial core-charges read in
  partial kinetic energy density read in
  atomic valenz-charges read in
  non local Contribution for L=           1  read in
    real space projection operators read in
  non local Contribution for L=           1  read in
    real space projection operators read in
  non local Contribution for L=           0  read in
    real space projection operators read in
  non local Contribution for L=           0  read in
    real space projection operators read in
    PAW grid and wavefunctions read in

   number of l-projection  operators is LMAX  =           4
   number of lm-projection operators is LMMAX =           8

 POTCAR:    PAW_PBE S 06Sep2000                   
   SHA256 =  0fc7481fb0695f01bdc6462160264c5c84044ae9ec85a907d398b887a2bc3132 S/POTCAR              
   COPYR  = (c) Copyright 06Sep2000 Georg Kresse                                                    
   COPYR  = This file is part of the software VASP. Any use, copying, and all other rights are regul
   COPYR  = If you do not have a valid VASP license, you may not use, copy or distribute this file. 
   VRHFIN =S : s2p4                                                                                 
   LEXCH  = PE                                                                                      
   EATOM  =   276.8230 eV,   20.3459 Ry                                                             
                                                                                                    
   TITEL  = PAW_PBE S 06Sep2000                                                                     
   LULTRA =        F    use ultrasoft PP ?                                                          
   IUNSCR =        1    unscreen: 0-lin 1-nonlin 2-no                                               
   RPACOR =    1.500    partial core radius                                                         
   POMASS =   32.066; ZVAL   =    6.000    mass and valenz                                          
   RCORE  =    1.900    outmost cutoff radius                                                       
   RWIGS  =    2.200; RWIGS  =    1.164    wigner-seitz radius (au A)                               
   ENMAX  =  258.689; ENMIN  =  194.016 eV                                                          
   ICORE  =        2    local potential                                                             
   LCOR   =        T    correct aug charges                                                         
   LPAW   =        T    paw PP                                                                      
   EAUG   =  335.092                                                                                
   DEXC   =    0.000                                                                                
   RMAX   =    1.942    core radius for proj-oper                                                   
   RAUG   =    1.300    factor for augmentation sphere                                              
   RDEP   =    1.954    radius for radial grids                                                     
   RDEPT  =    1.744    core radius for aug-charge                                                  
                                                                                                    
   Atomic configuration                                                                             
    6 entries                                                                                       
     n  l   j            E        occ.                                                              
     1  0  0.50     -2405.8406   2.0000                                                             
     2  0  0.50      -211.7007   2.0000                                                             
     2  1  1.50      -156.4958   6.0000                                                             
     3  0  0.50       -17.2562   2.0000                                                             
     3  1  0.50        -7.0085   4.0000                                                             
     3  2  1.50        -6.8029   0.0000                                                             
   Description                                                                                      
     l       E           TYP  RCUT    TYP  RCUT                                                     
     0    -17.2561641     23  1.900                                                                 
     0    -15.8743224     23  1.900                                                                 
     1     -7.0085400     23  1.900                                                                 
     1     -2.7779785     23  1.900                                                                 
     2     -6.8029130     23  1.900                                                                 
  local pseudopotential read in
  partial core-charges read in
  partial kinetic energy density read in
  atomic valenz-charges read in
  non local Contribution for L=           0  read in
    real space projection operators read in
  non local Contribution for L=           0  read in
    real space projection operators read in
  non local Contribution for L=           1  read in
    real space projection operators read in
  non local Contribution for L=           1  read in
    real space projection operators read in
    PAW grid and wavefunctions read in

   number of l-projection  operators is LMAX  =           4
   number of lm-projection operators is LMMAX =           8

 -----------------------------------------------------------------------------
|                                                                             |
|               ----> ADVICE to this user running VASP <----                  |
|                                                                             |
|     You have a (more or less) 'large supercell' and for larger cells it     |
|     might be more efficient to use real-space projection operators.         |
|     Therefore, try LREAL= Auto in the INCAR file.                           |
|     Mind: For very accurate calculation, you might also keep the            |
|     reciprocal projection scheme (i.e. LREAL=.FALSE.).                      |
|                                                                             |
 -----------------------------------------------------------------------------

  PAW_PBE Na_pv 19Sep2006               :
 energy of atom  1       EATOM= -766.0439
 kinetic energy error for atom=    0.0019 (will be added to EATOM!!)
  PAW_PBE S 06Sep2000                   :
 energy of atom  2       EATOM= -276.8230
 kinetic energy error for atom=    0.0016 (will be added to EATOM!!)


 POSCAR: generated by phonopy
  positions in direct lattice
  No initial velocities read in
 exchange correlation table for  LEXCH =        8
   RHO(1)=    0.500       N(1)  =     2000
   RHO(2)=  100.500       N(2)  =     4000



--------------------------------------------------------------------------------------------------------


 ion  position               nearest neighbor table
   1  0.000  0.000  0.000-
   2  0.333  0.000  0.000-
   3  0.667  0.000  0.000-
   4  0.000  0.333  0.000-
   5  0.333  0.333  0.000-
   6  0.667  0.333  0.000-
   7  0.000  0.667  0.000-
   8  0.333  0.667  0.000-
   9  0.667  0.667  0.000-
  10  0.000  0.000  0.500-
  11  0.333  0.000  0.500-
  12  0.667  0.000  0.500-
  13  0.000  0.333  0.500-
  14  0.333  0.333  0.500-
  15  0.667  0.333  0.500-
  16  0.000  0.667  0.500-
  17  0.333  0.667  0.500-
  18  0.667  0.667  0.500-
  19  0.112  0.222  0.251-
  20  0.444  0.222  0.250-
  21  0.778  0.222  0.250-
  22  0.111  0.556  0.250-
  23  0.444  0.556  0.250-
  24  0.778  0.556  0.250-
  25  0.111  0.889  0.250-
  26  0.444  0.889  0.250-
  27  0.778  0.889  0.250-
  28  0.222  0.111  0.750-
  29  0.556  0.111  0.750-
  30  0.889  0.111  0.750-
  31  0.222  0.444  0.750-
  32  0.556  0.444  0.750-
  33  0.889  0.444  0.750-
  34  0.222  0.778  0.750-
  35  0.556  0.778  0.750-
  36  0.889  0.778  0.750-
  37  0.111  0.222  0.645-  64 2.17
  38  0.444  0.222  0.645-  65 2.17
  39  0.778  0.222  0.645-  66 2.17
  40  0.111  0.556  0.645-  67 2.17
  41  0.444  0.556  0.645-  68 2.17
  42  0.778  0.556  0.645-  69 2.17
  43  0.111  0.889  0.645-  70 2.17
  44  0.444  0.889  0.645-  71 2.17
  45  0.778  0.889  0.645-  72 2.17
  46  0.222  0.111  0.145-  55 2.17
  47  0.556  0.111  0.145-  56 2.17
  48  0.889  0.111  0.145-  57 2.17
  49  0.222  0.444  0.145-  58 2.17
  50  0.556  0.444  0.145-  59 2.17
  51  0.889  0.444  0.145-  60 2.17
  52  0.222  0.778  0.145-  61 2.17
  53  0.556  0.778  0.145-  62 2.17
  54  0.889  0.778  0.145-  63 2.17
  55  0.222  0.111  0.355-  46 2.17
  56  0.556  0.111  0.355-  47 2.17
  57  0.889  0.111  0.355-  48 2.17
  58  0.222  0.444  0.355-  49 2.17
  59  0.556  0.444  0.355-  50 2.17
  60  0.889  0.444  0.355-  51 2.17
  61  0.222  0.778  0.355-  52 2.17
  62  0.556  0.778  0.355-  53 2.17
  63  0.889  0.778  0.355-  54 2.17
  64  0.111  0.222  0.855-  37 2.17
  65  0.444  0.222  0.855-  38 2.17
  66  0.778  0.222  0.855-  39 2.17
  67  0.111  0.556  0.855-  40 2.17
  68  0.444  0.556  0.855-  41 2.17
  69  0.778  0.556  0.855-  42 2.17
  70  0.111  0.889  0.855-  43 2.17
  71  0.444  0.889  0.855-  44 2.17
  72  0.778  0.889  0.855-  45 2.17


IMPORTANT INFORMATION: All symmetrisations will be switched off!
NOSYMM: (Re-)initialisation of all symmetry stuff for point group C_1.


----------------------------------------------------------------------------------------

                                     Primitive cell                                     

  volume of cell :    1632.5578

  direct lattice vectors                    reciprocal lattice vectors
     6.766693413-11.720256790  0.000000000     0.073891334 -0.042661181  0.000000000
     6.766693413 11.720256790  0.000000000     0.073891334  0.042661181 -0.000000000
     0.000000000  0.000000000 10.292596541    -0.000000000  0.000000000  0.097157214

  length of vectors
    13.533386826 13.533386826 10.292596541     0.085322363  0.085322363  0.097157214

  position of ions in fractional coordinates (direct lattice)
     0.000000000  0.000000000  0.000000000
     0.333333333  0.000000000  0.000000000
     0.666666667  0.000000000  0.000000000
     0.000000000  0.333333333  0.000000000
     0.333333333  0.333333333  0.000000000
     0.666666667  0.333333333  0.000000000
     0.000000000  0.666666667  0.000000000
     0.333333333  0.666666667  0.000000000
     0.666666667  0.666666667  0.000000000
     0.000000000  0.000000000  0.500000000
     0.333333333  0.000000000  0.500000000
     0.666666667  0.000000000  0.500000000
     0.000000000  0.333333333  0.500000000
     0.333333333  0.333333333  0.500000000
     0.666666667  0.333333333  0.500000000
     0.000000000  0.666666667  0.500000000
     0.333333333  0.666666667  0.500000000
     0.666666667  0.666666667  0.500000000
     0.111699255  0.222222222  0.250588144
     0.444444444  0.222222222  0.250000000
     0.777777778  0.222222222  0.250000000
     0.111111111  0.555555556  0.250000000
     0.444444444  0.555555556  0.250000000
     0.777777778  0.555555556  0.250000000
     0.111111111  0.888888889  0.250000000
     0.444444444  0.888888889  0.250000000
     0.777777778  0.888888889  0.250000000
     0.222222222  0.111111111  0.750000000
     0.555555556  0.111111111  0.750000000
     0.888888889  0.111111111  0.750000000
     0.222222222  0.444444444  0.750000000
     0.555555556  0.444444444  0.750000000
     0.888888889  0.444444444  0.750000000
     0.222222222  0.777777778  0.750000000
     0.555555556  0.777777778  0.750000000
     0.888888889  0.777777778  0.750000000
     0.111111111  0.222222222  0.644615105
     0.444444444  0.222222222  0.644615105
     0.777777778  0.222222222  0.644615105
     0.111111111  0.555555556  0.644615105
     0.444444444  0.555555556  0.644615105
     0.777777778  0.555555556  0.644615105
     0.111111111  0.888888889  0.644615105
     0.444444444  0.888888889  0.644615105
     0.777777778  0.888888889  0.644615105
     0.222222222  0.111111111  0.144615105
     0.555555556  0.111111111  0.144615105
     0.888888889  0.111111111  0.144615105
     0.222222222  0.444444444  0.144615105
     0.555555556  0.444444444  0.144615105
     0.888888889  0.444444444  0.144615105
     0.222222222  0.777777778  0.144615105
     0.555555556  0.777777778  0.144615105
     0.888888889  0.777777778  0.144615105
     0.222222222  0.111111111  0.355384895
     0.555555556  0.111111111  0.355384895
     0.888888889  0.111111111  0.355384895
     0.222222222  0.444444444  0.355384895
     0.555555556  0.444444444  0.355384895
     0.888888889  0.444444444  0.355384895
     0.222222222  0.777777778  0.355384895
     0.555555556  0.777777778  0.355384895
     0.888888889  0.777777778  0.355384895
     0.111111111  0.222222222  0.855384895
     0.444444444  0.222222222  0.855384895
     0.777777778  0.222222222  0.855384895
     0.111111111  0.555555556  0.855384895
     0.444444444  0.555555556  0.855384895
     0.777777778  0.555555556  0.855384895
     0.111111111  0.888888889  0.855384895
     0.444444444  0.888888889  0.855384895
     0.777777778  0.888888889  0.855384895

  ion indices of the primitive-cell ions
   primitive index   ion index
                 1           1
                 2           2
                 3           3
                 4           4
                 5           5
                 6           6
                 7           7
                 8           8
                 9           9
                10          10
                11          11
                12          12
                13          13
                14          14
                15          15
                16          16
                17          17
                18          18
                19          19
                20          20
                21          21
                22          22
                23          23
                24          24
                25          25
                26          26
                27          27
                28          28
                29          29
                30          30
                31          31
                32          32
                33          33
                34          34
                35          35
                36          36
                37          37
                38          38
                39          39
                40          40
                41          41
                42          42
                43          43
                44          44
                45          45
                46          46
                47          47
                48          48
                49          49
                50          50
                51          51
                52          52
                53          53
                54          54
                55          55
                56          56
                57          57
                58          58
                59          59
                60          60
                61          61
                62          62
                63          63
                64          64
                65          65
                66          66
                67          67
                68          68
                69          69
                70          70
                71          71
                72          72

----------------------------------------------------------------------------------------



 KPOINTS: pymatgen with grid density = 727 / numbe

Automatic generation of k-mesh.
 Grid dimensions read from file:
 generate k-points for:    3    3    2

 Generating k-lattice:

  Cartesian coordinates                     Fractional coordinates (reciprocal lattice)
     0.024630445 -0.014220394  0.000000000     0.333333333  0.000000000  0.000000000
     0.024630445  0.014220394 -0.000000000     0.000000000  0.333333333  0.000000000
    -0.000000000  0.000000000  0.048578607     0.000000000  0.000000000  0.500000000

  Length of vectors
     0.028440788  0.028440788  0.048578607

  Shift w.r.t. Gamma in fractional coordinates (k-lattice)
     0.000000000  0.000000000  0.000000000

 TETIRR: Found     51 inequivalent tetrahedra from      108
 
 Subroutine IBZKPT returns following result:
 ===========================================
 
 Found     10 irreducible k-points:
 
 Following reciprocal coordinates:
            Coordinates               Weight
  0.000000  0.000000  0.000000      1.000000
  0.333333  0.000000  0.000000      2.000000
  0.000000  0.333333  0.000000      2.000000
 -0.333333  0.333333  0.000000      2.000000
  0.333333  0.333333  0.000000      2.000000
  0.000000  0.000000  0.500000      1.000000
  0.333333  0.000000  0.500000      2.000000
  0.000000  0.333333  0.500000      2.000000
 -0.333333  0.333333  0.500000      2.000000
  0.333333  0.333333  0.500000      2.000000
 
 Following cartesian coordinates:
            Coordinates               Weight
  0.000000  0.000000  0.000000      1.000000
  0.024630 -0.014220  0.000000      2.000000
  0.024630  0.014220  0.000000      2.000000
  0.000000  0.028441  0.000000      2.000000
  0.049261  0.000000  0.000000      2.000000
  0.000000  0.000000  0.048579      1.000000
  0.024630 -0.014220  0.048579      2.000000
  0.024630  0.014220  0.048579      2.000000
  0.000000  0.028441  0.048579      2.000000
  0.049261  0.000000  0.048579      2.000000
 


--------------------------------------------------------------------------------------------------------




 Dimension of arrays:
   k-points           NKPTS =     10   k-points in BZ     NKDIM =     10   number of bands    NBANDS=    320
   number of dos      NEDOS =    301   number of ions     NIONS =     72
   non local maximal  LDIM  =      4   non local SUM 2l+1 LMDIM =      8
   total plane-waves  NPLWV = 933120
   max r-space proj   IRMAX =      1   max aug-charges    IRDMAX= 144241
   dimension x,y,z NGX =   108 NGY =  108 NGZ =   80
   dimension x,y,z NGXF=   216 NGYF=  216 NGZF=  160
   support grid    NGXF=   432 NGYF=  432 NGZF=  320
   ions per type =              36  36
   NGX,Y,Z   is equivalent  to a cutoff of  13.27, 13.27, 12.92 a.u.
   NGXF,Y,Z  is equivalent  to a cutoff of  26.53, 26.53, 25.84 a.u.

 SYSTEM =  unknown system                          
 POSCAR =  generated by phonopy                    

 Startparameter for this run:
   NWRITE =      2    write-flag & timer
   PREC   = accura    normal or accurate (medium, high low for compatibility)
   ISTART =      0    job   : 0-new  1-cont  2-samecut
   ICHARG =      2    charge: 1-file 2-atom 10-const
   ISPIN  =      2    spin polarized calculation?
   LNONCOLLINEAR =      F non collinear calculations
   LSORBIT =      F    spin-orbit coupling
   INIWAV =      1    electr: 0-lowe 1-rand  2-diag
   LASPH  =      T    aspherical Exc in radial PAW
 Electronic Relaxation 1
   ENCUT  =  520.0 eV  38.22 Ry    6.18 a.u.  25.16 25.16 19.14*2*pi/ulx,y,z
   ENINI  =  520.0     initial cutoff
   ENAUG  =  368.1 eV  augmentation charge cutoff
   NELM   =    100;   NELMIN=  2; NELMDL= -5     # of ELM steps 
   EDIFF  = 0.1E-08   stopping-criterion for ELM
   LREAL  =      F    real-space projection
   NLSPLINE    = F    spline interpolate recip. space projectors
   LCOMPAT=      F    compatible to vasp.4.4
   GGA_COMPAT  = T    GGA compatible to vasp.4.4-vasp.4.6
   LMAXPAW     = -100 max onsite density
   LMAXMIX     =    2 max onsite mixed and CHGCAR
   VOSKOWN=      0    Vosko Wilk Nusair interpolation
   ROPT   =    0.00000   0.00000
 Ionic relaxation
   EDIFFG = -.5E-03   stopping-criterion for IOM
   NSW    =      0    number of steps for IOM
   NBLOCK =      1;   KBLOCK =      1    inner block; outer block 
   IBRION =     -1    ionic relax: 0-MD 1-quasi-New 2-CG
   NFREE  =      0    steps in history (QN), initial steepest desc. (CG)
   ISIF   =      2    stress and relaxation
   IWAVPR =     10    prediction:  0-non 1-charg 2-wave 3-comb
   ISYM   =      0    0-nonsym 1-usesym 2-fastsym
   LCORR  =      T    Harris-Foulkes like correction to forces

   POTIM  = 0.5000    time-step for ionic-motion
   TEIN   =    0.0    initial temperature
   TEBEG  =    0.0;   TEEND  =   0.0 temperature during run
   SMASS  =  -3.00    Nose mass-parameter (am)
   estimated Nose-frequenzy (Omega)   =  0.10E-29 period in steps = 0.13E+47 mass=  -0.419E-26a.u.
   SCALEE = 1.0000    scale energy and forces
   NPACO  =    256;   APACO  = 10.0  distance and # of slots for P.C.
   PSTRESS=    0.0 pullay stress

  Mass of Ions in am
   POMASS =  22.99 32.07
  Ionic Valenz
   ZVAL   =   7.00  6.00
  Atomic Wigner-Seitz radii
   RWIGS  =  -1.00 -1.00
  virtual crystal weights 
   VCA    =   1.00  1.00
   NELECT =     468.0000    total number of electrons
   NUPDOWN=      -1.0000    fix difference up-down

 DOS related values:
   EMIN   =  10.00;   EMAX   =-10.00  energy-range for DOS
   EFERMI =   0.00
   ISMEAR =    -5;   SIGMA  =   0.05  broadening in eV -4-tet -1-fermi 0-gaus

 Electronic relaxation 2 (details)
   IALGO  =     38    algorithm
   LDIAG  =      T    sub-space diagonalisation (order eigenvalues)
   LSUBROT=      F    optimize rotation matrix (better conditioning)
   TURBO    =      0    0=normal 1=particle mesh
   IRESTART =      0    0=no restart 2=restart with 2 vectors
   NREBOOT  =      0    no. of reboots
   NMIN     =      0    reboot dimension
   EREF     =   0.00    reference energy to select bands
   IMIX   =      4    mixing-type and parameters
     AMIX     =   0.40;   BMIX     =  1.00
     AMIX_MAG =   1.60;   BMIX_MAG =  1.00
     AMIN     =   0.10
     WC   =   100.;   INIMIX=   1;  MIXPRE=   1;  MAXMIX= -45

 Intra band minimization:
   WEIMIN = 0.0000     energy-eigenvalue tresh-hold
   EBREAK =  0.78E-12  absolut break condition
   DEPER  =   0.30     relativ break condition  

   TIME   =   0.40     timestep for ELM

  volume/ion in A,a.u.               =      22.67       153.01
  Fermi-wavevector in a.u.,A,eV,Ry     =   1.079445  2.039856 15.853534  1.165202
  Thomas-Fermi vector in A             =   2.215410

 Write flags
   LWAVE        =      F    write WAVECAR
   LDOWNSAMPLE  =      F    k-point downsampling of WAVECAR
   LCHARG       =      F    write CHGCAR
   LVTOT        =      F    write LOCPOT, total local potential
   LVHAR        =      F    write LOCPOT, Hartree potential only
   LELF         =      F    write electronic localiz. function (ELF)
   LORBIT       =     11    0 simple, 1 ext, 2 COOP (PROOUT), +10 PAW based schemes


 Dipole corrections
   LMONO  =      F    monopole corrections only (constant potential shift)
   LDIPOL =      F    correct potential (dipole corrections)
   IDIPOL =      0    1-x, 2-y, 3-z, 4-all directions 
   EPSILON=  1.0000000 bulk dielectric constant

 Exchange correlation treatment:
   GGA     =    --    GGA type
   LEXCH   =     8    internal setting for exchange type
   LIBXC   =     F    Libxc                    
   VOSKOWN =     0    Vosko Wilk Nusair interpolation
   LHFCALC =     F    Hartree Fock is set to
   LHFONE  =     F    Hartree Fock one center treatment
   AEXX    =    0.0000 exact exchange contribution

 Linear response parameters
   LEPSILON=     F    determine dielectric tensor
   LRPA    =     F    only Hartree local field effects (RPA)
   LNABLA  =     F    use nabla operator in PAW spheres
   LVEL    =     F    velocity operator in full k-point grid
   CSHIFT  =0.1000    complex shift for real part using Kramers Kronig
   OMEGAMAX=  -1.0    maximum frequency
   DEG_THRESHOLD= 0.2000000E-02 threshold for treating states as degnerate
   RTIME   =   -0.100 relaxation time in fs
  (WPLASMAI=    0.000 imaginary part of plasma frequency in eV, 0.658/RTIME)
   DFIELD  = 0.0000000 0.0000000 0.0000000 field for delta impulse in time

  Optional k-point grid parameters
   LKPOINTS_OPT  =     F    use optional k-point grid
   KPOINTS_OPT_MODE=     1    mode for optional k-point grid

 Orbital magnetization related:
   ORBITALMAG=     F  switch on orbital magnetization
   LCHIMAG   =     F  perturbation theory with respect to B field
   DQ        =  0.001000  dq finite difference perturbation B field
   LLRAUG    =     F  two centre corrections for induced B field



--------------------------------------------------------------------------------------------------------


 Static calculation
 charge density and potential will be updated during run
 spin polarized calculation
 Variant of blocked Davidson
 Davidson routine will perform the subspace rotation
 perform sub-space diagonalisation
    after iterative eigenvector-optimisation
 modified Broyden-mixing scheme, WC =      100.0
 initial mixing is a Kerker type mixing with AMIX =  0.4000 and BMIX =      1.0000
 Hartree-type preconditioning will be used
 using additional bands           86
 reciprocal scheme for non local part
 use partial core corrections
 calculate Harris-corrections to forces   (improved forces if not selfconsistent)
 use gradient corrections 
 use of overlap-Matrix (Vanderbilt PP)
 Fermi weights with tetrahedron method with Bloechl corrections


--------------------------------------------------------------------------------------------------------


  energy-cutoff  :      520.00
  volume of cell :     1632.56
      direct lattice vectors                 reciprocal lattice vectors
     6.766693413-11.720256790  0.000000000     0.073891334 -0.042661181  0.000000000
     6.766693413 11.720256790  0.000000000     0.073891334  0.042661181 -0.000000000
     0.000000000  0.000000000 10.292596541    -0.000000000  0.000000000  0.097157214

  length of vectors
    13.533386826 13.533386826 10.292596541     0.085322363  0.085322363  0.097157214



 k-points in units of 2pi/SCALE and weight: pymatgen with grid density = 727 / numbe
   0.00000000 -0.00000000  0.00000000       0.056
   0.02463044 -0.01422039  0.00000000       0.111
   0.02463044  0.01422039  0.00000000       0.111
   0.00000000  0.02844079  0.00000000       0.111
   0.04926089 -0.00000000  0.00000000       0.111
   0.00000000 -0.00000000  0.04857861       0.056
   0.02463044 -0.01422039  0.04857861       0.111
   0.02463044  0.01422039  0.04857861       0.111
   0.00000000  0.02844079  0.04857861       0.111
   0.04926089 -0.00000000  0.04857861       0.111

 k-points in reciprocal lattice and weights: pymatgen with grid density = 727 / numbe
   0.00000000  0.00000000  0.00000000       0.056
   0.33333333  0.00000000  0.00000000       0.111
   0.00000000  0.33333333  0.00000000       0.111
  -0.33333333  0.33333333  0.00000000       0.111
   0.33333333  0.33333333  0.00000000       0.111
   0.00000000  0.00000000  0.50000000       0.056
   0.33333333  0.00000000  0.50000000       0.111
   0.00000000  0.33333333  0.50000000       0.111
  -0.33333333  0.33333333  0.50000000       0.111
   0.33333333  0.33333333  0.50000000       0.111

 position of ions in fractional coordinates (direct lattice) 
   0.00000000  0.00000000  0.00000000
   0.33333333  0.00000000  0.00000000
   0.66666667  0.00000000  0.00000000
   0.00000000  0.33333333  0.00000000
   0.33333333  0.33333333  0.00000000
   0.66666667  0.33333333  0.00000000
   0.00000000  0.66666667  0.00000000
   0.33333333  0.66666667  0.00000000
   0.66666667  0.66666667  0.00000000
   0.00000000  0.00000000  0.50000000
   0.33333333  0.00000000  0.50000000
   0.66666667  0.00000000  0.50000000
   0.00000000  0.33333333  0.50000000
   0.33333333  0.33333333  0.50000000
   0.66666667  0.33333333  0.50000000
   0.00000000  0.66666667  0.50000000
   0.33333333  0.66666667  0.50000000
   0.66666667  0.66666667  0.50000000
   0.11169925  0.22222222  0.25058814
   0.44444444  0.22222222  0.25000000
   0.77777778  0.22222222  0.25000000
   0.11111111  0.55555556  0.25000000
   0.44444444  0.55555556  0.25000000
   0.77777778  0.55555556  0.25000000
   0.11111111  0.88888889  0.25000000
   0.44444444  0.88888889  0.25000000
   0.77777778  0.88888889  0.25000000
   0.22222222  0.11111111  0.75000000
   0.55555556  0.11111111  0.75000000
   0.88888889  0.11111111  0.75000000
   0.22222222  0.44444444  0.75000000
   0.55555556  0.44444444  0.75000000
   0.88888889  0.44444444  0.75000000
   0.22222222  0.77777778  0.75000000
   0.55555556  0.77777778  0.75000000
   0.88888889  0.77777778  0.75000000
   0.11111111  0.22222222  0.64461511
   0.44444444  0.22222222  0.64461511
   0.77777778  0.22222222  0.64461511
   0.11111111  0.55555556  0.64461511
   0.44444444  0.55555556  0.64461511
   0.77777778  0.55555556  0.64461511
   0.11111111  0.88888889  0.64461511
   0.44444444  0.88888889  0.64461511
   0.77777778  0.88888889  0.64461511
   0.22222222  0.11111111  0.14461511
   0.55555556  0.11111111  0.14461511
   0.88888889  0.11111111  0.14461511
   0.22222222  0.44444444  0.14461511
   0.55555556  0.44444444  0.14461511
   0.88888889  0.44444444  0.14461511
   0.22222222  0.77777778  0.14461511
   0.55555556  0.77777778  0.14461511
   0.88888889  0.77777778  0.14461511
   0.22222222  0.11111111  0.35538489
   0.55555556  0.11111111  0.35538489
   0.88888889  0.11111111  0.35538489
   0.22222222  0.44444444  0.35538489
   0.55555556  0.44444444  0.35538489
   0.88888889  0.44444444  0.35538489
   0.22222222  0.77777778  0.35538489
   0.55555556  0.77777778  0.35538489
   0.88888889  0.77777778  0.35538489
   0.11111111  0.22222222  0.85538489
   0.44444444  0.22222222  0.85538489
   0.77777778  0.22222222  0.85538489
   0.11111111  0.55555556  0.85538489
   0.44444444  0.55555556  0.85538489
   0.77777778  0.55555556  0.85538489
   0.11111111  0.88888889  0.85538489
   0.44444444  0.88888889  0.85538489
   0.77777778  0.88888889  0.85538489

 position of ions in cartesian coordinates  (Angst):
   0.00000000  0.00000000  0.00000000
   2.25556447 -3.90675226  0.00000000
   4.51112894 -7.81350453  0.00000000
   2.25556447  3.90675226  0.00000000
   4.51112894  0.00000000  0.00000000
   6.76669341 -3.90675226  0.00000000
   4.51112894  7.81350453  0.00000000
   6.76669341  3.90675226  0.00000000
   9.02225788 -0.00000000  0.00000000
   0.00000000  0.00000000  5.14629827
   2.25556447 -3.90675226  5.14629827
   4.51112894 -7.81350453  5.14629827
   2.25556447  3.90675226  5.14629827
   4.51112894  0.00000000  5.14629827
   6.76669341 -3.90675226  5.14629827
   4.51112894  7.81350453  5.14629827
   6.76669341  3.90675226  5.14629827
   9.02225788 -0.00000000  5.14629827
   2.25954426  1.29535756  2.57920266
   4.51112894 -2.60450151  2.57314914
   6.76669341 -6.51125377  2.57314914
   4.51112894  5.20900302  2.57314914
   6.76669341  1.30225075  2.57314914
   9.02225788 -2.60450151  2.57314914
   6.76669341  9.11575528  2.57314914
   9.02225788  5.20900302  2.57314914
  11.27782235  1.30225075  2.57314914
   2.25556447 -1.30225075  7.71944741
   4.51112894 -5.20900302  7.71944741
   6.76669341 -9.11575528  7.71944741
   4.51112894  2.60450151  7.71944741
   6.76669341 -1.30225075  7.71944741
   9.02225788 -5.20900302  7.71944741
   6.76669341  6.51125377  7.71944741
   9.02225788  2.60450151  7.71944741
  11.27782235 -1.30225075  7.71944741
   2.25556447  1.30225075  6.63476320
   4.51112894 -2.60450151  6.63476320
   6.76669341 -6.51125377  6.63476320
   4.51112894  5.20900302  6.63476320
   6.76669341  1.30225075  6.63476320
   9.02225788 -2.60450151  6.63476320
   6.76669341  9.11575528  6.63476320
   9.02225788  5.20900302  6.63476320
  11.27782235  1.30225075  6.63476320
   2.25556447 -1.30225075  1.48846493
   4.51112894 -5.20900302  1.48846493
   6.76669341 -9.11575528  1.48846493
   4.51112894  2.60450151  1.48846493
   6.76669341 -1.30225075  1.48846493
   9.02225788 -5.20900302  1.48846493
   6.76669341  6.51125377  1.48846493
   9.02225788  2.60450151  1.48846493
  11.27782235 -1.30225075  1.48846493
   2.25556447 -1.30225075  3.65783334
   4.51112894 -5.20900302  3.65783334
   6.76669341 -9.11575528  3.65783334
   4.51112894  2.60450151  3.65783334
   6.76669341 -1.30225075  3.65783334
   9.02225788 -5.20900302  3.65783334
   6.76669341  6.51125377  3.65783334
   9.02225788  2.60450151  3.65783334
  11.27782235 -1.30225075  3.65783334
   2.25556447  1.30225075  8.80413161
   4.51112894 -2.60450151  8.80413161
   6.76669341 -6.51125377  8.80413161
   4.51112894  5.20900302  8.80413161
   6.76669341  1.30225075  8.80413161
   9.02225788 -2.60450151  8.80413161
   6.76669341  9.11575528  8.80413161
   9.02225788  5.20900302  8.80413161
  11.27782235  1.30225075  8.80413161



--------------------------------------------------------------------------------------------------------


 k-point   1 :   0.0000 0.0000 0.0000  plane waves:   44013
 k-point   2 :   0.3333 0.0000 0.0000  plane waves:   43952
 k-point   3 :   0.0000 0.3333 0.0000  plane waves:   43952
 k-point   4 :  -0.3333 0.3333 0.0000  plane waves:   43952
 k-point   5 :   0.3333 0.3333 0.0000  plane waves:   43929
 k-point   6 :   0.0000 0.0000 0.5000  plane waves:   43946
 k-point   7 :   0.3333 0.0000 0.5000  plane waves:   43984
 k-point   8 :   0.0000 0.3333 0.5000  plane waves:   43984
 k-point   9 :  -0.3333 0.3333 0.5000  plane waves:   43984
 k-point  10 :   0.3333 0.3333 0.5000  plane waves:   43986

 maximum and minimum number of plane-waves per node :     44013    43929

 maximum number of plane-waves:     44013
 maximum index in each direction: 
   IXMAX=   25   IYMAX=   25   IZMAX=   19
   IXMIN=  -25   IYMIN=  -25   IZMIN=  -19


 serial   3D FFT for wavefunctions
 parallel 3D FFT for charge:
    minimum data exchange during FFTs selected (reduces bandwidth)


 total amount of memory used by VASP MPI-rank0   413811. kBytes
=======================================================================

   base      :      30000. kBytes
   nonl-proj :     107085. kBytes
   fftplans  :      38970. kBytes
   grid      :      94569. kBytes
   one-center:        442. kBytes
   wavefun   :     142745. kBytes

     INWAV:  cpu time      0.0000: real time      0.0002
 Broyden mixing: mesh for mixing (old mesh)
   NGX = 51   NGY = 51   NGZ = 39
  (NGX  =216   NGY  =216   NGZ  =160)
  gives a total of 101439 points

 initial charge density was supplied:
 charge density of overlapping atoms calculated
 number of electron     468.0000000 magnetization      72.0000000
 keeping initial charge density in first step


--------------------------------------------------------------------------------------------------------


 Maximum index for augmentation-charges         5089 (set IRDMAX)


--------------------------------------------------------------------------------------------------------


 First call to EWALD:  gamma=   0.151
 Maximum number of real-space cells 3x 3x 3
 Maximum number of reciprocal cells 3x 3x 2

    FEWALD:  cpu time      0.0032: real time      0.0032


--------------------------------------- Iteration      1(   1)  ---------------------------------------


    POTLOK:  cpu time      0.5838: real time      0.5927
    SETDIJ:  cpu time      5.4000: real time      5.4003
     EDDAV:  cpu time    117.4232: real time    117.4314
 BZINTS: Fermi energy:   16.539597;  468.000000 electrons
         Band energy:-0.290291E+03;  BLOECHL correction:   -0.113923
       DOS:  cpu time      0.1259: real time      0.1259
    --------------------------------------------
      LOOP:  cpu time    123.5329: real time    123.5505

 eigenvalue-minimisations  : 13312
 total energy-change (2. order) : 0.4949464E+04  (-0.2155938E+05)
 number of electron     468.0000000 magnetization      72.0000000
 augmentation part      468.0000000 magnetization      72.0000000

 Free energy of the ion-electron system (eV)
  ---------------------------------------------------
  alpha Z        PSCENC =       709.13725613
  Ewald energy   TEWEN  =    -21667.13092780
  -Hartree energ DENC   =     -9609.01712386
  -exchange      EXHF   =         0.00000000
  -V(xc)+E(xc)   XCENC  =      1335.11076460
  PAW double counting   =     25905.63174358   -28977.05906808
  entropy T*S    EENTRO =         0.00000000
  eigenvalues    EBANDS =      -290.29141775
  atomic energy  EATOM  =     37543.08313351
  Solvation  Ediel_sol  =         0.00000000
  ---------------------------------------------------
  free energy    TOTEN  =      4949.46436034 eV

  energy without entropy =     4949.46436034  energy(sigma->0) =     4949.46436034


--------------------------------------------------------------------------------------------------------




--------------------------------------- Iteration      1(   2)  ---------------------------------------


     EDDAV:  cpu time    109.9857: real time    109.9948
 BZINTS: Fermi energy:    6.018854;  468.000000 electrons
         Band energy:-0.473972E+04;  BLOECHL correction:   -0.255933
       DOS:  cpu time      0.1225: real time      0.1226
    --------------------------------------------
      LOOP:  cpu time    110.1083: real time    110.1174

 eigenvalue-minimisations  : 13024
 total energy-change (2. order) :-0.4449429E+04  (-0.4238753E+04)
 number of electron     468.0000000 magnetization      72.0000000
 augmentation part      468.0000000 magnetization      72.0000000

 Free energy of the ion-electron system (eV)
  ---------------------------------------------------
  alpha Z        PSCENC =       709.13725613
  Ewald energy   TEWEN  =    -21667.13092780
  -Hartree energ DENC   =     -9609.01712386
  -exchange      EXHF   =         0.00000000
  -V(xc)+E(xc)   XCENC  =      1335.11076460
  PAW double counting   =     25905.63174358   -28977.05906808
  entropy T*S    EENTRO =         0.00000000
  eigenvalues    EBANDS =     -4739.72077687
  atomic energy  EATOM  =     37543.08313351
  Solvation  Ediel_sol  =         0.00000000
  ---------------------------------------------------
  free energy    TOTEN  =       500.03500121 eV

  energy without entropy =      500.03500121  energy(sigma->0) =      500.03500121


--------------------------------------------------------------------------------------------------------




--------------------------------------- Iteration      1(   3)  ---------------------------------------


     EDDAV:  cpu time    125.7959: real time    125.8055
 BZINTS: Fermi energy:    1.881113;  468.000000 electrons
         Band energy:-0.543774E+04;  BLOECHL correction:    0.000000
       DOS:  cpu time      0.0721: real time      0.0722
    --------------------------------------------
      LOOP:  cpu time    125.8680: real time    125.8777

 eigenvalue-minimisations  : 15840
 total energy-change (2. order) :-0.6980174E+03  (-0.6781669E+03)
 number of electron     468.0000000 magnetization      72.0000000
 augmentation part      468.0000000 magnetization      72.0000000

 Free energy of the ion-electron system (eV)
  ---------------------------------------------------
  alpha Z        PSCENC =       709.13725613
  Ewald energy   TEWEN  =    -21667.13092780
  -Hartree energ DENC   =     -9609.01712386
  -exchange      EXHF   =         0.00000000
  -V(xc)+E(xc)   XCENC  =      1335.11076460
  PAW double counting   =     25905.63174358   -28977.05906808
  entropy T*S    EENTRO =         0.00000000
  eigenvalues    EBANDS =     -5437.73813325
  atomic energy  EATOM  =     37543.08313351
  Solvation  Ediel_sol  =         0.00000000
  ---------------------------------------------------
  free energy    TOTEN  =      -197.98235517 eV

  energy without entropy =     -197.98235517  energy(sigma->0) =     -197.98235517


--------------------------------------------------------------------------------------------------------




--------------------------------------- Iteration      1(   4)  ---------------------------------------


     EDDAV:  cpu time    122.1129: real time    122.1244
 BZINTS: Fermi energy:    1.338096;  468.000000 electrons
         Band energy:-0.548138E+04;  BLOECHL correction:    0.000000
       DOS:  cpu time      0.0719: real time      0.0719
    --------------------------------------------
      LOOP:  cpu time    122.1848: real time    122.1963

 eigenvalue-minimisations  : 15744
 total energy-change (2. order) :-0.4364540E+02  (-0.4319045E+02)
 number of electron     468.0000000 magnetization      72.0000000
 augmentation part      468.0000000 magnetization      72.0000000

 Free energy of the ion-electron system (eV)
  ---------------------------------------------------
  alpha Z        PSCENC =       709.13725613
  Ewald energy   TEWEN  =    -21667.13092780
  -Hartree energ DENC   =     -9609.01712386
  -exchange      EXHF   =         0.00000000
  -V(xc)+E(xc)   XCENC  =      1335.11076460
  PAW double counting   =     25905.63174358   -28977.05906808
  entropy T*S    EENTRO =         0.00000000
  eigenvalues    EBANDS =     -5481.38352969
  atomic energy  EATOM  =     37543.08313351
  Solvation  Ediel_sol  =         0.00000000
  ---------------------------------------------------
  free energy    TOTEN  =      -241.62775161 eV

  energy without entropy =     -241.62775161  energy(sigma->0) =     -241.62775161


--------------------------------------------------------------------------------------------------------




--------------------------------------- Iteration      1(   5)  ---------------------------------------


     EDDAV:  cpu time    130.4049: real time    130.4148
 BZINTS: Fermi energy:    1.334497;  468.000000 electrons
         Band energy:-0.548272E+04;  BLOECHL correction:   -0.000000
       DOS:  cpu time      0.0742: real time      0.0742
    CHARGE:  cpu time     12.5771: real time     12.5794
    MIXING:  cpu time      0.0115: real time      0.0115
    --------------------------------------------
      LOOP:  cpu time    143.0677: real time    143.0799

 eigenvalue-minimisations  : 16576
 total energy-change (2. order) :-0.1335884E+01  (-0.1333429E+01)
 number of electron     468.0000004 magnetization      46.2827372
 augmentation part      130.0350043 magnetization      47.0994209

 Broyden mixing:
  rms(total) = 0.59554E+01    rms(broyden)= 0.59554E+01
  rms(prec ) = 0.61039E+01
  weight for this iteration     100.00

 Free energy of the ion-electron system (eV)
  ---------------------------------------------------
  alpha Z        PSCENC =       709.13725613
  Ewald energy   TEWEN  =    -21667.13092780
  -Hartree energ DENC   =     -9609.01712386
  -exchange      EXHF   =         0.00000000
  -V(xc)+E(xc)   XCENC  =      1335.11076460
  PAW double counting   =     25905.63174358   -28977.05906808
  entropy T*S    EENTRO =         0.00000000
  eigenvalues    EBANDS =     -5482.71941336
  atomic energy  EATOM  =     37543.08313351
  Solvation  Ediel_sol  =         0.00000000
  ---------------------------------------------------
  free energy    TOTEN  =      -242.96363528 eV

  energy without entropy =     -242.96363528  energy(sigma->0) =     -242.96363528


--------------------------------------------------------------------------------------------------------




--------------------------------------- Iteration      1(   6)  ---------------------------------------


    POTLOK:  cpu time      0.4811: real time      0.4847
    SETDIJ:  cpu time     13.0964: real time     13.0971
     EDDAV:  cpu time    107.8040: real time    107.8114
 BZINTS: Fermi energy:    1.671026;  468.000000 electrons
         Band energy:-0.542012E+04;  BLOECHL correction:    0.000000
       DOS:  cpu time      0.0689: real time      0.0690
    CHARGE:  cpu time      6.4326: real time      6.4329
    MIXING:  cpu time      0.0104: real time      0.0104
    --------------------------------------------
      LOOP:  cpu time    127.8935: real time    127.9055

 eigenvalue-minimisations  : 14112
 total energy-change (2. order) : 0.3031775E+02  (-0.7629033E+01)
 number of electron     468.0000004 magnetization      32.2064726
 augmentation part      131.1056618 magnetization      31.8742381

 Broyden mixing:
  rms(total) = 0.30223E+01    rms(broyden)= 0.30223E+01
  rms(prec ) = 0.31149E+01
  weight for this iteration     100.00

 eigenvalues of (default mixing * dielectric matrix)
  average eigenvalue GAMMA=   0.7582
  0.7582

 Free energy of the ion-electron system (eV)
  ---------------------------------------------------
  alpha Z        PSCENC =       709.13725613
  Ewald energy   TEWEN  =    -21667.13092780
  -Hartree energ DENC   =     -9663.91151550
  -exchange      EXHF   =         0.00000000
  -V(xc)+E(xc)   XCENC  =      1356.51814678
  PAW double counting   =     29100.85988323   -32171.08343237
  entropy T*S    EENTRO =         0.00000000
  eigenvalues    EBANDS =     -5420.11842573
  atomic energy  EATOM  =     37543.08313351
  Solvation  Ediel_sol  =         0.00000000
  ---------------------------------------------------
  free energy    TOTEN  =      -212.64588174 eV

  energy without entropy =     -212.64588174  energy(sigma->0) =     -212.64588174


--------------------------------------------------------------------------------------------------------




--------------------------------------- Iteration      1(   7)  ---------------------------------------


    POTLOK:  cpu time      2.1063: real time      2.1075
    SETDIJ:  cpu time     13.5066: real time     13.5074
     EDDAV:  cpu time    106.4312: real time    106.4389
 BZINTS: Fermi energy:    1.773857;  468.000000 electrons
         Band energy:-0.540919E+04;  BLOECHL correction:   -0.000000
       DOS:  cpu time      0.0751: real time      0.0751
    CHARGE:  cpu time      4.5706: real time      4.5710
    MIXING:  cpu time      0.0116: real time      0.0116
    --------------------------------------------
      LOOP:  cpu time    126.7014: real time    126.7117

 eigenvalue-minimisations  : 14944
 total energy-change (2. order) :-0.3435173E+02  (-0.3354244E+01)
 number of electron     468.0000004 magnetization      10.0080472
 augmentation part      131.3327355 magnetization      10.4360395

 Broyden mixing:
  rms(total) = 0.17517E+01    rms(broyden)= 0.17517E+01
  rms(prec ) = 0.17861E+01
  weight for this iteration     100.00

 eigenvalues of (default mixing * dielectric matrix)
  average eigenvalue GAMMA=   1.1541
  1.5824  0.7259

 Free energy of the ion-electron system (eV)
  ---------------------------------------------------
  alpha Z        PSCENC =       709.13725613
  Ewald energy   TEWEN  =    -21667.13092780
  -Hartree energ DENC   =     -9693.95094928
  -exchange      EXHF   =         0.00000000
  -V(xc)+E(xc)   XCENC  =      1348.40795746
  PAW double counting   =     31435.90186242   -34513.25998155
  entropy T*S    EENTRO =         0.00000000
  eigenvalues    EBANDS =     -5409.18596481
  atomic energy  EATOM  =     37543.08313351
  Solvation  Ediel_sol  =         0.00000000
  ---------------------------------------------------
  free energy    TOTEN  =      -246.99761392 eV

  energy without entropy =     -246.99761392  energy(sigma->0) =     -246.99761392


--------------------------------------------------------------------------------------------------------




--------------------------------------- Iteration      1(   8)  ---------------------------------------


    POTLOK:  cpu time      0.4879: real time      0.4890
    SETDIJ:  cpu time     13.1374: real time     13.1395
     EDDAV:  cpu time    100.4307: real time    100.4375
 BZINTS: Fermi energy:    1.884368;  468.000000 electrons
         Band energy:-0.541046E+04;  BLOECHL correction:    0.000000
       DOS:  cpu time      0.0685: real time      0.0685
    CHARGE:  cpu time      6.4211: real time      6.4216
    MIXING:  cpu time      0.0106: real time      0.0106
    --------------------------------------------
      LOOP:  cpu time    120.5561: real time    120.5667

 eigenvalue-minimisations  : 13376
 total energy-change (2. order) :-0.8382118E+01  (-0.1087159E+01)
 number of electron     468.0000004 magnetization       2.3186295
 augmentation part      131.5582042 magnetization       2.4625464

 Broyden mixing:
  rms(total) = 0.65386E+00    rms(broyden)= 0.65386E+00
  rms(prec ) = 0.66360E+00
  weight for this iteration     100.00

 eigenvalues of (default mixing * dielectric matrix)
  average eigenvalue GAMMA=   1.2810
  2.3851  0.7614  0.6964

 Free energy of the ion-electron system (eV)
  ---------------------------------------------------
  alpha Z        PSCENC =       709.13725613
  Ewald energy   TEWEN  =    -21667.13092780
  -Hartree energ DENC   =     -9694.42271458
  -exchange      EXHF   =         0.00000000
  -V(xc)+E(xc)   XCENC  =      1345.77212541
  PAW double counting   =     35501.50833264   -38582.87156414
  entropy T*S    EENTRO =         0.00000000
  eigenvalues    EBANDS =     -5410.45537265
  atomic energy  EATOM  =     37543.08313351
  Solvation  Ediel_sol  =         0.00000000
  ---------------------------------------------------
  free energy    TOTEN  =      -255.37973148 eV

  energy without entropy =     -255.37973148  energy(sigma->0) =     -255.37973148


--------------------------------------------------------------------------------------------------------




--------------------------------------- Iteration      1(   9)  ---------------------------------------


    POTLOK:  cpu time      0.4868: real time      0.4875
    SETDIJ:  cpu time      1.5324: real time      1.5325
     EDDAV:  cpu time    107.7153: real time    107.7225
 BZINTS: Fermi energy:    1.878042;  468.000000 electrons
         Band energy:-0.541621E+04;  BLOECHL correction:    0.000000
       DOS:  cpu time      0.0706: real time      0.0707
    CHARGE:  cpu time      7.8440: real time      7.8444
    MIXING:  cpu time      0.0123: real time      0.0123
    --------------------------------------------
      LOOP:  cpu time    117.6614: real time    117.6698

 eigenvalue-minimisations  : 14976
 total energy-change (2. order) :-0.6350980E+00  (-0.1054039E+00)
 number of electron     468.0000004 magnetization       1.1823096
 augmentation part      131.5605448 magnetization       1.1887542

 Broyden mixing:
  rms(total) = 0.14239E+00    rms(broyden)= 0.14239E+00
  rms(prec ) = 0.15252E+00
  weight for this iteration     100.00

 eigenvalues of (default mixing * dielectric matrix)
  average eigenvalue GAMMA=   1.2614
  2.5977  0.9925  0.7689  0.6864

 Free energy of the ion-electron system (eV)
  ---------------------------------------------------
  alpha Z        PSCENC =       709.13725613
  Ewald energy   TEWEN  =    -21667.13092780
  -Hartree energ DENC   =     -9688.03116826
  -exchange      EXHF   =         0.00000000
  -V(xc)+E(xc)   XCENC  =      1346.21773228
  PAW double counting   =     37034.63152017   -40117.70924037
  entropy T*S    EENTRO =         0.00000000
  eigenvalues    EBANDS =     -5416.21313515
  atomic energy  EATOM  =     37543.08313351
  Solvation  Ediel_sol  =         0.00000000
  ---------------------------------------------------
  free energy    TOTEN  =      -256.01482948 eV

  energy without entropy =     -256.01482948  energy(sigma->0) =     -256.01482948


--------------------------------------------------------------------------------------------------------




--------------------------------------- Iteration      1(  10)  ---------------------------------------


    POTLOK:  cpu time      0.4798: real time      0.4810
    SETDIJ:  cpu time      7.7179: real time      7.7183
     EDDAV:  cpu time    124.2521: real time    124.2634
 BZINTS: Fermi energy:    1.856739;  468.000000 electrons
         Band energy:-0.541897E+04;  BLOECHL correction:   -0.000000
       DOS:  cpu time      0.0772: real time      0.0773
    CHARGE:  cpu time     16.0635: real time     16.0643
    MIXING:  cpu time      0.0109: real time      0.0109
    --------------------------------------------
      LOOP:  cpu time    148.6015: real time    148.6152

 eigenvalue-minimisations  : 16096
 total energy-change (2. order) :-0.5995585E-01  (-0.9385865E-02)
 number of electron     468.0000004 magnetization       1.1877945
 augmentation part      131.5309155 magnetization       1.2142118

 Broyden mixing:
  rms(total) = 0.86457E-01    rms(broyden)= 0.86457E-01
  rms(prec ) = 0.90733E-01
  weight for this iteration     100.00

 eigenvalues of (default mixing * dielectric matrix)
  average eigenvalue GAMMA=   1.1597
  2.4954  1.1682  0.7532  0.7532  0.6283

 Free energy of the ion-electron system (eV)
  ---------------------------------------------------
  alpha Z        PSCENC =       709.13725613
  Ewald energy   TEWEN  =    -21667.13092780
  -Hartree energ DENC   =     -9684.63598864
  -exchange      EXHF   =         0.00000000
  -V(xc)+E(xc)   XCENC  =      1346.03853450
  PAW double counting   =     37106.43957480   -40190.03662060
  entropy T*S    EENTRO =         0.00000000
  eigenvalues    EBANDS =     -5418.96974724
  atomic energy  EATOM  =     37543.08313351
  Solvation  Ediel_sol  =         0.00000000
  ---------------------------------------------------
  free energy    TOTEN  =      -256.07478533 eV

  energy without entropy =     -256.07478533  energy(sigma->0) =     -256.07478533


--------------------------------------------------------------------------------------------------------




--------------------------------------- Iteration      1(  11)  ---------------------------------------


    POTLOK:  cpu time      2.5687: real time      2.5702
    SETDIJ:  cpu time     13.8758: real time     13.8765
     EDDAV:  cpu time    115.7660: real time    115.7738
 BZINTS: Fermi energy:    1.850772;  468.000000 electrons
         Band energy:-0.541981E+04;  BLOECHL correction:    0.000000
       DOS:  cpu time      0.0728: real time      0.0728
    CHARGE:  cpu time     14.9408: real time     14.9416
    MIXING:  cpu time      0.0287: real time      0.0287
    --------------------------------------------
      LOOP:  cpu time    147.2527: real time    147.2636

 eigenvalue-minimisations  : 15264
 total energy-change (2. order) :-0.8717789E-02  (-0.1334593E-02)
 number of electron     468.0000004 magnetization       0.7696946
 augmentation part      131.5172657 magnetization       0.7830125

 Broyden mixing:
  rms(total) = 0.52312E-01    rms(broyden)= 0.52312E-01
  rms(prec ) = 0.55285E-01
  weight for this iteration     100.00

 eigenvalues of (default mixing * dielectric matrix)
  average eigenvalue GAMMA=   1.2285
  2.1447  2.1447  0.8659  0.8659  0.7295  0.6199

 Free energy of the ion-electron system (eV)
  ---------------------------------------------------
  alpha Z        PSCENC =       709.13725613
  Ewald energy   TEWEN  =    -21667.13092780
  -Hartree energ DENC   =     -9683.61540301
  -exchange      EXHF   =         0.00000000
  -V(xc)+E(xc)   XCENC  =      1345.91514442
  PAW double counting   =     36950.46008453   -40034.12280852
  entropy T*S    EENTRO =         0.00000000
  eigenvalues    EBANDS =     -5419.80998238
  atomic energy  EATOM  =     37543.08313351
  Solvation  Ediel_sol  =         0.00000000
  ---------------------------------------------------
  free energy    TOTEN  =      -256.08350312 eV

  energy without entropy =     -256.08350312  energy(sigma->0) =     -256.08350312


--------------------------------------------------------------------------------------------------------




--------------------------------------- Iteration      1(  12)  ---------------------------------------


    POTLOK:  cpu time      0.4774: real time      0.4783
    SETDIJ:  cpu time     13.4724: real time     13.4731
     EDDAV:  cpu time    110.7657: real time    110.7764
 BZINTS: Fermi energy:    1.848300;  468.000000 electrons
         Band energy:-0.542046E+04;  BLOECHL correction:    0.000000
       DOS:  cpu time      0.0684: real time      0.0684
    CHARGE:  cpu time     14.6413: real time     14.6421
    MIXING:  cpu time      0.0117: real time      0.0117
    --------------------------------------------
      LOOP:  cpu time    139.4369: real time    139.4500

 eigenvalue-minimisations  : 14208
 total energy-change (2. order) :-0.1274478E-01  (-0.6972253E-03)
 number of electron     468.0000004 magnetization       0.0555496
 augmentation part      131.5135322 magnetization       0.0613182

 Broyden mixing:
  rms(total) = 0.23632E-01    rms(broyden)= 0.23632E-01
  rms(prec ) = 0.25818E-01
  weight for this iteration     100.00

 eigenvalues of (default mixing * dielectric matrix)
  average eigenvalue GAMMA=   1.3508
  2.5219  2.5219  1.3561  0.8866  0.6347  0.7671  0.7671

 Free energy of the ion-electron system (eV)
  ---------------------------------------------------
  alpha Z        PSCENC =       709.13725613
  Ewald energy   TEWEN  =    -21667.13092780
  -Hartree energ DENC   =     -9682.83136987
  -exchange      EXHF   =         0.00000000
  -V(xc)+E(xc)   XCENC  =      1345.89071665
  PAW double counting   =     36798.89658554   -39882.68629746
  entropy T*S    EENTRO =         0.00000000
  eigenvalues    EBANDS =     -5420.45534460
  atomic energy  EATOM  =     37543.08313351
  Solvation  Ediel_sol  =         0.00000000
  ---------------------------------------------------
  free energy    TOTEN  =      -256.09624790 eV

  energy without entropy =     -256.09624790  energy(sigma->0) =     -256.09624790


--------------------------------------------------------------------------------------------------------




--------------------------------------- Iteration      1(  13)  ---------------------------------------


    POTLOK:  cpu time      0.4832: real time      0.4838
    SETDIJ:  cpu time     16.8668: real time     16.8676
     EDDAV:  cpu time    106.0662: real time    106.0738
 BZINTS: Fermi energy:    1.850064;  468.000000 electrons
         Band energy:-0.542056E+04;  BLOECHL correction:    0.000000
       DOS:  cpu time      0.0685: real time      0.0685
    CHARGE:  cpu time      9.6205: real time      9.6209
    MIXING:  cpu time      0.0136: real time      0.0136
    --------------------------------------------
      LOOP:  cpu time    133.1186: real time    133.1282

 eigenvalue-minimisations  : 14432
 total energy-change (2. order) :-0.6408965E-02  (-0.5651243E-03)
 number of electron     468.0000004 magnetization       0.0058142
 augmentation part      131.5170933 magnetization       0.0084945

 Broyden mixing:
  rms(total) = 0.88777E-02    rms(broyden)= 0.88777E-02
  rms(prec ) = 0.91508E-02
  weight for this iteration     100.00

 eigenvalues of (default mixing * dielectric matrix)
  average eigenvalue GAMMA=   1.3113
  2.5969  2.4136  1.6038  0.8840  0.8840  0.6482  0.7299  0.7299

 Free energy of the ion-electron system (eV)
  ---------------------------------------------------
  alpha Z        PSCENC =       709.13725613
  Ewald energy   TEWEN  =    -21667.13092780
  -Hartree energ DENC   =     -9682.67247115
  -exchange      EXHF   =         0.00000000
  -V(xc)+E(xc)   XCENC  =      1346.00784787
  PAW double counting   =     36781.04557917   -39865.01025392
  entropy T*S    EENTRO =         0.00000000
  eigenvalues    EBANDS =     -5420.56282068
  atomic energy  EATOM  =     37543.08313351
  Solvation  Ediel_sol  =         0.00000000
  ---------------------------------------------------
  free energy    TOTEN  =      -256.10265686 eV

  energy without entropy =     -256.10265686  energy(sigma->0) =     -256.10265686


--------------------------------------------------------------------------------------------------------




--------------------------------------- Iteration      1(  14)  ---------------------------------------


    POTLOK:  cpu time      0.4697: real time      0.4705
    SETDIJ:  cpu time     11.5012: real time     11.5019
     EDDAV:  cpu time    106.3347: real time    106.3452
 BZINTS: Fermi energy:    1.851226;  468.000000 electrons
         Band energy:-0.542041E+04;  BLOECHL correction:    0.000000
       DOS:  cpu time      0.0683: real time      0.0683
    CHARGE:  cpu time     10.4223: real time     10.4229
    MIXING:  cpu time      0.0111: real time      0.0111
    --------------------------------------------
      LOOP:  cpu time    128.8071: real time    128.8199

 eigenvalue-minimisations  : 16032
 total energy-change (2. order) :-0.1856933E-03  (-0.3902624E-04)
 number of electron     468.0000004 magnetization      -0.0061160
 augmentation part      131.5173897 magnetization      -0.0051764

 Broyden mixing:
  rms(total) = 0.63952E-02    rms(broyden)= 0.63951E-02
  rms(prec ) = 0.64803E-02
  weight for this iteration     100.00

 eigenvalues of (default mixing * dielectric matrix)
  average eigenvalue GAMMA=   1.3030
  2.8057  2.0863  2.0863  0.9867  0.7653  0.7653  0.6290  0.8496  0.7528

 Free energy of the ion-electron system (eV)
  ---------------------------------------------------
  alpha Z        PSCENC =       709.13725613
  Ewald energy   TEWEN  =    -21667.13092780
  -Hartree energ DENC   =     -9682.80104901
  -exchange      EXHF   =         0.00000000
  -V(xc)+E(xc)   XCENC  =      1346.03000521
  PAW double counting   =     36775.92034872   -39859.92997427
  entropy T*S    EENTRO =         0.00000000
  eigenvalues    EBANDS =     -5420.41163506
  atomic energy  EATOM  =     37543.08313351
  Solvation  Ediel_sol  =         0.00000000
  ---------------------------------------------------
  free energy    TOTEN  =      -256.10284255 eV

  energy without entropy =     -256.10284255  energy(sigma->0) =     -256.10284255


--------------------------------------------------------------------------------------------------------




--------------------------------------- Iteration      1(  15)  ---------------------------------------


    POTLOK:  cpu time      0.4701: real time      0.4709
    SETDIJ:  cpu time      8.3112: real time      8.3117
     EDDAV:  cpu time     99.4637: real time     99.4711
 BZINTS: Fermi energy:    1.851657;  468.000000 electrons
         Band energy:-0.542031E+04;  BLOECHL correction:    0.000000
       DOS:  cpu time      0.0705: real time      0.0706
    CHARGE:  cpu time     11.0196: real time     11.0203
    MIXING:  cpu time      0.0094: real time      0.0094
    --------------------------------------------
      LOOP:  cpu time    119.3446: real time    119.3539

 eigenvalue-minimisations  : 14272
 total energy-change (2. order) :-0.4325209E-04  (-0.7379330E-05)
 number of electron     468.0000004 magnetization      -0.0032551
 augmentation part      131.5177158 magnetization      -0.0033067

 Broyden mixing:
  rms(total) = 0.30731E-02    rms(broyden)= 0.30730E-02
  rms(prec ) = 0.31282E-02
  weight for this iteration     100.00

 eigenvalues of (default mixing * dielectric matrix)
  average eigenvalue GAMMA=   1.3680
  2.9073  2.4470  2.4470  1.3647  0.8859  0.8859  0.7068  0.7068  0.6172  0.7117

 Free energy of the ion-electron system (eV)
  ---------------------------------------------------
  alpha Z        PSCENC =       709.13725613
  Ewald energy   TEWEN  =    -21667.13092780
  -Hartree energ DENC   =     -9682.88081450
  -exchange      EXHF   =         0.00000000
  -V(xc)+E(xc)   XCENC  =      1346.03855048
  PAW double counting   =     36764.48024573   -39848.51703704
  entropy T*S    EENTRO =         0.00000000
  eigenvalues    EBANDS =     -5420.31329232
  atomic energy  EATOM  =     37543.08313351
  Solvation  Ediel_sol  =         0.00000000
  ---------------------------------------------------
  free energy    TOTEN  =      -256.10288581 eV

  energy without entropy =     -256.10288581  energy(sigma->0) =     -256.10288581


--------------------------------------------------------------------------------------------------------




--------------------------------------- Iteration      1(  16)  ---------------------------------------


    POTLOK:  cpu time      0.4731: real time      0.4756
    SETDIJ:  cpu time     12.4226: real time     12.4252
     EDDAV:  cpu time    102.9681: real time    102.9756
 BZINTS: Fermi energy:    1.851460;  468.000000 electrons
         Band energy:-0.542026E+04;  BLOECHL correction:    0.000000
       DOS:  cpu time      0.0726: real time      0.0726
    CHARGE:  cpu time      8.5596: real time      8.5600
    MIXING:  cpu time      0.0130: real time      0.0130
    --------------------------------------------
      LOOP:  cpu time    124.5089: real time    124.5221

 eigenvalue-minimisations  : 14080
 total energy-change (2. order) :-0.2514519E-04  (-0.2966512E-05)
 number of electron     468.0000004 magnetization      -0.0021916
 augmentation part      131.5175792 magnetization      -0.0025013

 Broyden mixing:
  rms(total) = 0.11398E-02    rms(broyden)= 0.11396E-02
  rms(prec ) = 0.11681E-02
  weight for this iteration     100.00

 eigenvalues of (default mixing * dielectric matrix)
  average eigenvalue GAMMA=   1.3247
  2.9149  2.5752  1.7388  1.7388  1.1793  0.7967  0.7967  0.8044  0.7802  0.6231
  0.6231

 Free energy of the ion-electron system (eV)
  ---------------------------------------------------
  alpha Z        PSCENC =       709.13725613
  Ewald energy   TEWEN  =    -21667.13092780
  -Hartree energ DENC   =     -9682.91757273
  -exchange      EXHF   =         0.00000000
  -V(xc)+E(xc)   XCENC  =      1346.03987869
  PAW double counting   =     36753.55031404   -39837.60271860
  entropy T*S    EENTRO =         0.00000000
  eigenvalues    EBANDS =     -5420.26227419
  atomic energy  EATOM  =     37543.08313351
  Solvation  Ediel_sol  =         0.00000000
  ---------------------------------------------------
  free energy    TOTEN  =      -256.10291095 eV

  energy without entropy =     -256.10291095  energy(sigma->0) =     -256.10291095


--------------------------------------------------------------------------------------------------------




--------------------------------------- Iteration      1(  17)  ---------------------------------------


    POTLOK:  cpu time      0.4576: real time      0.4584
    SETDIJ:  cpu time      6.2643: real time      6.2647
     EDDAV:  cpu time    119.4331: real time    119.4420
 BZINTS: Fermi energy:    1.851467;  468.000000 electrons
         Band energy:-0.542028E+04;  BLOECHL correction:    0.000000
       DOS:  cpu time      0.0707: real time      0.0707
    CHARGE:  cpu time     16.6837: real time     16.6846
    MIXING:  cpu time      0.0172: real time      0.0172
    --------------------------------------------
      LOOP:  cpu time    142.9267: real time    142.9377

 eigenvalue-minimisations  : 16896
 total energy-change (2. order) : 0.1168053E-05  (-0.2849446E-06)
 number of electron     468.0000004 magnetization      -0.0014442
 augmentation part      131.5174055 magnetization      -0.0014399

 Broyden mixing:
  rms(total) = 0.32668E-03    rms(broyden)= 0.32620E-03
  rms(prec ) = 0.35204E-03
  weight for this iteration     100.00

 eigenvalues of (default mixing * dielectric matrix)
  average eigenvalue GAMMA=   1.2966
  2.9196  2.6758  1.8209  1.8209  1.0623  0.9192  0.9192  0.7331  0.7331  0.7293
  0.6216  0.6040

 Free energy of the ion-electron system (eV)
  ---------------------------------------------------
  alpha Z        PSCENC =       709.13725613
  Ewald energy   TEWEN  =    -21667.13092780
  -Hartree energ DENC   =     -9682.89974577
  -exchange      EXHF   =         0.00000000
  -V(xc)+E(xc)   XCENC  =      1346.03782051
  PAW double counting   =     36754.94872004   -39838.99550269
  entropy T*S    EENTRO =         0.00000000
  eigenvalues    EBANDS =     -5420.28366373
  atomic energy  EATOM  =     37543.08313351
  Solvation  Ediel_sol  =         0.00000000
  ---------------------------------------------------
  free energy    TOTEN  =      -256.10290978 eV

  energy without entropy =     -256.10290978  energy(sigma->0) =     -256.10290978


--------------------------------------------------------------------------------------------------------




--------------------------------------- Iteration      1(  18)  ---------------------------------------


    POTLOK:  cpu time      0.4592: real time      0.4631
    SETDIJ:  cpu time      7.1429: real time      7.1433
     EDDAV:  cpu time    105.8589: real time    105.8666
 BZINTS: Fermi energy:    1.851336;  468.000000 electrons
         Band energy:-0.542028E+04;  BLOECHL correction:    0.000000
       DOS:  cpu time      0.0684: real time      0.0684
    CHARGE:  cpu time     11.8397: real time     11.8404
    MIXING:  cpu time      0.0156: real time      0.0156
    --------------------------------------------
      LOOP:  cpu time    125.3846: real time    125.3974

 eigenvalue-minimisations  : 14080
 total energy-change (2. order) :-0.5113470E-06  (-0.6832976E-07)
 number of electron     468.0000004 magnetization      -0.0006737
 augmentation part      131.5174121 magnetization      -0.0006756

 Broyden mixing:
  rms(total) = 0.17927E-03    rms(broyden)= 0.17839E-03
  rms(prec ) = 0.19657E-03
  weight for this iteration     100.00

 eigenvalues of (default mixing * dielectric matrix)
  average eigenvalue GAMMA=   1.3156
  2.9770  2.6542  1.9769  1.9769  1.3618  1.0172  0.8651  0.8651  0.7575  0.7575
  0.6838  0.6285  0.5806

 Free energy of the ion-electron system (eV)
  ---------------------------------------------------
  alpha Z        PSCENC =       709.13725613
  Ewald energy   TEWEN  =    -21667.13092780
  -Hartree energ DENC   =     -9682.90686796
  -exchange      EXHF   =         0.00000000
  -V(xc)+E(xc)   XCENC  =      1346.03834803
  PAW double counting   =     36755.31640105   -39839.36162770
  entropy T*S    EENTRO =         0.00000000
  eigenvalues    EBANDS =     -5420.27862555
  atomic energy  EATOM  =     37543.08313351
  Solvation  Ediel_sol  =         0.00000000
  ---------------------------------------------------
  free energy    TOTEN  =      -256.10291029 eV

  energy without entropy =     -256.10291029  energy(sigma->0) =     -256.10291029


--------------------------------------------------------------------------------------------------------




--------------------------------------- Iteration      1(  19)  ---------------------------------------


    POTLOK:  cpu time      0.4627: real time      0.4636
    SETDIJ:  cpu time     11.0541: real time     11.0547
     EDDAV:  cpu time    106.5933: real time    106.6012
 BZINTS: Fermi energy:    1.851369;  468.000000 electrons
         Band energy:-0.542027E+04;  BLOECHL correction:    0.000000
       DOS:  cpu time      0.0683: real time      0.0683
    CHARGE:  cpu time     11.7177: real time     11.7184
    MIXING:  cpu time      0.0147: real time      0.0147
    --------------------------------------------
      LOOP:  cpu time    129.9108: real time    129.9210

 eigenvalue-minimisations  : 14080
 total energy-change (2. order) :-0.1473600E-06  (-0.2937831E-07)
 number of electron     468.0000004 magnetization      -0.0002418
 augmentation part      131.5174425 magnetization      -0.0002581

 Broyden mixing:
  rms(total) = 0.48377E-04    rms(broyden)= 0.45011E-04
  rms(prec ) = 0.53659E-04
  weight for this iteration     100.00

 eigenvalues of (default mixing * dielectric matrix)
  average eigenvalue GAMMA=   1.3163
  3.0559  2.7056  2.3656  1.6145  1.6145  1.1062  0.8879  0.8879  0.7632  0.7632
  0.7838  0.6689  0.6247  0.5868

 Free energy of the ion-electron system (eV)
  ---------------------------------------------------
  alpha Z        PSCENC =       709.13725613
  Ewald energy   TEWEN  =    -21667.13092780
  -Hartree energ DENC   =     -9682.91593311
  -exchange      EXHF   =         0.00000000
  -V(xc)+E(xc)   XCENC  =      1346.03899356
  PAW double counting   =     36755.57706843   -39839.62070632
  entropy T*S    EENTRO =         0.00000000
[...]
   0.327E-02 -.570E-02 -.175E-01   -.422E-02 0.733E-02 0.177E-01   0.814E-03 -.141E-02 -.125E-03   0.134E-05 -.225E-05 0.268E-06
   0.367E-01 -.636E-01 0.636E+02   -.387E-01 0.670E-01 -.710E+02   0.217E-02 -.376E-02 0.742E+01   0.694E-06 -.127E-05 0.263E-05
   -.206E-01 0.367E-01 0.637E+02   0.217E-01 -.376E-01 -.711E+02   -.122E-02 0.106E-02 0.742E+01   -.684E-06 0.853E-06 0.294E-05
   -.893E-02 0.147E-01 0.637E+02   0.910E-02 -.158E-01 -.712E+02   -.171E-03 0.127E-02 0.742E+01   0.216E-06 0.597E-06 0.316E-05
   0.151E-01 -.566E-02 0.637E+02   -.156E-01 0.579E-02 -.712E+02   0.563E-03 -.687E-04 0.742E+01   0.380E-06 0.158E-06 0.293E-05
   -.276E-01 -.161E-01 0.637E+02   0.280E-01 0.165E-01 -.711E+02   -.561E-03 -.484E-03 0.742E+01   -.902E-06 -.639E-06 0.304E-05
   -.717E-02 0.124E-01 0.637E+02   0.734E-02 -.126E-01 -.712E+02   -.179E-03 0.312E-03 0.742E+01   -.160E-06 0.169E-06 0.322E-05
   0.269E-01 0.155E-01 0.637E+02   -.283E-01 -.160E-01 -.711E+02   0.146E-02 0.473E-03 0.742E+01   0.812E-06 0.471E-07 0.320E-05
   -.700E-02 0.122E-01 0.637E+02   0.728E-02 -.127E-01 -.712E+02   -.359E-03 0.624E-03 0.742E+01   -.579E-06 0.106E-05 0.307E-05
   -.206E-02 -.156E-01 0.637E+02   0.280E-02 0.164E-01 -.712E+02   -.796E-03 -.989E-03 0.742E+01   0.232E-06 -.845E-06 0.298E-05
   0.102E+00 0.129E+00 0.640E+02   -.103E+00 -.125E+00 -.714E+02   0.136E-02 -.885E-02 0.742E+01   0.404E-06 -.523E-06 0.275E-05
   -.280E-01 0.465E-01 0.638E+02   0.288E-01 -.478E-01 -.712E+02   -.106E-02 0.188E-02 0.742E+01   -.692E-06 0.155E-05 0.220E-05
   -.456E+00 0.147E+00 0.636E+02   0.456E+00 -.145E+00 -.710E+02   0.626E-02 -.520E-02 0.743E+01   0.533E-06 -.904E-06 0.242E-05
   0.250E+00 -.906E-01 0.638E+02   -.252E+00 0.914E-01 -.712E+02   0.160E-02 -.223E-02 0.742E+01   0.213E-06 -.892E-06 0.243E-05
   -.477E-01 0.180E-01 0.638E+02   0.484E-01 -.179E-01 -.712E+02   -.107E-02 -.137E-03 0.742E+01   -.990E-06 0.183E-07 0.242E-05
   0.810E-02 0.733E-01 0.637E+02   -.859E-02 -.743E-01 -.712E+02   0.650E-03 0.151E-02 0.742E+01   0.421E-06 0.609E-06 0.205E-05
   0.209E-01 0.193E-01 0.638E+02   -.211E-01 -.200E-01 -.712E+02   0.404E-03 0.101E-02 0.742E+01   0.344E-06 0.882E-06 0.232E-05
   -.271E-01 -.625E-02 0.638E+02   0.279E-01 0.614E-02 -.712E+02   -.108E-02 0.100E-03 0.742E+01   -.792E-06 -.186E-06 0.226E-05
   -.191E-02 -.200E-01 0.638E+02   0.161E-02 0.209E-01 -.712E+02   0.366E-03 -.129E-02 0.742E+01   0.586E-06 -.664E-06 0.219E-05
   0.103E+00 0.472E+00 -.639E+02   -.104E+00 -.471E+00 0.713E+02   0.136E-02 -.851E-02 -.741E+01   0.420E-06 -.295E-06 -.286E-05
   -.262E-01 0.476E-01 -.637E+02   0.270E-01 -.489E-01 0.712E+02   -.110E-02 0.186E-02 -.742E+01   -.735E-06 0.159E-05 -.270E-05
   -.165E+00 -.221E-01 -.635E+02   0.161E+00 0.250E-01 0.709E+02   0.694E-02 -.560E-02 -.742E+01   0.729E-06 -.992E-06 -.235E-05
   -.441E-01 -.261E+00 -.637E+02   0.446E-01 0.264E+00 0.711E+02   0.111E-02 -.253E-02 -.742E+01   0.509E-07 -.101E-05 -.246E-05
   -.678E-01 0.296E-01 -.637E+02   0.689E-01 -.297E-01 0.712E+02   -.164E-02 0.194E-03 -.742E+01   -.102E-05 0.638E-07 -.267E-05
   0.812E-02 0.503E-01 -.637E+02   -.861E-02 -.509E-01 0.711E+02   0.651E-03 0.858E-03 -.742E+01   0.420E-06 0.529E-06 -.229E-05
   0.190E-01 0.204E-01 -.637E+02   -.193E-01 -.211E-01 0.712E+02   0.449E-03 0.986E-03 -.742E+01   0.318E-06 0.891E-06 -.271E-05
   -.271E-01 -.838E-02 -.637E+02   0.279E-01 0.825E-02 0.712E+02   -.108E-02 0.154E-03 -.742E+01   -.842E-06 -.231E-06 -.269E-05
   0.181E-01 -.847E-02 -.637E+02   -.188E-01 0.921E-02 0.712E+02   0.936E-03 -.966E-03 -.742E+01   0.675E-06 -.621E-06 -.265E-05
   0.365E-01 -.631E-01 -.639E+02   -.384E-01 0.666E-01 0.713E+02   0.216E-02 -.374E-02 -.742E+01   0.713E-06 -.129E-05 -.291E-05
   -.817E-02 0.150E-01 -.638E+02   0.904E-02 -.157E-01 0.712E+02   -.101E-02 0.788E-03 -.742E+01   -.642E-06 0.787E-06 -.280E-05
   -.214E-01 0.361E-01 -.638E+02   0.216E-01 -.375E-01 0.712E+02   -.303E-03 0.159E-02 -.742E+01   0.157E-06 0.661E-06 -.272E-05
   0.276E-01 0.158E-01 -.638E+02   -.282E-01 -.160E-01 0.712E+02   0.696E-03 0.245E-03 -.742E+01   0.452E-06 0.189E-06 -.266E-05
   -.261E-02 -.160E-01 -.638E+02   0.274E-02 0.164E-01 0.712E+02   -.220E-03 -.524E-03 -.742E+01   -.816E-06 -.635E-06 -.277E-05
   -.716E-02 0.123E-01 -.638E+02   0.733E-02 -.126E-01 0.712E+02   -.179E-03 0.311E-03 -.742E+01   -.153E-06 0.180E-06 -.278E-05
   0.145E-01 -.607E-02 -.638E+02   -.156E-01 0.585E-02 0.712E+02   0.126E-02 0.199E-03 -.742E+01   0.806E-06 0.150E-07 -.278E-05
   -.699E-02 0.122E-01 -.638E+02   0.727E-02 -.127E-01 0.712E+02   -.359E-03 0.624E-03 -.742E+01   -.591E-06 0.108E-05 -.254E-05
   -.269E-01 -.155E-01 -.638E+02   0.279E-01 0.164E-01 0.712E+02   -.113E-02 -.103E-02 -.742E+01   0.152E-06 -.851E-06 -.265E-05
 -----------------------------------------------------------------------------------------------
   0.107E-01 -.186E-01 0.131E-01   -.983E-13 -.818E-14 0.242E-12   -.108E-01 0.186E-01 -.131E-01   -.886E-07 0.178E-06 0.311E-06


 POSITION                                       TOTAL-FORCE (eV/Angst)
 -----------------------------------------------------------------------------------
      0.00000      0.00000      0.00000         0.000232      0.001512      0.000740
      2.25556     -3.90675      0.00000         0.000078     -0.000468     -0.000209
      4.51113     -7.81350      0.00000         0.000520     -0.000391      0.000448
      2.25556      3.90675      0.00000        -0.000595     -0.001821      0.002081
      4.51113      0.00000      0.00000         0.000224      0.000562     -0.000612
      6.76669     -3.90675      0.00000         0.000141     -0.000255      0.000014
      4.51113      7.81350      0.00000        -0.000200     -0.000053      0.000082
      6.76669      3.90675      0.00000         0.000001     -0.000180      0.000119
      9.02226     -0.00000      0.00000         0.000145      0.000157     -0.000055
      0.00000      0.00000      5.14630        -0.001431      0.000557      0.000739
      2.25556     -3.90675      5.14630         0.000078     -0.000645      0.000446
      4.51113     -7.81350      5.14630         0.000366     -0.000302     -0.000211
      2.25556      3.90675      5.14630        -0.000597      0.000081     -0.000618
      4.51113      0.00000      5.14630         0.001900     -0.000403      0.002107
      6.76669     -3.90675      5.14630         0.000149     -0.000250      0.000013
      4.51113      7.81350      5.14630        -0.000208     -0.000048     -0.000055
      6.76669      3.90675      5.14630         0.000155     -0.000092      0.000117
      9.02226     -0.00000      5.14630         0.000146      0.000148      0.000081
      2.25954      1.29536      2.57920        -0.012343      0.021828     -0.008567
      4.51113     -2.60450      2.57315         0.000750     -0.000754     -0.000236
      6.76669     -6.51125      2.57315         0.000274     -0.001025     -0.000235
      4.51113      5.20900      2.57315        -0.000441     -0.000062     -0.000236
      6.76669      1.30225      2.57315         0.000277      0.000357     -0.000236
      9.02226     -2.60450      2.57315         0.000131     -0.000223     -0.000050
      6.76669      9.11576      2.57315        -0.000917     -0.000336     -0.000237
      9.02226      5.20900      2.57315         0.000131     -0.000223     -0.000050
     11.27782      1.30225      2.57315         0.000752      0.000629     -0.000236
      2.25556     -1.30225      7.71945        -0.000014      0.000120      0.000122
      4.51113     -5.20900      7.71945         0.000136     -0.000240      0.000024
      6.76669     -9.11576      7.71945        -0.000102      0.000071      0.000122
      4.51113      2.60450      7.71945        -0.000013      0.000022      0.000122
      6.76669     -1.30225      7.71945         0.000139      0.000062      0.000022
      9.02226     -5.20900      7.71945        -0.000126     -0.000090      0.000022
      6.76669      6.51125      7.71945        -0.000009     -0.000155      0.000024
      9.02226      2.60450      7.71945         0.000136     -0.000071      0.000024
     11.27782     -1.30225      7.71945        -0.000126      0.000215      0.000022
      2.25556      1.30225      6.63476         0.000171     -0.000295      0.002851
      4.51113     -2.60450      6.63476        -0.000131      0.000131      0.003355
      6.76669     -6.51125      6.63476        -0.000007      0.000171      0.003266
      4.51113      5.20900      6.63476         0.000083      0.000054      0.003361
      6.76669      1.30225      6.63476        -0.000114     -0.000074      0.003261
      9.02226     -2.60450      6.63476        -0.000010      0.000019      0.003343
      6.76669      9.11576      6.63476         0.000134      0.000013      0.003405
      9.02226      5.20900      6.63476        -0.000080      0.000140      0.003333
     11.27782      1.30225      6.63476        -0.000050     -0.000138      0.003216
      2.25556     -1.30225      1.48846         0.000395     -0.004641      0.001760
      4.51113     -5.20900      1.48846        -0.000299      0.000545      0.003362
      6.76669     -9.11576      1.48846         0.006026     -0.003954      0.006781
      4.51113      2.60450      1.48846        -0.000791     -0.001388      0.004309
      6.76669     -1.30225      1.48846        -0.000324     -0.000001      0.003328
      9.02226     -5.20900      1.48846         0.000161      0.000498      0.003409
      6.76669      6.51125      1.48846         0.000137      0.000279      0.003330
      9.02226      2.60450      1.48846        -0.000311     -0.000008      0.003394
     11.27782     -1.30225      1.48846         0.000066     -0.000337      0.003369
      2.25556     -1.30225      3.65783         0.000393     -0.007571      0.000198
      4.51113     -5.20900      3.65783        -0.000323      0.000531     -0.003341
      6.76669     -9.11576      3.65783         0.003794     -0.002663     -0.004929
      4.51113      2.60450      3.65783         0.001590     -0.000009     -0.002405
      6.76669     -1.30225      3.65783        -0.000516      0.000109     -0.003293
      9.02226     -5.20900      3.65783         0.000162      0.000280     -0.003374
      6.76669      6.51125      3.65783         0.000161      0.000265     -0.003309
      9.02226      2.60450      3.65783        -0.000311      0.000020     -0.003372
     11.27782     -1.30225      3.65783         0.000257     -0.000227     -0.003334
      2.25556      1.30225      8.80413         0.000174     -0.000300     -0.003847
      4.51113     -2.60450      8.80413        -0.000144      0.000093     -0.003436
      6.76669     -6.51125      8.80413        -0.000045      0.000179     -0.003347
      4.51113      5.20900      8.80413         0.000122      0.000062     -0.003441
      6.76669      1.30225      8.80413        -0.000087     -0.000045     -0.003341
      9.02226     -2.60450      8.80413        -0.000010      0.000019     -0.003359
      6.76669      9.11576      8.80413         0.000146     -0.000024     -0.003486
      9.02226      5.20900      8.80413        -0.000080      0.000140     -0.003369
     11.27782      1.30225      8.80413        -0.000077     -0.000109     -0.003297
 -----------------------------------------------------------------------------------
    total drift:                               -0.000007      0.000013      0.000033


--------------------------------------------------------------------------------------------------------



  FREE ENERGIE OF THE ION-ELECTRON SYSTEM (eV)
  ---------------------------------------------------
  free  energy   TOTEN  =      -256.10291045 eV

  energy  without entropy=     -256.10291045  energy(sigma->0) =     -256.10291045



--------------------------------------------------------------------------------------------------------


    POTLOK:  cpu time     11.1378: real time     11.1429


--------------------------------------------------------------------------------------------------------


     LOOP+:  cpu time   3285.9276: real time   3286.2200
    4ORBIT:  cpu time      0.0000: real time      0.0000



 total charge

# of ion       s       p       d       tot
------------------------------------------
    1        0.049   5.976   0.000   6.025
    2        0.049   5.976   0.000   6.025
    3        0.049   5.976   0.000   6.025
    4        0.049   5.976   0.000   6.025
    5        0.049   5.976   0.000   6.025
    6        0.049   5.976   0.000   6.025
    7        0.049   5.976   0.000   6.025
    8        0.049   5.976   0.000   6.025
    9        0.049   5.976   0.000   6.025
   10        0.049   5.976   0.000   6.025
   11        0.049   5.976   0.000   6.025
   12        0.049   5.976   0.000   6.025
   13        0.049   5.976   0.000   6.025
   14        0.049   5.976   0.000   6.025
   15        0.049   5.976   0.000   6.025
   16        0.049   5.976   0.000   6.025
   17        0.049   5.976   0.000   6.025
   18        0.049   5.976   0.000   6.025
   19        0.050   5.989   0.000   6.039
   20        0.050   5.989   0.000   6.039
   21        0.050   5.989   0.000   6.039
   22        0.050   5.989   0.000   6.039
   23        0.050   5.989   0.000   6.039
   24        0.050   5.989   0.000   6.039
   25        0.050   5.989   0.000   6.039
   26        0.050   5.989   0.000   6.039
   27        0.050   5.989   0.000   6.039
   28        0.050   5.989   0.000   6.039
   29        0.050   5.989   0.000   6.039
   30        0.050   5.989   0.000   6.039
   31        0.050   5.989   0.000   6.039
   32        0.050   5.989   0.000   6.039
   33        0.050   5.989   0.000   6.039
   34        0.050   5.989   0.000   6.039
   35        0.050   5.989   0.000   6.039
   36        0.050   5.989   0.000   6.039
   37        1.337   2.353   0.000   3.690
   38        1.337   2.353   0.000   3.690
   39        1.337   2.353   0.000   3.690
   40        1.337   2.353   0.000   3.690
   41        1.337   2.353   0.000   3.690
   42        1.337   2.353   0.000   3.690
   43        1.337   2.353   0.000   3.690
   44        1.337   2.353   0.000   3.690
   45        1.337   2.353   0.000   3.690
   46        1.337   2.353   0.000   3.690
   47        1.337   2.353   0.000   3.690
   48        1.337   2.352   0.000   3.689
   49        1.337   2.352   0.000   3.690
   50        1.337   2.353   0.000   3.690
   51        1.337   2.353   0.000   3.690
   52        1.337   2.353   0.000   3.690
   53        1.337   2.353   0.000   3.690
   54        1.337   2.353   0.000   3.690
   55        1.337   2.353   0.000   3.690
   56        1.337   2.353   0.000   3.690
   57        1.337   2.352   0.000   3.690
   58        1.337   2.353   0.000   3.690
   59        1.337   2.353   0.000   3.690
   60        1.337   2.353   0.000   3.690
   61        1.337   2.353   0.000   3.690
   62        1.337   2.353   0.000   3.690
   63        1.337   2.353   0.000   3.690
   64        1.337   2.353   0.000   3.690
   65        1.337   2.353   0.000   3.690
   66        1.337   2.353   0.000   3.690
   67        1.337   2.353   0.000   3.690
   68        1.337   2.353   0.000   3.690
   69        1.337   2.353   0.000   3.690
   70        1.337   2.353   0.000   3.690
   71        1.337   2.353   0.000   3.690
   72        1.337   2.353   0.000   3.690
--------------------------------------------------
tot         49.917 300.062   0.000 349.979



 magnetization (x)

# of ion       s       p       d       tot
------------------------------------------
    1       -0.000  -0.000   0.000  -0.000
    2       -0.000  -0.000   0.000  -0.000
    3       -0.000   0.000   0.000   0.000
    4       -0.000  -0.000   0.000  -0.000
    5       -0.000  -0.000   0.000  -0.000
    6       -0.000  -0.000   0.000  -0.000
    7       -0.000  -0.000   0.000  -0.000
    8       -0.000  -0.000   0.000  -0.000
    9       -0.000  -0.000   0.000  -0.000
   10       -0.000  -0.000   0.000  -0.000
   11       -0.000  -0.000   0.000  -0.000
   12       -0.000   0.000   0.000   0.000
   13       -0.000  -0.000   0.000  -0.000
   14       -0.000  -0.000   0.000  -0.000
   15       -0.000  -0.000   0.000  -0.000
   16       -0.000  -0.000   0.000  -0.000
   17       -0.000  -0.000   0.000  -0.000
   18       -0.000  -0.000   0.000  -0.000
   19       -0.000  -0.000   0.000  -0.000
   20       -0.000  -0.000   0.000  -0.000
   21       -0.000  -0.000   0.000  -0.000
   22       -0.000  -0.000   0.000  -0.000
   23       -0.000  -0.000   0.000  -0.000
   24       -0.000  -0.000   0.000  -0.000
   25       -0.000  -0.000   0.000  -0.000
   26       -0.000  -0.000   0.000  -0.000
   27       -0.000  -0.000   0.000  -0.000
   28       -0.000  -0.000   0.000  -0.000
   29       -0.000  -0.000   0.000  -0.000
   30       -0.000  -0.000   0.000  -0.000
   31       -0.000  -0.000   0.000  -0.000
   32       -0.000  -0.000   0.000  -0.000
   33       -0.000  -0.000   0.000  -0.000
   34       -0.000  -0.000   0.000  -0.000
   35       -0.000  -0.000   0.000  -0.000
   36       -0.000  -0.000   0.000  -0.000
   37        0.000   0.000   0.000   0.000
   38        0.000   0.000   0.000   0.000
   39        0.000   0.000   0.000   0.000
   40        0.000   0.000   0.000   0.000
   41        0.000   0.000   0.000   0.000
   42        0.000   0.000   0.000   0.000
   43        0.000   0.000   0.000   0.000
   44        0.000   0.000   0.000   0.000
   45        0.000   0.000   0.000   0.000
   46        0.000   0.000   0.000   0.000
   47        0.000   0.000   0.000   0.000
   48        0.000   0.000   0.000   0.000
   49        0.000   0.000   0.000   0.000
   50        0.000   0.000   0.000   0.000
   51        0.000   0.000   0.000   0.000
   52        0.000   0.000   0.000   0.000
   53        0.000   0.000   0.000   0.000
   54        0.000   0.000   0.000   0.000
   55        0.000   0.000   0.000   0.000
   56        0.000   0.000   0.000   0.000
   57        0.000   0.000   0.000   0.000
   58        0.000   0.000   0.000   0.000
   59        0.000   0.000   0.000   0.000
   60        0.000   0.000   0.000   0.000
   61        0.000   0.000   0.000   0.000
   62        0.000   0.000   0.000   0.000
   63        0.000   0.000   0.000   0.000
   64        0.000   0.000   0.000   0.000
   65        0.000   0.000   0.000   0.000
   66        0.000   0.000   0.000   0.000
   67        0.000   0.000   0.000   0.000
   68        0.000   0.000   0.000   0.000
   69        0.000   0.000   0.000   0.000
   70        0.000   0.000   0.000   0.000
   71        0.000   0.000   0.000   0.000
   72        0.000   0.000   0.000   0.000
--------------------------------------------------
tot          0.000   0.000   0.000   0.000

 BZINTS: Fermi energy:    1.851369;  468.000000 electrons
         Band energy:-0.542026E+04;  BLOECHL correction:    0.000000

 total amount of memory used by VASP MPI-rank0   413811. kBytes
=======================================================================

   base      :      30000. kBytes
   nonl-proj :     107085. kBytes
   fftplans  :      38970. kBytes
   grid      :      94569. kBytes
   one-center:        442. kBytes
   wavefun   :     142745. kBytes

  
  
 General timing and accounting informations for this job:
 ========================================================
  
                  Total CPU time used (sec):     3358.232
                            User time (sec):     3356.573
                          System time (sec):        1.659
                         Elapsed time (sec):     3359.199
  
                   Maximum memory used (kb):      704596.
                   Average memory used (kb):          N/A
  
                          Minor page faults:       782457
                          Major page faults:          199
                 Voluntary context switches:         6390
