  79  79   0   0
  0.2352942E+02  0.1210264E-08  0.7093817E-09  0.2165102E-08  0.0000000E+00
   1.0000000000000000E-004
  CAR 
 NEB_refined                             
      8.96662548    -23.89939875  301      0.87437610      1.00000000
    -23.899  0.0000E+00  0.0000E+00
    -23.790  0.0000E+00  0.0000E+00
    -23.680  0.0000E+00  0.0000E+00
    -23.571 -0.9101E-31 -0.9971E-32
    -23.461 -0.6435E-27 -0.7050E-28
    -23.352 -0.2426E-23 -0.2658E-24
    -23.242 -0.5018E-20 -0.5500E-21
    -23.133 -0.5693E-17 -0.6242E-18
    -23.023 -0.3432E-14 -0.3766E-15
    -22.913 -0.1162E-11 -0.1277E-12
    -22.804 -0.2146E-09 -0.2364E-10
    -22.694 -0.2156E-07 -0.2386E-08
    -22.585 -0.1172E-05 -0.1308E-06
    -22.475 -0.3411E-04 -0.3867E-05
    -22.366 -0.5221E-03 -0.6107E-04
    -22.256 -0.4048E-02 -0.5046E-03
    -22.147 -0.1437E-01 -0.2079E-02
    -22.037 -0.1256E-01 -0.3455E-02
    -21.927  0.6664E-01  0.3846E-02
    -21.818  0.3160E+00  0.3846E-01
    -21.708  0.8032E+00  0.1265E+00
    -21.599  0.1238E+01  0.2621E+00
    -21.489  0.1125E+01  0.3853E+00
    -21.380  0.6136E+00  0.4525E+00
    -21.270  0.1792E+00  0.4721E+00
    -21.161 -0.4383E-02  0.4717E+00
    -21.051 -0.2397E-01  0.4690E+00
    -20.941 -0.8068E-02  0.4681E+00
    -20.832 -0.1227E-02  0.4680E+00
    -20.722 -0.9659E-04  0.4680E+00
    -20.613 -0.4081E-05  0.4680E+00
    -20.503 -0.9380E-07  0.4680E+00
    -20.394 -0.1179E-08  0.4680E+00
    -20.284 -0.8121E-11  0.4680E+00
    -20.175 -0.3070E-13  0.4680E+00
    -20.065 -0.5675E-16  0.4680E+00
    -19.955  0.0000E+00  0.4680E+00
    -19.846  0.0000E+00  0.4680E+00
    -19.736  0.0000E+00  0.4680E+00
    -19.627  0.0000E+00  0.4680E+00
    -19.517  0.0000E+00  0.4680E+00
    -19.408  0.0000E+00  0.4680E+00
    -19.298  0.0000E+00  0.4680E+00
    -19.189  0.0000E+00  0.4680E+00
    -19.079  0.0000E+00  0.4680E+00
    -18.969  0.0000E+00  0.4680E+00
    -18.860  0.0000E+00  0.4680E+00
    -18.750  0.0000E+00  0.4680E+00
    -18.641  0.0000E+00  0.4680E+00
    -18.531  0.0000E+00  0.4680E+00
    -18.422  0.0000E+00  0.4680E+00
    -18.312  0.0000E+00  0.4680E+00
    -18.203  0.0000E+00  0.4680E+00
    -18.093  0.0000E+00  0.4680E+00
    -17.984  0.0000E+00  0.4680E+00
    -17.874  0.0000E+00  0.4680E+00
    -17.764  0.0000E+00  0.4680E+00
    -17.655  0.0000E+00  0.4680E+00
    -17.545  0.0000E+00  0.4680E+00
    -17.436  0.0000E+00  0.4680E+00
    -17.326  0.0000E+00  0.4680E+00
    -17.217  0.0000E+00  0.4680E+00
    -17.107  0.0000E+00  0.4680E+00
    -16.998  0.0000E+00  0.4680E+00
    -16.888  0.0000E+00  0.4680E+00
    -16.778  0.0000E+00  0.4680E+00
    -16.669  0.0000E+00  0.4680E+00
    -16.559  0.0000E+00  0.4680E+00
    -16.450  0.0000E+00  0.4680E+00
    -16.340  0.0000E+00  0.4680E+00
    -16.231  0.0000E+00  0.4680E+00
    -16.121  0.0000E+00  0.4680E+00
    -16.012  0.0000E+00  0.4680E+00
    -15.902  0.0000E+00  0.4680E+00
    -15.792  0.0000E+00  0.4680E+00
    -15.683  0.0000E+00  0.4680E+00
    -15.573  0.0000E+00  0.4680E+00
    -15.464  0.0000E+00  0.4680E+00
    -15.354  0.0000E+00  0.4680E+00
    -15.245  0.0000E+00  0.4680E+00
    -15.135  0.0000E+00  0.4680E+00
    -15.026  0.0000E+00  0.4680E+00
    -14.916  0.0000E+00  0.4680E+00
    -14.806  0.0000E+00  0.4680E+00
    -14.697  0.0000E+00  0.4680E+00
    -14.587  0.0000E+00  0.4680E+00
    -14.478  0.0000E+00  0.4680E+00
    -14.368  0.0000E+00  0.4680E+00
    -14.259  0.0000E+00  0.4680E+00
    -14.149  0.0000E+00  0.4680E+00
    -14.040  0.0000E+00  0.4680E+00
    -13.930  0.0000E+00  0.4680E+00
    -13.820  0.0000E+00  0.4680E+00
    -13.711  0.0000E+00  0.4680E+00
    -13.601  0.0000E+00  0.4680E+00
    -13.492  0.0000E+00  0.4680E+00
    -13.382  0.0000E+00  0.4680E+00
    -13.273  0.0000E+00  0.4680E+00
    -13.163  0.0000E+00  0.4680E+00
    -13.054  0.0000E+00  0.4680E+00
    -12.944  0.0000E+00  0.4680E+00
    -12.835  0.0000E+00  0.4680E+00
    -12.725  0.0000E+00  0.4680E+00
    -12.615  0.0000E+00  0.4680E+00
    -12.506  0.0000E+00  0.4680E+00
    -12.396  0.0000E+00  0.4680E+00
    -12.287  0.0000E+00  0.4680E+00
    -12.177 -0.4764E-29  0.4680E+00
    -12.068 -0.2279E-25  0.4680E+00
    -11.958 -0.5966E-22  0.4680E+00
    -11.849 -0.8547E-19  0.4680E+00
    -11.739 -0.6499E-16  0.4680E+00
    -11.629 -0.2777E-13  0.4680E+00
    -11.520 -0.6469E-11  0.4680E+00
    -11.410 -0.8217E-09  0.4680E+00
    -11.301 -0.5677E-07  0.4680E+00
    -11.191 -0.2120E-05  0.4680E+00
    -11.082 -0.4230E-04  0.4680E+00
    -10.972 -0.4376E-03  0.4679E+00
    -10.863 -0.2153E-02  0.4677E+00
    -10.753 -0.3188E-02  0.4674E+00
    -10.643  0.1138E-01  0.4686E+00
    -10.534  0.5479E-01  0.4746E+00
    -10.424  0.9660E-01  0.4852E+00
    -10.315  0.8982E-01  0.4950E+00
    -10.205  0.4167E-01  0.4996E+00
    -10.096 -0.6663E-03  0.4995E+00
     -9.986 -0.5423E-02  0.4989E+00
     -9.877  0.5296E-01  0.5047E+00
     -9.767  0.1812E+00  0.5246E+00
     -9.657  0.2918E+00  0.5565E+00
     -9.548  0.2575E+00  0.5848E+00
     -9.438  0.1103E+00  0.5968E+00
     -9.329  0.7671E-02  0.5977E+00
     -9.219 -0.1071E-01  0.5965E+00
     -9.110 -0.3927E-02  0.5961E+00
     -9.000 -0.5846E-03  0.5960E+00
     -8.891 -0.4371E-04  0.5960E+00
     -8.781 -0.1735E-05  0.5960E+00
     -8.671 -0.3735E-07  0.5960E+00
     -8.562 -0.4396E-09  0.5960E+00
     -8.452 -0.2838E-11  0.5960E+00
     -8.343 -0.1004E-13  0.5960E+00
     -8.233 -0.2432E-16  0.5960E+00
     -8.124  0.0000E+00  0.5960E+00
     -8.014  0.0000E+00  0.5960E+00
     -7.905  0.0000E+00  0.5960E+00
     -7.795  0.0000E+00  0.5960E+00
     -7.685  0.0000E+00  0.5960E+00
     -7.576  0.0000E+00  0.5960E+00
     -7.466  0.0000E+00  0.5960E+00
     -7.357  0.0000E+00  0.5960E+00
     -7.247  0.0000E+00  0.5960E+00
     -7.138  0.0000E+00  0.5960E+00
     -7.028  0.0000E+00  0.5960E+00
     -6.919  0.0000E+00  0.5960E+00
     -6.809  0.0000E+00  0.5960E+00
     -6.700  0.0000E+00  0.5960E+00
     -6.590  0.0000E+00  0.5960E+00
     -6.480  0.0000E+00  0.5960E+00
     -6.371  0.0000E+00  0.5960E+00
     -6.261  0.0000E+00  0.5960E+00
     -6.152  0.0000E+00  0.5960E+00
     -6.042  0.0000E+00  0.5960E+00
     -5.933  0.0000E+00  0.5960E+00
     -5.823  0.0000E+00  0.5960E+00
     -5.714  0.0000E+00  0.5960E+00
     -5.604  0.0000E+00  0.5960E+00
     -5.494  0.0000E+00  0.5960E+00
     -5.385  0.0000E+00  0.5960E+00
     -5.275  0.0000E+00  0.5960E+00
     -5.166  0.0000E+00  0.5960E+00
     -5.056  0.0000E+00  0.5960E+00
     -4.947 -0.4126E-31  0.5960E+00
     -4.837 -0.2707E-27  0.5960E+00
     -4.728 -0.9682E-24  0.5960E+00
     -4.618 -0.1891E-20  0.5960E+00
     -4.508 -0.2017E-17  0.5960E+00
     -4.399 -0.1137E-14  0.5960E+00
     -4.289 -0.3579E-12  0.5960E+00
     -4.180 -0.6127E-10  0.5960E+00
     -4.070 -0.5690E-08  0.5960E+00
     -3.961 -0.2858E-06  0.5960E+00
     -3.851 -0.7723E-05  0.5960E+00
     -3.742 -0.1108E-03  0.5960E+00
     -3.632 -0.8132E-03  0.5959E+00
     -3.522 -0.2658E-02  0.5956E+00
     -3.413 -0.4488E-03  0.5956E+00
     -3.303  0.2184E-01  0.5980E+00
     -3.194  0.6603E-01  0.6052E+00
     -3.084  0.9424E-01  0.6155E+00
     -2.975  0.7704E-01  0.6239E+00
     -2.865  0.3569E-01  0.6279E+00
     -2.756  0.5682E-02  0.6285E+00
     -2.646 -0.2629E-02  0.6282E+00
     -2.536 -0.1459E-02  0.6280E+00
     -2.427 -0.2778E-03  0.6280E+00
     -2.317 -0.3077E-04  0.6280E+00
     -2.208 -0.9822E-04  0.6280E+00
     -2.098 -0.8947E-03  0.6279E+00
     -1.989 -0.3930E-02  0.6275E+00
     -1.879 -0.4625E-02  0.6270E+00
     -1.770  0.2254E-01  0.6294E+00
     -1.660  0.9481E-01  0.6398E+00
     -1.551  0.1636E+00  0.6577E+00
     -1.441  0.1802E+00  0.6775E+00
     -1.331  0.1688E+00  0.6960E+00
     -1.222  0.1450E+00  0.7119E+00
     -1.112  0.8964E-01  0.7217E+00
     -1.003  0.2467E-01  0.7244E+00
     -0.893 -0.7842E-02  0.7235E+00
     -0.784  0.7733E-02  0.7244E+00
     -0.674  0.7436E-01  0.7325E+00
     -0.565  0.1410E+00  0.7480E+00
     -0.455  0.1494E+00  0.7643E+00
     -0.345  0.1322E+00  0.7788E+00
     -0.236  0.1309E+00  0.7932E+00
     -0.126  0.1459E+00  0.8091E+00
     -0.017  0.1545E+00  0.8261E+00
      0.093  0.1472E+00  0.8422E+00
      0.202  0.1529E+00  0.8589E+00
      0.312  0.1751E+00  0.8781E+00
      0.421  0.2038E+00  0.9005E+00
      0.531  0.2305E+00  0.9257E+00
      0.641  0.2180E+00  0.9496E+00
      0.750  0.1617E+00  0.9673E+00
      0.860  0.9059E-01  0.9772E+00
      0.969  0.3016E-01  0.9805E+00
      1.079  0.4714E-03  0.9806E+00
      1.188 -0.3751E-02  0.9802E+00
      1.298 -0.1365E-02  0.9800E+00
      1.407 -0.2166E-03  0.9800E+00
      1.517 -0.1752E-04  0.9800E+00
      1.627 -0.7504E-06  0.9800E+00
      1.736 -0.1727E-07  0.9800E+00
      1.846 -0.2151E-09  0.9800E+00
      1.955 -0.1454E-11  0.9800E+00
      2.065 -0.5351E-14  0.9800E+00
      2.174 -0.8107E-17  0.9800E+00
      2.284 -0.2236E-18  0.9800E+00
      2.393 -0.1533E-15  0.9800E+00
      2.503 -0.5804E-13  0.9800E+00
      2.613 -0.1193E-10  0.9800E+00
      2.722 -0.1320E-08  0.9800E+00
      2.832 -0.7792E-07  0.9800E+00
      2.941 -0.2421E-05  0.9800E+00
      3.051 -0.3845E-04  0.9800E+00
      3.160 -0.2911E-03  0.9800E+00
      3.270 -0.8122E-03  0.9799E+00
      3.379  0.9752E-03  0.9800E+00
      3.489  0.9178E-02  0.9810E+00
      3.599  0.1620E-01  0.9828E+00
      3.708  0.1074E-01  0.9839E+00
      3.818  0.1785E-02  0.9841E+00
      3.927 -0.1047E-02  0.9840E+00
      4.037 -0.1499E-02  0.9839E+00
      4.146 -0.1144E-02  0.9837E+00
      4.256  0.8515E-02  0.9847E+00
      4.365  0.2747E-01  0.9877E+00
      4.475  0.2988E-01  0.9909E+00
      4.584  0.1152E-01  0.9922E+00
      4.694 -0.1446E-02  0.9920E+00
      4.804 -0.3286E-02  0.9917E+00
      4.913  0.4783E-02  0.9922E+00
      5.023  0.2607E-01  0.9951E+00
      5.132  0.4182E-01  0.9997E+00
      5.242  0.4375E-01  0.1004E+01
      5.351  0.5574E-01  0.1011E+01
      5.461  0.7753E-01  0.1019E+01
      5.570  0.9824E-01  0.1030E+01
      5.680  0.1182E+00  0.1043E+01
      5.790  0.1274E+00  0.1057E+01
      5.899  0.1099E+00  0.1069E+01
      6.009  0.7793E-01  0.1077E+01
      6.118  0.7174E-01  0.1085E+01
      6.228  0.8767E-01  0.1095E+01
      6.337  0.9058E-01  0.1105E+01
      6.447  0.8651E-01  0.1114E+01
      6.556  0.1005E+00  0.1125E+01
      6.666  0.1171E+00  0.1138E+01
      6.776  0.1142E+00  0.1151E+01
      6.885  0.1084E+00  0.1162E+01
      6.995  0.8862E-01  0.1172E+01
      7.104  0.3928E-01  0.1176E+01
      7.214  0.2274E-02  0.1177E+01
      7.323 -0.4167E-02  0.1176E+01
      7.433 -0.1418E-02  0.1176E+01
      7.542 -0.1936E-03  0.1176E+01
      7.652 -0.1304E-04  0.1176E+01
      7.762 -0.4589E-06  0.1176E+01
      7.871 -0.8646E-08  0.1176E+01
      7.981 -0.8818E-10  0.1176E+01
      8.090 -0.4896E-12  0.1176E+01
      8.200 -0.1492E-14  0.1176E+01
      8.309  0.0000E+00  0.1176E+01
      8.419  0.0000E+00  0.1176E+01
      8.528  0.0000E+00  0.1176E+01
      8.638  0.0000E+00  0.1176E+01
      8.748  0.0000E+00  0.1176E+01
      8.857  0.0000E+00  0.1176E+01
      8.967  0.0000E+00  0.1176E+01
