 vasp.6.3.2 27Jun22 (build Jun 14 2024 17:29:11) complex                         
 POSCAR found type information on POSCAR NaAlS 
 03/POSCAR found :  3 types and      79 ions
 -----------------------------------------------------------------------------
|                                                                             |
|           W    W    AA    RRRRR   N    N  II  N    N   GGGG   !!!           |
|           W    W   A  A   R    R  NN   N  II  NN   N  G    G  !!!           |
|           W    W  A    A  R    R  N N  N  II  N N  N  G       !!!           |
|           W WW W  AAAAAA  RRRRR   N  N N  II  N  N N  G  GGG   !            |
|           WW  WW  A    A  R   R   N   NN  II  N   NN  G    G                |
|           W    W  A    A  R    R  N    N  II  N    N   GGGG   !!!           |
|                                                                             |
|     The value NPAR = 9 specified in the INCAR file was overwritten,         |
|     because it was not compatible with the 3 processes available:           |
|     NPAR = 3                                                                |
|     was used instead, please check that this makes sense for your           |
|     machine.                                                                |
|                                                                             |
 -----------------------------------------------------------------------------

 LDA part: xc-table for Pade appr. of Perdew
 POSCAR found type information on POSCAR NaAlS 
 00/POSCAR found :  3 types and      79 ions
 POSCAR found type information on POSCAR NaAlS 
 10/POSCAR found :  3 types and      79 ions
 POSCAR, INCAR and KPOINTS ok, starting setup
 FFT: planning ... GRIDC
 FFT: planning ... GRID_SOFT
 FFT: planning ... GRID
 WAVECAR not read
 entering main loop
       N       E                     dE             d eps       ncg     rms          rms(c)
DAV:   1     0.466159496821E+04    0.46616E+04   -0.19997E+05   633   0.140E+03
DAV:   2     0.336804787483E+03   -0.43248E+04   -0.41608E+04   651   0.402E+02
DAV:   3    -0.284013093167E+03   -0.62082E+03   -0.61400E+03   693   0.166E+02
DAV:   4    -0.321494424551E+03   -0.37481E+02   -0.37029E+02   672   0.378E+01
DAV:   5    -0.323208555189E+03   -0.17141E+01   -0.17114E+01   852   0.829E+00    0.268E+01
RMM:   6    -0.305432442058E+03    0.17776E+02   -0.30603E+01   636   0.586E+00    0.178E+01
RMM:   7    -0.304720449542E+03    0.71199E+00   -0.38575E+01   640   0.550E+00    0.110E+01
RMM:   8    -0.304145228109E+03    0.57522E+00   -0.25104E+00   712   0.280E+00    0.614E+00
RMM:   9    -0.304174959954E+03   -0.29732E-01   -0.24035E+00   648   0.191E+00    0.285E+00
RMM:  10    -0.304040447242E+03    0.13451E+00   -0.21677E-01   685   0.105E+00    0.197E+00
RMM:  11    -0.304005389677E+03    0.35058E-01   -0.99874E-02   749   0.444E-01    0.112E+00
RMM:  12    -0.304001998149E+03    0.33915E-02   -0.59263E-02   716   0.291E-01    0.740E-01
RMM:  13    -0.304010852444E+03   -0.88543E-02   -0.23395E-02   641   0.215E-01    0.734E-01
RMM:  14    -0.304009743511E+03    0.11089E-02   -0.91047E-03   696   0.146E-01    0.398E-01
RMM:  15    -0.304006676444E+03    0.30671E-02   -0.38652E-03   680   0.887E-02    0.261E-01
RMM:  16    -0.304006413592E+03    0.26285E-03   -0.19594E-03   727   0.593E-02    0.196E-01
RMM:  17    -0.304006815029E+03   -0.40144E-03   -0.10891E-03   614   0.480E-02    0.949E-02
RMM:  18    -0.304006584848E+03    0.23018E-03   -0.24296E-04   580   0.263E-02    0.569E-02
RMM:  19    -0.304006554853E+03    0.29995E-04   -0.10804E-04   569   0.172E-02    0.275E-02
RMM:  20    -0.304006536362E+03    0.18491E-04   -0.26080E-05   476   0.101E-02    0.118E-02
RMM:  21    -0.304006532761E+03    0.36011E-05   -0.95672E-06   351   0.672E-03
   1 F= -.30400653E+03 E0= -.30405335E+03  d E =-.304007E+03
quench:  g(F)=  0.000E+00 g(S)=  0.000E+00 dE (1.order)= 0.000E+00
 bond charge predicted
       N       E                     dE             d eps       ncg     rms          rms(c)
DAV:   1    -0.304006532163E+03    0.41985E-05   -0.31505E-06   351   0.545E-03    0.257E-03
RMM:   2    -0.304006532267E+03   -0.10367E-06   -0.15148E-06   341   0.294E-03
   2 F= -.30400653E+03 E0= -.30405334E+03  d E =0.493688E-06
quench:  g(F)=  0.000E+00 g(S)=  0.000E+00 dE (1.order)= 0.000E+00
 bond charge predicted
       N       E                     dE             d eps       ncg     rms          rms(c)
DAV:   1    -0.304006532223E+03   -0.60187E-07   -0.65940E-07   393   0.268E-03    0.256E-03
RMM:   2    -0.304006532280E+03   -0.56680E-07   -0.86269E-08   170   0.132E-03
   3 F= -.30400653E+03 E0= -.30405334E+03  d E =-.131986E-07
quench:  g(F)=  0.000E+00 g(S)=  0.000E+00 dE (1.order)= 0.000E+00
 bond charge predicted
       N       E                     dE             d eps       ncg     rms          rms(c)
DAV:   1    -0.304006532288E+03   -0.64487E-07   -0.37214E-07   420   0.199E-03    0.178E-03
RMM:   2    -0.304006532500E+03   -0.21156E-06   -0.88743E-09    77   0.101E-03
   4 F= -.30400653E+03 E0= -.30405334E+03  d E =-.219370E-06
quench:  g(F)=  0.000E+00 g(S)=  0.000E+00 dE (1.order)= 0.000E+00
 bond charge predicted
       N       E                     dE             d eps       ncg     rms          rms(c)
DAV:   1    -0.304006532240E+03    0.48189E-07   -0.53340E-07   384   0.216E-03    0.777E-04
RMM:   2    -0.304006532245E+03   -0.52605E-08   -0.14857E-09    65   0.923E-04
   5 F= -.30400653E+03 E0= -.30405334E+03  d E =0.254491E-06
quench:  g(F)=  0.000E+00 g(S)=  0.000E+00 dE (1.order)= 0.000E+00
 bond charge predicted
       N       E                     dE             d eps       ncg     rms          rms(c)
DAV:   1    -0.304006532252E+03   -0.11809E-07   -0.18803E-07   366   0.100E-03    0.801E-04
RMM:   2    -0.304006532247E+03    0.44820E-08    0.87503-208    50   0.683E-04
   6 F= -.30400653E+03 E0= -.30405334E+03  d E =-.206637E-08
quench:  g(F)=  0.000E+00 g(S)=  0.000E+00 dE (1.order)= 0.000E+00
 bond charge predicted
       N       E                     dE             d eps       ncg     rms          rms(c)
DAV:   1    -0.304006532238E+03    0.13461E-07   -0.67083E-08   357   0.859E-04    0.484E-04
RMM:   2    -0.304006532239E+03   -0.40745E-09    0.45999-222    44   0.459E-04
   7 F= -.30400653E+03 E0= -.30405334E+03  d E =0.857108E-08
quench:  g(F)=  0.000E+00 g(S)=  0.000E+00 dE (1.order)= 0.000E+00
 bond charge predicted
       N       E                     dE             d eps       ncg     rms          rms(c)
DAV:   1    -0.304006532229E+03    0.89785E-08   -0.41576E-08   339   0.549E-04    0.381E-04
RMM:   2    -0.304006532231E+03   -0.14843E-08    0.33276-222    42   0.381E-04
   8 F= -.30400653E+03 E0= -.30405334E+03  d E =0.790169E-08
quench:  g(F)=  0.000E+00 g(S)=  0.000E+00 dE (1.order)= 0.000E+00
 bond charge predicted
       N       E                     dE             d eps       ncg     rms          rms(c)
DAV:   1    -0.304006532233E+03   -0.38272E-08   -0.26704E-08   339   0.421E-04    0.369E-04
RMM:   2    -0.304006532234E+03   -0.56025E-09    0.12168-249    33   0.294E-04
   9 F= -.30400653E+03 E0= -.30405334E+03  d E =-.290311E-08
quench:  g(F)=  0.000E+00 g(S)=  0.000E+00 dE (1.order)= 0.000E+00
 bond charge predicted
       N       E                     dE             d eps       ncg     rms          rms(c)
DAV:   1    -0.304006532226E+03    0.65847E-08   -0.16246E-08   339   0.417E-04    0.161E-04
RMM:   2    -0.304006532226E+03    0.40018E-09    0.12620-289    31   0.215E-04
  10 F= -.30400653E+03 E0= -.30405334E+03  d E =0.754517E-08
quench:  g(F)=  0.000E+00 g(S)=  0.000E+00 dE (1.order)= 0.000E+00
 bond charge predicted
       N       E                     dE             d eps       ncg     rms          rms(c)
DAV:   1    -0.304006532228E+03   -0.13970E-08   -0.65995E-09   339   0.213E-04    0.225E-04
RMM:   2    -0.304006532227E+03    0.63301E-09    0.94573-290    27   0.151E-04
  11 F= -.30400653E+03 E0= -.30405334E+03  d E =-.116415E-08
quench:  g(F)=  0.000E+00 g(S)=  0.000E+00 dE (1.order)= 0.000E+00
 bond charge predicted
       N       E                     dE             d eps       ncg     rms          rms(c)
DAV:   1    -0.304006532227E+03    0.39290E-09   -0.34672E-09   339   0.206E-04    0.132E-04
RMM:   2    -0.304006532229E+03   -0.14479E-08    0.00000E+00    19   0.104E-04
  12 F= -.30400653E+03 E0= -.30405334E+03  d E =-.168802E-08
quench:  g(F)=  0.000E+00 g(S)=  0.000E+00 dE (1.order)= 0.000E+00
 bond charge predicted
       N       E                     dE             d eps       ncg     rms          rms(c)
DAV:   1    -0.304006532227E+03    0.94587E-10   -0.35352E-09   339   0.173E-04    0.714E-05
RMM:   2    -0.304006532227E+03    0.37107E-09    0.00000E+00    18   0.101E-04
  13 F= -.30400653E+03 E0= -.30405334E+03  d E =0.191358E-08
quench:  g(F)=  0.000E+00 g(S)=  0.000E+00 dE (1.order)= 0.000E+00
 bond charge predicted
       N       E                     dE             d eps       ncg     rms          rms(c)
DAV:   1    -0.304006532227E+03    0.37835E-09   -0.12509E-09   339   0.995E-05    0.903E-05
RMM:   2    -0.304006532227E+03   -0.43656E-10    0.00000E+00    18   0.594E-05
  14 F= -.30400653E+03 E0= -.30405334E+03  d E =-.363798E-10
quench:  g(F)=  0.000E+00 g(S)=  0.000E+00 dE (1.order)= 0.000E+00
 bond charge predicted
       N       E                     dE             d eps       ncg     rms          rms(c)
DAV:   1    -0.304006532227E+03    0.87311E-10   -0.76357E-10   321   0.959E-05    0.434E-05
RMM:   2    -0.304006532227E+03   -0.16735E-09    0.00000E+00    15   0.519E-05
  15 F= -.30400653E+03 E0= -.30405334E+03  d E =-.363798E-10
quench:  g(F)=  0.000E+00 g(S)=  0.000E+00 dE (1.order)= 0.000E+00
 bond charge predicted
       N       E                     dE             d eps       ncg     rms          rms(c)
DAV:   1    -0.304006532227E+03    0.16735E-09   -0.46913E-10   312   0.538E-05    0.653E-05
RMM:   2    -0.304006532226E+03    0.21100E-09    0.00000E+00    15   0.399E-05
  16 F= -.30400653E+03 E0= -.30405334E+03  d E =0.545697E-09
quench:  g(F)=  0.000E+00 g(S)=  0.000E+00 dE (1.order)= 0.000E+00
 bond charge predicted
       N       E                     dE             d eps       ncg     rms          rms(c)
DAV:   1    -0.304006532226E+03    0.82218E-09   -0.38190E-10   312   0.558E-05    0.431E-05
RMM:   2    -0.304006532227E+03   -0.75670E-09    0.00000E+00    15   0.299E-05
  17 F= -.30400653E+03 E0= -.30405334E+03  d E =-.145519E-09
quench:  g(F)=  0.000E+00 g(S)=  0.000E+00 dE (1.order)= 0.000E+00
 bond charge predicted
       N       E                     dE             d eps       ncg     rms          rms(c)
DAV:   1    -0.304006532225E+03    0.37107E-09   -0.54316E-10   312   0.650E-05    0.327E-05
RMM:   2    -0.304006532226E+03   -0.32014E-09    0.00000E+00    14   0.261E-05
  18 F= -.30400653E+03 E0= -.30405334E+03  d E =0.807631E-09
quench:  g(F)=  0.000E+00 g(S)=  0.000E+00 dE (1.order)= 0.000E+00
 bond charge predicted
       N       E                     dE             d eps       ncg     rms          rms(c)
DAV:   1    -0.304006532225E+03    0.24011E-09   -0.20171E-10   312   0.319E-05    0.226E-05
RMM:   2    -0.304006532226E+03   -0.63301E-09    0.00000E+00    14   0.212E-05
  19 F= -.30400653E+03 E0= -.30405334E+03  d E =-.727596E-10
quench:  g(F)=  0.000E+00 g(S)=  0.000E+00 dE (1.order)= 0.000E+00
 bond charge predicted
       N       E                     dE             d eps       ncg     rms          rms(c)
DAV:   1    -0.304006532226E+03   -0.10041E-08   -0.21132E-10   312   0.371E-05    0.893E-06
RMM:   2    -0.304006532226E+03    0.53114E-09    0.00000E+00    14   0.187E-05
  20 F= -.30400653E+03 E0= -.30405334E+03  d E =0.160071E-09
quench:  g(F)=  0.000E+00 g(S)=  0.000E+00 dE (1.order)= 0.000E+00
 bond charge predicted
       N       E                     dE             d eps       ncg     rms          rms(c)
DAV:   1    -0.304006532225E+03    0.11278E-08   -0.17029E-10   312   0.186E-05    0.194E-05
RMM:   2    -0.304006532226E+03   -0.79308E-09    0.00000E+00    14   0.122E-05
  21 F= -.30400653E+03 E0= -.30405334E+03  d E =-.196451E-09
quench:  g(F)=  0.000E+00 g(S)=  0.000E+00 dE (1.order)= 0.000E+00
 bond charge predicted
       N       E                     dE             d eps       ncg     rms          rms(c)
DAV:   1    -0.304006532225E+03   -0.21828E-09    0.57044E-11   312   0.198E-05    0.994E-06
RMM:   2    -0.304006532226E+03   -0.41473E-09    0.00000E+00    13   0.804E-06
  22 F= -.30400653E+03 E0= -.30405334E+03  d E =0.160071E-09
quench:  g(F)=  0.000E+00 g(S)=  0.000E+00 dE (1.order)= 0.000E+00
 bond charge predicted
       N       E                     dE             d eps       ncg     rms          rms(c)
DAV:   1    -0.304006532226E+03   -0.44383E-09    0.10044E-10   312   0.143E-05    0.557E-06
RMM:   2    -0.304006532226E+03   -0.21100E-09    0.00000E+00    12   0.820E-06
  23 F= -.30400653E+03 E0= -.30405334E+03  d E =-.240107E-09
quench:  g(F)=  0.000E+00 g(S)=  0.000E+00 dE (1.order)= 0.000E+00
 bond charge predicted
       N       E                     dE             d eps       ncg     rms          rms(c)
DAV:   1    -0.304006532226E+03   -0.66939E-09   -0.68242E-11   312   0.843E-06    0.531E-06
RMM:   2    -0.304006532226E+03    0.57480E-09    0.00000E+00    12   0.564E-06
  24 F= -.30400653E+03 E0= -.30405334E+03  d E =0.116415E-09
quench:  g(F)=  0.000E+00 g(S)=  0.000E+00 dE (1.order)= 0.000E+00
 bond charge predicted
       N       E                     dE             d eps       ncg     rms          rms(c)
DAV:   1    -0.304006532226E+03    0.59663E-09    0.41682E-11   312   0.979E-06    0.166E-06
RMM:   2    -0.304006532226E+03   -0.11642E-09    0.00000E+00    12   0.448E-06
  25 F= -.30400653E+03 E0= -.30405334E+03  d E =-.945874E-10
quench:  g(F)=  0.000E+00 g(S)=  0.000E+00 dE (1.order)= 0.000E+00
 bond charge predicted
       N       E                     dE             d eps       ncg     rms          rms(c)
DAV:   1    -0.304006532226E+03    0.16007E-09   -0.86327E-11   312   0.442E-06    0.477E-06
RMM:   2    -0.304006532226E+03   -0.38563E-09    0.00000E+00    12   0.335E-06
  26 F= -.30400653E+03 E0= -.30405334E+03  d E =-.109139E-09
quench:  g(F)=  0.000E+00 g(S)=  0.000E+00 dE (1.order)= 0.000E+00
 bond charge predicted
       N       E                     dE             d eps       ncg     rms          rms(c)
DAV:   1    -0.304006532225E+03    0.65484E-09    0.16597E-10   312   0.524E-06    0.266E-06
RMM:   2    -0.304006532226E+03   -0.84401E-09    0.00000E+00    12   0.205E-06
  27 F= -.30400653E+03 E0= -.30405334E+03  d E =0.196451E-09
quench:  g(F)=  0.000E+00 g(S)=  0.000E+00 dE (1.order)= 0.000E+00
 bond charge predicted
       N       E                     dE             d eps       ncg     rms          rms(c)
DAV:   1    -0.304006532227E+03   -0.15934E-08   -0.16866E-11   312   0.413E-06    0.134E-06
RMM:   2    -0.304006532226E+03    0.71304E-09    0.00000E+00    11   0.200E-06
  28 F= -.30400653E+03 E0= -.30405334E+03  d E =-.363798E-10
quench:  g(F)=  0.000E+00 g(S)=  0.000E+00 dE (1.order)= 0.000E+00
 bond charge predicted
       N       E                     dE             d eps       ncg     rms          rms(c)
DAV:   1    -0.304006532225E+03    0.19281E-08   -0.86140E-12   312   0.205E-06    0.149E-06
RMM:   2    -0.304006532226E+03   -0.88767E-09    0.00000E+00    12   0.147E-06
  29 F= -.30400653E+03 E0= -.30405334E+03  d E =0.327418E-09
quench:  g(F)=  0.000E+00 g(S)=  0.000E+00 dE (1.order)= 0.000E+00
 bond charge predicted
       N       E                     dE             d eps       ncg     rms          rms(c)
DAV:   1    -0.304006532226E+03   -0.12151E-08   -0.32623E-11   312   0.233E-06    0.556E-07
RMM:   2    -0.304006532226E+03   -0.17462E-09    0.00000E+00     9   0.115E-06
  30 F= -.30400653E+03 E0= -.30405334E+03  d E =-.502041E-09
quench:  g(F)=  0.000E+00 g(S)=  0.000E+00 dE (1.order)= 0.000E+00
 bond charge predicted
       N       E                     dE             d eps       ncg     rms          rms(c)
DAV:   1    -0.304006532225E+03    0.42928E-09    0.40143E-12   312   0.113E-06    0.158E-06
RMM:   2    -0.304006532226E+03   -0.42201E-09    0.00000E+00     9   0.912E-07
  31 F= -.30400653E+03 E0= -.30405334E+03  d E =0.181899E-09
quench:  g(F)=  0.000E+00 g(S)=  0.000E+00 dE (1.order)= 0.000E+00
 bond charge predicted
       N       E                     dE             d eps       ncg     rms          rms(c)
DAV:   1    -0.304006532226E+03   -0.85129E-09   -0.23435E-10   312   0.158E-06    0.951E-07
RMM:   2    -0.304006532226E+03    0.32742E-09    0.00000E+00     9   0.590E-07
  32 F= -.30400653E+03 E0= -.30405334E+03  d E =-.101863E-09
quench:  g(F)=  0.000E+00 g(S)=  0.000E+00 dE (1.order)= 0.000E+00
 bond charge predicted
       N       E                     dE             d eps       ncg     rms          rms(c)
DAV:   1    -0.304006532226E+03    0.26193E-09    0.92939E-11   312   0.159E-06    0.328E-07
RMM:   2    -0.304006532226E+03    0.17462E-09    0.00000E+00     9   0.516E-07
  33 F= -.30400653E+03 E0= -.30405334E+03  d E =0.109139E-09
quench:  g(F)=  0.000E+00 g(S)=  0.000E+00 dE (1.order)= 0.000E+00
 bond charge predicted
       N       E                     dE             d eps       ncg     rms          rms(c)
DAV:   1    -0.304006532227E+03   -0.10332E-08   -0.38744E-11   312   0.549E-07    0.302E-07
RMM:   2    -0.304006532226E+03    0.12878E-08    0.00000E+00     7   0.362E-07
  34 F= -.30400653E+03 E0= -.30405334E+03  d E =0.800355E-10
quench:  g(F)=  0.000E+00 g(S)=  0.000E+00 dE (1.order)= 0.000E+00
 bond charge predicted
       N       E                     dE             d eps       ncg     rms          rms(c)
DAV:   1    -0.304006532225E+03    0.19791E-08    0.10108E-10   312   0.570E-07    0.999E-08
RMM:   2    -0.304006532226E+03   -0.84401E-09    0.00000E+00     8   0.304E-07
  35 F= -.30400653E+03 E0= -.30405334E+03  d E =-.152795E-09
quench:  g(F)=  0.000E+00 g(S)=  0.000E+00 dE (1.order)= 0.000E+00
 bond charge predicted
       N       E                     dE             d eps       ncg     rms          rms(c)
DAV:   1    -0.304006532225E+03    0.14552E-10    0.58977E-11   312   0.305E-07    0.432E-07
RMM:   2    -0.304006532226E+03   -0.78580E-09    0.00000E+00     7   0.244E-07
  36 F= -.30400653E+03 E0= -.30405334E+03  d E =0.727596E-10
quench:  g(F)=  0.000E+00 g(S)=  0.000E+00 dE (1.order)= 0.000E+00
 bond charge predicted
       N       E                     dE             d eps       ncg     rms          rms(c)
DAV:   1    -0.304006532227E+03   -0.16735E-08   -0.92012E-11   312   0.441E-07    0.254E-07
RMM:   2    -0.304006532226E+03    0.82218E-09    0.00000E+00     7   0.173E-07
  37 F= -.30400653E+03 E0= -.30405334E+03  d E =-.654836E-10
quench:  g(F)=  0.000E+00 g(S)=  0.000E+00 dE (1.order)= 0.000E+00
 bond charge predicted
       N       E                     dE             d eps       ncg     rms          rms(c)
DAV:   1    -0.304006532226E+03    0.10841E-08   -0.10976E-10   312   0.430E-07    0.735E-08
RMM:   2    -0.304006532226E+03   -0.65484E-10    0.00000E+00     6   0.147E-07
  38 F= -.30400653E+03 E0= -.30405334E+03  d E =0.196451E-09
quench:  g(F)=  0.000E+00 g(S)=  0.000E+00 dE (1.order)= 0.000E+00
 bond charge predicted
       N       E                     dE             d eps       ncg     rms          rms(c)
DAV:   1    -0.304006532226E+03    0.14552E-10   -0.11515E-10   312   0.157E-07    0.752E-08
RMM:   2    -0.304006532226E+03   -0.29831E-09    0.00000E+00     7   0.107E-07
  39 F= -.30400653E+03 E0= -.30405334E+03  d E =-.218279E-09
quench:  g(F)=  0.000E+00 g(S)=  0.000E+00 dE (1.order)= 0.000E+00
 bond charge predicted
       N       E                     dE             d eps       ncg     rms          rms(c)
DAV:   1    -0.304006532226E+03    0.58208E-10   -0.19408E-12   312   0.158E-07    0.289E-08
RMM:   2    -0.304006532226E+03   -0.30559E-09    0.00000E+00     6   0.774E-08
  40 F= -.30400653E+03 E0= -.30405334E+03  d E =0.509317E-10
quench:  g(F)=  0.000E+00 g(S)=  0.000E+00 dE (1.order)= 0.000E+00
 bond charge predicted
       N       E                     dE             d eps       ncg     rms          rms(c)
DAV:   1    -0.304006532225E+03    0.10405E-08   -0.47517E-11   312   0.785E-08    0.106E-07
RMM:   2    -0.304006532226E+03   -0.14697E-08    0.00000E+00     6   0.641E-08
  41 F= -.30400653E+03 E0= -.30405334E+03  d E =-.123691E-09
quench:  g(F)=  0.000E+00 g(S)=  0.000E+00 dE (1.order)= 0.000E+00
 bond charge predicted
       N       E                     dE             d eps       ncg     rms          rms(c)
DAV:   1    -0.304006532226E+03   -0.15352E-08    0.27928E-11   312   0.114E-07    0.640E-08
RMM:   2    -0.304006532226E+03    0.72760E-10    0.00000E+00     5   0.463E-08
  42 F= -.30400653E+03 E0= -.30405334E+03  d E =0.727596E-11
quench:  g(F)=  0.000E+00 g(S)=  0.000E+00 dE (1.order)= 0.000E+00
 bond charge predicted
       N       E                     dE             d eps       ncg     rms          rms(c)
DAV:   1    -0.304006532226E+03   -0.31287E-09    0.12120E-10   312   0.110E-07    0.155E-08
RMM:   2    -0.304006532226E+03    0.47294E-09    0.00000E+00     5   0.396E-08
  43 F= -.30400653E+03 E0= -.30405334E+03  d E =0.873115E-10
quench:  g(F)=  0.000E+00 g(S)=  0.000E+00 dE (1.order)= 0.000E+00
 bond charge predicted
       N       E                     dE             d eps       ncg     rms          rms(c)
DAV:   1    -0.304006532225E+03    0.15934E-08    0.55345E-11   312   0.423E-08    0.180E-08
RMM:   2    -0.304006532226E+03   -0.10914E-08    0.00000E+00     5   0.275E-08
  44 F= -.30400653E+03 E0= -.30405334E+03  d E =0.291038E-10
quench:  g(F)=  0.000E+00 g(S)=  0.000E+00 dE (1.order)= 0.000E+00
 bond charge predicted
       N       E                     dE             d eps       ncg     rms          rms(c)
DAV:   1    -0.304006532226E+03   -0.15571E-08   -0.15705E-10   312   0.379E-08    0.746E-09
RMM:   2    -0.304006532226E+03    0.44383E-09    0.00000E+00     5   0.210E-08
  45 F= -.30400653E+03 E0= -.30405334E+03  d E =-.218279E-10
quench:  g(F)=  0.000E+00 g(S)=  0.000E+00 dE (1.order)= 0.000E+00
 bond charge predicted
       N       E                     dE             d eps       ncg     rms          rms(c)
DAV:   1    -0.304006532226E+03    0.29104E-10    0.37961E-11   312   0.215E-08    0.224E-08
RMM:   2    -0.304006532226E+03    0.39290E-09    0.00000E+00     5   0.177E-08
  46 F= -.30400653E+03 E0= -.30405334E+03  d E =-.218279E-10
quench:  g(F)=  0.000E+00 g(S)=  0.000E+00 dE (1.order)= 0.000E+00
 bond charge predicted
       N       E                     dE             d eps       ncg     rms          rms(c)
DAV:   1    -0.304006532225E+03    0.12587E-08   -0.32692E-11   312   0.283E-08    0.132E-08
RMM:   2    -0.304006532226E+03   -0.89494E-09    0.00000E+00     5   0.124E-08
  47 F= -.30400653E+03 E0= -.30405334E+03  d E =-.291038E-10
quench:  g(F)=  0.000E+00 g(S)=  0.000E+00 dE (1.order)= 0.000E+00
 bond charge predicted
       N       E                     dE             d eps       ncg     rms          rms(c)
DAV:   1    -0.304006532226E+03   -0.58208E-09   -0.14113E-10   312   0.234E-08    0.402E-09
RMM:   2    -0.304006532226E+03   -0.87311E-10    0.00000E+00     5   0.110E-08
  48 F= -.30400653E+03 E0= -.30405334E+03  d E =0.225555E-09
quench:  g(F)=  0.000E+00 g(S)=  0.000E+00 dE (1.order)= 0.000E+00
 bond charge predicted
       N       E                     dE             d eps       ncg     rms          rms(c)
DAV:   1    -0.304006532226E+03   -0.21828E-09   -0.11420E-10   312   0.114E-08    0.424E-09
RMM:   2    -0.304006532226E+03    0.50932E-10    0.00000E+00     5   0.673E-09
  49 F= -.30400653E+03 E0= -.30405334E+03  d E =-.800355E-10
quench:  g(F)=  0.000E+00 g(S)=  0.000E+00 dE (1.order)= 0.000E+00
 bond charge predicted
       N       E                     dE             d eps       ncg     rms          rms(c)
DAV:   1    -0.304006532225E+03    0.12078E-08    0.31247E-10   312   0.928E-09    0.184E-09
RMM:   2    -0.304006532226E+03   -0.10114E-08    0.00000E+00     4   0.546E-09
  50 F= -.30400653E+03 E0= -.30405334E+03  d E =0.145519E-09
quench:  g(F)=  0.000E+00 g(S)=  0.000E+00 dE (1.order)= 0.000E+00
 bond charge predicted
       N       E                     dE             d eps       ncg     rms          rms(c)
DAV:   1    -0.304006532226E+03   -0.16589E-08   -0.11629E-10   312   0.554E-09    0.546E-09
RMM:   2    -0.304006532226E+03    0.64756E-09    0.00000E+00     5   0.437E-09
  51 F= -.30400653E+03 E0= -.30405334E+03  d E =0.000000E+00
quench:  g(F)=  0.000E+00 g(S)=  0.000E+00 dE (1.order)= 0.000E+00
 bond charge predicted
       N       E                     dE             d eps       ncg     rms          rms(c)
DAV:   1    -0.304006532225E+03    0.11569E-08   -0.11800E-10   312   0.690E-09    0.324E-09
RMM:   2    -0.304006532226E+03   -0.66211E-09    0.00000E+00     3   0.324E-09
  52 F= -.30400653E+03 E0= -.30405334E+03  d E =-.152795E-09
quench:  g(F)=  0.000E+00 g(S)=  0.000E+00 dE (1.order)= 0.000E+00
 bond charge predicted
       N       E                     dE             d eps       ncg     rms          rms(c)
DAV:   1    -0.304006532228E+03   -0.24302E-08    0.81595E-11   312   0.596E-09    0.109E-09
RMM:   2    -0.304006532226E+03    0.18626E-08    0.00000E+00     3   0.296E-09
  53 F= -.30400653E+03 E0= -.30405334E+03  d E =0.945874E-10
quench:  g(F)=  0.000E+00 g(S)=  0.000E+00 dE (1.order)= 0.000E+00
 bond charge predicted
       N       E                     dE             d eps       ncg     rms          rms(c)
DAV:   1    -0.304006532225E+03    0.26776E-08   -0.79500E-11   312   0.308E-09    0.111E-09
RMM:   2    -0.304006532226E+03   -0.83674E-09    0.00000E+00     3   0.185E-09
  54 F= -.30400653E+03 E0= -.30405334E+03  d E =-.218279E-10
quench:  g(F)=  0.000E+00 g(S)=  0.000E+00 dE (1.order)= 0.000E+00
 bond charge predicted
       N       E                     dE             d eps       ncg     rms          rms(c)
DAV:   1    -0.304006532226E+03   -0.83674E-09    0.13901E-10   312   0.250E-09    0.499E-10
RMM:   2    -0.304006532226E+03    0.50932E-10    0.00000E+00     3   0.150E-09
  55 F= -.30400653E+03 E0= -.30405334E+03  d E =0.509317E-10
quench:  g(F)=  0.000E+00 g(S)=  0.000E+00 dE (1.order)= 0.000E+00
 bond charge predicted
       N       E                     dE             d eps       ncg     rms          rms(c)
DAV:   1    -0.304006532227E+03   -0.78580E-09   -0.76030E-11   312   0.152E-09    0.132E-09
RMM:   2    -0.304006532226E+03    0.71304E-09    0.00000E+00     3   0.123E-09
  56 F= -.30400653E+03 E0= -.30405334E+03  d E =-.123691E-09
quench:  g(F)=  0.000E+00 g(S)=  0.000E+00 dE (1.order)= 0.000E+00
 bond charge predicted
       N       E                     dE             d eps       ncg     rms          rms(c)
DAV:   1    -0.304006532225E+03    0.19281E-08    0.53070E-11   312   0.193E-09    0.894E-10
RMM:   2    -0.304006532226E+03   -0.10405E-08    0.00000E+00     3   0.892E-10
  57 F= -.30400653E+03 E0= -.30405334E+03  d E =0.174623E-09
quench:  g(F)=  0.000E+00 g(S)=  0.000E+00 dE (1.order)= 0.000E+00
 bond charge predicted
       N       E                     dE             d eps       ncg     rms          rms(c)
DAV:   1    -0.304006532226E+03   -0.17099E-08   -0.17485E-10   312   0.175E-09    0.301E-10
RMM:   2    -0.304006532226E+03    0.63301E-09    0.00000E+00     3   0.794E-10
  58 F= -.30400653E+03 E0= -.30405334E+03  d E =-.363798E-10
quench:  g(F)=  0.000E+00 g(S)=  0.000E+00 dE (1.order)= 0.000E+00
 bond charge predicted
       N       E                     dE             d eps       ncg     rms          rms(c)
DAV:   1    -0.304006532226E+03    0.38563E-09    0.68562E-11   312   0.898E-10    0.583E-10
RMM:   2    -0.304006532226E+03    0.65484E-10    0.00000E+00     3   0.546E-10
  59 F= -.30400653E+03 E0= -.30405334E+03  d E =-.181899E-09
quench:  g(F)=  0.000E+00 g(S)=  0.000E+00 dE (1.order)= 0.000E+00
 bond charge predicted
       N       E                     dE             d eps       ncg     rms          rms(c)
DAV:   1    -0.304006532227E+03   -0.96770E-09    0.63197E-11   312   0.695E-10    0.469E-10
RMM:   2    -0.304006532226E+03    0.10477E-08    0.00000E+00     3   0.430E-10
  60 F= -.30400653E+03 E0= -.30405334E+03  d E =0.145519E-10
quench:  g(F)=  0.000E+00 g(S)=  0.000E+00 dE (1.order)= 0.000E+00
 bond charge predicted
       N       E                     dE             d eps       ncg     rms          rms(c)
DAV:   1    -0.304006532226E+03    0.12733E-08    0.95734E-11   312   0.583E-10    0.439E-10
RMM:   2    -0.304006532226E+03   -0.24738E-09    0.00000E+00     3   0.392E-10
  61 F= -.30400653E+03 E0= -.30405334E+03  d E =-.218279E-10
quench:  g(F)=  0.000E+00 g(S)=  0.000E+00 dE (1.order)= 0.000E+00
 bond charge predicted
       N       E                     dE             d eps       ncg     rms          rms(c)
DAV:   1    -0.304006532226E+03   -0.61118E-09    0.10502E-10   312   0.581E-10    0.296E-10
RMM:   2    -0.304006532226E+03    0.45839E-09    0.00000E+00     3   0.344E-10
  62 F= -.30400653E+03 E0= -.30405334E+03  d E =0.945874E-10
quench:  g(F)=  0.000E+00 g(S)=  0.000E+00 dE (1.order)= 0.000E+00
 bond charge predicted
       N       E                     dE             d eps       ncg     rms          rms(c)
DAV:   1    -0.304006532227E+03   -0.79308E-09   -0.10130E-10   312   0.356E-10    0.320E-10
RMM:   2    -0.304006532226E+03    0.12369E-08    0.00000E+00     3   0.243E-10
  63 F= -.30400653E+03 E0= -.30405334E+03  d E =-.145519E-10
quench:  g(F)=  0.000E+00 g(S)=  0.000E+00 dE (1.order)= 0.000E+00
 bond charge predicted
       N       E                     dE             d eps       ncg     rms          rms(c)
DAV:   1    -0.304006532224E+03    0.33760E-08   -0.36911E-11   312   0.364E-10    0.249E-10
RMM:   2    -0.304006532226E+03   -0.21173E-08    0.00000E+00     2   0.186E-10
  64 F= -.30400653E+03 E0= -.30405334E+03  d E =0.218279E-10
quench:  g(F)=  0.000E+00 g(S)=  0.000E+00 dE (1.order)= 0.000E+00
 bond charge predicted
       N       E                     dE             d eps       ncg     rms          rms(c)
DAV:   1    -0.304006532226E+03   -0.18699E-08    0.45722E-11   312   0.235E-10    0.247E-10
RMM:   2    -0.304006532226E+03   -0.38563E-09    0.00000E+00     2   0.162E-10
  65 F= -.30400653E+03 E0= -.30405334E+03  d E =-.138243E-09
quench:  g(F)=  0.000E+00 g(S)=  0.000E+00 dE (1.order)= 0.000E+00
 bond charge predicted
       N       E                     dE             d eps       ncg     rms          rms(c)
DAV:   1    -0.304006532225E+03    0.26193E-09    0.53443E-11   312   0.216E-10    0.301E-10
RMM:   2    -0.304006532226E+03   -0.52387E-09    0.00000E+00     2   0.149E-10
  66 F= -.30400653E+03 E0= -.30405334E+03  d E =0.123691E-09
quench:  g(F)=  0.000E+00 g(S)=  0.000E+00 dE (1.order)= 0.000E+00
 bond charge predicted
       N       E                     dE             d eps       ncg     rms          rms(c)
DAV:   1    -0.304006532225E+03    0.36380E-10    0.17206E-11   312   0.234E-10    0.292E-10
RMM:   2    -0.304006532226E+03   -0.50204E-09    0.00000E+00     2   0.133E-10
  67 F= -.30400653E+03 E0= -.30405334E+03  d E =0.582077E-10
quench:  g(F)=  0.000E+00 g(S)=  0.000E+00 dE (1.order)= 0.000E+00
 bond charge predicted
       N       E                     dE             d eps       ncg     rms          rms(c)
DAV:   1    -0.304006532225E+03   -0.19645E-09   -0.38669E-11   312   0.189E-10    0.322E-10
RMM:   2    -0.304006532226E+03   -0.39290E-09    0.00000E+00     2   0.125E-10
  68 F= -.30400653E+03 E0= -.30405334E+03  d E =-.873115E-10
quench:  g(F)=  0.000E+00 g(S)=  0.000E+00 dE (1.order)= 0.000E+00
 bond charge predicted
       N       E                     dE             d eps       ncg     rms          rms(c)
DAV:   1    -0.304006532225E+03   -0.14552E-10    0.18745E-10   312   0.288E-10    0.254E-10
RMM:   2    -0.304006532226E+03   -0.34197E-09    0.00000E+00     2   0.119E-10
  69 F= -.30400653E+03 E0= -.30405334E+03  d E =0.363798E-10
quench:  g(F)=  0.000E+00 g(S)=  0.000E+00 dE (1.order)= 0.000E+00
 bond charge predicted
       N       E                     dE             d eps       ncg     rms          rms(c)
DAV:   1    -0.304006532227E+03   -0.11569E-08    0.26540E-10   312   0.366E-10    0.264E-10
RMM:   2    -0.304006532226E+03    0.79308E-09    0.00000E+00     2   0.121E-10
  70 F= -.30400653E+03 E0= -.30405334E+03  d E =-.218279E-10
quench:  g(F)=  0.000E+00 g(S)=  0.000E+00 dE (1.order)= 0.000E+00
 bond charge predicted
       N       E                     dE             d eps       ncg     rms          rms(c)
DAV:   1    -0.304006532225E+03    0.13461E-08    0.10780E-11   312   0.369E-10    0.280E-10
RMM:   2    -0.304006532226E+03   -0.52387E-09    0.00000E+00     2   0.105E-10
  71 F= -.30400653E+03 E0= -.30405334E+03  d E =0.291038E-10
quench:  g(F)=  0.000E+00 g(S)=  0.000E+00 dE (1.order)= 0.000E+00
 bond charge predicted
       N       E                     dE             d eps       ncg     rms          rms(c)
DAV:   1    -0.304006532225E+03    0.23283E-09   -0.12818E-10   312   0.287E-10    0.281E-10
RMM:   2    -0.304006532226E+03   -0.82218E-09    0.00000E+00     1   0.109E-10
  72 F= -.30400653E+03 E0= -.30405334E+03  d E =-.654836E-10
quench:  g(F)=  0.000E+00 g(S)=  0.000E+00 dE (1.order)= 0.000E+00
 bond charge predicted
       N       E                     dE             d eps       ncg     rms          rms(c)
DAV:   1    -0.304006532225E+03    0.12369E-09    0.13586E-10   294   0.229E-10    0.267E-10
RMM:   2    -0.304006532226E+03   -0.96043E-09    0.00000E+00     1   0.992E-11
  73 F= -.30400653E+03 E0= -.30405334E+03  d E =-.145519E-10
quench:  g(F)=  0.000E+00 g(S)=  0.000E+00 dE (1.order)= 0.000E+00
 bond charge predicted
       N       E                     dE             d eps       ncg     rms          rms(c)
DAV:   1    -0.304006532226E+03   -0.60390E-09    0.14840E-10   294   0.298E-10    0.274E-10
RMM:   2    -0.304006532226E+03   -0.27649E-09    0.00000E+00     1   0.111E-10
  74 F= -.30400653E+03 E0= -.30405334E+03  d E =0.800355E-10
quench:  g(F)=  0.000E+00 g(S)=  0.000E+00 dE (1.order)= 0.000E+00
 bond charge predicted
       N       E                     dE             d eps       ncg     rms          rms(c)
DAV:   1    -0.304006532227E+03   -0.96043E-09    0.17300E-12   294   0.265E-10    0.250E-10
RMM:   2    -0.304006532226E+03    0.71304E-09    0.00000E+00     1   0.102E-10
  75 F= -.30400653E+03 E0= -.30405334E+03  d E =0.291038E-10
quench:  g(F)=  0.000E+00 g(S)=  0.000E+00 dE (1.order)= 0.000E+00
 bond charge predicted
       N       E                     dE             d eps       ncg     rms          rms(c)
DAV:   1    -0.304006532225E+03    0.17390E-08   -0.10555E-10   294   0.293E-10    0.318E-10
RMM:   2    -0.304006532226E+03   -0.11059E-08    0.00000E+00     1   0.107E-10
  76 F= -.30400653E+03 E0= -.30405334E+03  d E =-.800355E-10
quench:  g(F)=  0.000E+00 g(S)=  0.000E+00 dE (1.order)= 0.000E+00
 bond charge predicted
       N       E                     dE             d eps       ncg     rms          rms(c)
DAV:   1    -0.304006532226E+03   -0.13169E-08    0.16726E-10   294   0.362E-10    0.221E-10
RMM:   2    -0.304006532226E+03    0.16735E-09    0.00000E+00     1   0.988E-11
  77 F= -.30400653E+03 E0= -.30405334E+03  d E =-.436557E-10
quench:  g(F)=  0.000E+00 g(S)=  0.000E+00 dE (1.order)= 0.000E+00
 bond charge predicted
       N       E                     dE             d eps       ncg     rms          rms(c)
DAV:   1    -0.304006532225E+03    0.11933E-08   -0.51825E-11   294   0.247E-10    0.202E-10
RMM:   2    -0.304006532226E+03   -0.88039E-09    0.00000E+00     1   0.860E-11
  78 F= -.30400653E+03 E0= -.30405334E+03  d E =0.145519E-09
quench:  g(F)=  0.000E+00 g(S)=  0.000E+00 dE (1.order)= 0.000E+00
 bond charge predicted
       N       E                     dE             d eps       ncg     rms          rms(c)
DAV:   1    -0.304006532226E+03   -0.12224E-08    0.58541E-11   294   0.171E-10    0.384E-10
RMM:   2    -0.304006532226E+03    0.26921E-09    0.00000E+00     1   0.100E-10
  79 F= -.30400653E+03 E0= -.30405334E+03  d E =-.727596E-10
quench:  g(F)=  0.000E+00 g(S)=  0.000E+00 dE (1.order)= 0.000E+00
 bond charge predicted
       N       E                     dE             d eps       ncg     rms          rms(c)
DAV:   1    -0.304006532227E+03   -0.39290E-09    0.90709E-11   294   0.285E-10    0.238E-10
RMM:   2    -0.304006532226E+03    0.67666E-09    0.00000E+00     1   0.994E-11
  80 F= -.30400653E+03 E0= -.30405334E+03  d E =0.145519E-10
quench:  g(F)=  0.000E+00 g(S)=  0.000E+00 dE (1.order)= 0.000E+00
 bond charge predicted
       N       E                     dE             d eps       ncg     rms          rms(c)
DAV:   1    -0.304006532225E+03    0.18554E-08    0.19337E-10   294   0.273E-10    0.450E-10
RMM:   2    -0.304006532226E+03   -0.11423E-08    0.00000E+00     1   0.118E-10
  81 F= -.30400653E+03 E0= -.30405334E+03  d E =0.363798E-10
quench:  g(F)=  0.000E+00 g(S)=  0.000E+00 dE (1.order)= 0.000E+00
 bond charge predicted
       N       E                     dE             d eps       ncg     rms          rms(c)
DAV:   1    -0.304006532225E+03   -0.53114E-09    0.69598E-11   294   0.359E-10    0.266E-10
RMM:   2    -0.304006532226E+03   -0.68394E-09    0.00000E+00     1   0.111E-10
  82 F= -.30400653E+03 E0= -.30405334E+03  d E =-.727596E-10
quench:  g(F)=  0.000E+00 g(S)=  0.000E+00 dE (1.order)= 0.000E+00
 bond charge predicted
       N       E                     dE             d eps       ncg     rms          rms(c)
DAV:   1    -0.304006532226E+03   -0.40018E-09    0.15058E-10   294   0.320E-10    0.199E-10
RMM:   2    -0.304006532226E+03   -0.32742E-09    0.00000E+00     1   0.113E-10
  83 F= -.30400653E+03 E0= -.30405334E+03  d E =-.436557E-10
quench:  g(F)=  0.000E+00 g(S)=  0.000E+00 dE (1.order)= 0.000E+00
 bond charge predicted
       N       E                     dE             d eps       ncg     rms          rms(c)
DAV:   1    -0.304006532226E+03   -0.43656E-10    0.16364E-10   294   0.248E-10    0.406E-10
RMM:   2    -0.304006532226E+03   -0.19645E-09    0.00000E+00     1   0.111E-10
  84 F= -.30400653E+03 E0= -.30405334E+03  d E =0.873115E-10
quench:  g(F)=  0.000E+00 g(S)=  0.000E+00 dE (1.order)= 0.000E+00
 bond charge predicted
       N       E                     dE             d eps       ncg     rms          rms(c)
DAV:   1    -0.304006532226E+03   -0.18917E-09    0.91928E-11   294   0.283E-10    0.212E-10
RMM:   2    -0.304006532226E+03   -0.80036E-10    0.00000E+00     1   0.920E-11
  85 F= -.30400653E+03 E0= -.30405334E+03  d E =-.727596E-10
quench:  g(F)=  0.000E+00 g(S)=  0.000E+00 dE (1.order)= 0.000E+00
 bond charge predicted
       N       E                     dE             d eps       ncg     rms          rms(c)
DAV:   1    -0.304006532225E+03    0.56025E-09    0.99846E-11   294   0.204E-10    0.182E-10
RMM:   2    -0.304006532226E+03   -0.53842E-09    0.00000E+00     1   0.943E-11
  86 F= -.30400653E+03 E0= -.30405334E+03  d E =0.101863E-09
quench:  g(F)=  0.000E+00 g(S)=  0.000E+00 dE (1.order)= 0.000E+00
 bond charge predicted
       N       E                     dE             d eps       ncg     rms          rms(c)
DAV:   1    -0.304006532225E+03   -0.13097E-09    0.48342E-11   294   0.128E-10    0.412E-10
RMM:   2    -0.304006532226E+03   -0.47294E-09    0.00000E+00     1   0.112E-10
  87 F= -.30400653E+03 E0= -.30405334E+03  d E =-.654836E-10
quench:  g(F)=  0.000E+00 g(S)=  0.000E+00 dE (1.order)= 0.000E+00
 bond charge predicted
       N       E                     dE             d eps       ncg     rms          rms(c)
DAV:   1    -0.304006532227E+03   -0.14334E-08   -0.87430E-11   294   0.377E-10    0.336E-10
RMM:   2    -0.304006532226E+03    0.95315E-09    0.00000E+00     1   0.116E-10
  88 F= -.30400653E+03 E0= -.30405334E+03  d E =-.727596E-11
quench:  g(F)=  0.000E+00 g(S)=  0.000E+00 dE (1.order)= 0.000E+00
 bond charge predicted
       N       E                     dE             d eps       ncg     rms          rms(c)
DAV:   1    -0.304006532226E+03    0.89494E-09    0.16608E-10   294   0.333E-10    0.366E-10
RMM:   2    -0.304006532226E+03    0.50932E-10    0.00000E+00     1   0.102E-10
  89 F= -.30400653E+03 E0= -.30405334E+03  d E =-.727596E-11
quench:  g(F)=  0.000E+00 g(S)=  0.000E+00 dE (1.order)= 0.000E+00
 bond charge predicted
       N       E                     dE             d eps       ncg     rms          rms(c)
DAV:   1    -0.304006532225E+03    0.78580E-09    0.71966E-11   294   0.280E-10    0.239E-10
RMM:   2    -0.304006532226E+03   -0.60390E-09    0.00000E+00     1   0.829E-11
  90 F= -.30400653E+03 E0= -.30405334E+03  d E =0.130967E-09
quench:  g(F)=  0.000E+00 g(S)=  0.000E+00 dE (1.order)= 0.000E+00
 bond charge predicted
       N       E                     dE             d eps       ncg     rms          rms(c)
DAV:   1    -0.304006532226E+03   -0.90949E-09    0.15176E-11   294   0.184E-10    0.295E-10
RMM:   2    -0.304006532226E+03    0.19645E-09    0.00000E+00     1   0.102E-10
  91 F= -.30400653E+03 E0= -.30405334E+03  d E =-.109139E-09
quench:  g(F)=  0.000E+00 g(S)=  0.000E+00 dE (1.order)= 0.000E+00
 bond charge predicted
       N       E                     dE             d eps       ncg     rms          rms(c)
DAV:   1    -0.304006532226E+03   -0.25466E-09    0.75699E-11   294   0.340E-10    0.224E-10
RMM:   2    -0.304006532226E+03    0.48021E-09    0.00000E+00     1   0.106E-10
  92 F= -.30400653E+03 E0= -.30405334E+03  d E =0.291038E-10
quench:  g(F)=  0.000E+00 g(S)=  0.000E+00 dE (1.order)= 0.000E+00
 bond charge predicted
       N       E                     dE             d eps       ncg     rms          rms(c)
DAV:   1    -0.304006532226E+03    0.46566E-09    0.59722E-11   294   0.275E-10    0.215E-10
RMM:   2    -0.304006532226E+03   -0.87311E-10    0.00000E+00     1   0.902E-11
  93 F= -.30400653E+03 E0= -.30405334E+03  d E =-.101863E-09
quench:  g(F)=  0.000E+00 g(S)=  0.000E+00 dE (1.order)= 0.000E+00
 bond charge predicted
       N       E                     dE             d eps       ncg     rms          rms(c)
DAV:   1    -0.304006532226E+03   -0.65484E-09    0.57387E-11   294   0.171E-10    0.262E-10
RMM:   2    -0.304006532226E+03    0.69122E-09    0.00000E+00     1   0.100E-10
  94 F= -.30400653E+03 E0= -.30405334E+03  d E =0.123691E-09
quench:  g(F)=  0.000E+00 g(S)=  0.000E+00 dE (1.order)= 0.000E+00
 bond charge predicted
       N       E                     dE             d eps       ncg     rms          rms(c)
DAV:   1    -0.304006532226E+03    0.89494E-09    0.66036E-11   294   0.297E-10    0.179E-10
RMM:   2    -0.304006532226E+03   -0.23283E-09    0.00000E+00     1   0.906E-11
  95 F= -.30400653E+03 E0= -.30405334E+03  d E =-.291038E-10
quench:  g(F)=  0.000E+00 g(S)=  0.000E+00 dE (1.order)= 0.000E+00
 bond charge predicted
       N       E                     dE             d eps       ncg     rms          rms(c)
DAV:   1    -0.304006532226E+03   -0.40745E-09    0.12394E-10   294   0.171E-10    0.301E-10
RMM:   2    -0.304006532226E+03    0.11642E-09    0.00000E+00     1   0.954E-11
  96 F= -.30400653E+03 E0= -.30405334E+03  d E =-.582077E-10
quench:  g(F)=  0.000E+00 g(S)=  0.000E+00 dE (1.order)= 0.000E+00
 bond charge predicted
       N       E                     dE             d eps       ncg     rms          rms(c)
DAV:   1    -0.304006532226E+03    0.72760E-10   -0.13773E-10   294   0.329E-10    0.218E-10
RMM:   2    -0.304006532226E+03    0.80036E-10    0.00000E+00     1   0.746E-11
  97 F= -.30400653E+03 E0= -.30405334E+03  d E =0.363798E-10
quench:  g(F)=  0.000E+00 g(S)=  0.000E+00 dE (1.order)= 0.000E+00
 bond charge predicted
       N       E                     dE             d eps       ncg     rms          rms(c)
DAV:   1    -0.304006532224E+03    0.16153E-08    0.33019E-11   294   0.148E-10    0.318E-10
RMM:   2    -0.304006532226E+03   -0.14988E-08    0.00000E+00     1   0.843E-11
  98 F= -.30400653E+03 E0= -.30405334E+03  d E =0.363798E-10
quench:  g(F)=  0.000E+00 g(S)=  0.000E+00 dE (1.order)= 0.000E+00
 bond charge predicted
       N       E                     dE             d eps       ncg     rms          rms(c)
DAV:   1    -0.304006532224E+03    0.72760E-10    0.37494E-11   294   0.278E-10    0.179E-10
RMM:   2    -0.304006532226E+03   -0.15280E-08    0.00000E+00     1   0.814E-11
  99 F= -.30400653E+03 E0= -.30405334E+03  d E =0.436557E-10
quench:  g(F)=  0.000E+00 g(S)=  0.000E+00 dE (1.order)= 0.000E+00
 bond charge predicted
       N       E                     dE             d eps       ncg     rms          rms(c)
DAV:   1    -0.304006532225E+03   -0.78580E-09   -0.62043E-11   294   0.187E-10    0.285E-10
RMM:   2    -0.304006532226E+03   -0.80036E-09    0.00000E+00     1   0.104E-10
 100 F= -.30400653E+03 E0= -.30405334E+03  d E =-.582077E-10
quench:  g(F)=  0.000E+00 g(S)=  0.000E+00 dE (1.order)= 0.000E+00
 bond charge predicted
       N       E                     dE             d eps       ncg     rms          rms(c)
DAV:   1    -0.304006532225E+03   -0.40018E-09   -0.74138E-11   294   0.284E-10    0.232E-10
RMM:   2    -0.304006532226E+03   -0.42201E-09    0.00000E+00     1   0.859E-11
 101 F= -.30400653E+03 E0= -.30405334E+03  d E =-.218279E-10
quench:  g(F)=  0.000E+00 g(S)=  0.000E+00 dE (1.order)= 0.000E+00
 bond charge predicted
       N       E                     dE             d eps       ncg     rms          rms(c)
DAV:   1    -0.304006532225E+03    0.10914E-09    0.53687E-11   294   0.254E-10    0.217E-10
RMM:   2    -0.304006532226E+03   -0.53842E-09    0.00000E+00     1   0.749E-11
 102 F= -.30400653E+03 E0= -.30405334E+03  d E =-.727596E-11
quench:  g(F)=  0.000E+00 g(S)=  0.000E+00 dE (1.order)= 0.000E+00
 bond charge predicted
       N       E                     dE             d eps       ncg     rms          rms(c)
DAV:   1    -0.304006532226E+03   -0.19645E-09   -0.36620E-11   294   0.227E-10    0.192E-10
RMM:   2    -0.304006532226E+03   -0.37107E-09    0.00000E+00     1   0.759E-11
 103 F= -.30400653E+03 E0= -.30405334E+03  d E =-.291038E-10
quench:  g(F)=  0.000E+00 g(S)=  0.000E+00 dE (1.order)= 0.000E+00
 bond charge predicted
       N       E                     dE             d eps       ncg     rms          rms(c)
DAV:   1    -0.304006532225E+03    0.48021E-09   -0.49718E-11   294   0.122E-10    0.276E-10
RMM:   2    -0.304006532226E+03   -0.84401E-09    0.00000E+00     1   0.824E-11
 104 F= -.30400653E+03 E0= -.30405334E+03  d E =0.727596E-11
quench:  g(F)=  0.000E+00 g(S)=  0.000E+00 dE (1.order)= 0.000E+00
 bond charge predicted
       N       E                     dE             d eps       ncg     rms          rms(c)
DAV:   1    -0.304006532226E+03   -0.88767E-09    0.79221E-11   294   0.155E-10    0.219E-10
RMM:   2    -0.304006532226E+03   -0.72760E-11    0.00000E+00     1   0.701E-11
 105 F= -.30400653E+03 E0= -.30405334E+03  d E =-.509317E-10
quench:  g(F)=  0.000E+00 g(S)=  0.000E+00 dE (1.order)= 0.000E+00
 bond charge predicted
       N       E                     dE             d eps       ncg     rms          rms(c)
DAV:   1    -0.304006532226E+03   -0.29831E-09    0.12611E-10   294   0.100E-10    0.291E-10
RMM:   2    -0.304006532226E+03    0.40018E-09    0.00000E+00     1   0.776E-11
 106 F= -.30400653E+03 E0= -.30405334E+03  d E =0.109139E-09
quench:  g(F)=  0.000E+00 g(S)=  0.000E+00 dE (1.order)= 0.000E+00
 bond charge predicted
       N       E                     dE             d eps       ncg     rms          rms(c)
DAV:   1    -0.304006532225E+03    0.12442E-08   -0.19640E-10   294   0.224E-10    0.227E-10
RMM:   2    -0.304006532226E+03   -0.76398E-09    0.00000E+00     1   0.857E-11
 107 F= -.30400653E+03 E0= -.30405334E+03  d E =0.800355E-10
quench:  g(F)=  0.000E+00 g(S)=  0.000E+00 dE (1.order)= 0.000E+00
 bond charge predicted
       N       E                     dE             d eps       ncg     rms          rms(c)
DAV:   1    -0.304006532226E+03   -0.10696E-08   -0.57968E-11   294   0.269E-10    0.245E-10
RMM:   2    -0.304006532226E+03    0.29104E-09    0.00000E+00     1   0.856E-11
 108 F= -.30400653E+03 E0= -.30405334E+03  d E =-.145519E-10
quench:  g(F)=  0.000E+00 g(S)=  0.000E+00 dE (1.order)= 0.000E+00
 bond charge predicted
       N       E                     dE             d eps       ncg     rms          rms(c)
DAV:   1    -0.304006532226E+03    0.21828E-09    0.28784E-11   294   0.199E-10    0.233E-10
RMM:   2    -0.304006532226E+03   -0.21828E-10    0.00000E+00     1   0.698E-11
 109 F= -.30400653E+03 E0= -.30405334E+03  d E =-.945874E-10
quench:  g(F)=  0.000E+00 g(S)=  0.000E+00 dE (1.order)= 0.000E+00
 bond charge predicted
       N       E                     dE             d eps       ncg     rms          rms(c)
DAV:   1    -0.304006532225E+03    0.37835E-09    0.10488E-13   294   0.197E-10    0.197E-10
RMM:   2    -0.304006532226E+03   -0.32742E-09    0.00000E+00     1   0.715E-11
 110 F= -.30400653E+03 E0= -.30405334E+03  d E =0.727596E-10
quench:  g(F)=  0.000E+00 g(S)=  0.000E+00 dE (1.order)= 0.000E+00
 bond charge predicted
       N       E                     dE             d eps       ncg     rms          rms(c)
DAV:   1    -0.304006532224E+03    0.11860E-08    0.10763E-10   294   0.168E-10    0.249E-10
RMM:   2    -0.304006532226E+03   -0.15571E-08    0.00000E+00     1   0.786E-11
 111 F= -.30400653E+03 E0= -.30405334E+03  d E =-.436557E-10
quench:  g(F)=  0.000E+00 g(S)=  0.000E+00 dE (1.order)= 0.000E+00
 bond charge predicted
       N       E                     dE             d eps       ncg     rms          rms(c)
DAV:   1    -0.304006532225E+03   -0.11642E-08    0.85296E-11   294   0.204E-10    0.174E-10
RMM:   2    -0.304006532226E+03   -0.40018E-09    0.00000E+00     1   0.660E-11
 112 F= -.30400653E+03 E0= -.30405334E+03  d E =-.727596E-11
quench:  g(F)=  0.000E+00 g(S)=  0.000E+00 dE (1.order)= 0.000E+00
 bond charge predicted
       N       E                     dE             d eps       ncg     rms          rms(c)
DAV:   1    -0.304006532225E+03    0.54570E-09    0.13717E-10   294   0.163E-10    0.305E-10
RMM:   2    -0.304006532226E+03   -0.10186E-08    0.00000E+00     1   0.907E-11
 113 F= -.30400653E+03 E0= -.30405334E+03  d E =-.727596E-10
quench:  g(F)=  0.000E+00 g(S)=  0.000E+00 dE (1.order)= 0.000E+00
 bond charge predicted
       N       E                     dE             d eps       ncg     rms          rms(c)
DAV:   1    -0.304006532225E+03   -0.50932E-10    0.30678E-11   294   0.235E-10    0.205E-10
RMM:   2    -0.304006532226E+03   -0.88767E-09    0.00000E+00     1   0.757E-11
 114 F= -.30400653E+03 E0= -.30405334E+03  d E =0.800355E-10
quench:  g(F)=  0.000E+00 g(S)=  0.000E+00 dE (1.order)= 0.000E+00
 bond charge predicted
       N       E                     dE             d eps       ncg     rms          rms(c)
DAV:   1    -0.304006532226E+03   -0.85856E-09    0.21671E-10   294   0.189E-10    0.195E-10
RMM:   2    -0.304006532226E+03   -0.11642E-09    0.00000E+00     1   0.861E-11
 115 F= -.30400653E+03 E0= -.30405334E+03  d E =-.873115E-10
quench:  g(F)=  0.000E+00 g(S)=  0.000E+00 dE (1.order)= 0.000E+00
 bond charge predicted
       N       E                     dE             d eps       ncg     rms          rms(c)
DAV:   1    -0.304006532226E+03    0.11642E-09    0.27941E-11   294   0.241E-10    0.333E-10
RMM:   2    -0.304006532226E+03   -0.65484E-10    0.00000E+00     1   0.950E-11
 116 F= -.30400653E+03 E0= -.30405334E+03  d E =0.167347E-09
quench:  g(F)=  0.000E+00 g(S)=  0.000E+00 dE (1.order)= 0.000E+00
 bond charge predicted
       N       E                     dE             d eps       ncg     rms          rms(c)
DAV:   1    -0.304006532226E+03   -0.12369E-09   -0.12352E-10   294   0.189E-10    0.225E-10
RMM:   2    -0.304006532226E+03    0.50932E-10    0.00000E+00     1   0.832E-11
 117 F= -.30400653E+03 E0= -.30405334E+03  d E =-.727596E-11
quench:  g(F)=  0.000E+00 g(S)=  0.000E+00 dE (1.order)= 0.000E+00
 bond charge predicted
       N       E                     dE             d eps       ncg     rms          rms(c)
DAV:   1    -0.304006532226E+03    0.43656E-10   -0.18316E-10   294   0.192E-10    0.258E-10
RMM:   2    -0.304006532226E+03   -0.14552E-10    0.00000E+00     1   0.716E-11
 118 F= -.30400653E+03 E0= -.30405334E+03  d E =-.218279E-10
quench:  g(F)=  0.000E+00 g(S)=  0.000E+00 dE (1.order)= 0.000E+00
 bond charge predicted
       N       E                     dE             d eps       ncg     rms          rms(c)
DAV:   1    -0.304006532226E+03   -0.38563E-09   -0.13652E-10   294   0.216E-10    0.181E-10
RMM:   2    -0.304006532226E+03    0.32742E-09    0.00000E+00     1   0.689E-11
 119 F= -.30400653E+03 E0= -.30405334E+03  d E =-.436557E-10
quench:  g(F)=  0.000E+00 g(S)=  0.000E+00 dE (1.order)= 0.000E+00
 bond charge predicted
       N       E                     dE             d eps       ncg     rms          rms(c)
DAV:   1    -0.304006532227E+03   -0.46566E-09   -0.41829E-11   294   0.936E-11    0.352E-10
RMM:   2    -0.304006532226E+03    0.72032E-09    0.00000E+00     1   0.822E-11
 120 F= -.30400653E+03 E0= -.30405334E+03  d E =-.727596E-10
quench:  g(F)=  0.000E+00 g(S)=  0.000E+00 dE (1.order)= 0.000E+00
 bond charge predicted
       N       E                     dE             d eps       ncg     rms          rms(c)
DAV:   1    -0.304006532226E+03    0.68394E-09   -0.10919E-10   294   0.187E-10    0.379E-10
RMM:   2    -0.304006532226E+03    0.29104E-10    0.00000E+00     1   0.104E-10
 121 F= -.30400653E+03 E0= -.30405334E+03  d E =-.727596E-11
quench:  g(F)=  0.000E+00 g(S)=  0.000E+00 dE (1.order)= 0.000E+00
 bond charge predicted
       N       E                     dE             d eps       ncg     rms          rms(c)
DAV:   1    -0.304006532225E+03    0.96043E-09   -0.47680E-11   294   0.223E-10    0.193E-10
RMM:   2    -0.304006532226E+03   -0.84401E-09    0.00000E+00     1   0.769E-11
 122 F= -.30400653E+03 E0= -.30405334E+03  d E =0.873115E-10
quench:  g(F)=  0.000E+00 g(S)=  0.000E+00 dE (1.order)= 0.000E+00
 bond charge predicted
       N       E                     dE             d eps       ncg     rms          rms(c)
DAV:   1    -0.304006532227E+03   -0.16516E-08    0.13076E-10   294   0.148E-10    0.275E-10
RMM:   2    -0.304006532226E+03    0.86584E-09    0.00000E+00     1   0.859E-11
 123 F= -.30400653E+03 E0= -.30405334E+03  d E =0.582077E-10
quench:  g(F)=  0.000E+00 g(S)=  0.000E+00 dE (1.order)= 0.000E+00
 bond charge predicted
       N       E                     dE             d eps       ncg     rms          rms(c)
DAV:   1    -0.304006532225E+03    0.11569E-08   -0.13832E-10   294   0.133E-10    0.277E-10
RMM:   2    -0.304006532226E+03   -0.34925E-09    0.00000E+00     1   0.922E-11
 124 F= -.30400653E+03 E0= -.30405334E+03  d E =-.582077E-10
quench:  g(F)=  0.000E+00 g(S)=  0.000E+00 dE (1.order)= 0.000E+00
 bond charge predicted
       N       E                     dE             d eps       ncg     rms          rms(c)
DAV:   1    -0.304006532226E+03   -0.12369E-09    0.10723E-10   294   0.261E-10    0.256E-10
RMM:   2    -0.304006532226E+03   -0.22555E-09    0.00000E+00     1   0.106E-10
 125 F= -.30400653E+03 E0= -.30405334E+03  d E =0.000000E+00
quench:  g(F)=  0.000E+00 g(S)=  0.000E+00 dE (1.order)= 0.000E+00
 bond charge predicted
       N       E                     dE             d eps       ncg     rms          rms(c)
DAV:   1    -0.304006532227E+03   -0.16807E-08   -0.65840E-11   294   0.326E-10    0.315E-10
RMM:   2    -0.304006532226E+03    0.14770E-08    0.00000E+00     1   0.103E-10
 126 F= -.30400653E+03 E0= -.30405334E+03  d E =0.218279E-10
quench:  g(F)=  0.000E+00 g(S)=  0.000E+00 dE (1.order)= 0.000E+00
 bond charge predicted
       N       E                     dE             d eps       ncg     rms          rms(c)
DAV:   1    -0.304006532228E+03   -0.25466E-09   -0.58031E-11   294   0.274E-10    0.262E-10
RMM:   2    -0.304006532226E+03    0.16225E-08    0.00000E+00     1   0.935E-11
 127 F= -.30400653E+03 E0= -.30405334E+03  d E =-.109139E-09
quench:  g(F)=  0.000E+00 g(S)=  0.000E+00 dE (1.order)= 0.000E+00
 bond charge predicted
       N       E                     dE             d eps       ncg     rms          rms(c)
DAV:   1    -0.304006532226E+03    0.13752E-08    0.23665E-10   294   0.329E-10    0.183E-10
RMM:   2    -0.304006532226E+03    0.24011E-09    0.00000E+00     1   0.848E-11
 128 F= -.30400653E+03 E0= -.30405334E+03  d E =-.727596E-11
quench:  g(F)=  0.000E+00 g(S)=  0.000E+00 dE (1.order)= 0.000E+00
 bond charge predicted
       N       E                     dE             d eps       ncg     rms          rms(c)
DAV:   1    -0.304006532224E+03    0.22555E-08    0.10227E-11   294   0.193E-10    0.252E-10
RMM:   2    -0.304006532226E+03   -0.19645E-08    0.00000E+00     1   0.771E-11
 129 F= -.30400653E+03 E0= -.30405334E+03  d E =0.509317E-10
quench:  g(F)=  0.000E+00 g(S)=  0.000E+00 dE (1.order)= 0.000E+00
 bond charge predicted
       N       E                     dE             d eps       ncg     rms          rms(c)
DAV:   1    -0.304006532226E+03   -0.25975E-08    0.47805E-11   294   0.210E-10    0.282E-10
RMM:   2    -0.304006532226E+03    0.63301E-09    0.00000E+00     1   0.782E-11
 130 F= -.30400653E+03 E0= -.30405334E+03  d E =0.000000E+00
quench:  g(F)=  0.000E+00 g(S)=  0.000E+00 dE (1.order)= 0.000E+00
 bond charge predicted
       N       E                     dE             d eps       ncg     rms          rms(c)
DAV:   1    -0.304006532228E+03   -0.10696E-08    0.57873E-11   294   0.205E-10    0.199E-10
RMM:   2    -0.304006532226E+03    0.17317E-08    0.00000E+00     1   0.694E-11
 131 F= -.30400653E+03 E0= -.30405334E+03  d E =0.291038E-10
quench:  g(F)=  0.000E+00 g(S)=  0.000E+00 dE (1.order)= 0.000E+00
 bond charge predicted
       N       E                     dE             d eps       ncg     rms          rms(c)
DAV:   1    -0.304006532225E+03    0.22192E-08   -0.38609E-11   294   0.828E-11    0.319E-10
RMM:   2    -0.304006532226E+03   -0.48021E-09    0.00000E+00     1   0.696E-11
 132 F= -.30400653E+03 E0= -.30405334E+03  d E =0.727596E-11
quench:  g(F)=  0.000E+00 g(S)=  0.000E+00 dE (1.order)= 0.000E+00
 bond charge predicted
       N       E                     dE             d eps       ncg     rms          rms(c)
DAV:   1    -0.304006532225E+03   -0.72760E-11   -0.99842E-11   294   0.162E-10    0.239E-10
RMM:   2    -0.304006532226E+03   -0.42928E-09    0.00000E+00     1   0.669E-11
 133 F= -.30400653E+03 E0= -.30405334E+03  d E =0.436557E-10
quench:  g(F)=  0.000E+00 g(S)=  0.000E+00 dE (1.order)= 0.000E+00
 bond charge predicted
       N       E                     dE             d eps       ncg     rms          rms(c)
DAV:   1    -0.304006532226E+03   -0.19645E-09   -0.11396E-10   294   0.103E-10    0.354E-10
RMM:   2    -0.304006532226E+03   -0.24738E-09    0.00000E+00     1   0.802E-11
 134 F= -.30400653E+03 E0= -.30405334E+03  d E =-.145519E-10
quench:  g(F)=  0.000E+00 g(S)=  0.000E+00 dE (1.order)= 0.000E+00
 bond charge predicted
       N       E                     dE             d eps       ncg     rms          rms(c)
DAV:   1    -0.304006532225E+03    0.58935E-09    0.36606E-12   294   0.238E-10    0.337E-10
RMM:   2    -0.304006532226E+03   -0.92405E-09    0.00000E+00     1   0.846E-11
 135 F= -.30400653E+03 E0= -.30405334E+03  d E =-.873115E-10
quench:  g(F)=  0.000E+00 g(S)=  0.000E+00 dE (1.order)= 0.000E+00
 bond charge predicted
       N       E                     dE             d eps       ncg     rms          rms(c)
DAV:   1    -0.304006532225E+03   -0.50932E-09    0.88013E-11   294   0.319E-10    0.283E-10
RMM:   2    -0.304006532226E+03   -0.48021E-09    0.00000E+00     1   0.964E-11
 136 F= -.30400653E+03 E0= -.30405334E+03  d E =-.654836E-10
quench:  g(F)=  0.000E+00 g(S)=  0.000E+00 dE (1.order)= 0.000E+00
 bond charge predicted
       N       E                     dE             d eps       ncg     rms          rms(c)
DAV:   1    -0.304006532226E+03   -0.26193E-09   -0.82508E-11   294   0.392E-10    0.235E-10
RMM:   2    -0.304006532226E+03   -0.15280E-09    0.00000E+00     1   0.894E-11
 137 F= -.30400653E+03 E0= -.30405334E+03  d E =0.654836E-10
quench:  g(F)=  0.000E+00 g(S)=  0.000E+00 dE (1.order)= 0.000E+00
 bond charge predicted
       N       E                     dE             d eps       ncg     rms          rms(c)
DAV:   1    -0.304006532227E+03   -0.10914E-08    0.39020E-11   294   0.238E-10    0.313E-10
RMM:   2    -0.304006532226E+03    0.10114E-08    0.00000E+00     1   0.881E-11
 138 F= -.30400653E+03 E0= -.30405334E+03  d E =0.727596E-10
quench:  g(F)=  0.000E+00 g(S)=  0.000E+00 dE (1.order)= 0.000E+00
 bond charge predicted
       N       E                     dE             d eps       ncg     rms          rms(c)
DAV:   1    -0.304006532225E+03    0.19354E-08   -0.45864E-11   294   0.106E-10    0.306E-10
RMM:   2    -0.304006532226E+03   -0.94587E-09    0.00000E+00     1   0.856E-11
 139 F= -.30400653E+03 E0= -.30405334E+03  d E =-.218279E-10
quench:  g(F)=  0.000E+00 g(S)=  0.000E+00 dE (1.order)= 0.000E+00
 bond charge predicted
       N       E                     dE             d eps       ncg     rms          rms(c)
DAV:   1    -0.304006532225E+03    0.72760E-11   -0.11335E-10   294   0.287E-10    0.228E-10
RMM:   2    -0.304006532226E+03   -0.88039E-09    0.00000E+00     1   0.834E-11
 140 F= -.30400653E+03 E0= -.30405334E+03  d E =0.727596E-10
quench:  g(F)=  0.000E+00 g(S)=  0.000E+00 dE (1.order)= 0.000E+00
 bond charge predicted
       N       E                     dE             d eps       ncg     rms          rms(c)
DAV:   1    -0.304006532225E+03   -0.72760E-10   -0.15242E-11   294   0.267E-10    0.252E-10
RMM:   2    -0.304006532226E+03   -0.85856E-09    0.00000E+00     1   0.749E-11
 141 F= -.30400653E+03 E0= -.30405334E+03  d E =-.509317E-10
quench:  g(F)=  0.000E+00 g(S)=  0.000E+00 dE (1.order)= 0.000E+00
 bond charge predicted
       N       E                     dE             d eps       ncg     rms          rms(c)
DAV:   1    -0.304006532226E+03   -0.14988E-08    0.13618E-10   294   0.252E-10    0.231E-10
RMM:   2    -0.304006532226E+03    0.62573E-09    0.00000E+00     1   0.802E-11
 142 F= -.30400653E+03 E0= -.30405334E+03  d E =-.145519E-10
quench:  g(F)=  0.000E+00 g(S)=  0.000E+00 dE (1.order)= 0.000E+00
 bond charge predicted
       N       E                     dE             d eps       ncg     rms          rms(c)
DAV:   1    -0.304006532225E+03    0.15862E-08    0.16173E-10   294   0.217E-10    0.215E-10
RMM:   2    -0.304006532226E+03   -0.98953E-09    0.00000E+00     1   0.709E-11
 143 F= -.30400653E+03 E0= -.30405334E+03  d E =-.291038E-10
quench:  g(F)=  0.000E+00 g(S)=  0.000E+00 dE (1.order)= 0.000E+00
 bond charge predicted
       N       E                     dE             d eps       ncg     rms          rms(c)
DAV:   1    -0.304006532225E+03   -0.36380E-09    0.13762E-10   294   0.178E-10    0.239E-10
RMM:   2    -0.304006532226E+03   -0.66211E-09    0.00000E+00     1   0.803E-11
 144 F= -.30400653E+03 E0= -.30405334E+03  d E =-.363798E-10
quench:  g(F)=  0.000E+00 g(S)=  0.000E+00 dE (1.order)= 0.000E+00
 bond charge predicted
       N       E                     dE             d eps       ncg     rms          rms(c)
DAV:   1    -0.304006532227E+03   -0.15934E-08   -0.37081E-11   294   0.189E-10    0.324E-10
RMM:   2    -0.304006532226E+03    0.10186E-08    0.00000E+00     1   0.883E-11
 145 F= -.30400653E+03 E0= -.30405334E+03  d E =0.873115E-10
quench:  g(F)=  0.000E+00 g(S)=  0.000E+00 dE (1.order)= 0.000E+00
 bond charge predicted
       N       E                     dE             d eps       ncg     rms          rms(c)
DAV:   1    -0.304006532226E+03    0.10041E-08   -0.14560E-10   294   0.269E-10    0.190E-10
RMM:   2    -0.304006532226E+03    0.43656E-10    0.00000E+00     1   0.590E-11
 146 F= -.30400653E+03 E0= -.30405334E+03  d E =0.291038E-10
quench:  g(F)=  0.000E+00 g(S)=  0.000E+00 dE (1.order)= 0.000E+00
 bond charge predicted
       N       E                     dE             d eps       ncg     rms          rms(c)
DAV:   1    -0.304006532224E+03    0.13169E-08    0.40913E-11   294   0.125E-10    0.274E-10
RMM:   2    -0.304006532226E+03   -0.13242E-08    0.00000E+00     1   0.775E-11
 147 F= -.30400653E+03 E0= -.30405334E+03  d E =-.509317E-10
quench:  g(F)=  0.000E+00 g(S)=  0.000E+00 dE (1.order)= 0.000E+00
 bond charge predicted
       N       E                     dE             d eps       ncg     rms          rms(c)
DAV:   1    -0.304006532226E+03   -0.12806E-08    0.12270E-10   294   0.313E-10    0.250E-10
RMM:   2    -0.304006532226E+03   -0.50932E-10    0.00000E+00     1   0.741E-11
 148 F= -.30400653E+03 E0= -.30405334E+03  d E =-.727596E-11
quench:  g(F)=  0.000E+00 g(S)=  0.000E+00 dE (1.order)= 0.000E+00
 bond charge predicted
       N       E                     dE             d eps       ncg     rms          rms(c)
DAV:   1    -0.304006532226E+03   -0.21828E-09   -0.61459E-12   294   0.215E-10    0.145E-10
RMM:   2    -0.304006532226E+03    0.10186E-09    0.00000E+00     1   0.665E-11
 149 F= -.30400653E+03 E0= -.30405334E+03  d E =-.654836E-10
quench:  g(F)=  0.000E+00 g(S)=  0.000E+00 dE (1.order)= 0.000E+00
 bond charge predicted
       N       E                     dE             d eps       ncg     rms          rms(c)
DAV:   1    -0.304006532226E+03   -0.42201E-09   -0.95109E-11   294   0.105E-10    0.295E-10
RMM:   2    -0.304006532226E+03    0.48749E-09    0.00000E+00     1   0.796E-11
 150 F= -.30400653E+03 E0= -.30405334E+03  d E =-.363798E-10
quench:  g(F)=  0.000E+00 g(S)=  0.000E+00 dE (1.order)= 0.000E+00
 bond charge predicted
       N       E                     dE             d eps       ncg     rms          rms(c)
DAV:   1    -0.304006532227E+03   -0.16735E-09   -0.20167E-11   294   0.321E-10    0.225E-10
RMM:   2    -0.304006532226E+03    0.70577E-09    0.00000E+00     1   0.897E-11
 151 F= -.30400653E+03 E0= -.30405334E+03  d E =0.509317E-10
quench:  g(F)=  0.000E+00 g(S)=  0.000E+00 dE (1.order)= 0.000E+00
 bond charge predicted
       N       E                     dE             d eps       ncg     rms          rms(c)
DAV:   1    -0.304006532226E+03    0.40018E-09    0.45783E-11   294   0.291E-10    0.204E-10
RMM:   2    -0.304006532226E+03    0.26921E-09    0.00000E+00     1   0.660E-11
 152 F= -.30400653E+03 E0= -.30405334E+03  d E =-.363798E-10
quench:  g(F)=  0.000E+00 g(S)=  0.000E+00 dE (1.order)= 0.000E+00
 bond charge predicted
       N       E                     dE             d eps       ncg     rms          rms(c)
DAV:   1    -0.304006532227E+03   -0.59663E-09   -0.31321E-11   294   0.152E-10    0.335E-10
RMM:   2    -0.304006532226E+03    0.10041E-08    0.00000E+00     1   0.909E-11
 153 F= -.30400653E+03 E0= -.30405334E+03  d E =0.138243E-09
quench:  g(F)=  0.000E+00 g(S)=  0.000E+00 dE (1.order)= 0.000E+00
 bond charge predicted
       N       E                     dE             d eps       ncg     rms          rms(c)
DAV:   1    -0.304006532225E+03    0.18263E-08    0.57309E-11   294   0.291E-10    0.314E-10
RMM:   2    -0.304006532226E+03   -0.81491E-09    0.00000E+00     1   0.851E-11
 154 F= -.30400653E+03 E0= -.30405334E+03  d E =0.727596E-11
quench:  g(F)=  0.000E+00 g(S)=  0.000E+00 dE (1.order)= 0.000E+00
 bond charge predicted
       N       E                     dE             d eps       ncg     rms          rms(c)
DAV:   1    -0.304006532225E+03    0.23283E-09   -0.61349E-11   294   0.212E-10    0.232E-10
RMM:   2    -0.304006532226E+03   -0.11423E-08    0.00000E+00     1   0.808E-11
 155 F= -.30400653E+03 E0= -.30405334E+03  d E =-.945874E-10
quench:  g(F)=  0.000E+00 g(S)=  0.000E+00 dE (1.order)= 0.000E+00
 bond charge predicted
       N       E                     dE             d eps       ncg     rms          rms(c)
DAV:   1    -0.304006532227E+03   -0.22264E-08   -0.12249E-10   294   0.224E-10    0.278E-10
RMM:   2    -0.304006532226E+03    0.10623E-08    0.00000E+00     1   0.864E-11
 156 F= -.30400653E+03 E0= -.30405334E+03  d E =-.218279E-10
quench:  g(F)=  0.000E+00 g(S)=  0.000E+00 dE (1.order)= 0.000E+00
 bond charge predicted
       N       E                     dE             d eps       ncg     rms          rms(c)
DAV:   1    -0.304006532225E+03    0.18263E-08   -0.57316E-14   294   0.242E-10    0.395E-10
RMM:   2    -0.304006532226E+03   -0.81491E-09    0.00000E+00     1   0.109E-10
 157 F= -.30400653E+03 E0= -.30405334E+03  d E =-.509317E-10
quench:  g(F)=  0.000E+00 g(S)=  0.000E+00 dE (1.order)= 0.000E+00
 bond charge predicted
       N       E                     dE             d eps       ncg     rms          rms(c)
DAV:   1    -0.304006532225E+03    0.65484E-10    0.38366E-11   294   0.384E-10    0.387E-10
RMM:   2    -0.304006532226E+03   -0.71304E-09    0.00000E+00     1   0.114E-10
 158 F= -.30400653E+03 E0= -.30405334E+03  d E =0.167347E-09
quench:  g(F)=  0.000E+00 g(S)=  0.000E+00 dE (1.order)= 0.000E+00
 bond charge predicted
       N       E                     dE             d eps       ncg     rms          rms(c)
DAV:   1    -0.304006532225E+03   -0.18917E-09   -0.54971E-11   294   0.398E-10    0.239E-10
RMM:   2    -0.304006532226E+03   -0.66939E-09    0.00000E+00     1   0.871E-11
 159 F= -.30400653E+03 E0= -.30405334E+03  d E =-.145519E-09
quench:  g(F)=  0.000E+00 g(S)=  0.000E+00 dE (1.order)= 0.000E+00
 bond charge predicted
       N       E                     dE             d eps       ncg     rms          rms(c)
DAV:   1    -0.304006532226E+03   -0.45111E-09    0.77404E-11   294   0.213E-10    0.334E-10
RMM:   2    -0.304006532226E+03   -0.11642E-09    0.00000E+00     1   0.102E-10
 160 F= -.30400653E+03 E0= -.30405334E+03  d E =0.101863E-09
quench:  g(F)=  0.000E+00 g(S)=  0.000E+00 dE (1.order)= 0.000E+00
 bond charge predicted
       N       E                     dE             d eps       ncg     rms          rms(c)
DAV:   1    -0.304006532226E+03   -0.31287E-09   -0.19747E-10   294   0.379E-10    0.362E-10
RMM:   2    -0.304006532226E+03    0.18190E-09    0.00000E+00     1   0.103E-10
 161 F= -.30400653E+03 E0= -.30405334E+03  d E =-.145519E-10
quench:  g(F)=  0.000E+00 g(S)=  0.000E+00 dE (1.order)= 0.000E+00
 bond charge predicted
       N       E                     dE             d eps       ncg     rms          rms(c)
DAV:   1    -0.304006532227E+03   -0.53114E-09   -0.19609E-10   294   0.230E-10    0.196E-10
RMM:   2    -0.304006532226E+03    0.73487E-09    0.00000E+00     1   0.898E-11
 162 F= -.30400653E+03 E0= -.30405334E+03  d E =0.218279E-10
quench:  g(F)=  0.000E+00 g(S)=  0.000E+00 dE (1.order)= 0.000E+00
 bond charge predicted
       N       E                     dE             d eps       ncg     rms          rms(c)
DAV:   1    -0.304006532225E+03    0.17462E-08    0.24030E-12   294   0.175E-10    0.253E-10
RMM:   2    -0.304006532226E+03   -0.10987E-08    0.00000E+00     1   0.667E-11
 163 F= -.30400653E+03 E0= -.30405334E+03  d E =-.873115E-10
quench:  g(F)=  0.000E+00 g(S)=  0.000E+00 dE (1.order)= 0.000E+00
 bond charge predicted
       N       E                     dE             d eps       ncg     rms          rms(c)
DAV:   1    -0.304006532226E+03   -0.10477E-08    0.13261E-10   294   0.167E-10    0.303E-10
RMM:   2    -0.304006532226E+03   -0.72760E-11    0.00000E+00     1   0.816E-11
 164 F= -.30400653E+03 E0= -.30405334E+03  d E =0.436557E-10
quench:  g(F)=  0.000E+00 g(S)=  0.000E+00 dE (1.order)= 0.000E+00
 bond charge predicted
       N       E                     dE             d eps       ncg     rms          rms(c)
DAV:   1    -0.304006532225E+03    0.77125E-09   -0.39342E-12   294   0.315E-10    0.172E-10
RMM:   2    -0.304006532226E+03   -0.85129E-09    0.00000E+00     1   0.801E-11
 165 F= -.30400653E+03 E0= -.30405334E+03  d E =-.727596E-10
quench:  g(F)=  0.000E+00 g(S)=  0.000E+00 dE (1.order)= 0.000E+00
 bond charge predicted
       N       E                     dE             d eps       ncg     rms          rms(c)
DAV:   1    -0.304006532226E+03   -0.85129E-09    0.20060E-11   294   0.163E-10    0.287E-10
RMM:   2    -0.304006532226E+03    0.94587E-10    0.00000E+00     1   0.726E-11
 166 F= -.30400653E+03 E0= -.30405334E+03  d E =0.945874E-10
quench:  g(F)=  0.000E+00 g(S)=  0.000E+00 dE (1.order)= 0.000E+00
 bond charge predicted
       N       E                     dE             d eps       ncg     rms          rms(c)
DAV:   1    -0.304006532227E+03   -0.10332E-08   -0.31411E-11   294   0.205E-10    0.272E-10
RMM:   2    -0.304006532226E+03    0.10914E-08    0.00000E+00     1   0.790E-11
 167 F= -.30400653E+03 E0= -.30405334E+03  d E =-.363798E-10
quench:  g(F)=  0.000E+00 g(S)=  0.000E+00 dE (1.order)= 0.000E+00
 bond charge predicted
       N       E                     dE             d eps       ncg     rms          rms(c)
DAV:   1    -0.304006532225E+03    0.18117E-08   -0.11380E-10   294   0.260E-10    0.209E-10
RMM:   2    -0.304006532226E+03   -0.65484E-09    0.00000E+00     1   0.815E-11
 168 F= -.30400653E+03 E0= -.30405334E+03  d E =0.654836E-10
quench:  g(F)=  0.000E+00 g(S)=  0.000E+00 dE (1.order)= 0.000E+00
 bond charge predicted
       N       E                     dE             d eps       ncg     rms          rms(c)
DAV:   1    -0.304006532226E+03   -0.66211E-09    0.14330E-10   294   0.189E-10    0.266E-10
RMM:   2    -0.304006532226E+03    0.36380E-10    0.00000E+00     1   0.803E-11
 169 F= -.30400653E+03 E0= -.30405334E+03  d E =0.291038E-10
quench:  g(F)=  0.000E+00 g(S)=  0.000E+00 dE (1.order)= 0.000E+00
 bond charge predicted
       N       E                     dE             d eps       ncg     rms          rms(c)
DAV:   1    -0.304006532226E+03   -0.17462E-09    0.34957E-11   294   0.229E-10    0.229E-10
RMM:   2    -0.304006532226E+03    0.17462E-09    0.00000E+00     1   0.757E-11
 170 F= -.30400653E+03 E0= -.30405334E+03  d E =-.363798E-10
quench:  g(F)=  0.000E+00 g(S)=  0.000E+00 dE (1.order)= 0.000E+00
 bond charge predicted
       N       E                     dE             d eps       ncg     rms          rms(c)
DAV:   1    -0.304006532225E+03    0.10405E-08   -0.80403E-12   294   0.269E-10    0.144E-10
RMM:   2    -0.304006532226E+03   -0.92405E-09    0.00000E+00     1   0.625E-11
 171 F= -.30400653E+03 E0= -.30405334E+03  d E =-.582077E-10
quench:  g(F)=  0.000E+00 g(S)=  0.000E+00 dE (1.order)= 0.000E+00
 bond charge predicted
       N       E                     dE             d eps       ncg     rms          rms(c)
DAV:   1    -0.304006532227E+03   -0.18117E-08    0.95739E-11   294   0.129E-10    0.216E-10
RMM:   2    -0.304006532226E+03    0.85129E-09    0.00000E+00     1   0.764E-11
 172 F= -.30400653E+03 E0= -.30405334E+03  d E =-.363798E-10
quench:  g(F)=  0.000E+00 g(S)=  0.000E+00 dE (1.order)= 0.000E+00
 bond charge predicted
       N       E                     dE             d eps       ncg     rms          rms(c)
DAV:   1    -0.304006532226E+03    0.68394E-09    0.46169E-11   294   0.233E-10    0.185E-10
RMM:   2    -0.304006532226E+03    0.30559E-09    0.00000E+00     1   0.728E-11
 173 F= -.30400653E+03 E0= -.30405334E+03  d E =0.138243E-09
quench:  g(F)=  0.000E+00 g(S)=  0.000E+00 dE (1.order)= 0.000E+00
 bond charge predicted
       N       E                     dE             d eps       ncg     rms          rms(c)
DAV:   1    -0.304006532225E+03    0.12515E-08   -0.69059E-11   294   0.172E-10    0.286E-10
RMM:   2    -0.304006532226E+03   -0.10768E-08    0.00000E+00     1   0.966E-11
 174 F= -.30400653E+03 E0= -.30405334E+03  d E =-.130967E-09
quench:  g(F)=  0.000E+00 g(S)=  0.000E+00 dE (1.order)= 0.000E+00
 bond charge predicted
       N       E                     dE             d eps       ncg     rms          rms(c)
DAV:   1    -0.304006532226E+03   -0.14479E-08   -0.19495E-10   294   0.276E-10    0.250E-10
RMM:   2    -0.304006532226E+03    0.46566E-09    0.00000E+00     1   0.754E-11
 175 F= -.30400653E+03 E0= -.30405334E+03  d E =0.945874E-10
quench:  g(F)=  0.000E+00 g(S)=  0.000E+00 dE (1.order)= 0.000E+00
 bond charge predicted
       N       E                     dE             d eps       ncg     rms          rms(c)
DAV:   1    -0.304006532225E+03    0.12806E-08   -0.19666E-10   294   0.231E-10    0.184E-10
RMM:   2    -0.304006532226E+03   -0.80036E-09    0.00000E+00     1   0.731E-11
 176 F= -.30400653E+03 E0= -.30405334E+03  d E =0.145519E-10
quench:  g(F)=  0.000E+00 g(S)=  0.000E+00 dE (1.order)= 0.000E+00
 bond charge predicted
       N       E                     dE             d eps       ncg     rms          rms(c)
DAV:   1    -0.304006532227E+03   -0.23938E-08    0.23512E-11   294   0.173E-10    0.299E-10
RMM:   2    -0.304006532226E+03    0.15571E-08    0.00000E+00     1   0.961E-11
 177 F= -.30400653E+03 E0= -.30405334E+03  d E =-.363798E-10
quench:  g(F)=  0.000E+00 g(S)=  0.000E+00 dE (1.order)= 0.000E+00
 bond charge predicted
       N       E                     dE             d eps       ncg     rms          rms(c)
DAV:   1    -0.304006532226E+03    0.16516E-08   -0.32431E-11   294   0.271E-10    0.206E-10
RMM:   2    -0.304006532226E+03   -0.18190E-09    0.00000E+00     1   0.725E-11
 178 F= -.30400653E+03 E0= -.30405334E+03  d E =-.873115E-10
quench:  g(F)=  0.000E+00 g(S)=  0.000E+00 dE (1.order)= 0.000E+00
 bond charge predicted
       N       E                     dE             d eps       ncg     rms          rms(c)
DAV:   1    -0.304006532226E+03   -0.17462E-09   -0.29534E-12   294   0.165E-10    0.211E-10
RMM:   2    -0.304006532226E+03    0.00000E+00    0.00000E+00     1   0.689E-11
 179 F= -.30400653E+03 E0= -.30405334E+03  d E =0.727596E-11
quench:  g(F)=  0.000E+00 g(S)=  0.000E+00 dE (1.order)= 0.000E+00
 bond charge predicted
       N       E                     dE             d eps       ncg     rms          rms(c)
DAV:   1    -0.304006532225E+03    0.50204E-09    0.64646E-11   294   0.207E-10    0.223E-10
RMM:   2    -0.304006532226E+03   -0.42201E-09    0.00000E+00     1   0.905E-11
 180 F= -.30400653E+03 E0= -.30405334E+03  d E =0.800355E-10
quench:  g(F)=  0.000E+00 g(S)=  0.000E+00 dE (1.order)= 0.000E+00
 bond charge predicted
       N       E                     dE             d eps       ncg     rms          rms(c)
DAV:   1    -0.304006532226E+03   -0.16735E-09   -0.18647E-10   294   0.278E-10    0.217E-10
RMM:   2    -0.304006532226E+03   -0.26193E-09    0.00000E+00     1   0.771E-11
 181 F= -.30400653E+03 E0= -.30405334E+03  d E =-.727596E-11
quench:  g(F)=  0.000E+00 g(S)=  0.000E+00 dE (1.order)= 0.000E+00
 bond charge predicted
       N       E                     dE             d eps       ncg     rms          rms(c)
DAV:   1    -0.304006532227E+03   -0.14043E-08   -0.30454E-11   294   0.116E-10    0.316E-10
RMM:   2    -0.304006532226E+03    0.11496E-08    0.00000E+00     1   0.737E-11
 182 F= -.30400653E+03 E0= -.30405334E+03  d E =0.727596E-11
quench:  g(F)=  0.000E+00 g(S)=  0.000E+00 dE (1.order)= 0.000E+00
 bond charge predicted
       N       E                     dE             d eps       ncg     rms          rms(c)
DAV:   1    -0.304006532226E+03    0.47294E-09    0.12995E-10   294   0.233E-10    0.275E-10
RMM:   2    -0.304006532226E+03    0.56752E-09    0.00000E+00     1   0.795E-11
 183 F= -.30400653E+03 E0= -.30405334E+03  d E =-.109139E-09
quench:  g(F)=  0.000E+00 g(S)=  0.000E+00 dE (1.order)= 0.000E+00
 bond charge predicted
       N       E                     dE             d eps       ncg     rms          rms(c)
DAV:   1    -0.304006532227E+03   -0.24011E-09    0.43309E-11   294   0.267E-10    0.238E-10
RMM:   2    -0.304006532226E+03    0.89494E-09    0.00000E+00     1   0.874E-11
[...]
 bond charge predicted
       N       E                     dE             d eps       ncg     rms          rms(c)
DAV:   1    -0.304006532226E+03   -0.91677E-09    0.87106E-11   294   0.352E-10    0.172E-10
RMM:   2    -0.304006532226E+03    0.62573E-09    0.00000E+00     0   0.733E-11
 453 F= -.30400653E+03 E0= -.30405334E+03  d E =0.145519E-10
quench:  g(F)=  0.000E+00 g(S)=  0.000E+00 dE (1.order)= 0.000E+00
 bond charge predicted
       N       E                     dE             d eps       ncg     rms          rms(c)
DAV:   1    -0.304006532226E+03    0.58935E-09    0.17476E-10   294   0.181E-10    0.277E-10
RMM:   2    -0.304006532226E+03   -0.72760E-11    0.00000E+00     0   0.799E-11
 454 F= -.30400653E+03 E0= -.30405334E+03  d E =-.436557E-10
quench:  g(F)=  0.000E+00 g(S)=  0.000E+00 dE (1.order)= 0.000E+00
 bond charge predicted
       N       E                     dE             d eps       ncg     rms          rms(c)
DAV:   1    -0.304006532226E+03   -0.30559E-09    0.15062E-11   294   0.281E-10    0.180E-10
RMM:   2    -0.304006532226E+03    0.37107E-09    0.00000E+00     0   0.830E-11
 455 F= -.30400653E+03 E0= -.30405334E+03  d E =0.727596E-10
quench:  g(F)=  0.000E+00 g(S)=  0.000E+00 dE (1.order)= 0.000E+00
 bond charge predicted
       N       E                     dE             d eps       ncg     rms          rms(c)
DAV:   1    -0.304006532225E+03    0.97498E-09    0.64541E-11   294   0.182E-10    0.246E-10
RMM:   2    -0.304006532226E+03   -0.63301E-09    0.00000E+00     0   0.996E-11
 456 F= -.30400653E+03 E0= -.30405334E+03  d E =-.291038E-10
quench:  g(F)=  0.000E+00 g(S)=  0.000E+00 dE (1.order)= 0.000E+00
 bond charge predicted
       N       E                     dE             d eps       ncg     rms          rms(c)
DAV:   1    -0.304006532225E+03    0.32742E-09   -0.22855E-11   294   0.313E-10    0.200E-10
RMM:   2    -0.304006532226E+03   -0.98953E-09    0.00000E+00     0   0.835E-11
 457 F= -.30400653E+03 E0= -.30405334E+03  d E =-.291038E-10
quench:  g(F)=  0.000E+00 g(S)=  0.000E+00 dE (1.order)= 0.000E+00
 bond charge predicted
       N       E                     dE             d eps       ncg     rms          rms(c)
DAV:   1    -0.304006532225E+03   -0.54570E-09    0.13382E-10   294   0.244E-10    0.327E-10
RMM:   2    -0.304006532226E+03   -0.45839E-09    0.00000E+00     0   0.115E-10
 458 F= -.30400653E+03 E0= -.30405334E+03  d E =-.145519E-10
quench:  g(F)=  0.000E+00 g(S)=  0.000E+00 dE (1.order)= 0.000E+00
 bond charge predicted
       N       E                     dE             d eps       ncg     rms          rms(c)
DAV:   1    -0.304006532226E+03   -0.26193E-09    0.12473E-10   294   0.390E-10    0.229E-10
RMM:   2    -0.304006532226E+03   -0.58208E-10    0.00000E+00     0   0.923E-11
 459 F= -.30400653E+03 E0= -.30405334E+03  d E =0.138243E-09
quench:  g(F)=  0.000E+00 g(S)=  0.000E+00 dE (1.order)= 0.000E+00
 bond charge predicted
       N       E                     dE             d eps       ncg     rms          rms(c)
DAV:   1    -0.304006532226E+03   -0.26921E-09    0.13805E-10   294   0.241E-10    0.345E-10
RMM:   2    -0.304006532226E+03    0.18190E-09    0.00000E+00     0   0.103E-10
 460 F= -.30400653E+03 E0= -.30405334E+03  d E =-.291038E-10
quench:  g(F)=  0.000E+00 g(S)=  0.000E+00 dE (1.order)= 0.000E+00
 bond charge predicted
       N       E                     dE             d eps       ncg     rms          rms(c)
DAV:   1    -0.304006532226E+03   -0.32742E-09   -0.36615E-11   294   0.403E-10    0.244E-10
RMM:   2    -0.304006532226E+03    0.46566E-09    0.00000E+00     0   0.928E-11
 461 F= -.30400653E+03 E0= -.30405334E+03  d E =-.436557E-10
quench:  g(F)=  0.000E+00 g(S)=  0.000E+00 dE (1.order)= 0.000E+00
 bond charge predicted
       N       E                     dE             d eps       ncg     rms          rms(c)
DAV:   1    -0.304006532225E+03    0.97498E-09   -0.20520E-11   294   0.250E-10    0.232E-10
RMM:   2    -0.304006532226E+03   -0.59663E-09    0.00000E+00     0   0.804E-11
 462 F= -.30400653E+03 E0= -.30405334E+03  d E =-.873115E-10
quench:  g(F)=  0.000E+00 g(S)=  0.000E+00 dE (1.order)= 0.000E+00
 bond charge predicted
       N       E                     dE             d eps       ncg     rms          rms(c)
DAV:   1    -0.304006532227E+03   -0.19718E-08    0.10075E-10   294   0.215E-10    0.194E-10
RMM:   2    -0.304006532226E+03    0.14916E-08    0.00000E+00     0   0.849E-11
 463 F= -.30400653E+03 E0= -.30405334E+03  d E =0.116415E-09
quench:  g(F)=  0.000E+00 g(S)=  0.000E+00 dE (1.order)= 0.000E+00
 bond charge predicted
       N       E                     dE             d eps       ncg     rms          rms(c)
DAV:   1    -0.304006532227E+03    0.66939E-09   -0.54254E-11   294   0.158E-10    0.213E-10
RMM:   2    -0.304006532226E+03    0.79308E-09    0.00000E+00     0   0.752E-11
 464 F= -.30400653E+03 E0= -.30405334E+03  d E =-.291038E-10
quench:  g(F)=  0.000E+00 g(S)=  0.000E+00 dE (1.order)= 0.000E+00
 bond charge predicted
       N       E                     dE             d eps       ncg     rms          rms(c)
DAV:   1    -0.304006532225E+03    0.14552E-08   -0.72201E-11   294   0.172E-10    0.160E-10
RMM:   2    -0.304006532226E+03   -0.58208E-09    0.00000E+00     0   0.609E-11
 465 F= -.30400653E+03 E0= -.30405334E+03  d E =0.800355E-10
quench:  g(F)=  0.000E+00 g(S)=  0.000E+00 dE (1.order)= 0.000E+00
 bond charge predicted
       N       E                     dE             d eps       ncg     rms          rms(c)
DAV:   1    -0.304006532227E+03   -0.16444E-08   -0.60762E-11   294   0.130E-10    0.317E-10
RMM:   2    -0.304006532226E+03    0.10186E-08    0.00000E+00     0   0.800E-11
 466 F= -.30400653E+03 E0= -.30405334E+03  d E =-.436557E-10
quench:  g(F)=  0.000E+00 g(S)=  0.000E+00 dE (1.order)= 0.000E+00
 bond charge predicted
       N       E                     dE             d eps       ncg     rms          rms(c)
DAV:   1    -0.304006532227E+03    0.28376E-09   -0.10521E-10   294   0.186E-10    0.185E-10
RMM:   2    -0.304006532226E+03    0.64756E-09    0.00000E+00     0   0.704E-11
 467 F= -.30400653E+03 E0= -.30405334E+03  d E =-.873115E-10
quench:  g(F)=  0.000E+00 g(S)=  0.000E+00 dE (1.order)= 0.000E+00
 bond charge predicted
       N       E                     dE             d eps       ncg     rms          rms(c)
DAV:   1    -0.304006532227E+03   -0.37107E-09    0.18087E-11   294   0.137E-10    0.281E-10
RMM:   2    -0.304006532226E+03    0.10696E-08    0.00000E+00     0   0.752E-11
 468 F= -.30400653E+03 E0= -.30405334E+03  d E =0.509317E-10
quench:  g(F)=  0.000E+00 g(S)=  0.000E+00 dE (1.order)= 0.000E+00
 bond charge predicted
       N       E                     dE             d eps       ncg     rms          rms(c)
DAV:   1    -0.304006532225E+03    0.17462E-08    0.25334E-10   294   0.196E-10    0.262E-10
RMM:   2    -0.304006532226E+03   -0.63301E-09    0.00000E+00     0   0.888E-11
 469 F= -.30400653E+03 E0= -.30405334E+03  d E =0.436557E-10
quench:  g(F)=  0.000E+00 g(S)=  0.000E+00 dE (1.order)= 0.000E+00
 bond charge predicted
       N       E                     dE             d eps       ncg     rms          rms(c)
DAV:   1    -0.304006532227E+03   -0.19209E-08    0.40444E-11   294   0.356E-10    0.248E-10
RMM:   2    -0.304006532226E+03    0.12806E-08    0.00000E+00     0   0.928E-11
 470 F= -.30400653E+03 E0= -.30405334E+03  d E =-.727596E-11
quench:  g(F)=  0.000E+00 g(S)=  0.000E+00 dE (1.order)= 0.000E+00
 bond charge predicted
       N       E                     dE             d eps       ncg     rms          rms(c)
DAV:   1    -0.304006532227E+03    0.34925E-09   -0.30247E-11   294   0.278E-10    0.253E-10
RMM:   2    -0.304006532226E+03    0.84401E-09    0.00000E+00     0   0.802E-11
 471 F= -.30400653E+03 E0= -.30405334E+03  d E =-.873115E-10
quench:  g(F)=  0.000E+00 g(S)=  0.000E+00 dE (1.order)= 0.000E+00
 bond charge predicted
       N       E                     dE             d eps       ncg     rms          rms(c)
DAV:   1    -0.304006532225E+03    0.20009E-08   -0.70688E-11   294   0.329E-10    0.292E-10
RMM:   2    -0.304006532226E+03   -0.11642E-08    0.00000E+00     0   0.898E-11
 472 F= -.30400653E+03 E0= -.30405334E+03  d E =-.727596E-11
quench:  g(F)=  0.000E+00 g(S)=  0.000E+00 dE (1.order)= 0.000E+00
 bond charge predicted
       N       E                     dE             d eps       ncg     rms          rms(c)
DAV:   1    -0.304006532226E+03   -0.16807E-08   -0.16859E-10   294   0.274E-10    0.243E-10
RMM:   2    -0.304006532226E+03    0.48021E-09    0.00000E+00     0   0.986E-11
 473 F= -.30400653E+03 E0= -.30405334E+03  d E =-.363798E-10
quench:  g(F)=  0.000E+00 g(S)=  0.000E+00 dE (1.order)= 0.000E+00
 bond charge predicted
       N       E                     dE             d eps       ncg     rms          rms(c)
DAV:   1    -0.304006532226E+03    0.61846E-09   -0.51346E-11   294   0.328E-10    0.327E-10
RMM:   2    -0.304006532226E+03   -0.21828E-10    0.00000E+00     0   0.102E-10
 474 F= -.30400653E+03 E0= -.30405334E+03  d E =0.116415E-09
quench:  g(F)=  0.000E+00 g(S)=  0.000E+00 dE (1.order)= 0.000E+00
 bond charge predicted
       N       E                     dE             d eps       ncg     rms          rms(c)
DAV:   1    -0.304006532226E+03   -0.43656E-09    0.22696E-10   294   0.261E-10    0.240E-10
RMM:   2    -0.304006532226E+03    0.39290E-09    0.00000E+00     0   0.783E-11
 475 F= -.30400653E+03 E0= -.30405334E+03  d E =-.218279E-10
quench:  g(F)=  0.000E+00 g(S)=  0.000E+00 dE (1.order)= 0.000E+00
 bond charge predicted
       N       E                     dE             d eps       ncg     rms          rms(c)
DAV:   1    -0.304006532226E+03    0.51659E-09    0.19562E-10   294   0.298E-10    0.241E-10
RMM:   2    -0.304006532226E+03   -0.87311E-10    0.00000E+00     0   0.864E-11
 476 F= -.30400653E+03 E0= -.30405334E+03  d E =0.363798E-10
quench:  g(F)=  0.000E+00 g(S)=  0.000E+00 dE (1.order)= 0.000E+00
 bond charge predicted
       N       E                     dE             d eps       ncg     rms          rms(c)
DAV:   1    -0.304006532226E+03   -0.56025E-09    0.28391E-11   294   0.324E-10    0.224E-10
RMM:   2    -0.304006532226E+03    0.53842E-09    0.00000E+00     0   0.895E-11
 477 F= -.30400653E+03 E0= -.30405334E+03  d E =0.654836E-10
quench:  g(F)=  0.000E+00 g(S)=  0.000E+00 dE (1.order)= 0.000E+00
 bond charge predicted
       N       E                     dE             d eps       ncg     rms          rms(c)
DAV:   1    -0.304006532225E+03    0.83674E-09   -0.61996E-11   294   0.311E-10    0.226E-10
RMM:   2    -0.304006532226E+03   -0.28376E-09    0.00000E+00     0   0.867E-11
 478 F= -.30400653E+03 E0= -.30405334E+03  d E =0.145519E-10
quench:  g(F)=  0.000E+00 g(S)=  0.000E+00 dE (1.order)= 0.000E+00
 bond charge predicted
       N       E                     dE             d eps       ncg     rms          rms(c)
DAV:   1    -0.304006532226E+03   -0.37107E-09   -0.14022E-10   294   0.284E-10    0.227E-10
RMM:   2    -0.304006532226E+03    0.58208E-10    0.00000E+00     0   0.721E-11
 479 F= -.30400653E+03 E0= -.30405334E+03  d E =-.291038E-10
quench:  g(F)=  0.000E+00 g(S)=  0.000E+00 dE (1.order)= 0.000E+00
 bond charge predicted
       N       E                     dE             d eps       ncg     rms          rms(c)
DAV:   1    -0.304006532226E+03    0.25466E-09    0.61745E-11   294   0.213E-10    0.196E-10
RMM:   2    -0.304006532226E+03   -0.32014E-09    0.00000E+00     0   0.630E-11
 480 F= -.30400653E+03 E0= -.30405334E+03  d E =-.123691E-09
quench:  g(F)=  0.000E+00 g(S)=  0.000E+00 dE (1.order)= 0.000E+00
 bond charge predicted
       N       E                     dE             d eps       ncg     rms          rms(c)
DAV:   1    -0.304006532225E+03    0.81491E-09    0.16745E-10   294   0.181E-10    0.348E-10
RMM:   2    -0.304006532226E+03   -0.11423E-08    0.00000E+00     0   0.933E-11
 481 F= -.30400653E+03 E0= -.30405334E+03  d E =-.727596E-11
quench:  g(F)=  0.000E+00 g(S)=  0.000E+00 dE (1.order)= 0.000E+00
 bond charge predicted
       N       E                     dE             d eps       ncg     rms          rms(c)
DAV:   1    -0.304006532224E+03    0.46566E-09   -0.12895E-10   294   0.199E-10    0.271E-10
RMM:   2    -0.304006532226E+03   -0.15789E-08    0.00000E+00     0   0.747E-11
 482 F= -.30400653E+03 E0= -.30405334E+03  d E =0.291038E-10
quench:  g(F)=  0.000E+00 g(S)=  0.000E+00 dE (1.order)= 0.000E+00
 bond charge predicted
       N       E                     dE             d eps       ncg     rms          rms(c)
DAV:   1    -0.304006532226E+03   -0.21319E-08   -0.68487E-12   294   0.194E-10    0.213E-10
RMM:   2    -0.304006532226E+03    0.64028E-09    0.00000E+00     0   0.672E-11
 483 F= -.30400653E+03 E0= -.30405334E+03  d E =0.873115E-10
quench:  g(F)=  0.000E+00 g(S)=  0.000E+00 dE (1.order)= 0.000E+00
 bond charge predicted
       N       E                     dE             d eps       ncg     rms          rms(c)
DAV:   1    -0.304006532226E+03    0.50204E-09   -0.10996E-10   294   0.168E-10    0.205E-10
RMM:   2    -0.304006532226E+03   -0.72760E-11    0.00000E+00     0   0.690E-11
 484 F= -.30400653E+03 E0= -.30405334E+03  d E =-.145519E-09
quench:  g(F)=  0.000E+00 g(S)=  0.000E+00 dE (1.order)= 0.000E+00
 bond charge predicted
       N       E                     dE             d eps       ncg     rms          rms(c)
DAV:   1    -0.304006532225E+03    0.77853E-09    0.92246E-11   294   0.140E-10    0.314E-10
RMM:   2    -0.304006532226E+03   -0.64756E-09    0.00000E+00     0   0.956E-11
 485 F= -.30400653E+03 E0= -.30405334E+03  d E =0.138243E-09
quench:  g(F)=  0.000E+00 g(S)=  0.000E+00 dE (1.order)= 0.000E+00
 bond charge predicted
       N       E                     dE             d eps       ncg     rms          rms(c)
DAV:   1    -0.304006532226E+03   -0.12078E-08    0.24309E-11   294   0.335E-10    0.326E-10
RMM:   2    -0.304006532226E+03    0.53114E-09    0.00000E+00     0   0.908E-11
 486 F= -.30400653E+03 E0= -.30405334E+03  d E =-.291038E-10
quench:  g(F)=  0.000E+00 g(S)=  0.000E+00 dE (1.order)= 0.000E+00
 bond charge predicted
       N       E                     dE             d eps       ncg     rms          rms(c)
DAV:   1    -0.304006532226E+03    0.29831E-09   -0.90105E-11   294   0.292E-10    0.289E-10
RMM:   2    -0.304006532226E+03    0.28376E-09    0.00000E+00     0   0.101E-10
 487 F= -.30400653E+03 E0= -.30405334E+03  d E =0.509317E-10
quench:  g(F)=  0.000E+00 g(S)=  0.000E+00 dE (1.order)= 0.000E+00
 bond charge predicted
       N       E                     dE             d eps       ncg     rms          rms(c)
DAV:   1    -0.304006532227E+03   -0.90949E-09   -0.42633E-11   294   0.365E-10    0.370E-10
RMM:   2    -0.304006532226E+03    0.11132E-08    0.00000E+00     0   0.126E-10
 488 F= -.30400653E+03 E0= -.30405334E+03  d E =-.800355E-10
quench:  g(F)=  0.000E+00 g(S)=  0.000E+00 dE (1.order)= 0.000E+00
 bond charge predicted
       N       E                     dE             d eps       ncg     rms          rms(c)
DAV:   1    -0.304006532226E+03    0.10623E-08   -0.48187E-11   294   0.400E-10    0.271E-10
RMM:   2    -0.304006532226E+03   -0.72760E-11    0.00000E+00     0   0.798E-11
 489 F= -.30400653E+03 E0= -.30405334E+03  d E =-.582077E-10
quench:  g(F)=  0.000E+00 g(S)=  0.000E+00 dE (1.order)= 0.000E+00
 bond charge predicted
       N       E                     dE             d eps       ncg     rms          rms(c)
DAV:   1    -0.304006532226E+03   -0.46566E-09    0.13472E-10   294   0.250E-10    0.349E-10
RMM:   2    -0.304006532226E+03    0.50204E-09    0.00000E+00     0   0.101E-10
 490 F= -.30400653E+03 E0= -.30405334E+03  d E =0.436557E-10
quench:  g(F)=  0.000E+00 g(S)=  0.000E+00 dE (1.order)= 0.000E+00
 bond charge predicted
       N       E                     dE             d eps       ncg     rms          rms(c)
DAV:   1    -0.304006532225E+03    0.96770E-09    0.89877E-11   294   0.258E-10    0.391E-10
RMM:   2    -0.304006532226E+03   -0.38563E-09    0.00000E+00     0   0.986E-11
 491 F= -.30400653E+03 E0= -.30405334E+03  d E =0.800355E-10
quench:  g(F)=  0.000E+00 g(S)=  0.000E+00 dE (1.order)= 0.000E+00
 bond charge predicted
       N       E                     dE             d eps       ncg     rms          rms(c)
DAV:   1    -0.304006532227E+03   -0.17972E-08    0.21295E-11   294   0.222E-10    0.306E-10
RMM:   2    -0.304006532226E+03    0.13024E-08    0.00000E+00     0   0.999E-11
 492 F= -.30400653E+03 E0= -.30405334E+03  d E =-.109139E-09
quench:  g(F)=  0.000E+00 g(S)=  0.000E+00 dE (1.order)= 0.000E+00
 bond charge predicted
       N       E                     dE             d eps       ncg     rms          rms(c)
DAV:   1    -0.304006532225E+03    0.20518E-08    0.57605E-11   294   0.344E-10    0.128E-10
RMM:   2    -0.304006532226E+03   -0.71304E-09    0.00000E+00     0   0.793E-11
 493 F= -.30400653E+03 E0= -.30405334E+03  d E =0.363798E-10
quench:  g(F)=  0.000E+00 g(S)=  0.000E+00 dE (1.order)= 0.000E+00
 bond charge predicted
       N       E                     dE             d eps       ncg     rms          rms(c)
DAV:   1    -0.304006532226E+03   -0.13679E-08    0.79085E-11   294   0.114E-10    0.335E-10
RMM:   2    -0.304006532226E+03    0.68394E-09    0.00000E+00     0   0.848E-11
 494 F= -.30400653E+03 E0= -.30405334E+03  d E =0.291038E-10
quench:  g(F)=  0.000E+00 g(S)=  0.000E+00 dE (1.order)= 0.000E+00
 bond charge predicted
       N       E                     dE             d eps       ncg     rms          rms(c)
DAV:   1    -0.304006532226E+03    0.60390E-09   -0.41696E-11   294   0.224E-10    0.209E-10
RMM:   2    -0.304006532226E+03   -0.14552E-10    0.00000E+00     0   0.664E-11
 495 F= -.30400653E+03 E0= -.30405334E+03  d E =-.945874E-10
quench:  g(F)=  0.000E+00 g(S)=  0.000E+00 dE (1.order)= 0.000E+00
 bond charge predicted
       N       E                     dE             d eps       ncg     rms          rms(c)
DAV:   1    -0.304006532226E+03   -0.20373E-09   -0.42507E-12   294   0.179E-10    0.300E-10
RMM:   2    -0.304006532226E+03    0.29831E-09    0.00000E+00     0   0.890E-11
 496 F= -.30400653E+03 E0= -.30405334E+03  d E =0.109139E-09
quench:  g(F)=  0.000E+00 g(S)=  0.000E+00 dE (1.order)= 0.000E+00
 bond charge predicted
       N       E                     dE             d eps       ncg     rms          rms(c)
DAV:   1    -0.304006532226E+03    0.14552E-09   -0.15763E-10   294   0.368E-10    0.162E-10
RMM:   2    -0.304006532226E+03    0.14552E-09    0.00000E+00     0   0.702E-11
 497 F= -.30400653E+03 E0= -.30405334E+03  d E =-.727596E-11
quench:  g(F)=  0.000E+00 g(S)=  0.000E+00 dE (1.order)= 0.000E+00
 bond charge predicted
       N       E                     dE             d eps       ncg     rms          rms(c)
DAV:   1    -0.304006532226E+03   -0.44383E-09    0.50556E-11   294   0.152E-10    0.246E-10
RMM:   2    -0.304006532226E+03    0.53842E-09    0.00000E+00     0   0.718E-11
 498 F= -.30400653E+03 E0= -.30405334E+03  d E =-.509317E-10
quench:  g(F)=  0.000E+00 g(S)=  0.000E+00 dE (1.order)= 0.000E+00
 bond charge predicted
       N       E                     dE             d eps       ncg     rms          rms(c)
DAV:   1    -0.304006532226E+03    0.14552E-09    0.26507E-11   294   0.205E-10    0.287E-10
RMM:   2    -0.304006532226E+03    0.45111E-09    0.00000E+00     0   0.961E-11
 499 F= -.30400653E+03 E0= -.30405334E+03  d E =0.582077E-10
quench:  g(F)=  0.000E+00 g(S)=  0.000E+00 dE (1.order)= 0.000E+00
 bond charge predicted
       N       E                     dE             d eps       ncg     rms          rms(c)
DAV:   1    -0.304006532226E+03    0.35652E-09    0.85025E-11   294   0.254E-10    0.232E-10
RMM:   2    -0.304006532226E+03    0.00000E+00    0.00000E+00     0   0.772E-11
 500 F= -.30400653E+03 E0= -.30405334E+03  d E =-.945874E-10
quench:  g(F)=  0.000E+00 g(S)=  0.000E+00 dE (1.order)= 0.000E+00
