  19  19   0   0
  0.2504161E+02  0.6834254E-09  0.8835925E-09  0.7880486E-09  0.0000000E+00
   1.0000000000000000E-004
  CAR 
 NEB_bottleneck                          
     10.16799059    -53.47798433  301      1.63674415      1.00000000
    -53.478  0.0000E+00  0.0000E+00
    -53.266  0.0000E+00  0.0000E+00
    -53.054  0.0000E+00  0.0000E+00
    -52.842  0.0000E+00  0.0000E+00
    -52.629  0.0000E+00  0.0000E+00
    -52.417  0.0000E+00  0.0000E+00
    -52.205 -0.6862E-30 -0.1456E-30
    -51.993 -0.5627E-23 -0.1194E-23
    -51.781 -0.4751E-17 -0.1008E-17
    -51.569 -0.3927E-12 -0.8330E-13
    -51.356 -0.3310E-08 -0.7024E-09
    -51.144 -0.2620E-05 -0.5566E-06
    -50.932 -0.1578E-03 -0.3403E-04
    -50.720  0.6237E-03  0.9829E-04
    -50.508  0.7088E-02  0.1602E-02
    -50.296  0.2158E-02  0.2060E-02
    -50.084 -0.2718E-03  0.2002E-02
    -49.871 -0.1054E-04  0.2000E-02
    -49.659 -0.2594E-07  0.2000E-02
    -49.447 -0.5819E-11  0.2000E-02
    -49.235 -0.1277E-15  0.2000E-02
    -49.023  0.0000E+00  0.2000E-02
    -48.811  0.0000E+00  0.2000E-02
    -48.598  0.0000E+00  0.2000E-02
    -48.386  0.0000E+00  0.2000E-02
    -48.174  0.0000E+00  0.2000E-02
    -47.962  0.0000E+00  0.2000E-02
    -47.750  0.0000E+00  0.2000E-02
    -47.538  0.0000E+00  0.2000E-02
    -47.326  0.0000E+00  0.2000E-02
    -47.113  0.0000E+00  0.2000E-02
    -46.901  0.0000E+00  0.2000E-02
    -46.689  0.0000E+00  0.2000E-02
    -46.477  0.0000E+00  0.2000E-02
    -46.265  0.0000E+00  0.2000E-02
    -46.053  0.0000E+00  0.2000E-02
    -45.840  0.0000E+00  0.2000E-02
    -45.628  0.0000E+00  0.2000E-02
    -45.416  0.0000E+00  0.2000E-02
    -45.204  0.0000E+00  0.2000E-02
    -44.992  0.0000E+00  0.2000E-02
    -44.780 -0.2446E-30  0.2000E-02
    -44.568 -0.2300E-23  0.2000E-02
    -44.355 -0.2227E-17  0.2000E-02
    -44.143 -0.2115E-12  0.2000E-02
    -43.931 -0.2052E-08  0.2000E-02
    -43.719 -0.1878E-05  0.2000E-02
    -43.507 -0.1343E-03  0.1971E-02
    -43.295  0.3928E-03  0.2054E-02
    -43.082  0.6821E-02  0.3502E-02
    -42.870  0.2420E-02  0.4015E-02
    -42.658  0.5155E-02  0.5109E-02
    -42.446  0.4519E-02  0.6067E-02
    -42.234 -0.2775E-03  0.6008E-02
    -42.022 -0.3956E-04  0.6000E-02
    -41.810 -0.2097E-06  0.6000E-02
    -41.597 -0.9643E-10  0.6000E-02
    -41.385 -0.4289E-14  0.6000E-02
    -41.173  0.0000E+00  0.6000E-02
    -40.961  0.0000E+00  0.6000E-02
    -40.749  0.0000E+00  0.6000E-02
    -40.537  0.0000E+00  0.6000E-02
    -40.324  0.0000E+00  0.6000E-02
    -40.112  0.0000E+00  0.6000E-02
    -39.900  0.0000E+00  0.6000E-02
    -39.688  0.0000E+00  0.6000E-02
    -39.476  0.0000E+00  0.6000E-02
    -39.264  0.0000E+00  0.6000E-02
    -39.052  0.0000E+00  0.6000E-02
    -38.839  0.0000E+00  0.6000E-02
    -38.627  0.0000E+00  0.6000E-02
    -38.415  0.0000E+00  0.6000E-02
    -38.203  0.0000E+00  0.6000E-02
    -37.991  0.0000E+00  0.6000E-02
    -37.779  0.0000E+00  0.6000E-02
    -37.566  0.0000E+00  0.6000E-02
    -37.354  0.0000E+00  0.6000E-02
    -37.142  0.0000E+00  0.6000E-02
    -36.930  0.0000E+00  0.6000E-02
    -36.718  0.0000E+00  0.6000E-02
    -36.506  0.0000E+00  0.6000E-02
    -36.294  0.0000E+00  0.6000E-02
    -36.081  0.0000E+00  0.6000E-02
    -35.869  0.0000E+00  0.6000E-02
    -35.657  0.0000E+00  0.6000E-02
    -35.445  0.0000E+00  0.6000E-02
    -35.233  0.0000E+00  0.6000E-02
    -35.021  0.0000E+00  0.6000E-02
    -34.808  0.0000E+00  0.6000E-02
    -34.596  0.0000E+00  0.6000E-02
    -34.384  0.0000E+00  0.6000E-02
    -34.172  0.0000E+00  0.6000E-02
    -33.960  0.0000E+00  0.6000E-02
    -33.748  0.0000E+00  0.6000E-02
    -33.536  0.0000E+00  0.6000E-02
    -33.323  0.0000E+00  0.6000E-02
    -33.111  0.0000E+00  0.6000E-02
    -32.899  0.0000E+00  0.6000E-02
    -32.687  0.0000E+00  0.6000E-02
    -32.475  0.0000E+00  0.6000E-02
    -32.263  0.0000E+00  0.6000E-02
    -32.051  0.0000E+00  0.6000E-02
    -31.838  0.0000E+00  0.6000E-02
    -31.626  0.0000E+00  0.6000E-02
    -31.414  0.0000E+00  0.6000E-02
    -31.202  0.0000E+00  0.6000E-02
    -30.990  0.0000E+00  0.6000E-02
    -30.778  0.0000E+00  0.6000E-02
    -30.565  0.0000E+00  0.6000E-02
    -30.353 -0.3687E-33  0.6000E-02
    -30.141 -0.8006E-26  0.6000E-02
    -29.929 -0.1795E-19  0.6000E-02
    -29.717 -0.3985E-14  0.6000E-02
    -29.505 -0.9093E-10  0.6000E-02
    -29.293 -0.2009E-06  0.6000E-02
    -29.080 -0.3855E-04  0.5992E-02
    -28.868 -0.2808E-03  0.5932E-02
    -28.656  0.4480E-02  0.6883E-02
    -28.444  0.5495E-02  0.8048E-02
    -28.232 -0.1645E-03  0.8013E-02
    -28.020 -0.6303E-04  0.8000E-02
    -27.807 -0.5348E-06  0.8000E-02
    -27.595 -0.2053E-04  0.7996E-02
    -27.383 -0.3078E-03  0.7930E-02
    -27.171  0.3253E-02  0.8620E-02
    -26.959  0.6302E-02  0.9957E-02
    -26.747  0.9155E-03  0.1015E-01
    -26.535  0.6972E-02  0.1163E-01
    -26.322  0.1611E-02  0.1197E-01
    -26.110  0.7815E-02  0.1363E-01
    -25.898  0.1764E-01  0.1737E-01
    -25.686  0.3500E-02  0.1812E-01
    -25.474 -0.5256E-03  0.1800E-01
    -25.262 -0.1895E-04  0.1800E-01
    -25.049 -0.4783E-07  0.1800E-01
    -24.837 -0.3348E-06  0.1800E-01
    -24.625 -0.7132E-04  0.1798E-01
    -24.413 -0.8428E-03  0.1781E-01
    -24.201  0.9109E-02  0.1974E-01
    -23.989  0.2487E-01  0.2501E-01
    -23.777  0.5576E-02  0.2620E-01
    -23.564  0.6045E-02  0.2748E-01
    -23.352  0.2766E-02  0.2807E-01
    -23.140 -0.2984E-03  0.2800E-01
    -22.928 -0.1685E-04  0.2800E-01
    -22.716 -0.1295E-03  0.2797E-01
    -22.504 -0.6955E-03  0.2782E-01
    -22.291  0.1251E-01  0.3048E-01
    -22.079  0.2401E-01  0.3557E-01
    -21.867  0.2595E-02  0.3612E-01
    -21.655 -0.6191E-03  0.3599E-01
    -21.443 -0.1280E-02  0.3572E-01
    -21.231  0.8867E-02  0.3760E-01
    -21.019  0.4816E-01  0.4782E-01
    -20.806  0.2968E-01  0.5411E-01
    -20.594 -0.7216E-04  0.5410E-01
    -20.382 -0.4513E-03  0.5400E-01
    -20.170 -0.5982E-05  0.5400E-01
    -19.958 -0.6852E-08  0.5400E-01
    -19.746 -0.7690E-12  0.5400E-01
    -19.533 -0.8373E-17  0.5400E-01
    -19.321  0.0000E+00  0.5400E-01
    -19.109  0.0000E+00  0.5400E-01
    -18.897  0.0000E+00  0.5400E-01
    -18.685  0.0000E+00  0.5400E-01
    -18.473  0.0000E+00  0.5400E-01
    -18.261  0.0000E+00  0.5400E-01
    -18.048  0.0000E+00  0.5400E-01
    -17.836  0.0000E+00  0.5400E-01
    -17.624  0.0000E+00  0.5400E-01
    -17.412  0.0000E+00  0.5400E-01
    -17.200  0.0000E+00  0.5400E-01
    -16.988  0.0000E+00  0.5400E-01
    -16.775  0.0000E+00  0.5400E-01
    -16.563  0.0000E+00  0.5400E-01
    -16.351  0.0000E+00  0.5400E-01
    -16.139  0.0000E+00  0.5400E-01
    -15.927  0.0000E+00  0.5400E-01
    -15.715  0.0000E+00  0.5400E-01
    -15.503  0.0000E+00  0.5400E-01
    -15.290  0.0000E+00  0.5400E-01
    -15.078  0.0000E+00  0.5400E-01
    -14.866  0.0000E+00  0.5400E-01
    -14.654 -0.4531E-33  0.5400E-01
    -14.442 -0.9587E-26  0.5400E-01
    -14.230 -0.2094E-19  0.5400E-01
    -14.017 -0.4529E-14  0.5400E-01
    -13.805 -0.1008E-09  0.5400E-01
    -13.593 -0.2178E-06  0.5400E-01
    -13.381 -0.4188E-04  0.5399E-01
    -13.169 -0.4288E-03  0.5390E-01
    -12.957  0.4334E-02  0.5482E-01
    -12.745  0.1618E-01  0.5825E-01
    -12.532  0.2051E-01  0.6260E-01
    -12.320  0.2368E-01  0.6763E-01
    -12.108  0.2106E-01  0.7210E-01
    -11.896  0.9628E-02  0.7414E-01
    -11.684 -0.5463E-03  0.7402E-01
    -11.472 -0.1087E-03  0.7400E-01
    -11.259 -0.7114E-06  0.7400E-01
    -11.047 -0.1531E-07  0.7400E-01
    -10.835 -0.7303E-05  0.7400E-01
    -10.623 -0.2421E-03  0.7395E-01
    -10.411  0.1623E-02  0.7429E-01
    -10.199  0.6947E-02  0.7577E-01
     -9.987  0.5031E-02  0.7683E-01
     -9.774  0.5250E-02  0.7795E-01
     -9.562  0.6987E-02  0.7943E-01
     -9.350  0.1633E-01  0.8289E-01
     -9.138  0.5789E-02  0.8412E-01
     -8.926  0.5471E-02  0.8528E-01
     -8.714  0.9853E-02  0.8737E-01
     -8.501  0.1238E-01  0.9000E-01
     -8.289  0.2103E-03  0.9004E-01
     -8.077 -0.2019E-03  0.9000E-01
     -7.865 -0.2274E-05  0.9000E-01
     -7.653 -0.2116E-08  0.9000E-01
     -7.441 -0.1908E-12  0.9000E-01
     -7.229 -0.2093E-17  0.9000E-01
     -7.016  0.0000E+00  0.9000E-01
     -6.804 -0.1341E-31  0.9000E-01
     -6.592 -0.1842E-24  0.9000E-01
     -6.380 -0.2610E-18  0.9000E-01
     -6.168 -0.3641E-13  0.9000E-01
     -5.956 -0.5206E-09  0.9000E-01
     -5.744 -0.7116E-06  0.9000E-01
     -5.531 -0.8044E-04  0.8998E-01
     -5.319 -0.5172E-04  0.8997E-01
     -5.107  0.5987E-02  0.9124E-01
     -4.895  0.3907E-02  0.9207E-01
     -4.683 -0.3046E-03  0.9201E-01
     -4.471 -0.2897E-04  0.9200E-01
     -4.258 -0.1078E-05  0.9200E-01
     -4.046 -0.9434E-04  0.9198E-01
     -3.834  0.5048E-04  0.9199E-01
     -3.622  0.6235E-02  0.9331E-01
     -3.410  0.3316E-02  0.9402E-01
     -3.198  0.4995E-02  0.9508E-01
     -2.986  0.4662E-02  0.9607E-01
     -2.773 -0.2669E-03  0.9601E-01
     -2.561 -0.1223E-03  0.9598E-01
     -2.349 -0.5720E-04  0.9597E-01
     -2.137  0.5968E-02  0.9724E-01
     -1.925  0.3882E-02  0.9806E-01
     -1.713 -0.5499E-03  0.9794E-01
     -1.500  0.4772E-02  0.9896E-01
     -1.288  0.4621E-02  0.9994E-01
     -1.076  0.1022E-01  0.1021E+00
     -0.864  0.1648E-01  0.1056E+00
     -0.652  0.3083E-02  0.1063E+00
     -0.440  0.1172E-01  0.1087E+00
     -0.228  0.1108E-01  0.1111E+00
     -0.015  0.1369E-01  0.1140E+00
      0.197  0.1419E-01  0.1170E+00
      0.409  0.1030E-01  0.1192E+00
      0.621  0.1465E-01  0.1223E+00
      0.833  0.1260E-01  0.1250E+00
      1.045  0.1418E-01  0.1280E+00
      1.258  0.1390E-01  0.1309E+00
      1.470  0.1641E-01  0.1344E+00
      1.682  0.1448E-01  0.1375E+00
      1.894  0.2861E-02  0.1381E+00
      2.106 -0.4175E-03  0.1380E+00
      2.318 -0.1941E-04  0.1380E+00
      2.530 -0.2509E-04  0.1380E+00
      2.743 -0.3087E-03  0.1379E+00
      2.955  0.3619E-02  0.1387E+00
      3.167  0.5989E-02  0.1400E+00
      3.379  0.1359E-02  0.1403E+00
      3.591  0.7165E-02  0.1418E+00
      3.803  0.9398E-03  0.1420E+00
      4.016  0.3635E-02  0.1427E+00
      4.228  0.6029E-02  0.1440E+00
      4.440 -0.9798E-04  0.1440E+00
      4.652 -0.3421E-03  0.1439E+00
      4.864  0.5292E-02  0.1451E+00
      5.076  0.1039E-01  0.1473E+00
      5.288  0.3391E-02  0.1480E+00
      5.501  0.7004E-02  0.1495E+00
      5.713  0.1136E-01  0.1519E+00
      5.925  0.9549E-02  0.1539E+00
      6.137  0.1179E-01  0.1564E+00
      6.349  0.7112E-02  0.1579E+00
      6.561  0.8621E-02  0.1597E+00
      6.774  0.1106E-01  0.1621E+00
      6.986  0.8714E-02  0.1639E+00
      7.198  0.1050E-01  0.1662E+00
      7.410  0.8461E-02  0.1680E+00
      7.622  0.3807E-03  0.1680E+00
      7.834 -0.1647E-03  0.1680E+00
      8.046 -0.2634E-05  0.1680E+00
      8.259 -0.3313E-08  0.1680E+00
      8.471 -0.3927E-12  0.1680E+00
      8.683 -0.4186E-17  0.1680E+00
      8.895  0.0000E+00  0.1680E+00
      9.107  0.0000E+00  0.1680E+00
      9.319  0.0000E+00  0.1680E+00
      9.532  0.0000E+00  0.1680E+00
      9.744  0.0000E+00  0.1680E+00
      9.956  0.0000E+00  0.1680E+00
     10.168  0.0000E+00  0.1680E+00
