  19  19   0   0
  0.2504161E+02  0.6834254E-09  0.8835925E-09  0.7880486E-09  0.0000000E+00
   1.0000000000000000E-004
  CAR 
 NEB_bottleneck                          
      9.65942821    -24.77493989  301      1.04336453      1.00000000
    -24.775  0.0000E+00  0.0000E+00
    -24.660  0.0000E+00  0.0000E+00
    -24.545  0.0000E+00  0.0000E+00
    -24.431 -0.7036E-31 -0.8076E-32
    -24.316 -0.6308E-27 -0.7241E-28
    -24.201 -0.2910E-23 -0.3341E-24
    -24.086 -0.6903E-20 -0.7927E-21
    -23.971 -0.8413E-17 -0.9665E-18
    -23.857 -0.5084E-14 -0.5845E-15
    -23.742 -0.1615E-11 -0.1859E-12
    -23.627 -0.2612E-09 -0.3016E-10
    -23.512 -0.2141E-07 -0.2488E-08
    -23.398 -0.8822E-06 -0.1037E-06
    -23.283 -0.1797E-04 -0.2167E-05
    -23.168 -0.1739E-03 -0.2213E-04
    -23.053 -0.6937E-03 -0.1018E-03
    -22.938 -0.1327E-03 -0.1170E-03
    -22.824  0.6624E-02  0.6433E-03
    -22.709  0.1850E-01  0.2767E-02
    -22.594  0.2030E-01  0.5097E-02
    -22.479  0.8772E-02  0.6104E-02
    -22.365  0.1779E-03  0.6125E-02
    -22.250 -0.9653E-03  0.6014E-02
    -22.135 -0.9810E-03  0.5901E-02
    -22.020 -0.1673E-02  0.5709E-02
    -21.905  0.2706E-02  0.6020E-02
    -21.791  0.1742E-01  0.8019E-02
    -21.676  0.4236E-01  0.1288E-01
    -21.561  0.9266E-01  0.2352E-01
    -21.446  0.1375E+00  0.3930E-01
    -21.332  0.1036E+00  0.5119E-01
    -21.217  0.3132E-01  0.5479E-01
    -21.102 -0.2222E-02  0.5453E-01
    -20.987 -0.3656E-02  0.5411E-01
    -20.872 -0.8754E-03  0.5401E-01
    -20.758 -0.9275E-04  0.5400E-01
    -20.643 -0.4868E-05  0.5400E-01
    -20.528 -0.1300E-06  0.5400E-01
    -20.413 -0.1782E-08  0.5400E-01
    -20.298 -0.1257E-10  0.5400E-01
    -20.184 -0.4567E-13  0.5400E-01
    -20.069 -0.8512E-16  0.5400E-01
    -19.954  0.0000E+00  0.5400E-01
    -19.839  0.0000E+00  0.5400E-01
    -19.725  0.0000E+00  0.5400E-01
    -19.610  0.0000E+00  0.5400E-01
    -19.495  0.0000E+00  0.5400E-01
    -19.380  0.0000E+00  0.5400E-01
    -19.265  0.0000E+00  0.5400E-01
    -19.151  0.0000E+00  0.5400E-01
    -19.036  0.0000E+00  0.5400E-01
    -18.921  0.0000E+00  0.5400E-01
    -18.806  0.0000E+00  0.5400E-01
    -18.692  0.0000E+00  0.5400E-01
    -18.577  0.0000E+00  0.5400E-01
    -18.462  0.0000E+00  0.5400E-01
    -18.347  0.0000E+00  0.5400E-01
    -18.232  0.0000E+00  0.5400E-01
    -18.118  0.0000E+00  0.5400E-01
    -18.003  0.0000E+00  0.5400E-01
    -17.888  0.0000E+00  0.5400E-01
    -17.773  0.0000E+00  0.5400E-01
    -17.659  0.0000E+00  0.5400E-01
    -17.544  0.0000E+00  0.5400E-01
    -17.429  0.0000E+00  0.5400E-01
    -17.314  0.0000E+00  0.5400E-01
    -17.199  0.0000E+00  0.5400E-01
    -17.085  0.0000E+00  0.5400E-01
    -16.970  0.0000E+00  0.5400E-01
    -16.855  0.0000E+00  0.5400E-01
    -16.740  0.0000E+00  0.5400E-01
    -16.625  0.0000E+00  0.5400E-01
    -16.511  0.0000E+00  0.5400E-01
    -16.396  0.0000E+00  0.5400E-01
    -16.281  0.0000E+00  0.5400E-01
    -16.166  0.0000E+00  0.5400E-01
    -16.052  0.0000E+00  0.5400E-01
    -15.937  0.0000E+00  0.5400E-01
    -15.822  0.0000E+00  0.5400E-01
    -15.707  0.0000E+00  0.5400E-01
    -15.592  0.0000E+00  0.5400E-01
    -15.478  0.0000E+00  0.5400E-01
    -15.363  0.0000E+00  0.5400E-01
    -15.248  0.0000E+00  0.5400E-01
    -15.133  0.0000E+00  0.5400E-01
    -15.019  0.0000E+00  0.5400E-01
    -14.904  0.0000E+00  0.5400E-01
    -14.789  0.0000E+00  0.5400E-01
    -14.674  0.0000E+00  0.5400E-01
    -14.559  0.0000E+00  0.5400E-01
    -14.445  0.0000E+00  0.5400E-01
    -14.330 -0.4972E-29  0.5400E-01
    -14.215 -0.3285E-25  0.5400E-01
    -14.100 -0.1117E-21  0.5400E-01
    -13.986 -0.1950E-18  0.5400E-01
    -13.871 -0.1699E-15  0.5400E-01
    -13.756 -0.7718E-13  0.5400E-01
    -13.641 -0.1790E-10  0.5400E-01
    -13.526 -0.2100E-08  0.5400E-01
    -13.412 -0.1234E-06  0.5400E-01
    -13.297 -0.3569E-05  0.5400E-01
    -13.182 -0.4895E-04  0.5399E-01
    -13.067 -0.2910E-03  0.5396E-01
    -12.952 -0.5165E-03  0.5390E-01
    -12.838  0.1099E-02  0.5403E-01
    -12.723  0.5992E-02  0.5472E-01
    -12.608  0.1667E-01  0.5663E-01
    -12.493  0.3514E-01  0.6066E-01
    -12.379  0.4690E-01  0.6605E-01
    -12.264  0.4291E-01  0.7097E-01
    -12.149  0.2455E-01  0.7379E-01
    -12.034  0.4576E-02  0.7431E-01
    -11.919 -0.1756E-02  0.7411E-01
    -11.805 -0.8442E-03  0.7401E-01
    -11.690 -0.1225E-03  0.7400E-01
    -11.575 -0.7830E-05  0.7400E-01
    -11.460 -0.2400E-06  0.7400E-01
    -11.346 -0.3649E-08  0.7400E-01
    -11.231 -0.4806E-10  0.7400E-01
    -11.116 -0.2320E-08  0.7400E-01
    -11.001 -0.1341E-06  0.7400E-01
    -10.886 -0.3801E-05  0.7400E-01
    -10.772 -0.5057E-04  0.7399E-01
    -10.657 -0.2785E-03  0.7396E-01
    -10.542 -0.2723E-03  0.7393E-01
    -10.427  0.2288E-02  0.7419E-01
    -10.313  0.6910E-02  0.7499E-01
    -10.198  0.8005E-02  0.7591E-01
    -10.083  0.7843E-02  0.7681E-01
     -9.968  0.7405E-02  0.7766E-01
     -9.853  0.2758E-02  0.7797E-01
     -9.739 -0.8903E-04  0.7796E-01
     -9.624  0.4094E-02  0.7843E-01
     -9.509  0.1280E-01  0.7990E-01
     -9.394  0.2222E-01  0.8245E-01
     -9.279  0.2902E-01  0.8578E-01
     -9.165  0.2513E-01  0.8867E-01
     -9.050  0.1157E-01  0.8999E-01
     -8.935  0.1392E-02  0.9015E-01
     -8.820 -0.9042E-03  0.9005E-01
     -8.706 -0.3783E-03  0.9001E-01
     -8.591 -0.5631E-04  0.9000E-01
     -8.476 -0.3868E-05  0.9000E-01
     -8.361 -0.1299E-06  0.9000E-01
     -8.246 -0.2181E-08  0.9000E-01
     -8.132 -0.1849E-10  0.9000E-01
     -8.017 -0.7963E-13  0.9000E-01
     -7.902 -0.1741E-15  0.9000E-01
     -7.787  0.0000E+00  0.9000E-01
     -7.673  0.0000E+00  0.9000E-01
     -7.558  0.0000E+00  0.9000E-01
     -7.443  0.0000E+00  0.9000E-01
     -7.328  0.0000E+00  0.9000E-01
     -7.213  0.0000E+00  0.9000E-01
     -7.099  0.0000E+00  0.9000E-01
     -6.984  0.0000E+00  0.9000E-01
     -6.869  0.0000E+00  0.9000E-01
     -6.754  0.0000E+00  0.9000E-01
     -6.640  0.0000E+00  0.9000E-01
     -6.525  0.0000E+00  0.9000E-01
     -6.410  0.0000E+00  0.9000E-01
     -6.295  0.0000E+00  0.9000E-01
     -6.180  0.0000E+00  0.9000E-01
     -6.066  0.0000E+00  0.9000E-01
     -5.951  0.0000E+00  0.9000E-01
     -5.836  0.0000E+00  0.9000E-01
     -5.721  0.0000E+00  0.9000E-01
     -5.606  0.0000E+00  0.9000E-01
     -5.492  0.0000E+00  0.9000E-01
     -5.377  0.0000E+00  0.9000E-01
     -5.262  0.0000E+00  0.9000E-01
     -5.147  0.0000E+00  0.9000E-01
     -5.033 -0.1760E-31  0.9000E-01
     -4.918 -0.1738E-27  0.9000E-01
     -4.803 -0.8831E-24  0.9000E-01
     -4.688 -0.2308E-20  0.9000E-01
     -4.573 -0.3097E-17  0.9000E-01
     -4.459 -0.2061E-14  0.9000E-01
     -4.344 -0.7193E-12  0.9000E-01
     -4.229 -0.1275E-09  0.9000E-01
     -4.114 -0.1140E-07  0.9000E-01
     -4.000 -0.5070E-06  0.9000E-01
     -3.885 -0.1093E-04  0.9000E-01
     -3.770 -0.1073E-03  0.8999E-01
     -3.655 -0.3900E-03  0.8994E-01
     -3.540  0.2139E-03  0.8997E-01
     -3.426  0.4009E-02  0.9043E-01
     -3.311  0.8125E-02  0.9136E-01
     -3.196  0.8803E-02  0.9237E-01
     -3.081  0.8573E-02  0.9335E-01
     -2.967  0.5360E-02  0.9397E-01
     -2.852  0.8858E-03  0.9407E-01
     -2.737 -0.4193E-03  0.9402E-01
     -2.622 -0.1700E-03  0.9400E-01
     -2.507 -0.2184E-04  0.9400E-01
     -2.393 -0.1244E-05  0.9400E-01
     -2.278 -0.2540E-06  0.9400E-01
     -2.163 -0.5654E-05  0.9400E-01
     -2.048 -0.6744E-04  0.9399E-01
     -1.933 -0.3213E-03  0.9395E-01
     -1.819 -0.1328E-03  0.9394E-01
     -1.704  0.2887E-02  0.9427E-01
     -1.589  0.6938E-02  0.9507E-01
     -1.474  0.6795E-02  0.9585E-01
     -1.360  0.9902E-02  0.9698E-01
     -1.245  0.1876E-01  0.9914E-01
     -1.130  0.1801E-01  0.1012E+00
     -1.015  0.8745E-02  0.1022E+00
     -0.900  0.6647E-02  0.1030E+00
     -0.786  0.9567E-02  0.1041E+00
     -0.671  0.9566E-02  0.1052E+00
     -0.556  0.6753E-02  0.1059E+00
     -0.441  0.6801E-02  0.1067E+00
     -0.327  0.1153E-01  0.1080E+00
     -0.212  0.1809E-01  0.1101E+00
     -0.097  0.2475E-01  0.1130E+00
      0.018  0.2548E-01  0.1159E+00
      0.133  0.2126E-01  0.1183E+00
      0.247  0.1883E-01  0.1205E+00
      0.362  0.1999E-01  0.1228E+00
      0.477  0.2315E-01  0.1254E+00
      0.592  0.2222E-01  0.1280E+00
      0.706  0.1761E-01  0.1300E+00
      0.821  0.2011E-01  0.1323E+00
      0.936  0.2411E-01  0.1351E+00
      1.051  0.1748E-01  0.1371E+00
      1.166  0.7546E-02  0.1380E+00
      1.280  0.1248E-02  0.1381E+00
      1.395 -0.5559E-03  0.1380E+00
      1.510 -0.2901E-03  0.1380E+00
      1.625 -0.4692E-04  0.1380E+00
      1.740 -0.3335E-05  0.1380E+00
      1.854 -0.1130E-06  0.1380E+00
      1.969 -0.1889E-08  0.1380E+00
      2.084 -0.1587E-10  0.1380E+00
      2.199 -0.1100E-10  0.1380E+00
      2.313 -0.1370E-08  0.1380E+00
      2.428 -0.8601E-07  0.1380E+00
      2.543 -0.2657E-05  0.1380E+00
      2.658 -0.3879E-04  0.1380E+00
      2.773 -0.2397E-03  0.1380E+00
      2.887 -0.3317E-03  0.1379E+00
      3.002  0.1936E-02  0.1382E+00
      3.117  0.6870E-02  0.1389E+00
      3.232  0.7325E-02  0.1398E+00
      3.346  0.2485E-02  0.1401E+00
      3.461 -0.2452E-03  0.1400E+00
      3.576 -0.2785E-03  0.1400E+00
      3.691 -0.5103E-04  0.1400E+00
      3.806 -0.4662E-05  0.1400E+00
      3.920 -0.1591E-04  0.1400E+00
      4.035 -0.1371E-03  0.1400E+00
      4.150 -0.4029E-03  0.1399E+00
      4.265  0.6381E-03  0.1400E+00
      4.379  0.5102E-02  0.1406E+00
      4.494  0.8069E-02  0.1415E+00
      4.609  0.4366E-02  0.1420E+00
      4.724  0.2400E-03  0.1420E+00
      4.839 -0.6976E-03  0.1420E+00
      4.953 -0.3536E-03  0.1419E+00
      5.068  0.2539E-02  0.1422E+00
      5.183  0.7706E-02  0.1431E+00
      5.298  0.1032E-01  0.1443E+00
      5.413  0.9297E-02  0.1454E+00
      5.527  0.4822E-02  0.1459E+00
      5.642  0.2329E-02  0.1462E+00
      5.757  0.6130E-02  0.1469E+00
      5.872  0.1030E-01  0.1481E+00
      5.986  0.1376E-01  0.1496E+00
      6.101  0.1683E-01  0.1516E+00
      6.216  0.1434E-01  0.1532E+00
      6.331  0.6258E-02  0.1539E+00
      6.446  0.7801E-03  0.1540E+00
      6.560  0.4517E-02  0.1545E+00
      6.675  0.1225E-01  0.1560E+00
      6.790  0.1206E-01  0.1573E+00
      6.905  0.5273E-02  0.1579E+00
      7.019  0.6757E-02  0.1587E+00
      7.134  0.1746E-01  0.1607E+00
      7.249  0.2295E-01  0.1634E+00
      7.364  0.1708E-01  0.1653E+00
      7.479  0.6697E-02  0.1661E+00
      7.593  0.4286E-02  0.1666E+00
      7.708  0.7363E-02  0.1674E+00
      7.823  0.4957E-02  0.1680E+00
      7.938  0.6381E-03  0.1681E+00
      8.052 -0.4043E-03  0.1680E+00
      8.167 -0.1387E-03  0.1680E+00
      8.282 -0.1605E-04  0.1680E+00
      8.397 -0.8315E-06  0.1680E+00
      8.512 -0.2075E-07  0.1680E+00
      8.626 -0.2568E-09  0.1680E+00
      8.741 -0.1600E-11  0.1680E+00
      8.856 -0.5061E-14  0.1680E+00
      8.971 -0.7738E-17  0.1680E+00
      9.086  0.0000E+00  0.1680E+00
      9.200  0.0000E+00  0.1680E+00
      9.315  0.0000E+00  0.1680E+00
      9.430  0.0000E+00  0.1680E+00
      9.545  0.0000E+00  0.1680E+00
      9.659  0.0000E+00  0.1680E+00
