 vasp.6.3.2 27Jun22 (build Jun 14 2024 17:29:11) complex                         
 POSCAR found type information on POSCAR NaInS 
 04/POSCAR found :  3 types and      19 ions
 -----------------------------------------------------------------------------
|                                                                             |
|           W    W    AA    RRRRR   N    N  II  N    N   GGGG   !!!           |
|           W    W   A  A   R    R  NN   N  II  NN   N  G    G  !!!           |
|           W    W  A    A  R    R  N N  N  II  N N  N  G       !!!           |
|           W WW W  AAAAAA  RRRRR   N  N N  II  N  N N  G  GGG   !            |
|           WW  WW  A    A  R   R   N   NN  II  N   NN  G    G                |
|           W    W  A    A  R    R  N    N  II  N    N   GGGG   !!!           |
|                                                                             |
|     The value NPAR = 9 specified in the INCAR file was overwritten,         |
|     because it was not compatible with the 3 processes available:           |
|     NPAR = 3                                                                |
|     was used instead, please check that this makes sense for your           |
|     machine.                                                                |
|                                                                             |
 -----------------------------------------------------------------------------

 -----------------------------------------------------------------------------
|                                                                             |
|               ----> ADVICE to this user running VASP <----                  |
|                                                                             |
|     You have a (more or less) 'large supercell' and for larger cells it     |
|     might be more efficient to use real-space projection operators.         |
|     Therefore, try LREAL= Auto in the INCAR file.                           |
|     Mind: For very accurate calculation, you might also keep the            |
|     reciprocal projection scheme (i.e. LREAL=.FALSE.).                      |
|                                                                             |
 -----------------------------------------------------------------------------

 LDA part: xc-table for Pade appr. of Perdew
 POSCAR found type information on POSCAR NaInS 
 00/POSCAR found :  3 types and      19 ions
 POSCAR found type information on POSCAR NaInS 
 10/POSCAR found :  3 types and      19 ions
 -----------------------------------------------------------------------------
|                                                                             |
|           W    W    AA    RRRRR   N    N  II  N    N   GGGG   !!!           |
|           W    W   A  A   R    R  NN   N  II  NN   N  G    G  !!!           |
|           W    W  A    A  R    R  N N  N  II  N N  N  G       !!!           |
|           W WW W  AAAAAA  RRRRR   N  N N  II  N  N N  G  GGG   !            |
|           WW  WW  A    A  R   R   N   NN  II  N   NN  G    G                |
|           W    W  A    A  R    R  N    N  II  N    N   GGGG   !!!           |
|                                                                             |
|     The distance between some ions is very small. Please check the          |
|     nearest-neighbor list in the OUTCAR file.                               |
|     I HOPE YOU KNOW WHAT YOU ARE DOING!                                     |
|                                                                             |
 -----------------------------------------------------------------------------

 POSCAR, INCAR and KPOINTS ok, starting setup
 FFT: planning ... GRIDC
 FFT: planning ... GRID_SOFT
 FFT: planning ... GRID
 WAVECAR not read
 entering main loop
       N       E                     dE             d eps       ncg     rms          rms(c)
DAV:   1     0.161675607415E+04    0.16168E+04   -0.64316E+04   177   0.170E+03
DAV:   2     0.253275420521E+03   -0.13635E+04   -0.13250E+04   177   0.463E+02
DAV:   3     0.286891042845E+02   -0.22459E+03   -0.21945E+03   195   0.203E+02
DAV:   4     0.109556613214E+02   -0.17733E+02   -0.17576E+02   219   0.520E+01
DAV:   5     0.104084882055E+02   -0.54717E+00   -0.54551E+00   246   0.100E+01    0.909E+01
RMM:   6     0.192678981328E+02    0.88594E+01   -0.10941E+01   198   0.958E+00    0.650E+01
RMM:   7     0.190052687479E+02   -0.26263E+00   -0.23697E+01   227   0.126E+01    0.128E+01
RMM:   8     0.203649212789E+02    0.13597E+01   -0.24477E+00   197   0.660E+00    0.626E+00
RMM:   9     0.204246632705E+02    0.59742E-01   -0.12287E+00   205   0.328E+00    0.397E+00
RMM:  10     0.204735711361E+02    0.48908E-01   -0.27851E-01   235   0.236E+00    0.185E+00
RMM:  11     0.204691655657E+02   -0.44056E-02   -0.11120E-01   262   0.102E+00    0.143E+00
RMM:  12     0.204667762629E+02   -0.23893E-02   -0.30494E-02   220   0.695E-01    0.104E+00
RMM:  13     0.204658175575E+02   -0.95871E-03   -0.31241E-02   238   0.477E-01    0.378E-01
RMM:  14     0.204661247600E+02    0.30720E-03   -0.11832E-02   238   0.321E-01    0.138E-01
RMM:  15     0.204657165607E+02   -0.40820E-03   -0.66561E-03   257   0.217E-01    0.179E-01
RMM:  16     0.204654228290E+02   -0.29373E-03   -0.34257E-03   235   0.150E-01    0.954E-02
RMM:  17     0.204651680631E+02   -0.25477E-03   -0.29657E-03   220   0.109E-01    0.101E-01
RMM:  18     0.204650738870E+02   -0.94176E-04   -0.14625E-03   228   0.838E-02    0.397E-02
RMM:  19     0.204649573715E+02   -0.11652E-03   -0.12066E-03   210   0.602E-02    0.680E-02
RMM:  20     0.204649013527E+02   -0.56019E-04   -0.72084E-04   190   0.531E-02    0.820E-02
RMM:  21     0.204648557759E+02   -0.45577E-04   -0.50212E-04   188   0.385E-02    0.932E-02
RMM:  22     0.204648268842E+02   -0.28892E-04   -0.32745E-04   170   0.307E-02    0.972E-02
RMM:  23     0.204648029257E+02   -0.23958E-04   -0.25361E-04   171   0.254E-02    0.129E-01
RMM:  24     0.204647919304E+02   -0.10995E-04   -0.15911E-04   191   0.238E-02    0.841E-02
RMM:  25     0.204647820592E+02   -0.98712E-05   -0.11284E-04   165   0.172E-02    0.819E-02
RMM:  26     0.204647753839E+02   -0.66754E-05   -0.73910E-05   144   0.136E-02    0.882E-02
RMM:  27     0.204647700058E+02   -0.53781E-05   -0.57661E-05   125   0.113E-02    0.102E-01
RMM:  28     0.204647667529E+02   -0.32528E-05   -0.38750E-05   115   0.921E-03    0.104E-01
RMM:  29     0.204647646933E+02   -0.20596E-05   -0.28301E-05   120   0.772E-03    0.102E-01
RMM:  30     0.204647636183E+02   -0.10750E-05   -0.19608E-05   131   0.749E-03    0.839E-02
RMM:  31     0.204647628861E+02   -0.73219E-06   -0.12305E-05   140   0.698E-03    0.631E-02
RMM:  32     0.204647620499E+02   -0.83619E-06   -0.97684E-06   120   0.621E-03
   1 F= 0.20464762E+02 E0= 0.20474499E+02  d E =0.204648E+02
quench:  g(F)=  0.000E+00 g(S)=  0.000E+00 dE (1.order)= 0.000E+00
 bond charge predicted
       N       E                     dE             d eps       ncg     rms          rms(c)
DAV:   1     0.204647601866E+02   -0.26995E-05   -0.18581E-05   114   0.541E-03    0.567E-02
RMM:   2     0.204647594110E+02   -0.77565E-06   -0.59521E-06   168   0.747E-03
   2 F= 0.20464759E+02 E0= 0.20474519E+02  d E =-.263893E-05
quench:  g(F)=  0.000E+00 g(S)=  0.000E+00 dE (1.order)= 0.000E+00
 bond charge predicted
       N       E                     dE             d eps       ncg     rms          rms(c)
DAV:   1     0.204647589370E+02   -0.12496E-05   -0.50199E-05   147   0.949E-03    0.181E-02
RMM:   2     0.204647529960E+02   -0.59410E-05   -0.65110E-06   151   0.652E-03    0.500E-02
RMM:   3     0.204647598676E+02    0.68716E-05   -0.13024E-06   105   0.435E-03    0.145E-02
RMM:   4     0.204647603574E+02    0.48976E-06   -0.96489E-07   106   0.326E-03
   3 F= 0.20464760E+02 E0= 0.20474510E+02  d E =0.946398E-06
quench:  g(F)=  0.000E+00 g(S)=  0.000E+00 dE (1.order)= 0.000E+00
 bond charge predicted
       N       E                     dE             d eps       ncg     rms          rms(c)
DAV:   1     0.204647604141E+02    0.54654E-06   -0.38923E-07   120   0.325E-03    0.143E-03
RMM:   2     0.204647604493E+02    0.35154E-07   -0.43877E-08    64   0.102E-03
   4 F= 0.20464760E+02 E0= 0.20474511E+02  d E =0.919354E-07
quench:  g(F)=  0.000E+00 g(S)=  0.000E+00 dE (1.order)= 0.000E+00
 bond charge predicted
       N       E                     dE             d eps       ncg     rms          rms(c)
DAV:   1     0.204647604725E+02    0.58328E-07   -0.29443E-08   129   0.950E-04    0.134E-03
RMM:   2     0.204647604751E+02    0.26266E-08   -0.76131E-10    18   0.447E-04
   5 F= 0.20464760E+02 E0= 0.20474511E+02  d E =0.258005E-07
quench:  g(F)=  0.000E+00 g(S)=  0.000E+00 dE (1.order)= 0.000E+00
 bond charge predicted
       N       E                     dE             d eps       ncg     rms          rms(c)
DAV:   1     0.204647604983E+02    0.25837E-07   -0.31287E-08   120   0.533E-04    0.129E-03
RMM:   2     0.204647604704E+02   -0.27874E-07   -0.56843E-11    14   0.318E-04
   6 F= 0.20464760E+02 E0= 0.20474511E+02  d E =-.466389E-08
quench:  g(F)=  0.000E+00 g(S)=  0.000E+00 dE (1.order)= 0.000E+00
 bond charge predicted
       N       E                     dE             d eps       ncg     rms          rms(c)
DAV:   1     0.204647605022E+02    0.39363E-08   -0.55196E-08   120   0.391E-04    0.923E-04
RMM:   2     0.204647604840E+02   -0.18277E-07    0.13508-264     8   0.234E-04
   7 F= 0.20464760E+02 E0= 0.20474511E+02  d E =0.135333E-07
quench:  g(F)=  0.000E+00 g(S)=  0.000E+00 dE (1.order)= 0.000E+00
 bond charge predicted
       N       E                     dE             d eps       ncg     rms          rms(c)
DAV:   1     0.204647605016E+02   -0.67666E-09   -0.19651E-08    93   0.249E-04    0.788E-04
RMM:   2     0.204647604929E+02   -0.86657E-08    0.37730-265     8   0.162E-04
   8 F= 0.20464760E+02 E0= 0.20474511E+02  d E =0.893488E-08
quench:  g(F)=  0.000E+00 g(S)=  0.000E+00 dE (1.order)= 0.000E+00
 bond charge predicted
       N       E                     dE             d eps       ncg     rms          rms(c)
DAV:   1     0.204647605046E+02    0.30050E-08   -0.86037E-09    93   0.185E-04    0.739E-04
RMM:   2     0.204647604955E+02   -0.90986E-08    0.28439-265     8   0.128E-04
   9 F= 0.20464760E+02 E0= 0.20474511E+02  d E =0.257205E-08
quench:  g(F)=  0.000E+00 g(S)=  0.000E+00 dE (1.order)= 0.000E+00
 bond charge predicted
       N       E                     dE             d eps       ncg     rms          rms(c)
DAV:   1     0.204647605044E+02   -0.12005E-09   -0.55945E-09    93   0.142E-04    0.684E-04
RMM:   2     0.204647604986E+02   -0.58390E-08    0.19870-265     8   0.946E-05
  10 F= 0.20464760E+02 E0= 0.20474511E+02  d E =0.313958E-08
quench:  g(F)=  0.000E+00 g(S)=  0.000E+00 dE (1.order)= 0.000E+00
 bond charge predicted
       N       E                     dE             d eps       ncg     rms          rms(c)
DAV:   1     0.204647605049E+02    0.42928E-09   -0.26002E-09    93   0.100E-04    0.654E-04
RMM:   2     0.204647605019E+02   -0.29431E-08    0.17191-265     7   0.687E-05
  11 F= 0.20464761E+02 E0= 0.20474511E+02  d E =0.332511E-08
quench:  g(F)=  0.000E+00 g(S)=  0.000E+00 dE (1.order)= 0.000E+00
 bond charge predicted
       N       E                     dE             d eps       ncg     rms          rms(c)
DAV:   1     0.204647605050E+02    0.98225E-10   -0.74571E-10    93   0.734E-05    0.645E-04
RMM:   2     0.204647605035E+02   -0.14552E-08    0.90474-266     7   0.505E-05
  12 F= 0.20464761E+02 E0= 0.20474511E+02  d E =0.158616E-08
quench:  g(F)=  0.000E+00 g(S)=  0.000E+00 dE (1.order)= 0.000E+00
 bond charge predicted
       N       E                     dE             d eps       ncg     rms          rms(c)
DAV:   1     0.204647605053E+02    0.33106E-09   -0.19884E-10    90   0.510E-05    0.642E-04
RMM:   2     0.204647605050E+02   -0.33106E-09    0.69159-266     6   0.334E-05
  13 F= 0.20464761E+02 E0= 0.20474511E+02  d E =0.145519E-08
quench:  g(F)=  0.000E+00 g(S)=  0.000E+00 dE (1.order)= 0.000E+00
 bond charge predicted
       N       E                     dE             d eps       ncg     rms          rms(c)
DAV:   1     0.204647605051E+02   -0.21828E-09   -0.24542E-11    93   0.339E-05    0.642E-04
RMM:   2     0.204647605056E+02    0.53842E-09    0.40926-266     6   0.239E-05
  14 F= 0.20464761E+02 E0= 0.20474511E+02  d E =0.651198E-09
quench:  g(F)=  0.000E+00 g(S)=  0.000E+00 dE (1.order)= 0.000E+00
 bond charge predicted
       N       E                     dE             d eps       ncg     rms          rms(c)
DAV:   1     0.204647605054E+02    0.26557E-09   -0.36915E-11    93   0.264E-05    0.642E-04
RMM:   2     0.204647605050E+02   -0.31287E-09    0.30147-282     5   0.173E-05
  15 F= 0.20464761E+02 E0= 0.20474511E+02  d E =-.585715E-09
quench:  g(F)=  0.000E+00 g(S)=  0.000E+00 dE (1.order)= 0.000E+00
 bond charge predicted
       N       E                     dE             d eps       ncg     rms          rms(c)
DAV:   1     0.204647605056E+02    0.25102E-09   -0.11943E-10    93   0.180E-05    0.642E-04
RMM:   2     0.204647605057E+02    0.83674E-10    0.34888-266     6   0.124E-05
  16 F= 0.20464761E+02 E0= 0.20474511E+02  d E =0.647560E-09
quench:  g(F)=  0.000E+00 g(S)=  0.000E+00 dE (1.order)= 0.000E+00
 bond charge predicted
       N       E                     dE             d eps       ncg     rms          rms(c)
DAV:   1     0.204647605057E+02    0.14188E-09    0.36417E-11    93   0.133E-05    0.642E-04
RMM:   2     0.204647605055E+02   -0.24011E-09    0.00000E+00     4   0.972E-06
  17 F= 0.20464761E+02 E0= 0.20474511E+02  d E =-.181899E-09
quench:  g(F)=  0.000E+00 g(S)=  0.000E+00 dE (1.order)= 0.000E+00
 bond charge predicted
       N       E                     dE             d eps       ncg     rms          rms(c)
DAV:   1     0.204647605056E+02   -0.18190E-09    0.38513E-11    93   0.106E-05    0.642E-04
RMM:   2     0.204647605055E+02   -0.65484E-10    0.24660-266     4   0.729E-06
  18 F= 0.20464761E+02 E0= 0.20474511E+02  d E =-.727596E-11
quench:  g(F)=  0.000E+00 g(S)=  0.000E+00 dE (1.order)= 0.000E+00
 bond charge predicted
       N       E                     dE             d eps       ncg     rms          rms(c)
DAV:   1     0.204647605053E+02   -0.29104E-09    0.28484E-11    90   0.812E-06    0.642E-04
RMM:   2     0.204647605054E+02    0.13097E-09    0.00000E+00     3   0.598E-06
  19 F= 0.20464761E+02 E0= 0.20474511E+02  d E =-.945874E-10
quench:  g(F)=  0.000E+00 g(S)=  0.000E+00 dE (1.order)= 0.000E+00
 bond charge predicted
       N       E                     dE             d eps       ncg     rms          rms(c)
DAV:   1     0.204647605056E+02    0.32014E-09    0.79424E-12    93   0.651E-06    0.642E-04
RMM:   2     0.204647605054E+02   -0.20736E-09    0.00000E+00     3   0.471E-06
  20 F= 0.20464761E+02 E0= 0.20474511E+02  d E =-.181899E-10
quench:  g(F)=  0.000E+00 g(S)=  0.000E+00 dE (1.order)= 0.000E+00
 bond charge predicted
       N       E                     dE             d eps       ncg     rms          rms(c)
DAV:   1     0.204647605053E+02   -0.30559E-09   -0.28394E-11    87   0.520E-06    0.642E-04
RMM:   2     0.204647605053E+02    0.47294E-10    0.00000E+00     2   0.390E-06
  21 F= 0.20464761E+02 E0= 0.20474511E+02  d E =-.509317E-10
quench:  g(F)=  0.000E+00 g(S)=  0.000E+00 dE (1.order)= 0.000E+00
 bond charge predicted
       N       E                     dE             d eps       ncg     rms          rms(c)
DAV:   1     0.204647605056E+02    0.35652E-09   -0.56181E-11    93   0.431E-06    0.642E-04
RMM:   2     0.204647605051E+02   -0.52023E-09    0.00000E+00     2   0.304E-06
  22 F= 0.20464761E+02 E0= 0.20474511E+02  d E =-.211003E-09
quench:  g(F)=  0.000E+00 g(S)=  0.000E+00 dE (1.order)= 0.000E+00
 bond charge predicted
       N       E                     dE             d eps       ncg     rms          rms(c)
DAV:   1     0.204647605052E+02   -0.45839E-09    0.26217E-11    93   0.328E-06    0.642E-04
RMM:   2     0.204647605053E+02    0.80036E-10    0.00000E+00     2   0.255E-06
  23 F= 0.20464761E+02 E0= 0.20474511E+02  d E =0.141881E-09
quench:  g(F)=  0.000E+00 g(S)=  0.000E+00 dE (1.order)= 0.000E+00
 bond charge predicted
       N       E                     dE             d eps       ncg     rms          rms(c)
DAV:   1     0.204647605049E+02   -0.29104E-09    0.10472E-11    93   0.277E-06    0.642E-04
RMM:   2     0.204647605054E+02    0.46566E-09    0.00000E+00     2   0.184E-06
  24 F= 0.20464761E+02 E0= 0.20474511E+02  d E =0.945874E-10
quench:  g(F)=  0.000E+00 g(S)=  0.000E+00 dE (1.order)= 0.000E+00
 bond charge predicted
       N       E                     dE             d eps       ncg     rms          rms(c)
DAV:   1     0.204647605053E+02    0.41109E-09    0.67446E-11    93   0.196E-06    0.642E-04
RMM:   2     0.204647605051E+02   -0.18554E-09    0.00000E+00     1   0.150E-06
  25 F= 0.20464761E+02 E0= 0.20474511E+02  d E =-.240107E-09
quench:  g(F)=  0.000E+00 g(S)=  0.000E+00 dE (1.order)= 0.000E+00
 bond charge predicted
       N       E                     dE             d eps       ncg     rms          rms(c)
DAV:   1     0.204647605056E+02    0.25830E-09    0.89397E-11    84   0.157E-06    0.642E-04
RMM:   2     0.204647605051E+02   -0.50204E-09    0.00000E+00     1   0.105E-06
  26 F= 0.20464761E+02 E0= 0.20474511E+02  d E =-.582077E-10
quench:  g(F)=  0.000E+00 g(S)=  0.000E+00 dE (1.order)= 0.000E+00
 bond charge predicted
       N       E                     dE             d eps       ncg     rms          rms(c)
DAV:   1     0.204647605056E+02    0.80036E-10    0.55906E-11    84   0.110E-06    0.642E-04
RMM:   2     0.204647605052E+02   -0.48021E-09    0.00000E+00     1   0.831E-07
  27 F= 0.20464761E+02 E0= 0.20474511E+02  d E =0.101863E-09
quench:  g(F)=  0.000E+00 g(S)=  0.000E+00 dE (1.order)= 0.000E+00
 bond charge predicted
       N       E                     dE             d eps       ncg     rms          rms(c)
DAV:   1     0.204647605057E+02    0.58208E-10    0.33647E-11    84   0.862E-07    0.642E-04
RMM:   2     0.204647605052E+02   -0.45839E-09    0.00000E+00     1   0.613E-07
  28 F= 0.20464761E+02 E0= 0.20474511E+02  d E =0.800355E-10
quench:  g(F)=  0.000E+00 g(S)=  0.000E+00 dE (1.order)= 0.000E+00
 bond charge predicted
       N       E                     dE             d eps       ncg     rms          rms(c)
DAV:   1     0.204647605051E+02   -0.56025E-09    0.97520E-11    84   0.630E-07    0.642E-04
RMM:   2     0.204647605050E+02   -0.90949E-10    0.00000E+00     1   0.484E-07
  29 F= 0.20464761E+02 E0= 0.20474511E+02  d E =-.192813E-09
quench:  g(F)=  0.000E+00 g(S)=  0.000E+00 dE (1.order)= 0.000E+00
 bond charge predicted
       N       E                     dE             d eps       ncg     rms          rms(c)
DAV:   1     0.204647605048E+02   -0.32014E-09    0.63991E-11    84   0.507E-07    0.642E-04
RMM:   2     0.204647605052E+02    0.42201E-09    0.00000E+00     1   0.363E-07
  30 F= 0.20464761E+02 E0= 0.20474511E+02  d E =0.192813E-09
quench:  g(F)=  0.000E+00 g(S)=  0.000E+00 dE (1.order)= 0.000E+00
 bond charge predicted
       N       E                     dE             d eps       ncg     rms          rms(c)
DAV:   1     0.204647605056E+02    0.75670E-09   -0.97899E-12    84   0.375E-07    0.642E-04
RMM:   2     0.204647605052E+02   -0.36380E-09    0.00000E+00     1   0.290E-07
  31 F= 0.20464761E+02 E0= 0.20474511E+02  d E =-.291038E-10
quench:  g(F)=  0.000E+00 g(S)=  0.000E+00 dE (1.order)= 0.000E+00
 bond charge predicted
       N       E                     dE             d eps       ncg     rms          rms(c)
DAV:   1     0.204647605049E+02   -0.66939E-09    0.18027E-11    84   0.309E-07    0.642E-04
RMM:   2     0.204647605051E+02    0.23647E-09    0.00000E+00     1   0.223E-07
  32 F= 0.20464761E+02 E0= 0.20474511E+02  d E =-.691216E-10
quench:  g(F)=  0.000E+00 g(S)=  0.000E+00 dE (1.order)= 0.000E+00
 bond charge predicted
       N       E                     dE             d eps       ncg     rms          rms(c)
DAV:   1     0.204647605056E+02    0.64756E-09    0.24516E-11    84   0.233E-07    0.642E-04
RMM:   2     0.204647605051E+02   -0.42201E-09    0.00000E+00     1   0.176E-07
  33 F= 0.20464761E+02 E0= 0.20474511E+02  d E =-.109139E-10
quench:  g(F)=  0.000E+00 g(S)=  0.000E+00 dE (1.order)= 0.000E+00
 bond charge predicted
       N       E                     dE             d eps       ncg     rms          rms(c)
DAV:   1     0.204647605053E+02   -0.27649E-09   -0.28370E-11    84   0.185E-07    0.642E-04
RMM:   2     0.204647605053E+02    0.18190E-10    0.00000E+00     1   0.141E-07
  34 F= 0.20464761E+02 E0= 0.20474511E+02  d E =0.163709E-09
quench:  g(F)=  0.000E+00 g(S)=  0.000E+00 dE (1.order)= 0.000E+00
 bond charge predicted
       N       E                     dE             d eps       ncg     rms          rms(c)
DAV:   1     0.204647605057E+02    0.37471E-09    0.76447E-11    84   0.145E-07    0.642E-04
RMM:   2     0.204647605054E+02   -0.25830E-09    0.00000E+00     1   0.110E-07
  35 F= 0.20464761E+02 E0= 0.20474511E+02  d E =0.982254E-10
quench:  g(F)=  0.000E+00 g(S)=  0.000E+00 dE (1.order)= 0.000E+00
 bond charge predicted
       N       E                     dE             d eps       ncg     rms          rms(c)
DAV:   1     0.204647605051E+02   -0.51296E-09   -0.11565E-10    84   0.122E-07    0.642E-04
RMM:   2     0.204647605052E+02    0.43656E-10    0.00000E+00     1   0.889E-08
  36 F= 0.20464761E+02 E0= 0.20474511E+02  d E =-.211003E-09
quench:  g(F)=  0.000E+00 g(S)=  0.000E+00 dE (1.order)= 0.000E+00
 bond charge predicted
       N       E                     dE             d eps       ncg     rms          rms(c)
DAV:   1     0.204647605058E+02    0.63301E-09   -0.11196E-10    84   0.929E-08    0.642E-04
RMM:   2     0.204647605052E+02   -0.53842E-09    0.00000E+00     1   0.693E-08
  37 F= 0.20464761E+02 E0= 0.20474511E+02  d E =0.509317E-10
quench:  g(F)=  0.000E+00 g(S)=  0.000E+00 dE (1.order)= 0.000E+00
 bond charge predicted
       N       E                     dE             d eps       ncg     rms          rms(c)
DAV:   1     0.204647605054E+02   -0.37835E-09   -0.48698E-12    84   0.744E-08    0.642E-04
RMM:   2     0.204647605054E+02   -0.36380E-10    0.00000E+00     1   0.566E-08
  38 F= 0.20464761E+02 E0= 0.20474511E+02  d E =0.123691E-09
quench:  g(F)=  0.000E+00 g(S)=  0.000E+00 dE (1.order)= 0.000E+00
 bond charge predicted
       N       E                     dE             d eps       ncg     rms          rms(c)
DAV:   1     0.204647605054E+02    0.36380E-11   -0.87548E-11    84   0.592E-08    0.642E-04
RMM:   2     0.204647605052E+02   -0.24374E-09    0.00000E+00     1   0.444E-08
  39 F= 0.20464761E+02 E0= 0.20474511E+02  d E =-.203727E-09
quench:  g(F)=  0.000E+00 g(S)=  0.000E+00 dE (1.order)= 0.000E+00
 bond charge predicted
       N       E                     dE             d eps       ncg     rms          rms(c)
DAV:   1     0.204647605045E+02   -0.87675E-09   -0.65003E-11    84   0.465E-08    0.642E-04
RMM:   2     0.204647605051E+02    0.58208E-09    0.00000E+00     1   0.359E-08
  40 F= 0.20464761E+02 E0= 0.20474511E+02  d E =-.509317E-10
quench:  g(F)=  0.000E+00 g(S)=  0.000E+00 dE (1.order)= 0.000E+00
 bond charge predicted
       N       E                     dE             d eps       ncg     rms          rms(c)
DAV:   1     0.204647605050E+02    0.52023E-09   -0.21649E-11    84   0.379E-08    0.642E-04
RMM:   2     0.204647605052E+02    0.12369E-09    0.00000E+00     1   0.288E-08
  41 F= 0.20464761E+02 E0= 0.20474511E+02  d E =0.618456E-10
quench:  g(F)=  0.000E+00 g(S)=  0.000E+00 dE (1.order)= 0.000E+00
 bond charge predicted
       N       E                     dE             d eps       ncg     rms          rms(c)
DAV:   1     0.204647605053E+02    0.22919E-09   -0.48915E-11    84   0.302E-08    0.642E-04
RMM:   2     0.204647605054E+02    0.94587E-10    0.00000E+00     1   0.229E-08
  42 F= 0.20464761E+02 E0= 0.20474511E+02  d E =0.200089E-09
quench:  g(F)=  0.000E+00 g(S)=  0.000E+00 dE (1.order)= 0.000E+00
 bond charge predicted
       N       E                     dE             d eps       ncg     rms          rms(c)
DAV:   1     0.204647605053E+02    0.00000E+00   -0.11611E-10    84   0.233E-08    0.642E-04
RMM:   2     0.204647605051E+02   -0.13824E-09    0.00000E+00     1   0.187E-08
  43 F= 0.20464761E+02 E0= 0.20474511E+02  d E =-.232831E-09
quench:  g(F)=  0.000E+00 g(S)=  0.000E+00 dE (1.order)= 0.000E+00
 bond charge predicted
       N       E                     dE             d eps       ncg     rms          rms(c)
DAV:   1     0.204647605046E+02   -0.67666E-09   -0.18971E-11    84   0.220E-08    0.642E-04
RMM:   2     0.204647605051E+02    0.55297E-09    0.00000E+00     1   0.148E-08
  44 F= 0.20464761E+02 E0= 0.20474511E+02  d E =0.145519E-10
quench:  g(F)=  0.000E+00 g(S)=  0.000E+00 dE (1.order)= 0.000E+00
 bond charge predicted
       N       E                     dE             d eps       ncg     rms          rms(c)
DAV:   1     0.204647605050E+02    0.38926E-09   -0.53944E-11    84   0.158E-08    0.642E-04
RMM:   2     0.204647605051E+02    0.69122E-10    0.00000E+00     1   0.117E-08
  45 F= 0.20464761E+02 E0= 0.20474511E+02  d E =-.945874E-10
quench:  g(F)=  0.000E+00 g(S)=  0.000E+00 dE (1.order)= 0.000E+00
 bond charge predicted
       N       E                     dE             d eps       ncg     rms          rms(c)
DAV:   1     0.204647605054E+02    0.45111E-09   -0.97323E-11    84   0.122E-08    0.642E-04
RMM:   2     0.204647605050E+02   -0.40382E-09    0.00000E+00     1   0.967E-09
  46 F= 0.20464761E+02 E0= 0.20474511E+02  d E =-.218279E-10
quench:  g(F)=  0.000E+00 g(S)=  0.000E+00 dE (1.order)= 0.000E+00
 bond charge predicted
       N       E                     dE             d eps       ncg     rms          rms(c)
DAV:   1     0.204647605053E+02   -0.17826E-09   -0.62982E-11    84   0.985E-09    0.642E-04
RMM:   2     0.204647605052E+02   -0.94587E-10    0.00000E+00     1   0.763E-09
  47 F= 0.20464761E+02 E0= 0.20474511E+02  d E =0.130967E-09
quench:  g(F)=  0.000E+00 g(S)=  0.000E+00 dE (1.order)= 0.000E+00
 bond charge predicted
       N       E                     dE             d eps       ncg     rms          rms(c)
DAV:   1     0.204647605052E+02   -0.65484E-10   -0.62893E-11    84   0.839E-09    0.642E-04
RMM:   2     0.204647605050E+02   -0.22555E-09    0.00000E+00     1   0.646E-09
  48 F= 0.20464761E+02 E0= 0.20474511E+02  d E =-.196451E-09
quench:  g(F)=  0.000E+00 g(S)=  0.000E+00 dE (1.order)= 0.000E+00
 bond charge predicted
       N       E                     dE             d eps       ncg     rms          rms(c)
DAV:   1     0.204647605048E+02   -0.36744E-09   -0.57867E-11    84   0.714E-09    0.642E-04
RMM:   2     0.204647605052E+02    0.37471E-09    0.00000E+00     1   0.526E-09
  49 F= 0.20464761E+02 E0= 0.20474511E+02  d E =0.232831E-09
quench:  g(F)=  0.000E+00 g(S)=  0.000E+00 dE (1.order)= 0.000E+00
 bond charge predicted
       N       E                     dE             d eps       ncg     rms          rms(c)
DAV:   1     0.204647605054E+02    0.59299E-09   -0.46528E-11    84   0.533E-09    0.642E-04
RMM:   2     0.204647605052E+02   -0.22555E-09    0.00000E+00     1   0.468E-09
  50 F= 0.20464761E+02 E0= 0.20474511E+02  d E =-.727596E-11
quench:  g(F)=  0.000E+00 g(S)=  0.000E+00 dE (1.order)= 0.000E+00
 bond charge predicted
       N       E                     dE             d eps       ncg     rms          rms(c)
DAV:   1     0.204647605055E+02    0.11642E-09   -0.68807E-11    84   0.516E-09    0.642E-04
RMM:   2     0.204647605051E+02   -0.46202E-09    0.00000E+00     1   0.356E-09
  51 F= 0.20464761E+02 E0= 0.20474511E+02  d E =-.120053E-09
quench:  g(F)=  0.000E+00 g(S)=  0.000E+00 dE (1.order)= 0.000E+00
 bond charge predicted
       N       E                     dE             d eps       ncg     rms          rms(c)
DAV:   1     0.204647605048E+02   -0.75670E-09   -0.66086E-11    84   0.374E-09    0.642E-04
RMM:   2     0.204647605051E+02    0.33106E-09    0.00000E+00     1   0.293E-09
  52 F= 0.20464761E+02 E0= 0.20474511E+02  d E =0.363798E-10
quench:  g(F)=  0.000E+00 g(S)=  0.000E+00 dE (1.order)= 0.000E+00
 bond charge predicted
       N       E                     dE             d eps       ncg     rms          rms(c)
DAV:   1     0.204647605054E+02    0.65847E-09   -0.93348E-11    84   0.309E-09    0.642E-04
RMM:   2     0.204647605053E+02   -0.11278E-09    0.00000E+00     1   0.256E-09
  53 F= 0.20464761E+02 E0= 0.20474511E+02  d E =0.214641E-09
quench:  g(F)=  0.000E+00 g(S)=  0.000E+00 dE (1.order)= 0.000E+00
 bond charge predicted
       N       E                     dE             d eps       ncg     rms          rms(c)
DAV:   1     0.204647605056E+02    0.21464E-09   -0.94988E-12    84   0.285E-09    0.642E-04
RMM:   2     0.204647605050E+02   -0.66211E-09    0.00000E+00     1   0.220E-09
  54 F= 0.20464761E+02 E0= 0.20474511E+02  d E =-.334694E-09
quench:  g(F)=  0.000E+00 g(S)=  0.000E+00 dE (1.order)= 0.000E+00
 bond charge predicted
       N       E                     dE             d eps       ncg     rms          rms(c)
DAV:   1     0.204647605049E+02   -0.74942E-09   -0.44462E-11    84   0.264E-09    0.642E-04
RMM:   2     0.204647605052E+02    0.26921E-09    0.00000E+00     1   0.198E-09
  55 F= 0.20464761E+02 E0= 0.20474511E+02  d E =0.181899E-09
quench:  g(F)=  0.000E+00 g(S)=  0.000E+00 dE (1.order)= 0.000E+00
 bond charge predicted
       N       E                     dE             d eps       ncg     rms          rms(c)
DAV:   1     0.204647605058E+02    0.93860E-09   -0.62291E-11    84   0.247E-09    0.642E-04
RMM:   2     0.204647605053E+02   -0.53842E-09    0.00000E+00     1   0.173E-09
  56 F= 0.20464761E+02 E0= 0.20474511E+02  d E =0.130967E-09
quench:  g(F)=  0.000E+00 g(S)=  0.000E+00 dE (1.order)= 0.000E+00
 bond charge predicted
       N       E                     dE             d eps       ncg     rms          rms(c)
DAV:   1     0.204647605054E+02   -0.40018E-09   -0.47830E-11    84   0.174E-09    0.642E-04
RMM:   2     0.204647605053E+02   -0.13824E-09    0.00000E+00     1   0.164E-09
  57 F= 0.20464761E+02 E0= 0.20474511E+02  d E =0.000000E+00
quench:  g(F)=  0.000E+00 g(S)=  0.000E+00 dE (1.order)= 0.000E+00
 bond charge predicted
       N       E                     dE             d eps       ncg     rms          rms(c)
DAV:   1     0.204647605043E+02   -0.11350E-08   -0.72139E-11    84   0.266E-09    0.642E-04
RMM:   2     0.204647605051E+02    0.82218E-09    0.00000E+00     1   0.188E-09
  58 F= 0.20464761E+02 E0= 0.20474511E+02  d E =-.174623E-09
quench:  g(F)=  0.000E+00 g(S)=  0.000E+00 dE (1.order)= 0.000E+00
 bond charge predicted
       N       E                     dE             d eps       ncg     rms          rms(c)
DAV:   1     0.204647605052E+02    0.90949E-09   -0.50219E-12    84   0.298E-09    0.642E-04
RMM:   2     0.204647605051E+02   -0.83674E-10    0.00000E+00     0   0.188E-09
  59 F= 0.20464761E+02 E0= 0.20474511E+02  d E =0.363798E-11
quench:  g(F)=  0.000E+00 g(S)=  0.000E+00 dE (1.order)= 0.000E+00
 bond charge predicted
       N       E                     dE             d eps       ncg     rms          rms(c)
DAV:   1     0.204647605050E+02   -0.21828E-09   -0.51987E-11    84   0.150E-09    0.642E-04
RMM:   2     0.204647605053E+02    0.26921E-09    0.00000E+00     1   0.140E-09
  60 F= 0.20464761E+02 E0= 0.20474511E+02  d E =0.134605E-09
quench:  g(F)=  0.000E+00 g(S)=  0.000E+00 dE (1.order)= 0.000E+00
 bond charge predicted
       N       E                     dE             d eps       ncg     rms          rms(c)
DAV:   1     0.204647605048E+02   -0.16007E-09    0.15437E-11    84   0.150E-09    0.642E-04
RMM:   2     0.204647605050E+02    0.19645E-09    0.00000E+00     0   0.128E-09
  61 F= 0.20464761E+02 E0= 0.20474511E+02  d E =-.232831E-09
quench:  g(F)=  0.000E+00 g(S)=  0.000E+00 dE (1.order)= 0.000E+00
 bond charge predicted
       N       E                     dE             d eps       ncg     rms          rms(c)
DAV:   1     0.204647605049E+02    0.76398E-10   -0.45522E-12    84   0.106E-09    0.642E-04
RMM:   2     0.204647605051E+02    0.22192E-09    0.00000E+00     1   0.866E-10
  62 F= 0.20464761E+02 E0= 0.20474511E+02  d E =0.101863E-09
quench:  g(F)=  0.000E+00 g(S)=  0.000E+00 dE (1.order)= 0.000E+00
 bond charge predicted
       N       E                     dE             d eps       ncg     rms          rms(c)
DAV:   1     0.204647605051E+02    0.23647E-09   -0.81565E-11    84   0.804E-10    0.642E-04
RMM:   2     0.204647605051E+02   -0.54570E-10    0.00000E+00     0   0.672E-10
  63 F= 0.20464761E+02 E0= 0.20474511E+02  d E =-.400178E-10
quench:  g(F)=  0.000E+00 g(S)=  0.000E+00 dE (1.order)= 0.000E+00
 bond charge predicted
       N       E                     dE             d eps       ncg     rms          rms(c)
DAV:   1     0.204647605051E+02   -0.40018E-10   -0.48579E-11    84   0.812E-10    0.642E-04
RMM:   2     0.204647605050E+02   -0.15643E-09    0.00000E+00     1   0.673E-10
  64 F= 0.20464761E+02 E0= 0.20474511E+02  d E =-.141881E-09
quench:  g(F)=  0.000E+00 g(S)=  0.000E+00 dE (1.order)= 0.000E+00
 bond charge predicted
       N       E                     dE             d eps       ncg     rms          rms(c)
DAV:   1     0.204647605052E+02    0.13461E-09   -0.69906E-11    84   0.134E-09    0.642E-04
RMM:   2     0.204647605052E+02   -0.58208E-10    0.00000E+00     0   0.131E-09
  65 F= 0.20464761E+02 E0= 0.20474511E+02  d E =0.232831E-09
quench:  g(F)=  0.000E+00 g(S)=  0.000E+00 dE (1.order)= 0.000E+00
 bond charge predicted
       N       E                     dE             d eps       ncg     rms          rms(c)
DAV:   1     0.204647605054E+02    0.13824E-09   -0.55888E-11    84   0.295E-09    0.642E-04
RMM:   2     0.204647605050E+02   -0.33469E-09    0.00000E+00     1   0.213E-09
  66 F= 0.20464761E+02 E0= 0.20474511E+02  d E =-.138243E-09
quench:  g(F)=  0.000E+00 g(S)=  0.000E+00 dE (1.order)= 0.000E+00
 bond charge predicted
       N       E                     dE             d eps       ncg     rms          rms(c)
DAV:   1     0.204647605049E+02   -0.51659E-09   -0.36107E-11    84   0.352E-09    0.642E-04
RMM:   2     0.204647605051E+02    0.22555E-09    0.00000E+00     0   0.120E-09
  67 F= 0.20464761E+02 E0= 0.20474511E+02  d E =0.436557E-10
quench:  g(F)=  0.000E+00 g(S)=  0.000E+00 dE (1.order)= 0.000E+00
 bond charge predicted
       N       E                     dE             d eps       ncg     rms          rms(c)
DAV:   1     0.204647605059E+02    0.10368E-08    0.12226E-12    84   0.121E-09    0.642E-04
RMM:   2     0.204647605051E+02   -0.84765E-09    0.00000E+00     1   0.126E-09
  68 F= 0.20464761E+02 E0= 0.20474511E+02  d E =-.363798E-10
quench:  g(F)=  0.000E+00 g(S)=  0.000E+00 dE (1.order)= 0.000E+00
 bond charge predicted
       N       E                     dE             d eps       ncg     rms          rms(c)
DAV:   1     0.204647605051E+02   -0.83310E-09   -0.83312E-12    84   0.202E-09    0.642E-04
RMM:   2     0.204647605052E+02    0.17462E-09    0.00000E+00     0   0.826E-10
  69 F= 0.20464761E+02 E0= 0.20474511E+02  d E =0.189175E-09
quench:  g(F)=  0.000E+00 g(S)=  0.000E+00 dE (1.order)= 0.000E+00
 bond charge predicted
       N       E                     dE             d eps       ncg     rms          rms(c)
DAV:   1     0.204647605055E+02    0.45111E-09   -0.71864E-11    84   0.132E-09    0.642E-04
RMM:   2     0.204647605050E+02   -0.50568E-09    0.00000E+00     1   0.133E-09
  70 F= 0.20464761E+02 E0= 0.20474511E+02  d E =-.229193E-09
quench:  g(F)=  0.000E+00 g(S)=  0.000E+00 dE (1.order)= 0.000E+00
 bond charge predicted
       N       E                     dE             d eps       ncg     rms          rms(c)
DAV:   1     0.204647605060E+02    0.46566E-09   -0.90733E-11    84   0.252E-09    0.642E-04
RMM:   2     0.204647605053E+02   -0.66575E-09    0.00000E+00     0   0.186E-09
  71 F= 0.20464761E+02 E0= 0.20474511E+02  d E =0.305590E-09
quench:  g(F)=  0.000E+00 g(S)=  0.000E+00 dE (1.order)= 0.000E+00
 bond charge predicted
       N       E                     dE             d eps       ncg     rms          rms(c)
DAV:   1     0.204647605050E+02   -0.93860E-09   -0.27494E-11    84   0.262E-09    0.642E-04
RMM:   2     0.204647605053E+02    0.21828E-09    0.00000E+00     0   0.101E-09
  72 F= 0.20464761E+02 E0= 0.20474511E+02  d E =-.545697E-10
quench:  g(F)=  0.000E+00 g(S)=  0.000E+00 dE (1.order)= 0.000E+00
 bond charge predicted
       N       E                     dE             d eps       ncg     rms          rms(c)
DAV:   1     0.204647605057E+02    0.66211E-09   -0.21298E-11    84   0.132E-09    0.642E-04
RMM:   2     0.204647605053E+02   -0.42201E-09    0.00000E+00     0   0.806E-10
  73 F= 0.20464761E+02 E0= 0.20474511E+02  d E =0.218279E-10
quench:  g(F)=  0.000E+00 g(S)=  0.000E+00 dE (1.order)= 0.000E+00
 bond charge predicted
       N       E                     dE             d eps       ncg     rms          rms(c)
DAV:   1     0.204647605053E+02   -0.44383E-09   -0.66372E-11    84   0.989E-10    0.642E-04
RMM:   2     0.204647605051E+02   -0.14916E-09    0.00000E+00     0   0.780E-10
  74 F= 0.20464761E+02 E0= 0.20474511E+02  d E =-.170985E-09
quench:  g(F)=  0.000E+00 g(S)=  0.000E+00 dE (1.order)= 0.000E+00
 bond charge predicted
       N       E                     dE             d eps       ncg     rms          rms(c)
DAV:   1     0.204647605046E+02   -0.68394E-09   -0.65327E-11    84   0.129E-09    0.642E-04
RMM:   2     0.204647605052E+02    0.65484E-09    0.00000E+00     0   0.106E-09
  75 F= 0.20464761E+02 E0= 0.20474511E+02  d E =0.120053E-09
quench:  g(F)=  0.000E+00 g(S)=  0.000E+00 dE (1.order)= 0.000E+00
 bond charge predicted
       N       E                     dE             d eps       ncg     rms          rms(c)
DAV:   1     0.204647605049E+02    0.32378E-09   -0.73301E-11    84   0.105E-09    0.642E-04
RMM:   2     0.204647605052E+02    0.24738E-09    0.00000E+00     0   0.132E-09
  76 F= 0.20464761E+02 E0= 0.20474511E+02  d E =-.836735E-10
quench:  g(F)=  0.000E+00 g(S)=  0.000E+00 dE (1.order)= 0.000E+00
 bond charge predicted
       N       E                     dE             d eps       ncg     rms          rms(c)
DAV:   1     0.204647605054E+02    0.54206E-09    0.13629E-11    84   0.215E-09    0.642E-04
RMM:   2     0.204647605052E+02   -0.27649E-09    0.00000E+00     0   0.785E-10
  77 F= 0.20464761E+02 E0= 0.20474511E+02  d E =0.181899E-10
quench:  g(F)=  0.000E+00 g(S)=  0.000E+00 dE (1.order)= 0.000E+00
 bond charge predicted
       N       E                     dE             d eps       ncg     rms          rms(c)
DAV:   1     0.204647605047E+02   -0.74215E-09    0.90165E-12    84   0.687E-10    0.642E-04
RMM:   2     0.204647605051E+02    0.37107E-09    0.00000E+00     0   0.985E-10
  78 F= 0.20464761E+02 E0= 0.20474511E+02  d E =-.945874E-10
quench:  g(F)=  0.000E+00 g(S)=  0.000E+00 dE (1.order)= 0.000E+00
 bond charge predicted
       N       E                     dE             d eps       ncg     rms          rms(c)
DAV:   1     0.204647605053E+02    0.61846E-09    0.93869E-13    84   0.106E-09    0.642E-04
RMM:   2     0.204647605050E+02   -0.32014E-09    0.00000E+00     0   0.619E-10
  79 F= 0.20464761E+02 E0= 0.20474511E+02  d E =-.727596E-10
quench:  g(F)=  0.000E+00 g(S)=  0.000E+00 dE (1.order)= 0.000E+00
 bond charge predicted
       N       E                     dE             d eps       ncg     rms          rms(c)
DAV:   1     0.204647605049E+02   -0.41109E-09   -0.67680E-11    84   0.926E-10    0.642E-04
RMM:   2     0.204647605052E+02    0.30923E-09    0.00000E+00     0   0.908E-10
  80 F= 0.20464761E+02 E0= 0.20474511E+02  d E =0.218279E-09
quench:  g(F)=  0.000E+00 g(S)=  0.000E+00 dE (1.order)= 0.000E+00
 bond charge predicted
       N       E                     dE             d eps       ncg     rms          rms(c)
DAV:   1     0.204647605056E+02    0.71668E-09    0.24519E-13    84   0.155E-09    0.642E-04
RMM:   2     0.204647605053E+02   -0.31287E-09    0.00000E+00     0   0.124E-09
  81 F= 0.20464761E+02 E0= 0.20474511E+02  d E =0.945874E-10
quench:  g(F)=  0.000E+00 g(S)=  0.000E+00 dE (1.order)= 0.000E+00
 bond charge predicted
       N       E                     dE             d eps       ncg     rms          rms(c)
DAV:   1     0.204647605047E+02   -0.88039E-09   -0.48704E-11    84   0.182E-09    0.642E-04
RMM:   2     0.204647605051E+02    0.33469E-09    0.00000E+00     0   0.907E-10
  82 F= 0.20464761E+02 E0= 0.20474511E+02  d E =-.232831E-09
quench:  g(F)=  0.000E+00 g(S)=  0.000E+00 dE (1.order)= 0.000E+00
 bond charge predicted
       N       E                     dE             d eps       ncg     rms          rms(c)
DAV:   1     0.204647605048E+02    0.36380E-10    0.23386E-12    84   0.857E-10    0.642E-04
RMM:   2     0.204647605052E+02    0.46566E-09    0.00000E+00     0   0.598E-10
  83 F= 0.20464761E+02 E0= 0.20474511E+02  d E =0.167347E-09
quench:  g(F)=  0.000E+00 g(S)=  0.000E+00 dE (1.order)= 0.000E+00
 bond charge predicted
       N       E                     dE             d eps       ncg     rms          rms(c)
DAV:   1     0.204647605049E+02    0.11278E-09   -0.44263E-11    84   0.691E-10    0.642E-04
RMM:   2     0.204647605051E+02    0.21464E-09    0.00000E+00     0   0.556E-10
  84 F= 0.20464761E+02 E0= 0.20474511E+02  d E =-.138243E-09
quench:  g(F)=  0.000E+00 g(S)=  0.000E+00 dE (1.order)= 0.000E+00
 bond charge predicted
       N       E                     dE             d eps       ncg     rms          rms(c)
DAV:   1     0.204647605047E+02   -0.19281E-09   -0.70476E-11    84   0.860E-10    0.642E-04
RMM:   2     0.204647605051E+02    0.43656E-09    0.00000E+00     0   0.746E-10
  85 F= 0.20464761E+02 E0= 0.20474511E+02  d E =0.291038E-10
quench:  g(F)=  0.000E+00 g(S)=  0.000E+00 dE (1.order)= 0.000E+00
 bond charge predicted
       N       E                     dE             d eps       ncg     rms          rms(c)
DAV:   1     0.204647605055E+02    0.84401E-09   -0.53727E-11    84   0.119E-09    0.642E-04
RMM:   2     0.204647605051E+02   -0.40382E-09    0.00000E+00     0   0.820E-10
  86 F= 0.20464761E+02 E0= 0.20474511E+02  d E =0.363798E-11
quench:  g(F)=  0.000E+00 g(S)=  0.000E+00 dE (1.order)= 0.000E+00
 bond charge predicted
       N       E                     dE             d eps       ncg     rms          rms(c)
DAV:   1     0.204647605051E+02   -0.48749E-09   -0.33154E-11    84   0.139E-09    0.642E-04
RMM:   2     0.204647605050E+02   -0.14552E-10    0.00000E+00     0   0.603E-10
  87 F= 0.20464761E+02 E0= 0.20474511E+02  d E =-.982254E-10
quench:  g(F)=  0.000E+00 g(S)=  0.000E+00 dE (1.order)= 0.000E+00
 bond charge predicted
       N       E                     dE             d eps       ncg     rms          rms(c)
DAV:   1     0.204647605050E+02   -0.94587E-10   -0.12559E-10    84   0.819E-10    0.642E-04
RMM:   2     0.204647605050E+02   -0.14552E-10    0.00000E+00     0   0.795E-10
  88 F= 0.20464761E+02 E0= 0.20474511E+02  d E =-.945874E-10
quench:  g(F)=  0.000E+00 g(S)=  0.000E+00 dE (1.order)= 0.000E+00
 bond charge predicted
       N       E                     dE             d eps       ncg     rms          rms(c)
DAV:   1     0.204647605053E+02    0.34925E-09   -0.83213E-11    84   0.132E-09    0.642E-04
RMM:   2     0.204647605052E+02   -0.80036E-10    0.00000E+00     0   0.129E-09
  89 F= 0.20464761E+02 E0= 0.20474511E+02  d E =0.283762E-09
quench:  g(F)=  0.000E+00 g(S)=  0.000E+00 dE (1.order)= 0.000E+00
 bond charge predicted
       N       E                     dE             d eps       ncg     rms          rms(c)
DAV:   1     0.204647605052E+02   -0.76398E-10   -0.17277E-11    84   0.171E-09    0.642E-04
RMM:   2     0.204647605051E+02   -0.12005E-09    0.00000E+00     0   0.802E-10
  90 F= 0.20464761E+02 E0= 0.20474511E+02  d E =-.116415E-09
quench:  g(F)=  0.000E+00 g(S)=  0.000E+00 dE (1.order)= 0.000E+00
 bond charge predicted
       N       E                     dE             d eps       ncg     rms          rms(c)
DAV:   1     0.204647605050E+02   -0.25102E-09   -0.58835E-11    84   0.836E-10    0.642E-04
RMM:   2     0.204647605051E+02    0.98225E-10    0.00000E+00     0   0.507E-10
  91 F= 0.20464761E+02 E0= 0.20474511E+02  d E =-.327418E-10
quench:  g(F)=  0.000E+00 g(S)=  0.000E+00 dE (1.order)= 0.000E+00
 bond charge predicted
       N       E                     dE             d eps       ncg     rms          rms(c)
DAV:   1     0.204647605055E+02    0.47294E-09   -0.83226E-11    84   0.594E-10    0.642E-04
RMM:   2     0.204647605053E+02   -0.20373E-09    0.00000E+00     0   0.619E-10
  92 F= 0.20464761E+02 E0= 0.20474511E+02  d E =0.170985E-09
quench:  g(F)=  0.000E+00 g(S)=  0.000E+00 dE (1.order)= 0.000E+00
 bond charge predicted
       N       E                     dE             d eps       ncg     rms          rms(c)
DAV:   1     0.204647605043E+02   -0.11350E-08   -0.21853E-11    84   0.998E-10    0.642E-04
RMM:   2     0.204647605051E+02    0.81127E-09    0.00000E+00     0   0.108E-09
  93 F= 0.20464761E+02 E0= 0.20474511E+02  d E =-.120053E-09
quench:  g(F)=  0.000E+00 g(S)=  0.000E+00 dE (1.order)= 0.000E+00
 bond charge predicted
       N       E                     dE             d eps       ncg     rms          rms(c)
DAV:   1     0.204647605054E+02    0.10841E-08   -0.10740E-11    84   0.951E-10    0.642E-04
RMM:   2     0.204647605052E+02   -0.24738E-09    0.00000E+00     0   0.718E-10
  94 F= 0.20464761E+02 E0= 0.20474511E+02  d E =0.254659E-10
quench:  g(F)=  0.000E+00 g(S)=  0.000E+00 dE (1.order)= 0.000E+00
 bond charge predicted
       N       E                     dE             d eps       ncg     rms          rms(c)
DAV:   1     0.204647605053E+02   -0.15643E-09   -0.25532E-11    84   0.838E-10    0.642E-04
RMM:   2     0.204647605052E+02   -0.90949E-10    0.00000E+00     0   0.998E-10
  95 F= 0.20464761E+02 E0= 0.20474511E+02  d E =0.000000E+00
quench:  g(F)=  0.000E+00 g(S)=  0.000E+00 dE (1.order)= 0.000E+00
 bond charge predicted
       N       E                     dE             d eps       ncg     rms          rms(c)
DAV:   1     0.204647605053E+02    0.40018E-10   -0.41436E-11    84   0.114E-09    0.642E-04
RMM:   2     0.204647605053E+02    0.36380E-11    0.00000E+00     0   0.107E-09
  96 F= 0.20464761E+02 E0= 0.20474511E+02  d E =0.134605E-09
quench:  g(F)=  0.000E+00 g(S)=  0.000E+00 dE (1.order)= 0.000E+00
 bond charge predicted
       N       E                     dE             d eps       ncg     rms          rms(c)
DAV:   1     0.204647605049E+02   -0.40382E-09   -0.13421E-11    84   0.129E-09    0.642E-04
RMM:   2     0.204647605051E+02    0.23647E-09    0.00000E+00     0   0.153E-09
  97 F= 0.20464761E+02 E0= 0.20474511E+02  d E =-.170985E-09
quench:  g(F)=  0.000E+00 g(S)=  0.000E+00 dE (1.order)= 0.000E+00
 bond charge predicted
       N       E                     dE             d eps       ncg     rms          rms(c)
DAV:   1     0.204647605050E+02    0.11278E-09   -0.94712E-11    84   0.152E-09    0.642E-04
RMM:   2     0.204647605052E+02    0.24011E-09    0.00000E+00     0   0.147E-09
  98 F= 0.20464761E+02 E0= 0.20474511E+02  d E =0.116415E-09
quench:  g(F)=  0.000E+00 g(S)=  0.000E+00 dE (1.order)= 0.000E+00
 bond charge predicted
       N       E                     dE             d eps       ncg     rms          rms(c)
DAV:   1     0.204647605051E+02    0.58208E-10   -0.49221E-11    84   0.285E-09    0.642E-04
RMM:   2     0.204647605053E+02    0.23647E-09    0.00000E+00     0   0.134E-09
  99 F= 0.20464761E+02 E0= 0.20474511E+02  d E =0.545697E-10
quench:  g(F)=  0.000E+00 g(S)=  0.000E+00 dE (1.order)= 0.000E+00
 bond charge predicted
       N       E                     dE             d eps       ncg     rms          rms(c)
DAV:   1     0.204647605048E+02   -0.29104E-09   -0.20108E-11    84   0.150E-09    0.642E-04
RMM:   2     0.204647605052E+02    0.42564E-09    0.00000E+00     0   0.103E-09
 100 F= 0.20464761E+02 E0= 0.20474511E+02  d E =-.101863E-09
quench:  g(F)=  0.000E+00 g(S)=  0.000E+00 dE (1.order)= 0.000E+00
 bond charge predicted
       N       E                     dE             d eps       ncg     rms          rms(c)
DAV:   1     0.204647605054E+02    0.66939E-09   -0.32692E-11    84   0.160E-09    0.642E-04
RMM:   2     0.204647605050E+02   -0.39290E-09    0.00000E+00     0   0.790E-10
 101 F= 0.20464761E+02 E0= 0.20474511E+02  d E =-.149157E-09
quench:  g(F)=  0.000E+00 g(S)=  0.000E+00 dE (1.order)= 0.000E+00
 bond charge predicted
       N       E                     dE             d eps       ncg     rms          rms(c)
DAV:   1     0.204647605054E+02   -0.54570E-10   -0.64587E-11    84   0.148E-09    0.642E-04
RMM:   2     0.204647605050E+02   -0.39654E-09    0.00000E+00     0   0.726E-10
 102 F= 0.20464761E+02 E0= 0.20474511E+02  d E =-.582077E-10
quench:  g(F)=  0.000E+00 g(S)=  0.000E+00 dE (1.order)= 0.000E+00
 bond charge predicted
       N       E                     dE             d eps       ncg     rms          rms(c)
DAV:   1     0.204647605051E+02   -0.30195E-09   -0.16212E-11    84   0.106E-09    0.642E-04
RMM:   2     0.204647605051E+02   -0.29104E-10    0.00000E+00     0   0.824E-10
 103 F= 0.20464761E+02 E0= 0.20474511E+02  d E =0.654836E-10
quench:  g(F)=  0.000E+00 g(S)=  0.000E+00 dE (1.order)= 0.000E+00
 bond charge predicted
       N       E                     dE             d eps       ncg     rms          rms(c)
DAV:   1     0.204647605049E+02   -0.18190E-09   -0.34608E-11    84   0.138E-09    0.642E-04
RMM:   2     0.204647605051E+02    0.21828E-09    0.00000E+00     0   0.114E-09
 104 F= 0.20464761E+02 E0= 0.20474511E+02  d E =0.654836E-10
quench:  g(F)=  0.000E+00 g(S)=  0.000E+00 dE (1.order)= 0.000E+00
 bond charge predicted
       N       E                     dE             d eps       ncg     rms          rms(c)
DAV:   1     0.204647605045E+02   -0.44020E-09   -0.93933E-12    84   0.212E-09    0.642E-04
RMM:   2     0.204647605051E+02    0.63665E-09    0.00000E+00     0   0.121E-09
 105 F= 0.20464761E+02 E0= 0.20474511E+02  d E =-.218279E-10
quench:  g(F)=  0.000E+00 g(S)=  0.000E+00 dE (1.order)= 0.000E+00
 bond charge predicted
       N       E                     dE             d eps       ncg     rms          rms(c)
DAV:   1     0.204647605049E+02    0.48021E-09    0.12362E-11    84   0.249E-09    0.642E-04
RMM:   2     0.204647605052E+02    0.21464E-09    0.00000E+00     0   0.119E-09
 106 F= 0.20464761E+02 E0= 0.20474511E+02  d E =0.582077E-10
quench:  g(F)=  0.000E+00 g(S)=  0.000E+00 dE (1.order)= 0.000E+00
 bond charge predicted
       N       E                     dE             d eps       ncg     rms          rms(c)
DAV:   1     0.204647605057E+02    0.72032E-09   -0.48258E-11    84   0.179E-09    0.642E-04
RMM:   2     0.204647605052E+02   -0.42201E-09    0.00000E+00     0   0.911E-10
 107 F= 0.20464761E+02 E0= 0.20474511E+02  d E =0.836735E-10
quench:  g(F)=  0.000E+00 g(S)=  0.000E+00 dE (1.order)= 0.000E+00
 bond charge predicted
       N       E                     dE             d eps       ncg     rms          rms(c)
DAV:   1     0.204647605057E+02    0.14552E-10   -0.30975E-11    84   0.972E-10    0.642E-04
RMM:   2     0.204647605051E+02   -0.60027E-09    0.00000E+00     0   0.973E-10
 108 F= 0.20464761E+02 E0= 0.20474511E+02  d E =-.163709E-09
quench:  g(F)=  0.000E+00 g(S)=  0.000E+00 dE (1.order)= 0.000E+00
 bond charge predicted
       N       E                     dE             d eps       ncg     rms          rms(c)
DAV:   1     0.204647605053E+02   -0.37107E-09   -0.41196E-11    84   0.102E-09    0.642E-04
RMM:   2     0.204647605053E+02   -0.40018E-10    0.00000E+00     0   0.143E-09
 109 F= 0.20464761E+02 E0= 0.20474511E+02  d E =0.189175E-09
quench:  g(F)=  0.000E+00 g(S)=  0.000E+00 dE (1.order)= 0.000E+00
 bond charge predicted
       N       E                     dE             d eps       ncg     rms          rms(c)
DAV:   1     0.204647605052E+02   -0.12369E-09    0.58097E-11    84   0.202E-09    0.642E-04
RMM:   2     0.204647605051E+02   -0.11278E-09    0.00000E+00     0   0.863E-10
 110 F= 0.20464761E+02 E0= 0.20474511E+02  d E =-.196451E-09
quench:  g(F)=  0.000E+00 g(S)=  0.000E+00 dE (1.order)= 0.000E+00
 bond charge predicted
       N       E                     dE             d eps       ncg     rms          rms(c)
DAV:   1     0.204647605048E+02   -0.42564E-09   -0.30773E-11    84   0.752E-10    0.642E-04
RMM:   2     0.204647605051E+02    0.35652E-09    0.00000E+00     0   0.886E-10
 111 F= 0.20464761E+02 E0= 0.20474511E+02  d E =0.436557E-10
quench:  g(F)=  0.000E+00 g(S)=  0.000E+00 dE (1.order)= 0.000E+00
 bond charge predicted
       N       E                     dE             d eps       ncg     rms          rms(c)
DAV:   1     0.204647605052E+02    0.46930E-09   -0.35162E-12    84   0.115E-09    0.642E-04
RMM:   2     0.204647605052E+02   -0.40018E-10    0.00000E+00     0   0.718E-10
 112 F= 0.20464761E+02 E0= 0.20474511E+02  d E =0.727596E-10
quench:  g(F)=  0.000E+00 g(S)=  0.000E+00 dE (1.order)= 0.000E+00
 bond charge predicted
       N       E                     dE             d eps       ncg     rms          rms(c)
DAV:   1     0.204647605053E+02    0.47294E-10   -0.75160E-11    84   0.142E-09    0.642E-04
RMM:   2     0.204647605049E+02   -0.33106E-09    0.00000E+00     0   0.105E-09
 113 F= 0.20464761E+02 E0= 0.20474511E+02  d E =-.243745E-09
quench:  g(F)=  0.000E+00 g(S)=  0.000E+00 dE (1.order)= 0.000E+00
 bond charge predicted
       N       E                     dE             d eps       ncg     rms          rms(c)
DAV:   1     0.204647605047E+02   -0.56752E-09    0.47418E-11    84   0.180E-09    0.642E-04
RMM:   2     0.204647605052E+02    0.54570E-09    0.00000E+00     0   0.789E-10
 114 F= 0.20464761E+02 E0= 0.20474511E+02  d E =0.309228E-09
quench:  g(F)=  0.000E+00 g(S)=  0.000E+00 dE (1.order)= 0.000E+00
 bond charge predicted
       N       E                     dE             d eps       ncg     rms          rms(c)
DAV:   1     0.204647605047E+02    0.72760E-11   -0.84098E-11    84   0.125E-09    0.642E-04
RMM:   2     0.204647605051E+02    0.42928E-09    0.00000E+00     0   0.990E-10
 115 F= 0.20464761E+02 E0= 0.20474511E+02  d E =-.109139E-09
quench:  g(F)=  0.000E+00 g(S)=  0.000E+00 dE (1.order)= 0.000E+00
 bond charge predicted
       N       E                     dE             d eps       ncg     rms          rms(c)
DAV:   1     0.204647605052E+02    0.49477E-09   -0.31810E-11    84   0.128E-09    0.642E-04
RMM:   2     0.204647605052E+02   -0.43656E-10    0.00000E+00     0   0.664E-10
 116 F= 0.20464761E+02 E0= 0.20474511E+02  d E =0.218279E-10
quench:  g(F)=  0.000E+00 g(S)=  0.000E+00 dE (1.order)= 0.000E+00
 bond charge predicted
       N       E                     dE             d eps       ncg     rms          rms(c)
DAV:   1     0.204647605052E+02   -0.14552E-10   -0.57573E-11    84   0.517E-10    0.642E-04
RMM:   2     0.204647605050E+02   -0.14916E-09    0.00000E+00     0   0.709E-10
 117 F= 0.20464761E+02 E0= 0.20474511E+02  d E =-.120053E-09
quench:  g(F)=  0.000E+00 g(S)=  0.000E+00 dE (1.order)= 0.000E+00
 bond charge predicted
       N       E                     dE             d eps       ncg     rms          rms(c)
DAV:   1     0.204647605055E+02    0.31287E-09   -0.67042E-11    84   0.643E-10    0.642E-04
RMM:   2     0.204647605052E+02   -0.32014E-09    0.00000E+00     0   0.643E-10
 118 F= 0.20464761E+02 E0= 0.20474511E+02  d E =0.141881E-09
quench:  g(F)=  0.000E+00 g(S)=  0.000E+00 dE (1.order)= 0.000E+00
 bond charge predicted
       N       E                     dE             d eps       ncg     rms          rms(c)
DAV:   1     0.204647605054E+02   -0.58208E-10   -0.48117E-11    84   0.827E-10    0.642E-04
RMM:   2     0.204647605050E+02   -0.43656E-09    0.00000E+00     0   0.779E-10
 119 F= 0.20464761E+02 E0= 0.20474511E+02  d E =-.174623E-09
quench:  g(F)=  0.000E+00 g(S)=  0.000E+00 dE (1.order)= 0.000E+00
 bond charge predicted
       N       E                     dE             d eps       ncg     rms          rms(c)
DAV:   1     0.204647605052E+02   -0.22555E-09   -0.66108E-11    84   0.116E-09    0.642E-04
RMM:   2     0.204647605052E+02   -0.32742E-10    0.00000E+00     0   0.901E-10
 120 F= 0.20464761E+02 E0= 0.20474511E+02  d E =0.178261E-09
quench:  g(F)=  0.000E+00 g(S)=  0.000E+00 dE (1.order)= 0.000E+00
 bond charge predicted
       N       E                     dE             d eps       ncg     rms          rms(c)
DAV:   1     0.204647605043E+02   -0.88039E-09   -0.11644E-11    84   0.216E-09    0.642E-04
RMM:   2     0.204647605053E+02    0.92405E-09    0.00000E+00     0   0.140E-09
 121 F= 0.20464761E+02 E0= 0.20474511E+02  d E =0.763976E-10
quench:  g(F)=  0.000E+00 g(S)=  0.000E+00 dE (1.order)= 0.000E+00
 bond charge predicted
       N       E                     dE             d eps       ncg     rms          rms(c)
DAV:   1     0.204647605052E+02    0.82218E-09   -0.17716E-11    84   0.246E-09    0.642E-04
RMM:   2     0.204647605051E+02   -0.32742E-10    0.00000E+00     0   0.100E-09
 122 F= 0.20464761E+02 E0= 0.20474511E+02  d E =-.134605E-09
quench:  g(F)=  0.000E+00 g(S)=  0.000E+00 dE (1.order)= 0.000E+00
 bond charge predicted
       N       E                     dE             d eps       ncg     rms          rms(c)
DAV:   1     0.204647605062E+02    0.10768E-08   -0.81383E-12    84   0.124E-09    0.642E-04
RMM:   2     0.204647605051E+02   -0.11787E-08    0.00000E+00     0   0.693E-10
 123 F= 0.20464761E+02 E0= 0.20474511E+02  d E =-.691216E-10
quench:  g(F)=  0.000E+00 g(S)=  0.000E+00 dE (1.order)= 0.000E+00
 bond charge predicted
       N       E                     dE             d eps       ncg     rms          rms(c)
DAV:   1     0.204647605052E+02   -0.10696E-08   -0.10776E-10    84   0.825E-10    0.642E-04
RMM:   2     0.204647605051E+02   -0.76398E-10    0.00000E+00     0   0.966E-10
 124 F= 0.20464761E+02 E0= 0.20474511E+02  d E =0.327418E-10
quench:  g(F)=  0.000E+00 g(S)=  0.000E+00 dE (1.order)= 0.000E+00
 bond charge predicted
       N       E                     dE             d eps       ncg     rms          rms(c)
DAV:   1     0.204647605054E+02    0.26921E-09   -0.11459E-11    84   0.911E-10    0.642E-04
RMM:   2     0.204647605054E+02   -0.72760E-10    0.00000E+00     0   0.842E-10
 125 F= 0.20464761E+02 E0= 0.20474511E+02  d E =0.272848E-09
quench:  g(F)=  0.000E+00 g(S)=  0.000E+00 dE (1.order)= 0.000E+00
 bond charge predicted
       N       E                     dE             d eps       ncg     rms          rms(c)
DAV:   1     0.204647605056E+02    0.13097E-09   -0.62267E-11    84   0.125E-09    0.642E-04
RMM:   2     0.204647605050E+02   -0.60390E-09    0.00000E+00     0   0.104E-09
 126 F= 0.20464761E+02 E0= 0.20474511E+02  d E =-.400178E-09
quench:  g(F)=  0.000E+00 g(S)=  0.000E+00 dE (1.order)= 0.000E+00
 bond charge predicted
       N       E                     dE             d eps       ncg     rms          rms(c)
DAV:   1     0.204647605050E+02   -0.61118E-09   -0.48010E-11    84   0.178E-09    0.642E-04
RMM:   2     0.204647605051E+02    0.14552E-09    0.00000E+00     0   0.121E-09
 127 F= 0.20464761E+02 E0= 0.20474511E+02  d E =0.138243E-09
quench:  g(F)=  0.000E+00 g(S)=  0.000E+00 dE (1.order)= 0.000E+00
 bond charge predicted
       N       E                     dE             d eps       ncg     rms          rms(c)
DAV:   1     0.204647605048E+02   -0.18190E-09   -0.12087E-10    84   0.241E-09    0.642E-04
RMM:   2     0.204647605052E+02    0.39654E-09    0.00000E+00     0   0.152E-09
 128 F= 0.20464761E+02 E0= 0.20474511E+02  d E =0.691216E-10
quench:  g(F)=  0.000E+00 g(S)=  0.000E+00 dE (1.order)= 0.000E+00
 bond charge predicted
       N       E                     dE             d eps       ncg     rms          rms(c)
DAV:   1     0.204647605057E+02    0.92405E-09    0.27801E-11    84   0.149E-09    0.642E-04
RMM:   2     0.204647605053E+02   -0.42928E-09    0.00000E+00     0   0.139E-09
 129 F= 0.20464761E+02 E0= 0.20474511E+02  d E =0.982254E-10
quench:  g(F)=  0.000E+00 g(S)=  0.000E+00 dE (1.order)= 0.000E+00
 bond charge predicted
       N       E                     dE             d eps       ncg     rms          rms(c)
DAV:   1     0.204647605047E+02   -0.99681E-09   -0.22526E-11    84   0.197E-09    0.642E-04
RMM:   2     0.204647605053E+02    0.57480E-09    0.00000E+00     0   0.883E-10
 130 F= 0.20464761E+02 E0= 0.20474511E+02  d E =0.727596E-11
quench:  g(F)=  0.000E+00 g(S)=  0.000E+00 dE (1.order)= 0.000E+00
 bond charge predicted
       N       E                     dE             d eps       ncg     rms          rms(c)
DAV:   1     0.204647605057E+02    0.98225E-09   -0.51270E-11    84   0.954E-10    0.642E-04
RMM:   2     0.204647605052E+02   -0.45111E-09    0.00000E+00     0   0.953E-10
 131 F= 0.20464761E+02 E0= 0.20474511E+02  d E =-.436557E-10
quench:  g(F)=  0.000E+00 g(S)=  0.000E+00 dE (1.order)= 0.000E+00
 bond charge predicted
       N       E                     dE             d eps       ncg     rms          rms(c)
DAV:   1     0.204647605049E+02   -0.75306E-09   -0.27494E-11    84   0.217E-09    0.642E-04
RMM:   2     0.204647605052E+02    0.22192E-09    0.00000E+00     0   0.159E-09
 132 F= 0.20464761E+02 E0= 0.20474511E+02  d E =-.800355E-10
quench:  g(F)=  0.000E+00 g(S)=  0.000E+00 dE (1.order)= 0.000E+00
 bond charge predicted
       N       E                     dE             d eps       ncg     rms          rms(c)
DAV:   1     0.204647605050E+02    0.10914E-09   -0.43929E-11    84   0.227E-09    0.642E-04
RMM:   2     0.204647605051E+02    0.18190E-10    0.00000E+00     0   0.780E-10
 133 F= 0.20464761E+02 E0= 0.20474511E+02  d E =-.945874E-10
quench:  g(F)=  0.000E+00 g(S)=  0.000E+00 dE (1.order)= 0.000E+00
 bond charge predicted
       N       E                     dE             d eps       ncg     rms          rms(c)
DAV:   1     0.204647605051E+02    0.54570E-10   -0.25622E-11    84   0.873E-10    0.642E-04
RMM:   2     0.204647605053E+02    0.16735E-09    0.00000E+00     0   0.554E-10
 134 F= 0.20464761E+02 E0= 0.20474511E+02  d E =0.203727E-09
quench:  g(F)=  0.000E+00 g(S)=  0.000E+00 dE (1.order)= 0.000E+00
 bond charge predicted
       N       E                     dE             d eps       ncg     rms          rms(c)
DAV:   1     0.204647605051E+02    0.00000E+00   -0.34514E-11    84   0.720E-10    0.642E-04
RMM:   2     0.204647605050E+02   -0.13097E-09    0.00000E+00     0   0.480E-10
 135 F= 0.20464761E+02 E0= 0.20474511E+02  d E =-.298314E-09
quench:  g(F)=  0.000E+00 g(S)=  0.000E+00 dE (1.order)= 0.000E+00
 bond charge predicted
       N       E                     dE             d eps       ncg     rms          rms(c)
DAV:   1     0.204647605054E+02    0.26557E-09   -0.60281E-11    84   0.642E-10    0.642E-04
RMM:   2     0.204647605051E+02   -0.23283E-09    0.00000E+00     0   0.731E-10
 136 F= 0.20464761E+02 E0= 0.20474511E+02  d E =0.163709E-09
quench:  g(F)=  0.000E+00 g(S)=  0.000E+00 dE (1.order)= 0.000E+00
 bond charge predicted
       N       E                     dE             d eps       ncg     rms          rms(c)
DAV:   1     0.204647605047E+02   -0.69485E-09   -0.45980E-11    84   0.869E-10    0.642E-04
RMM:   2     0.204647605051E+02    0.48021E-09    0.00000E+00     0   0.717E-10
 137 F= 0.20464761E+02 E0= 0.20474511E+02  d E =0.181899E-10
quench:  g(F)=  0.000E+00 g(S)=  0.000E+00 dE (1.order)= 0.000E+00
 bond charge predicted
       N       E                     dE             d eps       ncg     rms          rms(c)
DAV:   1     0.204647605054E+02    0.69849E-09   -0.43120E-11    84   0.621E-10    0.642E-04
RMM:   2     0.204647605052E+02   -0.18190E-09    0.00000E+00     0   0.612E-10
 138 F= 0.20464761E+02 E0= 0.20474511E+02  d E =0.363798E-10
quench:  g(F)=  0.000E+00 g(S)=  0.000E+00 dE (1.order)= 0.000E+00
 bond charge predicted
       N       E                     dE             d eps       ncg     rms          rms(c)
DAV:   1     0.204647605049E+02   -0.44383E-09    0.22707E-11    84   0.599E-10    0.642E-04
RMM:   2     0.204647605049E+02    0.14552E-10    0.00000E+00     0   0.672E-10
 139 F= 0.20464761E+02 E0= 0.20474511E+02  d E =-.247383E-09
quench:  g(F)=  0.000E+00 g(S)=  0.000E+00 dE (1.order)= 0.000E+00
 bond charge predicted
       N       E                     dE             d eps       ncg     rms          rms(c)
DAV:   1     0.204647605049E+02   -0.47294E-10   -0.53837E-11    84   0.566E-10    0.642E-04
RMM:   2     0.204647605052E+02    0.31650E-09    0.00000E+00     0   0.575E-10
 140 F= 0.20464761E+02 E0= 0.20474511E+02  d E =0.254659E-09
quench:  g(F)=  0.000E+00 g(S)=  0.000E+00 dE (1.order)= 0.000E+00
 bond charge predicted
       N       E                     dE             d eps       ncg     rms          rms(c)
DAV:   1     0.204647605051E+02    0.25102E-09   -0.48177E-11    84   0.594E-10    0.642E-04
RMM:   2     0.204647605053E+02    0.21828E-09    0.00000E+00     0   0.465E-10
 141 F= 0.20464761E+02 E0= 0.20474511E+02  d E =0.152795E-09
quench:  g(F)=  0.000E+00 g(S)=  0.000E+00 dE (1.order)= 0.000E+00
 bond charge predicted
       N       E                     dE             d eps       ncg     rms          rms(c)
DAV:   1     0.204647605045E+02   -0.61846E-09   -0.58641E-11    84   0.977E-10    0.642E-04
RMM:   2     0.204647605051E+02    0.63301E-09    0.00000E+00     0   0.801E-10
 142 F= 0.20464761E+02 E0= 0.20474511E+02  d E =-.203727E-09
quench:  g(F)=  0.000E+00 g(S)=  0.000E+00 dE (1.order)= 0.000E+00
 bond charge predicted
       N       E                     dE             d eps       ncg     rms          rms(c)
DAV:   1     0.204647605051E+02    0.62209E-09   -0.30140E-11    84   0.129E-09    0.642E-04
RMM:   2     0.204647605052E+02    0.98225E-10    0.00000E+00     0   0.904E-10
 143 F= 0.20464761E+02 E0= 0.20474511E+02  d E =0.873115E-10
quench:  g(F)=  0.000E+00 g(S)=  0.000E+00 dE (1.order)= 0.000E+00
 bond charge predicted
       N       E                     dE             d eps       ncg     rms          rms(c)
DAV:   1     0.204647605054E+02    0.29468E-09   -0.29410E-12    84   0.156E-09    0.642E-04
RMM:   2     0.204647605052E+02   -0.21828E-09    0.00000E+00     0   0.113E-09
 144 F= 0.20464761E+02 E0= 0.20474511E+02  d E =-.218279E-10
quench:  g(F)=  0.000E+00 g(S)=  0.000E+00 dE (1.order)= 0.000E+00
 bond charge predicted
       N       E                     dE             d eps       ncg     rms          rms(c)
DAV:   1     0.204647605048E+02   -0.64028E-09   -0.23001E-11    84   0.188E-09    0.642E-04
RMM:   2     0.204647605052E+02    0.38563E-09    0.00000E+00     0   0.769E-10
 145 F= 0.20464761E+02 E0= 0.20474511E+02  d E =-.363798E-10
quench:  g(F)=  0.000E+00 g(S)=  0.000E+00 dE (1.order)= 0.000E+00
 bond charge predicted
       N       E                     dE             d eps       ncg     rms          rms(c)
DAV:   1     0.204647605055E+02    0.67666E-09   -0.67744E-11    84   0.983E-10    0.642E-04
RMM:   2     0.204647605052E+02   -0.22555E-09    0.00000E+00     0   0.129E-09
 146 F= 0.20464761E+02 E0= 0.20474511E+02  d E =0.654836E-10
quench:  g(F)=  0.000E+00 g(S)=  0.000E+00 dE (1.order)= 0.000E+00
 bond charge predicted
       N       E                     dE             d eps       ncg     rms          rms(c)
DAV:   1     0.204647605054E+02   -0.87311E-10   -0.41290E-11    84   0.131E-09    0.642E-04
RMM:   2     0.204647605052E+02   -0.17462E-09    0.00000E+00     0   0.104E-09
 147 F= 0.20464761E+02 E0= 0.20474511E+02  d E =-.363798E-10
quench:  g(F)=  0.000E+00 g(S)=  0.000E+00 dE (1.order)= 0.000E+00
 bond charge predicted
       N       E                     dE             d eps       ncg     rms          rms(c)
DAV:   1     0.204647605048E+02   -0.60390E-09    0.34183E-12    84   0.108E-09    0.642E-04
RMM:   2     0.204647605053E+02    0.50932E-09    0.00000E+00     0   0.572E-10
 148 F= 0.20464761E+02 E0= 0.20474511E+02  d E =0.800355E-10
quench:  g(F)=  0.000E+00 g(S)=  0.000E+00 dE (1.order)= 0.000E+00
 bond charge predicted
       N       E                     dE             d eps       ncg     rms          rms(c)
DAV:   1     0.204647605051E+02    0.37835E-09   -0.21523E-11    84   0.126E-09    0.642E-04
RMM:   2     0.204647605052E+02    0.72760E-10    0.00000E+00     0   0.899E-10
 149 F= 0.20464761E+02 E0= 0.20474511E+02  d E =-.582077E-10
quench:  g(F)=  0.000E+00 g(S)=  0.000E+00 dE (1.order)= 0.000E+00
 bond charge predicted
       N       E                     dE             d eps       ncg     rms          rms(c)
DAV:   1     0.204647605051E+02   -0.58208E-10    0.36726E-11    84   0.209E-09    0.642E-04
RMM:   2     0.204647605051E+02   -0.25466E-10    0.00000E+00     0   0.149E-09
 150 F= 0.20464761E+02 E0= 0.20474511E+02  d E =-.156433E-09
quench:  g(F)=  0.000E+00 g(S)=  0.000E+00 dE (1.order)= 0.000E+00
 bond charge predicted
       N       E                     dE             d eps       ncg     rms          rms(c)
DAV:   1     0.204647605055E+02    0.37835E-09    0.27886E-11    84   0.195E-09    0.642E-04
RMM:   2     0.204647605050E+02   -0.44383E-09    0.00000E+00     0   0.864E-10
 151 F= 0.20464761E+02 E0= 0.20474511E+02  d E =-.400178E-10
quench:  g(F)=  0.000E+00 g(S)=  0.000E+00 dE (1.order)= 0.000E+00
 bond charge predicted
       N       E                     dE             d eps       ncg     rms          rms(c)
DAV:   1     0.204647605059E+02    0.46566E-09   -0.25902E-11    84   0.823E-10    0.642E-04
RMM:   2     0.204647605051E+02   -0.86584E-09    0.00000E+00     0   0.789E-10
 152 F= 0.20464761E+02 E0= 0.20474511E+02  d E =0.436557E-10
quench:  g(F)=  0.000E+00 g(S)=  0.000E+00 dE (1.order)= 0.000E+00
 bond charge predicted
       N       E                     dE             d eps       ncg     rms          rms(c)
DAV:   1     0.204647605049E+02   -0.10477E-08   -0.52857E-11    84   0.117E-09    0.642E-04
RMM:   2     0.204647605051E+02    0.21100E-09    0.00000E+00     0   0.116E-09
 153 F= 0.20464761E+02 E0= 0.20474511E+02  d E =0.291038E-10
quench:  g(F)=  0.000E+00 g(S)=  0.000E+00 dE (1.order)= 0.000E+00
 bond charge predicted
       N       E                     dE             d eps       ncg     rms          rms(c)
DAV:   1     0.204647605050E+02    0.14552E-09   -0.80519E-11    84   0.289E-09    0.642E-04
RMM:   2     0.204647605052E+02    0.16735E-09    0.00000E+00     0   0.266E-09
 154 F= 0.20464761E+02 E0= 0.20474511E+02  d E =0.101863E-09
quench:  g(F)=  0.000E+00 g(S)=  0.000E+00 dE (1.order)= 0.000E+00
 bond charge predicted
       N       E                     dE             d eps       ncg     rms          rms(c)
DAV:   1     0.204647605053E+02    0.23283E-09   -0.34813E-11    84   0.547E-09    0.642E-04
RMM:   2     0.204647605051E+02   -0.16007E-09    0.00000E+00     0   0.253E-09
 155 F= 0.20464761E+02 E0= 0.20474511E+02  d E =-.945874E-10
quench:  g(F)=  0.000E+00 g(S)=  0.000E+00 dE (1.order)= 0.000E+00
 bond charge predicted
       N       E                     dE             d eps       ncg     rms          rms(c)
DAV:   1     0.204647605054E+02    0.90949E-10   -0.40607E-12    84   0.423E-09    0.642E-04
RMM:   2     0.204647605053E+02   -0.18190E-10    0.00000E+00     0   0.141E-09
 156 F= 0.20464761E+02 E0= 0.20474511E+02  d E =0.232831E-09
quench:  g(F)=  0.000E+00 g(S)=  0.000E+00 dE (1.order)= 0.000E+00
 bond charge predicted
       N       E                     dE             d eps       ncg     rms          rms(c)
DAV:   1     0.204647605051E+02   -0.27285E-09   -0.81516E-11    84   0.243E-09    0.642E-04
RMM:   2     0.204647605051E+02    0.58208E-10    0.00000E+00     0   0.161E-09
 157 F= 0.20464761E+02 E0= 0.20474511E+02  d E =-.196451E-09
quench:  g(F)=  0.000E+00 g(S)=  0.000E+00 dE (1.order)= 0.000E+00
 bond charge predicted
       N       E                     dE             d eps       ncg     rms          rms(c)
DAV:   1     0.204647605045E+02   -0.55297E-09   -0.70779E-11    84   0.272E-09    0.642E-04
RMM:   2     0.204647605050E+02    0.52023E-09    0.00000E+00     0   0.139E-09
 158 F= 0.20464761E+02 E0= 0.20474511E+02  d E =-.909495E-10
quench:  g(F)=  0.000E+00 g(S)=  0.000E+00 dE (1.order)= 0.000E+00
 bond charge predicted
       N       E                     dE             d eps       ncg     rms          rms(c)
DAV:   1     0.204647605048E+02    0.24738E-09   -0.93615E-11    84   0.158E-09    0.642E-04
RMM:   2     0.204647605050E+02    0.21100E-09    0.00000E+00     0   0.106E-09
 159 F= 0.20464761E+02 E0= 0.20474511E+02  d E =-.618456E-10
quench:  g(F)=  0.000E+00 g(S)=  0.000E+00 dE (1.order)= 0.000E+00
 bond charge predicted
       N       E                     dE             d eps       ncg     rms          rms(c)
DAV:   1     0.204647605049E+02    0.76398E-10   -0.63172E-11    84   0.186E-09    0.642E-04
RMM:   2     0.204647605050E+02    0.14916E-09    0.00000E+00     0   0.943E-10
 160 F= 0.20464761E+02 E0= 0.20474511E+02  d E =0.145519E-10
quench:  g(F)=  0.000E+00 g(S)=  0.000E+00 dE (1.order)= 0.000E+00
 bond charge predicted
       N       E                     dE             d eps       ncg     rms          rms(c)
DAV:   1     0.204647605047E+02   -0.12005E-09   -0.95475E-12    84   0.164E-09    0.642E-04
RMM:   2     0.204647605051E+02    0.37835E-09    0.00000E+00     0   0.777E-10
 161 F= 0.20464761E+02 E0= 0.20474511E+02  d E =0.109139E-09
quench:  g(F)=  0.000E+00 g(S)=  0.000E+00 dE (1.order)= 0.000E+00
 bond charge predicted
       N       E                     dE             d eps       ncg     rms          rms(c)
DAV:   1     0.204647605042E+02   -0.55297E-09   -0.37755E-11    84   0.111E-09    0.642E-04
RMM:   2     0.204647605052E+02    0.10477E-08    0.00000E+00     0   0.845E-10
 162 F= 0.20464761E+02 E0= 0.20474511E+02  d E =0.116415E-09
quench:  g(F)=  0.000E+00 g(S)=  0.000E+00 dE (1.order)= 0.000E+00
 bond charge predicted
       N       E                     dE             d eps       ncg     rms          rms(c)
DAV:   1     0.204647605052E+02    0.10332E-08   -0.74576E-11    84   0.761E-10    0.642E-04
RMM:   2     0.204647605051E+02   -0.98225E-10    0.00000E+00     0   0.704E-10
 163 F= 0.20464761E+02 E0= 0.20474511E+02  d E =-.112777E-09
quench:  g(F)=  0.000E+00 g(S)=  0.000E+00 dE (1.order)= 0.000E+00
 bond charge predicted
       N       E                     dE             d eps       ncg     rms          rms(c)
DAV:   1     0.204647605047E+02   -0.54933E-09   -0.66869E-11    84   0.725E-10    0.642E-04
RMM:   2     0.204647605050E+02    0.34561E-09    0.00000E+00     0   0.794E-10
 164 F= 0.20464761E+02 E0= 0.20474511E+02  d E =-.105501E-09
quench:  g(F)=  0.000E+00 g(S)=  0.000E+00 dE (1.order)= 0.000E+00
 bond charge predicted
       N       E                     dE             d eps       ncg     rms          rms(c)
DAV:   1     0.204647605054E+02    0.70213E-09   -0.33537E-11    84   0.705E-10    0.642E-04
RMM:   2     0.204647605051E+02   -0.26921E-09    0.00000E+00     0   0.552E-10
 165 F= 0.20464761E+02 E0= 0.20474511E+02  d E =0.873115E-10
quench:  g(F)=  0.000E+00 g(S)=  0.000E+00 dE (1.order)= 0.000E+00
 bond charge predicted
       N       E                     dE             d eps       ncg     rms          rms(c)
DAV:   1     0.204647605048E+02   -0.56025E-09   -0.42126E-11    84   0.772E-10    0.642E-04
RMM:   2     0.204647605050E+02    0.21828E-09    0.00000E+00     0   0.881E-10
 166 F= 0.20464761E+02 E0= 0.20474511E+02  d E =-.727596E-10
quench:  g(F)=  0.000E+00 g(S)=  0.000E+00 dE (1.order)= 0.000E+00
 bond charge predicted
       N       E                     dE             d eps       ncg     rms          rms(c)
DAV:   1     0.204647605051E+02    0.26193E-09   -0.65563E-11    84   0.735E-10    0.642E-04
RMM:   2     0.204647605051E+02    0.21828E-10    0.00000E+00     0   0.804E-10
 167 F= 0.20464761E+02 E0= 0.20474511E+02  d E =0.654836E-10
quench:  g(F)=  0.000E+00 g(S)=  0.000E+00 dE (1.order)= 0.000E+00
 bond charge predicted
       N       E                     dE             d eps       ncg     rms          rms(c)
DAV:   1     0.204647605054E+02    0.32378E-09   -0.82975E-11    84   0.115E-09    0.642E-04
RMM:   2     0.204647605051E+02   -0.29468E-09    0.00000E+00     0   0.840E-10
 168 F= 0.20464761E+02 E0= 0.20474511E+02  d E =0.727596E-11
quench:  g(F)=  0.000E+00 g(S)=  0.000E+00 dE (1.order)= 0.000E+00
 bond charge predicted
       N       E                     dE             d eps       ncg     rms          rms(c)
DAV:   1     0.204647605054E+02    0.40018E-10   -0.73499E-11    84   0.123E-09    0.642E-04
RMM:   2     0.204647605052E+02   -0.25466E-09    0.00000E+00     0   0.761E-10
 169 F= 0.20464761E+02 E0= 0.20474511E+02  d E =0.800355E-10
quench:  g(F)=  0.000E+00 g(S)=  0.000E+00 dE (1.order)= 0.000E+00
 bond charge predicted
       N       E                     dE             d eps       ncg     rms          rms(c)
DAV:   1     0.204647605050E+02   -0.42928E-09    0.72814E-12    84   0.953E-10    0.642E-04
RMM:   2     0.204647605052E+02    0.23283E-09    0.00000E+00     0   0.816E-10
 170 F= 0.20464761E+02 E0= 0.20474511E+02  d E =0.582077E-10
quench:  g(F)=  0.000E+00 g(S)=  0.000E+00 dE (1.order)= 0.000E+00
 bond charge predicted
       N       E                     dE             d eps       ncg     rms          rms(c)
DAV:   1     0.204647605051E+02    0.72760E-10   -0.31729E-11    84   0.771E-10    0.642E-04
RMM:   2     0.204647605053E+02    0.18554E-09    0.00000E+00     0   0.739E-10
 171 F= 0.20464761E+02 E0= 0.20474511E+02  d E =0.254659E-10
quench:  g(F)=  0.000E+00 g(S)=  0.000E+00 dE (1.order)= 0.000E+00
 bond charge predicted
       N       E                     dE             d eps       ncg     rms          rms(c)
DAV:   1     0.204647605055E+02    0.40382E-09   -0.61398E-11    84   0.106E-09    0.642E-04
RMM:   2     0.204647605050E+02   -0.47658E-09    0.00000E+00     0   0.616E-10
 172 F= 0.20464761E+02 E0= 0.20474511E+02  d E =-.258296E-09
quench:  g(F)=  0.000E+00 g(S)=  0.000E+00 dE (1.order)= 0.000E+00
 bond charge predicted
       N       E                     dE             d eps       ncg     rms          rms(c)
DAV:   1     0.204647605052E+02   -0.25102E-09    0.16661E-11    84   0.115E-09    0.642E-04
RMM:   2     0.204647605052E+02    0.72760E-11    0.00000E+00     0   0.100E-09
 173 F= 0.20464761E+02 E0= 0.20474511E+02  d E =0.232831E-09
quench:  g(F)=  0.000E+00 g(S)=  0.000E+00 dE (1.order)= 0.000E+00
 bond charge predicted
       N       E                     dE             d eps       ncg     rms          rms(c)
DAV:   1     0.204647605048E+02   -0.44383E-09   -0.76589E-12    84   0.214E-09    0.642E-04
RMM:   2     0.204647605050E+02    0.21828E-09    0.00000E+00     0   0.128E-09
 174 F= 0.20464761E+02 E0= 0.20474511E+02  d E =-.232831E-09
quench:  g(F)=  0.000E+00 g(S)=  0.000E+00 dE (1.order)= 0.000E+00
 bond charge predicted
       N       E                     dE             d eps       ncg     rms          rms(c)
DAV:   1     0.204647605052E+02    0.44747E-09    0.17397E-11    84   0.225E-09    0.642E-04
RMM:   2     0.204647605052E+02   -0.32742E-10    0.00000E+00     0   0.122E-09
 175 F= 0.20464761E+02 E0= 0.20474511E+02  d E =0.196451E-09
quench:  g(F)=  0.000E+00 g(S)=  0.000E+00 dE (1.order)= 0.000E+00
 bond charge predicted
       N       E                     dE             d eps       ncg     rms          rms(c)
DAV:   1     0.204647605053E+02    0.98225E-10   -0.56576E-11    84   0.117E-09    0.642E-04
RMM:   2     0.204647605051E+02   -0.21828E-09    0.00000E+00     0   0.716E-10
 176 F= 0.20464761E+02 E0= 0.20474511E+02  d E =-.873115E-10
quench:  g(F)=  0.000E+00 g(S)=  0.000E+00 dE (1.order)= 0.000E+00
 bond charge predicted
[...]
 bond charge predicted
       N       E                     dE             d eps       ncg     rms          rms(c)
DAV:   1     0.204647605051E+02   -0.15643E-09   -0.41317E-11    84   0.120E-09    0.642E-04
RMM:   2     0.204647605052E+02    0.83674E-10    0.00000E+00     0   0.809E-10
 953 F= 0.20464761E+02 E0= 0.20474511E+02  d E =0.178261E-09
quench:  g(F)=  0.000E+00 g(S)=  0.000E+00 dE (1.order)= 0.000E+00
 bond charge predicted
       N       E                     dE             d eps       ncg     rms          rms(c)
DAV:   1     0.204647605048E+02   -0.32014E-09   -0.36726E-11    84   0.125E-09    0.642E-04
RMM:   2     0.204647605053E+02    0.48021E-09    0.00000E+00     0   0.977E-10
 954 F= 0.20464761E+02 E0= 0.20474511E+02  d E =0.763976E-10
quench:  g(F)=  0.000E+00 g(S)=  0.000E+00 dE (1.order)= 0.000E+00
 bond charge predicted
       N       E                     dE             d eps       ncg     rms          rms(c)
DAV:   1     0.204647605050E+02    0.16371E-09   -0.65287E-11    84   0.885E-10    0.642E-04
RMM:   2     0.204647605051E+02    0.16735E-09    0.00000E+00     0   0.117E-09
 955 F= 0.20464761E+02 E0= 0.20474511E+02  d E =-.149157E-09
quench:  g(F)=  0.000E+00 g(S)=  0.000E+00 dE (1.order)= 0.000E+00
 bond charge predicted
       N       E                     dE             d eps       ncg     rms          rms(c)
DAV:   1     0.204647605052E+02    0.26921E-09   -0.55999E-11    84   0.178E-09    0.642E-04
RMM:   2     0.204647605051E+02   -0.13097E-09    0.00000E+00     0   0.116E-09
 956 F= 0.20464761E+02 E0= 0.20474511E+02  d E =-.291038E-10
quench:  g(F)=  0.000E+00 g(S)=  0.000E+00 dE (1.order)= 0.000E+00
 bond charge predicted
       N       E                     dE             d eps       ncg     rms          rms(c)
DAV:   1     0.204647605054E+02    0.18554E-09   -0.14779E-11    84   0.123E-09    0.642E-04
RMM:   2     0.204647605053E+02   -0.12369E-09    0.00000E+00     0   0.692E-10
 957 F= 0.20464761E+02 E0= 0.20474511E+02  d E =0.192813E-09
quench:  g(F)=  0.000E+00 g(S)=  0.000E+00 dE (1.order)= 0.000E+00
 bond charge predicted
       N       E                     dE             d eps       ncg     rms          rms(c)
DAV:   1     0.204647605055E+02    0.61846E-10   -0.42030E-11    84   0.145E-09    0.642E-04
RMM:   2     0.204647605052E+02   -0.30923E-09    0.00000E+00     0   0.749E-10
 958 F= 0.20464761E+02 E0= 0.20474511E+02  d E =-.123691E-09
quench:  g(F)=  0.000E+00 g(S)=  0.000E+00 dE (1.order)= 0.000E+00
 bond charge predicted
       N       E                     dE             d eps       ncg     rms          rms(c)
DAV:   1     0.204647605055E+02    0.00000E+00   -0.98514E-12    84   0.984E-10    0.642E-04
RMM:   2     0.204647605051E+02   -0.34561E-09    0.00000E+00     0   0.559E-10
 959 F= 0.20464761E+02 E0= 0.20474511E+02  d E =-.363798E-10
quench:  g(F)=  0.000E+00 g(S)=  0.000E+00 dE (1.order)= 0.000E+00
 bond charge predicted
       N       E                     dE             d eps       ncg     rms          rms(c)
DAV:   1     0.204647605052E+02   -0.23283E-09   -0.30569E-11    84   0.498E-10    0.642E-04
RMM:   2     0.204647605052E+02   -0.18190E-10    0.00000E+00     0   0.638E-10
 960 F= 0.20464761E+02 E0= 0.20474511E+02  d E =0.945874E-10
quench:  g(F)=  0.000E+00 g(S)=  0.000E+00 dE (1.order)= 0.000E+00
 bond charge predicted
       N       E                     dE             d eps       ncg     rms          rms(c)
DAV:   1     0.204647605056E+02    0.31650E-09   -0.59391E-11    84   0.528E-10    0.642E-04
RMM:   2     0.204647605050E+02   -0.53842E-09    0.00000E+00     0   0.940E-10
 961 F= 0.20464761E+02 E0= 0.20474511E+02  d E =-.203727E-09
quench:  g(F)=  0.000E+00 g(S)=  0.000E+00 dE (1.order)= 0.000E+00
 bond charge predicted
       N       E                     dE             d eps       ncg     rms          rms(c)
DAV:   1     0.204647605056E+02    0.58208E-10   -0.10724E-10    84   0.648E-10    0.642E-04
RMM:   2     0.204647605052E+02   -0.45111E-09    0.00000E+00     0   0.749E-10
 962 F= 0.20464761E+02 E0= 0.20474511E+02  d E =0.145519E-09
quench:  g(F)=  0.000E+00 g(S)=  0.000E+00 dE (1.order)= 0.000E+00
 bond charge predicted
       N       E                     dE             d eps       ncg     rms          rms(c)
DAV:   1     0.204647605048E+02   -0.81855E-09   -0.13466E-10    84   0.909E-10    0.642E-04
RMM:   2     0.204647605052E+02    0.38199E-09    0.00000E+00     0   0.751E-10
 963 F= 0.20464761E+02 E0= 0.20474511E+02  d E =0.145519E-10
quench:  g(F)=  0.000E+00 g(S)=  0.000E+00 dE (1.order)= 0.000E+00
 bond charge predicted
       N       E                     dE             d eps       ncg     rms          rms(c)
DAV:   1     0.204647605056E+02    0.79672E-09   -0.88487E-11    84   0.113E-09    0.642E-04
RMM:   2     0.204647605051E+02   -0.53114E-09    0.00000E+00     0   0.802E-10
 964 F= 0.20464761E+02 E0= 0.20474511E+02  d E =-.116415E-09
quench:  g(F)=  0.000E+00 g(S)=  0.000E+00 dE (1.order)= 0.000E+00
 bond charge predicted
       N       E                     dE             d eps       ncg     rms          rms(c)
DAV:   1     0.204647605048E+02   -0.75670E-09    0.17231E-11    84   0.136E-09    0.642E-04
RMM:   2     0.204647605051E+02    0.26557E-09    0.00000E+00     0   0.111E-09
 965 F= 0.20464761E+02 E0= 0.20474511E+02  d E =0.400178E-10
quench:  g(F)=  0.000E+00 g(S)=  0.000E+00 dE (1.order)= 0.000E+00
 bond charge predicted
       N       E                     dE             d eps       ncg     rms          rms(c)
DAV:   1     0.204647605054E+02    0.58935E-09   -0.54547E-11    84   0.117E-09    0.642E-04
RMM:   2     0.204647605052E+02   -0.25466E-09    0.00000E+00     0   0.588E-10
 966 F= 0.20464761E+02 E0= 0.20474511E+02  d E =0.691216E-10
quench:  g(F)=  0.000E+00 g(S)=  0.000E+00 dE (1.order)= 0.000E+00
 bond charge predicted
       N       E                     dE             d eps       ncg     rms          rms(c)
DAV:   1     0.204647605045E+02   -0.93860E-09   -0.21375E-11    84   0.720E-10    0.642E-04
RMM:   2     0.204647605051E+02    0.57480E-09    0.00000E+00     0   0.986E-10
 967 F= 0.20464761E+02 E0= 0.20474511E+02  d E =-.109139E-09
quench:  g(F)=  0.000E+00 g(S)=  0.000E+00 dE (1.order)= 0.000E+00
 bond charge predicted
       N       E                     dE             d eps       ncg     rms          rms(c)
DAV:   1     0.204647605055E+02    0.10004E-08   -0.95446E-12    84   0.457E-10    0.642E-04
RMM:   2     0.204647605050E+02   -0.48385E-09    0.00000E+00     0   0.476E-10
 968 F= 0.20464761E+02 E0= 0.20474511E+02  d E =-.582077E-10
quench:  g(F)=  0.000E+00 g(S)=  0.000E+00 dE (1.order)= 0.000E+00
 bond charge predicted
       N       E                     dE             d eps       ncg     rms          rms(c)
DAV:   1     0.204647605046E+02   -0.87675E-09   -0.55561E-11    84   0.684E-10    0.642E-04
RMM:   2     0.204647605053E+02    0.68394E-09    0.00000E+00     0   0.120E-09
 969 F= 0.20464761E+02 E0= 0.20474511E+02  d E =0.291038E-09
quench:  g(F)=  0.000E+00 g(S)=  0.000E+00 dE (1.order)= 0.000E+00
 bond charge predicted
       N       E                     dE             d eps       ncg     rms          rms(c)
DAV:   1     0.204647605049E+02    0.24011E-09   -0.96723E-11    84   0.112E-09    0.642E-04
RMM:   2     0.204647605050E+02    0.19281E-09    0.00000E+00     0   0.646E-10
 970 F= 0.20464761E+02 E0= 0.20474511E+02  d E =-.251021E-09
quench:  g(F)=  0.000E+00 g(S)=  0.000E+00 dE (1.order)= 0.000E+00
 bond charge predicted
       N       E                     dE             d eps       ncg     rms          rms(c)
DAV:   1     0.204647605051E+02    0.28740E-09   -0.54638E-11    84   0.833E-10    0.642E-04
RMM:   2     0.204647605052E+02    0.25466E-10    0.00000E+00     0   0.676E-10
 971 F= 0.20464761E+02 E0= 0.20474511E+02  d E =0.120053E-09
quench:  g(F)=  0.000E+00 g(S)=  0.000E+00 dE (1.order)= 0.000E+00
 bond charge predicted
       N       E                     dE             d eps       ncg     rms          rms(c)
DAV:   1     0.204647605044E+02   -0.71668E-09   -0.47001E-11    84   0.848E-10    0.642E-04
RMM:   2     0.204647605051E+02    0.65847E-09    0.00000E+00     0   0.646E-10
 972 F= 0.20464761E+02 E0= 0.20474511E+02  d E =-.836735E-10
quench:  g(F)=  0.000E+00 g(S)=  0.000E+00 dE (1.order)= 0.000E+00
 bond charge predicted
       N       E                     dE             d eps       ncg     rms          rms(c)
DAV:   1     0.204647605052E+02    0.81491E-09   -0.90932E-11    84   0.595E-10    0.642E-04
RMM:   2     0.204647605051E+02   -0.10186E-09    0.00000E+00     0   0.728E-10
 973 F= 0.20464761E+02 E0= 0.20474511E+02  d E =0.545697E-10
quench:  g(F)=  0.000E+00 g(S)=  0.000E+00 dE (1.order)= 0.000E+00
 bond charge predicted
       N       E                     dE             d eps       ncg     rms          rms(c)
DAV:   1     0.204647605056E+02    0.33833E-09   -0.20768E-11    84   0.953E-10    0.642E-04
RMM:   2     0.204647605052E+02   -0.42564E-09    0.00000E+00     0   0.612E-10
 974 F= 0.20464761E+02 E0= 0.20474511E+02  d E =0.145519E-10
quench:  g(F)=  0.000E+00 g(S)=  0.000E+00 dE (1.order)= 0.000E+00
 bond charge predicted
       N       E                     dE             d eps       ncg     rms          rms(c)
DAV:   1     0.204647605052E+02   -0.34925E-09   -0.49289E-11    84   0.727E-10    0.642E-04
RMM:   2     0.204647605052E+02    0.10914E-10    0.00000E+00     0   0.965E-10
 975 F= 0.20464761E+02 E0= 0.20474511E+02  d E =0.873115E-10
quench:  g(F)=  0.000E+00 g(S)=  0.000E+00 dE (1.order)= 0.000E+00
 bond charge predicted
       N       E                     dE             d eps       ncg     rms          rms(c)
DAV:   1     0.204647605049E+02   -0.37471E-09   -0.36458E-11    84   0.904E-10    0.642E-04
RMM:   2     0.204647605050E+02    0.10550E-09    0.00000E+00     0   0.587E-10
 976 F= 0.20464761E+02 E0= 0.20474511E+02  d E =-.280124E-09
quench:  g(F)=  0.000E+00 g(S)=  0.000E+00 dE (1.order)= 0.000E+00
 bond charge predicted
       N       E                     dE             d eps       ncg     rms          rms(c)
DAV:   1     0.204647605052E+02    0.34925E-09    0.38161E-11    84   0.539E-10    0.642E-04
RMM:   2     0.204647605052E+02   -0.10914E-10    0.00000E+00     0   0.653E-10
 977 F= 0.20464761E+02 E0= 0.20474511E+02  d E =0.232831E-09
quench:  g(F)=  0.000E+00 g(S)=  0.000E+00 dE (1.order)= 0.000E+00
 bond charge predicted
       N       E                     dE             d eps       ncg     rms          rms(c)
DAV:   1     0.204647605044E+02   -0.79308E-09   -0.75368E-11    84   0.857E-10    0.642E-04
RMM:   2     0.204647605053E+02    0.84401E-09    0.00000E+00     0   0.559E-10
 978 F= 0.20464761E+02 E0= 0.20474511E+02  d E =0.618456E-10
quench:  g(F)=  0.000E+00 g(S)=  0.000E+00 dE (1.order)= 0.000E+00
 bond charge predicted
       N       E                     dE             d eps       ncg     rms          rms(c)
DAV:   1     0.204647605055E+02    0.10805E-08   -0.88750E-11    84   0.632E-10    0.642E-04
RMM:   2     0.204647605050E+02   -0.45475E-09    0.00000E+00     0   0.972E-10
 979 F= 0.20464761E+02 E0= 0.20474511E+02  d E =-.218279E-09
quench:  g(F)=  0.000E+00 g(S)=  0.000E+00 dE (1.order)= 0.000E+00
 bond charge predicted
       N       E                     dE             d eps       ncg     rms          rms(c)
DAV:   1     0.204647605055E+02    0.32742E-10   -0.45001E-11    84   0.828E-10    0.642E-04
RMM:   2     0.204647605050E+02   -0.50932E-09    0.00000E+00     0   0.116E-09
 980 F= 0.20464761E+02 E0= 0.20474511E+02  d E =-.218279E-10
quench:  g(F)=  0.000E+00 g(S)=  0.000E+00 dE (1.order)= 0.000E+00
 bond charge predicted
       N       E                     dE             d eps       ncg     rms          rms(c)
DAV:   1     0.204647605053E+02   -0.21828E-09   -0.54248E-11    84   0.225E-09    0.642E-04
RMM:   2     0.204647605051E+02   -0.16735E-09    0.00000E+00     0   0.133E-09
 981 F= 0.20464761E+02 E0= 0.20474511E+02  d E =0.123691E-09
quench:  g(F)=  0.000E+00 g(S)=  0.000E+00 dE (1.order)= 0.000E+00
 bond charge predicted
       N       E                     dE             d eps       ncg     rms          rms(c)
DAV:   1     0.204647605054E+02    0.11642E-09   -0.52907E-11    84   0.139E-09    0.642E-04
RMM:   2     0.204647605050E+02   -0.41473E-09    0.00000E+00     0   0.130E-09
 982 F= 0.20464761E+02 E0= 0.20474511E+02  d E =-.130967E-09
quench:  g(F)=  0.000E+00 g(S)=  0.000E+00 dE (1.order)= 0.000E+00
 bond charge predicted
       N       E                     dE             d eps       ncg     rms          rms(c)
DAV:   1     0.204647605046E+02   -0.82218E-09    0.75206E-11    84   0.177E-09    0.642E-04
RMM:   2     0.204647605052E+02    0.61118E-09    0.00000E+00     0   0.589E-10
 983 F= 0.20464761E+02 E0= 0.20474511E+02  d E =0.203727E-09
quench:  g(F)=  0.000E+00 g(S)=  0.000E+00 dE (1.order)= 0.000E+00
 bond charge predicted
       N       E                     dE             d eps       ncg     rms          rms(c)
DAV:   1     0.204647605052E+02    0.63301E-09   -0.86348E-11    84   0.674E-10    0.642E-04
RMM:   2     0.204647605052E+02   -0.29104E-10    0.00000E+00     0   0.689E-10
 984 F= 0.20464761E+02 E0= 0.20474511E+02  d E =-.727596E-11
quench:  g(F)=  0.000E+00 g(S)=  0.000E+00 dE (1.order)= 0.000E+00
 bond charge predicted
       N       E                     dE             d eps       ncg     rms          rms(c)
DAV:   1     0.204647605054E+02    0.13824E-09   -0.37386E-11    84   0.733E-10    0.642E-04
RMM:   2     0.204647605052E+02   -0.18917E-09    0.00000E+00     0   0.789E-10
 985 F= 0.20464761E+02 E0= 0.20474511E+02  d E =-.218279E-10
quench:  g(F)=  0.000E+00 g(S)=  0.000E+00 dE (1.order)= 0.000E+00
 bond charge predicted
       N       E                     dE             d eps       ncg     rms          rms(c)
DAV:   1     0.204647605054E+02    0.40018E-10   -0.49000E-11    84   0.773E-10    0.642E-04
RMM:   2     0.204647605052E+02   -0.20009E-09    0.00000E+00     0   0.676E-10
 986 F= 0.20464761E+02 E0= 0.20474511E+02  d E =0.291038E-10
quench:  g(F)=  0.000E+00 g(S)=  0.000E+00 dE (1.order)= 0.000E+00
 bond charge predicted
       N       E                     dE             d eps       ncg     rms          rms(c)
DAV:   1     0.204647605052E+02   -0.23283E-09   -0.18360E-11    84   0.101E-09    0.642E-04
RMM:   2     0.204647605050E+02   -0.13824E-09    0.00000E+00     0   0.629E-10
 987 F= 0.20464761E+02 E0= 0.20474511E+02  d E =-.170985E-09
quench:  g(F)=  0.000E+00 g(S)=  0.000E+00 dE (1.order)= 0.000E+00
 bond charge predicted
       N       E                     dE             d eps       ncg     rms          rms(c)
DAV:   1     0.204647605048E+02   -0.39290E-09   -0.30304E-11    84   0.128E-09    0.642E-04
RMM:   2     0.204647605051E+02    0.33833E-09    0.00000E+00     0   0.132E-09
 988 F= 0.20464761E+02 E0= 0.20474511E+02  d E =0.836735E-10
quench:  g(F)=  0.000E+00 g(S)=  0.000E+00 dE (1.order)= 0.000E+00
 bond charge predicted
       N       E                     dE             d eps       ncg     rms          rms(c)
DAV:   1     0.204647605056E+02    0.78944E-09   -0.95554E-11    84   0.148E-09    0.642E-04
RMM:   2     0.204647605052E+02   -0.39654E-09    0.00000E+00     0   0.858E-10
 989 F= 0.20464761E+02 E0= 0.20474511E+02  d E =0.545697E-10
quench:  g(F)=  0.000E+00 g(S)=  0.000E+00 dE (1.order)= 0.000E+00
 bond charge predicted
       N       E                     dE             d eps       ncg     rms          rms(c)
DAV:   1     0.204647605048E+02   -0.73487E-09    0.15779E-11    84   0.122E-09    0.642E-04
RMM:   2     0.204647605051E+02    0.25466E-09    0.00000E+00     0   0.818E-10
 990 F= 0.20464761E+02 E0= 0.20474511E+02  d E =-.836735E-10
quench:  g(F)=  0.000E+00 g(S)=  0.000E+00 dE (1.order)= 0.000E+00
 bond charge predicted
       N       E                     dE             d eps       ncg     rms          rms(c)
DAV:   1     0.204647605055E+02    0.66211E-09   -0.62764E-11    84   0.103E-09    0.642E-04
RMM:   2     0.204647605049E+02   -0.57480E-09    0.00000E+00     0   0.115E-09
 991 F= 0.20464761E+02 E0= 0.20474511E+02  d E =-.167347E-09
quench:  g(F)=  0.000E+00 g(S)=  0.000E+00 dE (1.order)= 0.000E+00
 bond charge predicted
       N       E                     dE             d eps       ncg     rms          rms(c)
DAV:   1     0.204647605052E+02   -0.33833E-09   -0.46782E-11    84   0.997E-10    0.642E-04
RMM:   2     0.204647605049E+02   -0.22192E-09    0.00000E+00     0   0.986E-10
 992 F= 0.20464761E+02 E0= 0.20474511E+02  d E =0.145519E-10
quench:  g(F)=  0.000E+00 g(S)=  0.000E+00 dE (1.order)= 0.000E+00
 bond charge predicted
       N       E                     dE             d eps       ncg     rms          rms(c)
DAV:   1     0.204647605051E+02   -0.11278E-09   -0.65890E-11    84   0.890E-10    0.642E-04
RMM:   2     0.204647605052E+02    0.12369E-09    0.00000E+00     0   0.556E-10
 993 F= 0.20464761E+02 E0= 0.20474511E+02  d E =0.232831E-09
quench:  g(F)=  0.000E+00 g(S)=  0.000E+00 dE (1.order)= 0.000E+00
 bond charge predicted
       N       E                     dE             d eps       ncg     rms          rms(c)
DAV:   1     0.204647605051E+02    0.80036E-10   -0.70858E-11    84   0.791E-10    0.642E-04
RMM:   2     0.204647605051E+02   -0.54570E-10    0.00000E+00     0   0.639E-10
 994 F= 0.20464761E+02 E0= 0.20474511E+02  d E =-.982254E-10
quench:  g(F)=  0.000E+00 g(S)=  0.000E+00 dE (1.order)= 0.000E+00
 bond charge predicted
       N       E                     dE             d eps       ncg     rms          rms(c)
DAV:   1     0.204647605052E+02    0.76398E-10   -0.38093E-11    84   0.925E-10    0.642E-04
RMM:   2     0.204647605052E+02   -0.58208E-10    0.00000E+00     0   0.623E-10
 995 F= 0.20464761E+02 E0= 0.20474511E+02  d E =0.727596E-10
quench:  g(F)=  0.000E+00 g(S)=  0.000E+00 dE (1.order)= 0.000E+00
 bond charge predicted
       N       E                     dE             d eps       ncg     rms          rms(c)
DAV:   1     0.204647605050E+02   -0.16007E-09   -0.31972E-11    84   0.116E-09    0.642E-04
RMM:   2     0.204647605052E+02    0.18554E-09    0.00000E+00     0   0.841E-10
 996 F= 0.20464761E+02 E0= 0.20474511E+02  d E =0.836735E-10
quench:  g(F)=  0.000E+00 g(S)=  0.000E+00 dE (1.order)= 0.000E+00
 bond charge predicted
       N       E                     dE             d eps       ncg     rms          rms(c)
DAV:   1     0.204647605044E+02   -0.60754E-09   -0.83486E-11    84   0.114E-09    0.642E-04
RMM:   2     0.204647605052E+02    0.72032E-09    0.00000E+00     0   0.892E-10
 997 F= 0.20464761E+02 E0= 0.20474511E+02  d E =-.727596E-10
quench:  g(F)=  0.000E+00 g(S)=  0.000E+00 dE (1.order)= 0.000E+00
 bond charge predicted
       N       E                     dE             d eps       ncg     rms          rms(c)
DAV:   1     0.204647605058E+02    0.13752E-08   -0.99663E-11    84   0.126E-09    0.642E-04
RMM:   2     0.204647605052E+02   -0.56752E-09    0.00000E+00     0   0.827E-10
 998 F= 0.20464761E+02 E0= 0.20474511E+02  d E =0.873115E-10
quench:  g(F)=  0.000E+00 g(S)=  0.000E+00 dE (1.order)= 0.000E+00
 bond charge predicted
       N       E                     dE             d eps       ncg     rms          rms(c)
DAV:   1     0.204647605050E+02   -0.81491E-09   -0.73555E-11    84   0.109E-09    0.642E-04
RMM:   2     0.204647605050E+02   -0.36380E-11    0.00000E+00     0   0.881E-10
 999 F= 0.20464761E+02 E0= 0.20474511E+02  d E =-.251021E-09
quench:  g(F)=  0.000E+00 g(S)=  0.000E+00 dE (1.order)= 0.000E+00
 bond charge predicted
       N       E                     dE             d eps       ncg     rms          rms(c)
DAV:   1     0.204647605048E+02   -0.18917E-09   -0.36238E-11    84   0.901E-10    0.642E-04
RMM:   2     0.204647605053E+02    0.44383E-09    0.00000E+00     0   0.871E-10
1000 F= 0.20464761E+02 E0= 0.20474511E+02  d E =0.258296E-09
quench:  g(F)=  0.000E+00 g(S)=  0.000E+00 dE (1.order)= 0.000E+00
