  55  55   0   0
  0.2301251E+02  0.1218282E-08  0.7661564E-09  0.1373046E-08  0.0000000E+00
   1.0000000000000000E-004
  CAR 
 NEB_bottleneck                          
      9.31946632    -24.03857710  301      1.40359616      1.00000000
    -24.039  0.0000E+00  0.0000E+00
    -23.927  0.0000E+00  0.0000E+00
    -23.816  0.0000E+00  0.0000E+00
    -23.705 -0.3606E-31 -0.4010E-32
    -23.594 -0.2680E-27 -0.2981E-28
    -23.483 -0.1072E-23 -0.1192E-24
    -23.371 -0.2305E-20 -0.2565E-21
    -23.260 -0.2665E-17 -0.2966E-18
    -23.149 -0.1602E-14 -0.1784E-15
    -23.038 -0.5287E-12 -0.5896E-13
    -22.927 -0.9303E-10 -0.1040E-10
    -22.815 -0.8677E-08 -0.9752E-09
    -22.704 -0.4247E-06 -0.4820E-07
    -22.593 -0.1071E-04 -0.1239E-05
    -22.482 -0.1338E-03 -0.1612E-04
    -22.371 -0.7455E-03 -0.9902E-04
    -22.259 -0.1061E-02 -0.2170E-03
    -22.148  0.4781E-02  0.3147E-03
    -22.037  0.1825E-01  0.2343E-02
    -21.926  0.2423E-01  0.5037E-02
    -21.815  0.2157E-01  0.7436E-02
    -21.704  0.2364E-01  0.1006E-01
    -21.592  0.4711E-01  0.1530E-01
    -21.481  0.1202E+00  0.2867E-01
    -21.370  0.2010E+00  0.5102E-01
    -21.259  0.2257E+00  0.7612E-01
    -21.148  0.2236E+00  0.1010E+00
    -21.036  0.1915E+00  0.1223E+00
    -20.925  0.1090E+00  0.1344E+00
    -20.814  0.3456E-01  0.1382E+00
    -20.703  0.2895E-02  0.1386E+00
    -20.592 -0.3074E-02  0.1382E+00
    -20.480 -0.1591E-02  0.1380E+00
    -20.369 -0.3305E-03  0.1380E+00
    -20.258 -0.3335E-04  0.1380E+00
    -20.147 -0.1712E-05  0.1380E+00
    -20.036 -0.4568E-07  0.1380E+00
    -19.924 -0.6416E-09  0.1380E+00
    -19.813 -0.4778E-11  0.1380E+00
    -19.702 -0.1895E-13  0.1380E+00
    -19.591 -0.4393E-16  0.1380E+00
    -19.480  0.0000E+00  0.1380E+00
    -19.368  0.0000E+00  0.1380E+00
    -19.257  0.0000E+00  0.1380E+00
    -19.146  0.0000E+00  0.1380E+00
    -19.035  0.0000E+00  0.1380E+00
    -18.924  0.0000E+00  0.1380E+00
    -18.812  0.0000E+00  0.1380E+00
    -18.701  0.0000E+00  0.1380E+00
    -18.590  0.0000E+00  0.1380E+00
    -18.479  0.0000E+00  0.1380E+00
    -18.368  0.0000E+00  0.1380E+00
    -18.257  0.0000E+00  0.1380E+00
    -18.145  0.0000E+00  0.1380E+00
    -18.034  0.0000E+00  0.1380E+00
    -17.923  0.0000E+00  0.1380E+00
    -17.812  0.0000E+00  0.1380E+00
    -17.701  0.0000E+00  0.1380E+00
    -17.589  0.0000E+00  0.1380E+00
    -17.478  0.0000E+00  0.1380E+00
    -17.367  0.0000E+00  0.1380E+00
    -17.256  0.0000E+00  0.1380E+00
    -17.145  0.0000E+00  0.1380E+00
    -17.033  0.0000E+00  0.1380E+00
    -16.922  0.0000E+00  0.1380E+00
    -16.811  0.0000E+00  0.1380E+00
    -16.700  0.0000E+00  0.1380E+00
    -16.589  0.0000E+00  0.1380E+00
    -16.477  0.0000E+00  0.1380E+00
    -16.366  0.0000E+00  0.1380E+00
    -16.255  0.0000E+00  0.1380E+00
    -16.144  0.0000E+00  0.1380E+00
    -16.033  0.0000E+00  0.1380E+00
    -15.921  0.0000E+00  0.1380E+00
    -15.810  0.0000E+00  0.1380E+00
    -15.699  0.0000E+00  0.1380E+00
    -15.588  0.0000E+00  0.1380E+00
    -15.477  0.0000E+00  0.1380E+00
    -15.365  0.0000E+00  0.1380E+00
    -15.254  0.0000E+00  0.1380E+00
    -15.143  0.0000E+00  0.1380E+00
    -15.032  0.0000E+00  0.1380E+00
    -14.921  0.0000E+00  0.1380E+00
    -14.810  0.0000E+00  0.1380E+00
    -14.698  0.0000E+00  0.1380E+00
    -14.587  0.0000E+00  0.1380E+00
    -14.476  0.0000E+00  0.1380E+00
    -14.365  0.0000E+00  0.1380E+00
    -14.254  0.0000E+00  0.1380E+00
    -14.142  0.0000E+00  0.1380E+00
    -14.031  0.0000E+00  0.1380E+00
    -13.920  0.0000E+00  0.1380E+00
    -13.809  0.0000E+00  0.1380E+00
    -13.698  0.0000E+00  0.1380E+00
    -13.586  0.0000E+00  0.1380E+00
    -13.475  0.0000E+00  0.1380E+00
    -13.364  0.0000E+00  0.1380E+00
    -13.253  0.0000E+00  0.1380E+00
    -13.142  0.0000E+00  0.1380E+00
    -13.030  0.0000E+00  0.1380E+00
    -12.919  0.0000E+00  0.1380E+00
    -12.808  0.0000E+00  0.1380E+00
    -12.697 -0.1012E-32  0.1380E+00
    -12.586 -0.9185E-29  0.1380E+00
    -12.474 -0.4469E-25  0.1380E+00
    -12.363 -0.1165E-21  0.1380E+00
    -12.252 -0.1626E-18  0.1380E+00
    -12.141 -0.1174E-15  0.1380E+00
    -12.030 -0.4657E-13  0.1380E+00
    -11.918 -0.9780E-11  0.1380E+00
    -11.807 -0.1086E-08  0.1380E+00
    -11.696 -0.6317E-07  0.1380E+00
    -11.585 -0.1902E-05  0.1380E+00
    -11.474 -0.2888E-04  0.1380E+00
    -11.363 -0.2083E-03  0.1380E+00
    -11.251 -0.5754E-03  0.1379E+00
    -11.140  0.4171E-03  0.1380E+00
    -11.029  0.5646E-02  0.1386E+00
    -10.918  0.1362E-01  0.1401E+00
    -10.807  0.1856E-01  0.1422E+00
    -10.695  0.1741E-01  0.1441E+00
    -10.584  0.1203E-01  0.1454E+00
    -10.473  0.5045E-02  0.1460E+00
    -10.362 -0.3331E-03  0.1460E+00
    -10.251 -0.1023E-02  0.1458E+00
    -10.139  0.6073E-02  0.1465E+00
    -10.028  0.2152E-01  0.1489E+00
     -9.917  0.3349E-01  0.1526E+00
     -9.806  0.3332E-01  0.1563E+00
     -9.695  0.3132E-01  0.1598E+00
     -9.583  0.3271E-01  0.1635E+00
     -9.472  0.3365E-01  0.1672E+00
     -9.361  0.3332E-01  0.1709E+00
     -9.250  0.3447E-01  0.1747E+00
     -9.139  0.3868E-01  0.1790E+00
     -9.027  0.3620E-01  0.1831E+00
     -8.916  0.2171E-01  0.1855E+00
     -8.805  0.6269E-02  0.1862E+00
     -8.694 -0.4667E-03  0.1861E+00
     -8.583 -0.8783E-03  0.1860E+00
     -8.471 -0.2405E-03  0.1860E+00
     -8.360 -0.2920E-04  0.1860E+00
     -8.249 -0.1768E-05  0.1860E+00
     -8.138 -0.5526E-07  0.1860E+00
     -8.027 -0.9053E-09  0.1860E+00
     -7.916 -0.7834E-11  0.1860E+00
     -7.804 -0.3598E-13  0.1860E+00
     -7.693 -0.8786E-16  0.1860E+00
     -7.582  0.0000E+00  0.1860E+00
     -7.471  0.0000E+00  0.1860E+00
     -7.360  0.0000E+00  0.1860E+00
     -7.248  0.0000E+00  0.1860E+00
     -7.137  0.0000E+00  0.1860E+00
     -7.026  0.0000E+00  0.1860E+00
     -6.915  0.0000E+00  0.1860E+00
     -6.804  0.0000E+00  0.1860E+00
     -6.692  0.0000E+00  0.1860E+00
     -6.581  0.0000E+00  0.1860E+00
     -6.470  0.0000E+00  0.1860E+00
     -6.359  0.0000E+00  0.1860E+00
     -6.248  0.0000E+00  0.1860E+00
     -6.136  0.0000E+00  0.1860E+00
     -6.025  0.0000E+00  0.1860E+00
     -5.914  0.0000E+00  0.1860E+00
     -5.803  0.0000E+00  0.1860E+00
     -5.692  0.0000E+00  0.1860E+00
     -5.580  0.0000E+00  0.1860E+00
     -5.469  0.0000E+00  0.1860E+00
     -5.358  0.0000E+00  0.1860E+00
     -5.247  0.0000E+00  0.1860E+00
     -5.136  0.0000E+00  0.1860E+00
     -5.024 -0.1062E-31  0.1860E+00
     -4.913 -0.8234E-28  0.1860E+00
     -4.802 -0.3425E-24  0.1860E+00
     -4.691 -0.7632E-21  0.1860E+00
     -4.580 -0.9100E-18  0.1860E+00
     -4.469 -0.5619E-15  0.1860E+00
     -4.357 -0.1895E-12  0.1860E+00
     -4.246 -0.3390E-10  0.1860E+00
     -4.135 -0.3197E-08  0.1860E+00
     -4.024 -0.1575E-06  0.1860E+00
     -3.913 -0.3982E-05  0.1860E+00
     -3.801 -0.4995E-04  0.1860E+00
     -3.690 -0.2851E-03  0.1860E+00
     -3.579 -0.5072E-03  0.1859E+00
     -3.468  0.1214E-02  0.1860E+00
     -3.357  0.6339E-02  0.1867E+00
     -3.245  0.1308E-01  0.1882E+00
     -3.134  0.2160E-01  0.1906E+00
     -3.023  0.2872E-01  0.1938E+00
     -2.912  0.2830E-01  0.1969E+00
     -2.801  0.2343E-01  0.1995E+00
     -2.689  0.1624E-01  0.2014E+00
     -2.578  0.6544E-02  0.2021E+00
     -2.467  0.2711E-03  0.2021E+00
     -2.356 -0.7409E-03  0.2020E+00
     -2.245 -0.3950E-03  0.2020E+00
     -2.133 -0.8276E-03  0.2019E+00
     -2.022 -0.1139E-02  0.2018E+00
     -1.911  0.4414E-02  0.2023E+00
     -1.800  0.2010E-01  0.2045E+00
     -1.689  0.3498E-01  0.2084E+00
     -1.577  0.3522E-01  0.2123E+00
     -1.466  0.2870E-01  0.2155E+00
     -1.355  0.2929E-01  0.2187E+00
     -1.244  0.3041E-01  0.2221E+00
     -1.133  0.2559E-01  0.2250E+00
     -1.022  0.2084E-01  0.2273E+00
     -0.910  0.2023E-01  0.2295E+00
     -0.799  0.2257E-01  0.2320E+00
     -0.688  0.2382E-01  0.2347E+00
     -0.577  0.2505E-01  0.2375E+00
     -0.466  0.3658E-01  0.2416E+00
     -0.354  0.5108E-01  0.2472E+00
     -0.243  0.5549E-01  0.2534E+00
     -0.132  0.5270E-01  0.2593E+00
     -0.021  0.4689E-01  0.2645E+00
      0.090  0.4287E-01  0.2692E+00
      0.202  0.4359E-01  0.2741E+00
      0.313  0.4090E-01  0.2786E+00
      0.424  0.3616E-01  0.2827E+00
      0.535  0.3718E-01  0.2868E+00
      0.646  0.4405E-01  0.2917E+00
      0.758  0.5270E-01  0.2975E+00
      0.869  0.5409E-01  0.3036E+00
      0.980  0.5063E-01  0.3092E+00
      1.091  0.5116E-01  0.3149E+00
      1.202  0.5426E-01  0.3209E+00
      1.314  0.4809E-01  0.3263E+00
      1.425  0.2817E-01  0.3294E+00
      1.536  0.7835E-02  0.3303E+00
      1.647 -0.8831E-03  0.3302E+00
      1.758 -0.1185E-02  0.3300E+00
      1.870 -0.2937E-03  0.3300E+00
      1.981 -0.3214E-04  0.3300E+00
      2.092 -0.1740E-05  0.3300E+00
      2.203 -0.4841E-07  0.3300E+00
      2.314 -0.7046E-09  0.3300E+00
      2.425 -0.5416E-11  0.3300E+00
      2.537 -0.2236E-13  0.3300E+00
      2.648 -0.9143E-13  0.3300E+00
      2.759 -0.1777E-10  0.3300E+00
      2.870 -0.1822E-08  0.3300E+00
      2.981 -0.9766E-07  0.3300E+00
      3.093 -0.2686E-05  0.3300E+00
      3.204 -0.3655E-04  0.3300E+00
      3.315 -0.2231E-03  0.3300E+00
      3.426 -0.3748E-03  0.3299E+00
      3.537  0.1462E-02  0.3301E+00
      3.649  0.6238E-02  0.3308E+00
      3.760  0.7830E-02  0.3317E+00
      3.871  0.3497E-02  0.3320E+00
      3.982 -0.9431E-04  0.3320E+00
      4.093 -0.7640E-03  0.3319E+00
      4.205  0.3957E-03  0.3320E+00
      4.316  0.4644E-02  0.3325E+00
      4.427  0.8039E-02  0.3334E+00
      4.538  0.4849E-02  0.3339E+00
      4.649  0.5177E-03  0.3340E+00
      4.761  0.2053E-02  0.3342E+00
      4.872  0.6827E-02  0.3350E+00
      4.983  0.6700E-02  0.3357E+00
      5.094  0.3798E-02  0.3362E+00
      5.205  0.5146E-02  0.3367E+00
      5.317  0.8833E-02  0.3377E+00
      5.428  0.1877E-01  0.3398E+00
      5.539  0.3173E-01  0.3433E+00
      5.650  0.3141E-01  0.3468E+00
      5.761  0.2243E-01  0.3493E+00
      5.872  0.1992E-01  0.3515E+00
      5.984  0.2547E-01  0.3544E+00
      6.095  0.3029E-01  0.3577E+00
      6.206  0.3186E-01  0.3613E+00
      6.317  0.2939E-01  0.3645E+00
      6.428  0.2611E-01  0.3674E+00
      6.540  0.3179E-01  0.3710E+00
      6.651  0.3671E-01  0.3751E+00
      6.762  0.3293E-01  0.3787E+00
      6.873  0.2640E-01  0.3817E+00
      6.984  0.2169E-01  0.3841E+00
      7.096  0.2416E-01  0.3868E+00
      7.207  0.3283E-01  0.3904E+00
      7.318  0.3281E-01  0.3940E+00
      7.429  0.1718E-01  0.3960E+00
      7.540  0.2433E-02  0.3962E+00
      7.652 -0.1358E-02  0.3961E+00
      7.763 -0.6108E-03  0.3960E+00
      7.874 -0.9733E-04  0.3960E+00
      7.985 -0.7420E-05  0.3960E+00
      8.096 -0.2900E-06  0.3960E+00
      8.208 -0.5955E-08  0.3960E+00
      8.319 -0.6494E-10  0.3960E+00
      8.430 -0.3779E-12  0.3960E+00
      8.541 -0.1182E-14  0.3960E+00
      8.652  0.0000E+00  0.3960E+00
      8.763  0.0000E+00  0.3960E+00
      8.875  0.0000E+00  0.3960E+00
      8.986  0.0000E+00  0.3960E+00
      9.097  0.0000E+00  0.3960E+00
      9.208  0.0000E+00  0.3960E+00
      9.319  0.0000E+00  0.3960E+00
