       N       E                     dE             d eps       ncg     rms          rms(c)
DAV:   1     0.319867520408E+04    0.31987E+04   -0.14702E+05   414   0.159E+03
DAV:   2     0.255365050835E+03   -0.29433E+04   -0.28235E+04   432   0.415E+02
DAV:   3    -0.204355956733E+03   -0.45972E+03   -0.45391E+03   486   0.173E+02
DAV:   4    -0.230156456891E+03   -0.25801E+02   -0.25582E+02   450   0.385E+01
DAV:   5    -0.231258643833E+03   -0.11022E+01   -0.11001E+01   558   0.844E+00    0.253E+01
RMM:   6    -0.218854423009E+03    0.12404E+02   -0.20883E+01   424   0.606E+00    0.168E+01
RMM:   7    -0.218445959330E+03    0.40846E+00   -0.27845E+01   449   0.602E+00    0.952E+00
RMM:   8    -0.217771589679E+03    0.67437E+00   -0.18989E+00   473   0.312E+00    0.599E+00
RMM:   9    -0.217849566214E+03   -0.77977E-01   -0.18326E+00   452   0.207E+00    0.229E+00
RMM:  10    -0.217722777123E+03    0.12679E+00   -0.34346E-01   522   0.122E+00    0.189E+00
RMM:  11    -0.217689677879E+03    0.33099E-01   -0.79240E-02   475   0.509E-01    0.120E+00
RMM:  12    -0.217684461615E+03    0.52163E-02   -0.57225E-02   474   0.332E-01    0.585E-01
RMM:  13    -0.217687976220E+03   -0.35146E-02   -0.15692E-02   464   0.221E-01    0.432E-01
RMM:  14    -0.217688396246E+03   -0.42003E-03   -0.55254E-03   449   0.148E-01    0.347E-01
RMM:  15    -0.217686429980E+03    0.19663E-02   -0.30889E-03   526   0.901E-02    0.164E-01
RMM:  16    -0.217686379224E+03    0.50756E-04   -0.93211E-04   437   0.517E-02    0.141E-01
RMM:  17    -0.217686661828E+03   -0.28260E-03   -0.79677E-04   435   0.460E-02    0.785E-02
RMM:  18    -0.217686515551E+03    0.14628E-03   -0.17190E-04   447   0.245E-02    0.223E-02
RMM:  19    -0.217686520860E+03   -0.53089E-05   -0.72888E-05   478   0.144E-02    0.225E-02
RMM:  20    -0.217686515596E+03    0.52635E-05   -0.11063E-05   344   0.734E-03    0.101E-02
RMM:  21    -0.217686513707E+03    0.18894E-05   -0.79035E-06   342   0.482E-03    0.476E-03
RMM:  22    -0.217686513769E+03   -0.62693E-07   -0.20069E-06   272   0.328E-03
   1 F= -.21768651E+03 E0= -.21769921E+03  d E =-.217687E+03
       N       E                     dE             d eps       ncg     rms          rms(c)
DAV:   1    -0.217686513918E+03   -0.21107E-06   -0.60353E-07   243   0.228E-03    0.147E-03
RMM:   2    -0.217686514036E+03   -0.11825E-06   -0.25978E-07   231   0.133E-03
   2 F= -.21768651E+03 E0= -.21769922E+03  d E =-.266624E-06
       N       E                     dE             d eps       ncg     rms          rms(c)
DAV:   1    -0.217686513990E+03   -0.72607E-07   -0.28940E-07   279   0.122E-03    0.108E-03
RMM:   2    -0.217686514006E+03   -0.15920E-07   -0.15161E-08   122   0.552E-04
   3 F= -.21768651E+03 E0= -.21769921E+03  d E =0.297223E-07
       N       E                     dE             d eps       ncg     rms          rms(c)
DAV:   1    -0.217686514024E+03   -0.33786E-07   -0.96847E-08   279   0.595E-04    0.680E-04
RMM:   2    -0.217686514043E+03   -0.18637E-07   -0.15897E-08    81   0.439E-04
   4 F= -.21768651E+03 E0= -.21769922E+03  d E =-.365035E-07
       N       E                     dE             d eps       ncg     rms          rms(c)
DAV:   1    -0.217686514008E+03    0.15942E-07   -0.14728E-07   261   0.608E-04    0.253E-04
RMM:   2    -0.217686514009E+03   -0.80036E-09    0.60802-187    45   0.283E-04
   5 F= -.21768651E+03 E0= -.21769921E+03  d E =0.337786E-07
       N       E                     dE             d eps       ncg     rms          rms(c)
DAV:   1    -0.217686514011E+03   -0.24811E-08   -0.15592E-08   243   0.296E-04    0.213E-04
RMM:   2    -0.217686514010E+03    0.62209E-09    0.36423-187    37   0.198E-04
   6 F= -.21768651E+03 E0= -.21769921E+03  d E =-.105865E-08
       N       E                     dE             d eps       ncg     rms          rms(c)
DAV:   1    -0.217686514007E+03    0.35288E-08   -0.12480E-08   243   0.243E-04    0.781E-05
RMM:   2    -0.217686514007E+03    0.22919E-09    0.16885-187    31   0.116E-04
   7 F= -.21768651E+03 E0= -.21769921E+03  d E =0.313594E-08
       N       E                     dE             d eps       ncg     rms          rms(c)
DAV:   1    -0.217686514007E+03    0.46930E-09   -0.16126E-09   243   0.124E-04    0.877E-05
RMM:   2    -0.217686514006E+03    0.52751E-09    0.13154-187    27   0.834E-05
   8 F= -.21768651E+03 E0= -.21769921E+03  d E =0.767614E-09
       N       E                     dE             d eps       ncg     rms          rms(c)
DAV:   1    -0.217686514007E+03   -0.20373E-09   -0.12573E-09   225   0.904E-05    0.667E-05
RMM:   2    -0.217686514006E+03    0.66211E-09    0.94419-235    23   0.548E-05
   9 F= -.21768651E+03 E0= -.21769921E+03  d E =-.691216E-10
       N       E                     dE             d eps       ncg     rms          rms(c)
DAV:   1    -0.217686514006E+03    0.66939E-09   -0.62501E-10   225   0.654E-05    0.437E-05
RMM:   2    -0.217686514006E+03    0.23283E-09    0.67547-235    22   0.469E-05
  10 F= -.21768651E+03 E0= -.21769921E+03  d E =0.240107E-09
       N       E                     dE             d eps       ncg     rms          rms(c)
DAV:   1    -0.217686514005E+03    0.92041E-09   -0.57345E-10   225   0.509E-05    0.197E-05
RMM:   2    -0.217686514006E+03   -0.46566E-09    0.28203-254    17   0.364E-05
  11 F= -.21768651E+03 E0= -.21769921E+03  d E =0.221917E-09
       N       E                     dE             d eps       ncg     rms          rms(c)
DAV:   1    -0.217686514006E+03   -0.10987E-08   -0.25766E-10   225   0.399E-05    0.882E-06
RMM:   2    -0.217686514006E+03    0.42564E-09    0.30439-309    14   0.272E-05
  12 F= -.21768651E+03 E0= -.21769921E+03  d E =-.207365E-09
       N       E                     dE             d eps       ncg     rms          rms(c)
DAV:   1    -0.217686514005E+03    0.10295E-08   -0.25411E-10   225   0.281E-05    0.118E-05
RMM:   2    -0.217686514006E+03   -0.40382E-09    0.20390-309    12   0.205E-05
  13 F= -.21768651E+03 E0= -.21769921E+03  d E =0.200089E-09
       N       E                     dE             d eps       ncg     rms          rms(c)
DAV:   1    -0.217686514007E+03   -0.13060E-08   -0.18414E-10   225   0.223E-05    0.883E-06
RMM:   2    -0.217686514006E+03    0.80036E-09    0.89977-310    12   0.139E-05
  14 F= -.21768651E+03 E0= -.21769921E+03  d E =-.101863E-09
       N       E                     dE             d eps       ncg     rms          rms(c)
DAV:   1    -0.217686514006E+03    0.87675E-09   -0.45744E-10   225   0.150E-05    0.519E-06
RMM:   2    -0.217686514006E+03   -0.12005E-09    0.74761-310    11   0.107E-05
  15 F= -.21768651E+03 E0= -.21769921E+03  d E =-.436557E-10
       N       E                     dE             d eps       ncg     rms          rms(c)
DAV:   1    -0.217686514006E+03   -0.34925E-09   -0.11129E-10   225   0.116E-05    0.623E-06
RMM:   2    -0.217686514006E+03    0.34561E-09    0.00000E+00    10   0.861E-06
  16 F= -.21768651E+03 E0= -.21769921E+03  d E =0.116415E-09
       N       E                     dE             d eps       ncg     rms          rms(c)
DAV:   1    -0.217686514006E+03    0.43656E-09   -0.18433E-10   225   0.932E-06    0.308E-06
RMM:   2    -0.217686514006E+03   -0.40018E-10    0.00000E+00    10   0.603E-06
  17 F= -.21768651E+03 E0= -.21769921E+03  d E =0.509317E-10
       N       E                     dE             d eps       ncg     rms          rms(c)
DAV:   1    -0.217686514005E+03    0.15643E-09   -0.12779E-10   225   0.657E-06    0.253E-06
RMM:   2    -0.217686514006E+03   -0.83674E-10    0.00000E+00    10   0.492E-06
  18 F= -.21768651E+03 E0= -.21769921E+03  d E =0.112777E-09
       N       E                     dE             d eps       ncg     rms          rms(c)
DAV:   1    -0.217686514006E+03   -0.31650E-09   -0.17463E-10   225   0.536E-06    0.171E-06
RMM:   2    -0.217686514006E+03   -0.80036E-10    0.00000E+00     9   0.365E-06
  19 F= -.21768651E+03 E0= -.21769921E+03  d E =-.312866E-09
       N       E                     dE             d eps       ncg     rms          rms(c)
DAV:   1    -0.217686514005E+03    0.47294E-09    0.12546E-10   225   0.407E-06    0.863E-07
RMM:   2    -0.217686514006E+03   -0.20009E-09    0.00000E+00     9   0.284E-06
  20 F= -.21768651E+03 E0= -.21769921E+03  d E =0.352884E-09
       N       E                     dE             d eps       ncg     rms          rms(c)
DAV:   1    -0.217686514006E+03   -0.35652E-09   -0.18598E-10   225   0.306E-06    0.105E-06
RMM:   2    -0.217686514006E+03   -0.24374E-09    0.00000E+00     8   0.227E-06
  21 F= -.21768651E+03 E0= -.21769921E+03  d E =-.400178E-09
       N       E                     dE             d eps       ncg     rms          rms(c)
DAV:   1    -0.217686514006E+03   -0.51296E-09   -0.23583E-11   225   0.250E-06    0.532E-07
RMM:   2    -0.217686514006E+03    0.53114E-09    0.00000E+00     8   0.164E-06
  22 F= -.21768651E+03 E0= -.21769921E+03  d E =0.261934E-09
       N       E                     dE             d eps       ncg     rms          rms(c)
DAV:   1    -0.217686514005E+03    0.96406E-09    0.72135E-11   225   0.175E-06    0.437E-07
RMM:   2    -0.217686514006E+03   -0.59663E-09    0.00000E+00     7   0.134E-06
  23 F= -.21768651E+03 E0= -.21769921E+03  d E =-.163709E-09
       N       E                     dE             d eps       ncg     rms          rms(c)
DAV:   1    -0.217686514007E+03   -0.13133E-08   -0.19447E-10   225   0.146E-06    0.304E-07
RMM:   2    -0.217686514006E+03    0.76761E-09    0.00000E+00     7   0.101E-06
  24 F= -.21768651E+03 E0= -.21769921E+03  d E =0.509317E-10
       N       E                     dE             d eps       ncg     rms          rms(c)
DAV:   1    -0.217686514005E+03    0.13242E-08   -0.13589E-10   225   0.108E-06    0.205E-07
RMM:   2    -0.217686514006E+03   -0.57116E-09    0.00000E+00     6   0.803E-07
  25 F= -.21768651E+03 E0= -.21769921E+03  d E =-.145519E-10
       N       E                     dE             d eps       ncg     rms          rms(c)
DAV:   1    -0.217686514006E+03   -0.28012E-09    0.31546E-10   225   0.872E-07    0.196E-07
RMM:   2    -0.217686514006E+03   -0.36380E-11    0.00000E+00     6   0.638E-07
  26 F= -.21768651E+03 E0= -.21769921E+03  d E =0.287400E-09
       N       E                     dE             d eps       ncg     rms          rms(c)
DAV:   1    -0.217686514005E+03    0.21464E-09    0.13631E-10   225   0.687E-07    0.124E-07
RMM:   2    -0.217686514006E+03   -0.21464E-09    0.00000E+00     6   0.484E-07
  27 F= -.21768651E+03 E0= -.21769921E+03  d E =0.363798E-11
       N       E                     dE             d eps       ncg     rms          rms(c)
DAV:   1    -0.217686514005E+03    0.72760E-11    0.80643E-11   225   0.523E-07    0.121E-07
RMM:   2    -0.217686514006E+03   -0.26193E-09    0.00000E+00     6   0.390E-07
  28 F= -.21768651E+03 E0= -.21769921E+03  d E =-.400178E-10
       N       E                     dE             d eps       ncg     rms          rms(c)
DAV:   1    -0.217686514005E+03   -0.18554E-09   -0.66473E-12   225   0.426E-07    0.829E-08
RMM:   2    -0.217686514005E+03    0.21828E-10    0.00000E+00     4   0.300E-07
  29 F= -.21768651E+03 E0= -.21769921E+03  d E =0.982254E-10
       N       E                     dE             d eps       ncg     rms          rms(c)
DAV:   1    -0.217686514005E+03    0.18554E-09   -0.13928E-10   225   0.328E-07    0.530E-08
RMM:   2    -0.217686514006E+03   -0.24374E-09    0.00000E+00     6   0.235E-07
  30 F= -.21768651E+03 E0= -.21769921E+03  d E =-.800355E-10
       N       E                     dE             d eps       ncg     rms          rms(c)
DAV:   1    -0.217686514006E+03   -0.70577E-09   -0.61643E-11   225   0.257E-07    0.530E-08
RMM:   2    -0.217686514006E+03    0.29468E-09    0.00000E+00     4   0.193E-07
  31 F= -.21768651E+03 E0= -.21769921E+03  d E =-.167347E-09
       N       E                     dE             d eps       ncg     rms          rms(c)
DAV:   1    -0.217686514005E+03    0.51659E-09    0.11259E-10   225   0.210E-07    0.310E-08
RMM:   2    -0.217686514006E+03   -0.76398E-10    0.00000E+00     4   0.142E-07
  32 F= -.21768651E+03 E0= -.21769921E+03  d E =0.145519E-09
       N       E                     dE             d eps       ncg     rms          rms(c)
DAV:   1    -0.217686514005E+03    0.00000E+00   -0.21577E-10   225   0.154E-07    0.268E-08
RMM:   2    -0.217686514006E+03   -0.26557E-09    0.00000E+00     4   0.118E-07
  33 F= -.21768651E+03 E0= -.21769921E+03  d E =-.189175E-09
       N       E                     dE             d eps       ncg     rms          rms(c)
DAV:   1    -0.217686514006E+03   -0.61846E-10   -0.29671E-10   225   0.128E-07    0.183E-08
RMM:   2    -0.217686514006E+03   -0.87311E-10    0.00000E+00     4   0.880E-08
  34 F= -.21768651E+03 E0= -.21769921E+03  d E =0.116415E-09
       N       E                     dE             d eps       ncg     rms          rms(c)
DAV:   1    -0.217686514005E+03    0.90222E-09   -0.28669E-10   225   0.951E-08    0.157E-08
RMM:   2    -0.217686514006E+03   -0.10950E-08    0.00000E+00     3   0.718E-08
  35 F= -.21768651E+03 E0= -.21769921E+03  d E =-.105501E-09
       N       E                     dE             d eps       ncg     rms          rms(c)
DAV:   1    -0.217686514006E+03   -0.15389E-08   -0.20436E-10   225   0.782E-08    0.116E-08
RMM:   2    -0.217686514006E+03    0.56752E-09    0.00000E+00     4   0.550E-08
  36 F= -.21768651E+03 E0= -.21769921E+03  d E =0.123691E-09
       N       E                     dE             d eps       ncg     rms          rms(c)
DAV:   1    -0.217686514006E+03    0.34925E-09   -0.13895E-10   225   0.594E-08    0.905E-09
RMM:   2    -0.217686514005E+03    0.34197E-09    0.00000E+00     2   0.442E-08
  37 F= -.21768651E+03 E0= -.21769921E+03  d E =0.123691E-09
       N       E                     dE             d eps       ncg     rms          rms(c)
DAV:   1    -0.217686514006E+03   -0.18917E-09   -0.17546E-10   225   0.481E-08    0.725E-09
RMM:   2    -0.217686514006E+03    0.41473E-09    0.00000E+00     2   0.346E-08
  38 F= -.21768651E+03 E0= -.21769921E+03  d E =-.116415E-09
       N       E                     dE             d eps       ncg     rms          rms(c)
DAV:   1    -0.217686514006E+03    0.32014E-09   -0.20209E-10   225   0.374E-08    0.572E-09
RMM:   2    -0.217686514006E+03   -0.21828E-10    0.00000E+00     2   0.274E-08
  39 F= -.21768651E+03 E0= -.21769921E+03  d E =-.116415E-09
       N       E                     dE             d eps       ncg     rms          rms(c)
DAV:   1    -0.217686514006E+03   -0.69485E-09   -0.86196E-11   225   0.298E-08    0.455E-09
RMM:   2    -0.217686514006E+03    0.67666E-09    0.00000E+00     2   0.215E-08
  40 F= -.21768651E+03 E0= -.21769921E+03  d E =0.363798E-11
       N       E                     dE             d eps       ncg     rms          rms(c)
DAV:   1    -0.217686514006E+03    0.50932E-09   -0.31173E-10   225   0.234E-08    0.376E-09
RMM:   2    -0.217686514006E+03    0.23283E-09    0.00000E+00     2   0.171E-08
  41 F= -.21768651E+03 E0= -.21769921E+03  d E =0.654836E-10
       N       E                     dE             d eps       ncg     rms          rms(c)
DAV:   1    -0.217686514005E+03    0.92041E-09   -0.34840E-10   225   0.187E-08    0.282E-09
RMM:   2    -0.217686514006E+03   -0.58208E-09    0.00000E+00     2   0.134E-08
  42 F= -.21768651E+03 E0= -.21769921E+03  d E =0.105501E-09
       N       E                     dE             d eps       ncg     rms          rms(c)
DAV:   1    -0.217686514006E+03   -0.81855E-09   -0.10686E-10   225   0.144E-08    0.248E-09
RMM:   2    -0.217686514006E+03    0.28376E-09    0.00000E+00     2   0.107E-08
  43 F= -.21768651E+03 E0= -.21769921E+03  d E =0.472937E-10
       N       E                     dE             d eps       ncg     rms          rms(c)
DAV:   1    -0.217686514006E+03    0.61846E-10   -0.11715E-10   225   0.119E-08    0.197E-09
RMM:   2    -0.217686514006E+03    0.69122E-10    0.00000E+00     2   0.834E-09
  44 F= -.21768651E+03 E0= -.21769921E+03  d E =-.152795E-09
       N       E                     dE             d eps       ncg     rms          rms(c)
DAV:   1    -0.217686514007E+03   -0.93496E-09   -0.17905E-10   225   0.902E-09    0.137E-09
RMM:   2    -0.217686514006E+03    0.10114E-08    0.00000E+00     2   0.655E-09
  45 F= -.21768651E+03 E0= -.21769921E+03  d E =0.727596E-11
       N       E                     dE             d eps       ncg     rms          rms(c)
DAV:   1    -0.217686514005E+03    0.18663E-08   -0.19727E-10   225   0.713E-09    0.128E-09
RMM:   2    -0.217686514006E+03   -0.10004E-08    0.00000E+00     2   0.531E-09
  46 F= -.21768651E+03 E0= -.21769921E+03  d E =-.145519E-09
       N       E                     dE             d eps       ncg     rms          rms(c)
DAV:   1    -0.217686514006E+03   -0.91313E-09   -0.14834E-10   225   0.574E-09    0.911E-10
RMM:   2    -0.217686514006E+03    0.15643E-09    0.00000E+00     2   0.407E-09
  47 F= -.21768651E+03 E0= -.21769921E+03  d E =0.243745E-09
       N       E                     dE             d eps       ncg     rms          rms(c)
DAV:   1    -0.217686514006E+03   -0.12005E-09   -0.26201E-10   225   0.450E-09    0.931E-10
RMM:   2    -0.217686514006E+03    0.18554E-09    0.00000E+00     2   0.330E-09
  48 F= -.21768651E+03 E0= -.21769921E+03  d E =-.909495E-10
       N       E                     dE             d eps       ncg     rms          rms(c)
DAV:   1    -0.217686514005E+03    0.85856E-09   -0.44056E-10   225   0.358E-09    0.590E-10
RMM:   2    -0.217686514006E+03   -0.64028E-09    0.00000E+00     2   0.253E-09
  49 F= -.21768651E+03 E0= -.21769921E+03  d E =0.327418E-10
       N       E                     dE             d eps       ncg     rms          rms(c)
DAV:   1    -0.217686514004E+03    0.54570E-09   -0.21241E-10   225   0.276E-09    0.528E-10
RMM:   2    -0.217686514006E+03   -0.12078E-08    0.00000E+00     2   0.206E-09
  50 F= -.21768651E+03 E0= -.21769921E+03  d E =-.218279E-10
       N       E                     dE             d eps       ncg     rms          rms(c)
DAV:   1    -0.217686514006E+03   -0.12878E-08   -0.39433E-10   225   0.221E-09    0.391E-10
RMM:   2    -0.217686514006E+03   -0.87311E-10    0.00000E+00     2   0.160E-09
  51 F= -.21768651E+03 E0= -.21769921E+03  d E =-.167347E-09
       N       E                     dE             d eps       ncg     rms          rms(c)
DAV:   1    -0.217686514006E+03   -0.59663E-09   -0.28402E-10   225   0.181E-09    0.435E-10
RMM:   2    -0.217686514006E+03    0.61846E-09    0.00000E+00     2   0.130E-09
  52 F= -.21768651E+03 E0= -.21769921E+03  d E =0.109139E-09
       N       E                     dE             d eps       ncg     rms          rms(c)
DAV:   1    -0.217686514005E+03    0.10368E-08   -0.41001E-10   225   0.148E-09    0.347E-10
RMM:   2    -0.217686514006E+03   -0.32014E-09    0.00000E+00     2   0.102E-09
  53 F= -.21768651E+03 E0= -.21769921E+03  d E =0.982254E-10
       N       E                     dE             d eps       ncg     rms          rms(c)
DAV:   1    -0.217686514006E+03   -0.29104E-09   -0.29651E-10   225   0.111E-09    0.287E-10
RMM:   2    -0.217686514006E+03   -0.12733E-09    0.00000E+00     2   0.808E-10
  54 F= -.21768651E+03 E0= -.21769921E+03  d E =-.982254E-10
       N       E                     dE             d eps       ncg     rms          rms(c)
DAV:   1    -0.217686514006E+03   -0.39654E-09   -0.18672E-10   225   0.898E-10    0.291E-10
RMM:   2    -0.217686514006E+03    0.22919E-09    0.00000E+00     2   0.674E-10
  55 F= -.21768651E+03 E0= -.21769921E+03  d E =-.400178E-10
       N       E                     dE             d eps       ncg     rms          rms(c)
DAV:   1    -0.217686514006E+03    0.17462E-09   -0.33572E-10   225   0.748E-10    0.288E-10
RMM:   2    -0.217686514006E+03    0.15280E-09    0.00000E+00     2   0.548E-10
  56 F= -.21768651E+03 E0= -.21769921E+03  d E =0.982254E-10
       N       E                     dE             d eps       ncg     rms          rms(c)
DAV:   1    -0.217686514005E+03    0.34561E-09   -0.39035E-10   225   0.628E-10    0.306E-10
RMM:   2    -0.217686514006E+03   -0.19281E-09    0.00000E+00     2   0.452E-10
  57 F= -.21768651E+03 E0= -.21769921E+03  d E =0.000000E+00
       N       E                     dE             d eps       ncg     rms          rms(c)
DAV:   1    -0.217686514006E+03   -0.13461E-09   -0.33784E-10   225   0.517E-10    0.414E-10
RMM:   2    -0.217686514006E+03   -0.90949E-10    0.00000E+00     2   0.403E-10
  58 F= -.21768651E+03 E0= -.21769921E+03  d E =-.327418E-10
       N       E                     dE             d eps       ncg     rms          rms(c)
DAV:   1    -0.217686514005E+03    0.11642E-09   -0.30831E-10   225   0.484E-10    0.383E-10
RMM:   2    -0.217686514006E+03   -0.14916E-09    0.00000E+00     2   0.358E-10
  59 F= -.21768651E+03 E0= -.21769921E+03  d E =0.582077E-10
       N       E                     dE             d eps       ncg     rms          rms(c)
DAV:   1    -0.217686514005E+03    0.42201E-09   -0.31078E-10   225   0.401E-10    0.230E-10
RMM:   2    -0.217686514006E+03   -0.59299E-09    0.00000E+00     2   0.270E-10
  60 F= -.21768651E+03 E0= -.21769921E+03  d E =-.218279E-10
       N       E                     dE             d eps       ncg     rms          rms(c)
DAV:   1    -0.217686514005E+03   -0.40745E-09   -0.24719E-10   225   0.321E-10    0.342E-10
RMM:   2    -0.217686514006E+03   -0.20736E-09    0.00000E+00     2   0.228E-10
  61 F= -.21768651E+03 E0= -.21769921E+03  d E =-.218279E-10
       N       E                     dE             d eps       ncg     rms          rms(c)
DAV:   1    -0.217686514006E+03   -0.81491E-09   -0.34164E-10   225   0.275E-10    0.302E-10
RMM:   2    -0.217686514006E+03    0.46930E-09    0.00000E+00     2   0.203E-10
  62 F= -.21768651E+03 E0= -.21769921E+03  d E =-.138243E-09
       N       E                     dE             d eps       ncg     rms          rms(c)
DAV:   1    -0.217686514007E+03   -0.71668E-09   -0.34316E-10   225   0.239E-10    0.253E-10
RMM:   2    -0.217686514006E+03    0.13424E-08    0.00000E+00     2   0.175E-10
  63 F= -.21768651E+03 E0= -.21769921E+03  d E =0.156433E-09
       N       E                     dE             d eps       ncg     rms          rms(c)
DAV:   1    -0.217686514006E+03    0.89130E-09   -0.41485E-10   225   0.222E-10    0.385E-10
RMM:   2    -0.217686514006E+03    0.42201E-09    0.00000E+00     2   0.191E-10
  64 F= -.21768651E+03 E0= -.21769921E+03  d E =-.291038E-10
       N       E                     dE             d eps       ncg     rms          rms(c)
DAV:   1    -0.217686514006E+03    0.27285E-09   -0.97323E-11   225   0.276E-10    0.182E-10
RMM:   2    -0.217686514006E+03    0.25466E-10    0.00000E+00     2   0.144E-10
  65 F= -.21768651E+03 E0= -.21769921E+03  d E =-.123691E-09
       N       E                     dE             d eps       ncg     rms          rms(c)
DAV:   1    -0.217686514006E+03    0.28012E-09   -0.17177E-10   225   0.173E-10    0.345E-10
RMM:   2    -0.217686514006E+03   -0.47294E-10    0.00000E+00     2   0.173E-10
  66 F= -.21768651E+03 E0= -.21769921E+03  d E =0.207365E-09
       N       E                     dE             d eps       ncg     rms          rms(c)
DAV:   1    -0.217686514007E+03   -0.16407E-08   -0.17203E-10   225   0.185E-10    0.275E-10
RMM:   2    -0.217686514006E+03    0.16298E-08    0.00000E+00     2   0.132E-10
  67 F= -.21768651E+03 E0= -.21769921E+03  d E =0.363798E-10
       N       E                     dE             d eps       ncg     rms          rms(c)
DAV:   1    -0.217686514006E+03    0.13788E-08   -0.29661E-10   225   0.190E-10    0.265E-10
RMM:   2    -0.217686514006E+03    0.12733E-09    0.00000E+00     2   0.121E-10
  68 F= -.21768651E+03 E0= -.21769921E+03  d E =-.123691E-09
       N       E                     dE             d eps       ncg     rms          rms(c)
DAV:   1    -0.217686514005E+03    0.29468E-09   -0.23949E-10   225   0.149E-10    0.375E-10
RMM:   2    -0.217686514006E+03   -0.24374E-09    0.00000E+00     2   0.123E-10
  69 F= -.21768651E+03 E0= -.21769921E+03  d E =-.763976E-10
       N       E                     dE             d eps       ncg     rms          rms(c)
DAV:   1    -0.217686514007E+03   -0.10841E-08   -0.30110E-10   225   0.179E-10    0.281E-10
RMM:   2    -0.217686514006E+03    0.90222E-09    0.00000E+00     2   0.123E-10
  70 F= -.21768651E+03 E0= -.21769921E+03  d E =0.618456E-10
       N       E                     dE             d eps       ncg     rms          rms(c)
DAV:   1    -0.217686514006E+03    0.77125E-09   -0.33882E-10   225   0.151E-10    0.326E-10
RMM:   2    -0.217686514006E+03    0.28376E-09    0.00000E+00     2   0.120E-10
  71 F= -.21768651E+03 E0= -.21769921E+03  d E =0.152795E-09
       N       E                     dE             d eps       ncg     rms          rms(c)
DAV:   1    -0.217686514007E+03   -0.12478E-08   -0.30872E-10   225   0.178E-10    0.356E-10
RMM:   2    -0.217686514006E+03    0.14625E-08    0.00000E+00     2   0.138E-10
  72 F= -.21768651E+03 E0= -.21769921E+03  d E =-.691216E-10
       N       E                     dE             d eps       ncg     rms          rms(c)
DAV:   1    -0.217686514006E+03    0.67666E-09   -0.29780E-10   225   0.221E-10    0.225E-10
RMM:   2    -0.217686514006E+03    0.70941E-09    0.00000E+00     2   0.120E-10
  73 F= -.21768651E+03 E0= -.21769921E+03  d E =-.763976E-10
       N       E                     dE             d eps       ncg     rms          rms(c)
DAV:   1    -0.217686514007E+03   -0.80399E-09   -0.27891E-10   225   0.170E-10    0.277E-10
RMM:   2    -0.217686514006E+03    0.15643E-08    0.00000E+00     2   0.128E-10
  74 F= -.21768651E+03 E0= -.21769921E+03  d E =0.509317E-10
       N       E                     dE             d eps       ncg     rms          rms(c)
DAV:   1    -0.217686514006E+03    0.12296E-08   -0.35094E-10   225   0.164E-10    0.258E-10
RMM:   2    -0.217686514006E+03    0.20009E-09    0.00000E+00     2   0.104E-10
  75 F= -.21768651E+03 E0= -.21769921E+03  d E =-.134605E-09
       N       E                     dE             d eps       ncg     rms          rms(c)
DAV:   1    -0.217686514006E+03    0.29104E-10   -0.25656E-10   225   0.134E-10    0.364E-10
RMM:   2    -0.217686514006E+03    0.29104E-09    0.00000E+00     2   0.121E-10
  76 F= -.21768651E+03 E0= -.21769921E+03  d E =0.120053E-09
       N       E                     dE             d eps       ncg     rms          rms(c)
DAV:   1    -0.217686514006E+03   -0.52023E-09   -0.36051E-10   225   0.162E-10    0.296E-10
RMM:   2    -0.217686514006E+03    0.89130E-09    0.00000E+00     2   0.108E-10
  77 F= -.21768651E+03 E0= -.21769921E+03  d E =0.800355E-10
       N       E                     dE             d eps       ncg     rms          rms(c)
DAV:   1    -0.217686514007E+03   -0.38926E-09   -0.27305E-10   225   0.161E-10    0.285E-10
RMM:   2    -0.217686514006E+03    0.12733E-08    0.00000E+00     2   0.110E-10
  78 F= -.21768651E+03 E0= -.21769921E+03  d E =-.727596E-11
       N       E                     dE             d eps       ncg     rms          rms(c)
DAV:   1    -0.217686514005E+03    0.23319E-08   -0.42500E-10   225   0.126E-10    0.283E-10
RMM:   2    -0.217686514006E+03   -0.10587E-08    0.00000E+00     2   0.116E-10
  79 F= -.21768651E+03 E0= -.21769921E+03  d E =0.000000E+00
       N       E                     dE             d eps       ncg     rms          rms(c)
DAV:   1    -0.217686514006E+03   -0.11823E-08   -0.25916E-10   225   0.129E-10    0.331E-10
RMM:   2    -0.217686514006E+03    0.13461E-09    0.00000E+00     2   0.104E-10
  80 F= -.21768651E+03 E0= -.21769921E+03  d E =0.109139E-10
       N       E                     dE             d eps       ncg     rms          rms(c)
DAV:   1    -0.217686514005E+03    0.35288E-09   -0.27806E-10   225   0.183E-10    0.259E-10
RMM:   2    -0.217686514006E+03   -0.36380E-09    0.00000E+00     2   0.124E-10
  81 F= -.21768651E+03 E0= -.21769921E+03  d E =-.145519E-09
       N       E                     dE             d eps       ncg     rms          rms(c)
DAV:   1    -0.217686514006E+03   -0.77125E-09   -0.30893E-10   225   0.145E-10    0.391E-10
RMM:   2    -0.217686514005E+03    0.63665E-09    0.00000E+00     2   0.137E-10
  82 F= -.21768651E+03 E0= -.21769921E+03  d E =0.229193E-09
       N       E                     dE             d eps       ncg     rms          rms(c)
DAV:   1    -0.217686514005E+03    0.63301E-09   -0.37076E-10   225   0.191E-10    0.300E-10
RMM:   2    -0.217686514006E+03   -0.87311E-10    0.00000E+00     2   0.108E-10
  83 F= -.21768651E+03 E0= -.21769921E+03  d E =-.909495E-10
       N       E                     dE             d eps       ncg     rms          rms(c)
DAV:   1    -0.217686514005E+03    0.19281E-09   -0.38387E-10   225   0.170E-10    0.295E-10
RMM:   2    -0.217686514006E+03   -0.31287E-09    0.00000E+00     2   0.113E-10
  84 F= -.21768651E+03 E0= -.21769921E+03  d E =-.327418E-10
       N       E                     dE             d eps       ncg     rms          rms(c)
DAV:   1    -0.217686514007E+03   -0.16153E-08   -0.14959E-10   225   0.148E-10    0.306E-10
RMM:   2    -0.217686514006E+03    0.12478E-08    0.00000E+00     1   0.128E-10
  85 F= -.21768651E+03 E0= -.21769921E+03  d E =-.545697E-10
       N       E                     dE             d eps       ncg     rms          rms(c)
DAV:   1    -0.217686514006E+03    0.69485E-09   -0.29756E-10   198   0.144E-10    0.268E-10
RMM:   2    -0.217686514006E+03    0.65847E-09    0.00000E+00     1   0.109E-10
  86 F= -.21768651E+03 E0= -.21769921E+03  d E =0.105501E-09
       N       E                     dE             d eps       ncg     rms          rms(c)
DAV:   1    -0.217686514006E+03    0.26557E-09   -0.19577E-10   198   0.146E-10    0.284E-10
RMM:   2    -0.217686514006E+03    0.15643E-09    0.00000E+00     1   0.109E-10
  87 F= -.21768651E+03 E0= -.21769921E+03  d E =-.236469E-09
       N       E                     dE             d eps       ncg     rms          rms(c)
DAV:   1    -0.217686514007E+03   -0.64392E-09   -0.37154E-10   198   0.202E-10    0.221E-10
RMM:   2    -0.217686514006E+03    0.78944E-09    0.00000E+00     1   0.959E-11
  88 F= -.21768651E+03 E0= -.21769921E+03  d E =-.109139E-10
       N       E                     dE             d eps       ncg     rms          rms(c)
DAV:   1    -0.217686514006E+03    0.59299E-09   -0.37472E-10   198   0.132E-10    0.389E-10
RMM:   2    -0.217686514006E+03    0.47294E-09    0.00000E+00     1   0.110E-10
  89 F= -.21768651E+03 E0= -.21769921E+03  d E =0.276486E-09
       N       E                     dE             d eps       ncg     rms          rms(c)
DAV:   1    -0.217686514007E+03   -0.73851E-09   -0.39302E-10   198   0.166E-10    0.307E-10
RMM:   2    -0.217686514006E+03    0.11278E-08    0.00000E+00     1   0.126E-10
  90 F= -.21768651E+03 E0= -.21769921E+03  d E =-.836735E-10
       N       E                     dE             d eps       ncg     rms          rms(c)
DAV:   1    -0.217686514005E+03    0.20518E-08   -0.41768E-10   198   0.200E-10    0.316E-10
RMM:   2    -0.217686514006E+03   -0.84765E-09    0.00000E+00     1   0.988E-11
  91 F= -.21768651E+03 E0= -.21769921E+03  d E =0.763976E-10
       N       E                     dE             d eps       ncg     rms          rms(c)
DAV:   1    -0.217686514005E+03   -0.25466E-09   -0.41357E-10   198   0.121E-10    0.355E-10
RMM:   2    -0.217686514006E+03   -0.60027E-09    0.00000E+00     1   0.127E-10
  92 F= -.21768651E+03 E0= -.21769921E+03  d E =-.727596E-11
       N       E                     dE             d eps       ncg     rms          rms(c)
DAV:   1    -0.217686514006E+03   -0.11423E-08   -0.31095E-10   198   0.148E-10    0.264E-10
RMM:   2    -0.217686514006E+03    0.43292E-09    0.00000E+00     1   0.114E-10
  93 F= -.21768651E+03 E0= -.21769921E+03  d E =-.109139E-09
       N       E                     dE             d eps       ncg     rms          rms(c)
DAV:   1    -0.217686514005E+03    0.59663E-09   -0.28789E-10   198   0.156E-10    0.263E-10
RMM:   2    -0.217686514006E+03   -0.26921E-09    0.00000E+00     1   0.122E-10
  94 F= -.21768651E+03 E0= -.21769921E+03  d E =-.105501E-09
       N       E                     dE             d eps       ncg     rms          rms(c)
DAV:   1    -0.217686514005E+03    0.13824E-09   -0.29635E-10   198   0.125E-10    0.256E-10
RMM:   2    -0.217686514006E+03   -0.33469E-09    0.00000E+00     1   0.105E-10
  95 F= -.21768651E+03 E0= -.21769921E+03  d E =0.727596E-10
       N       E                     dE             d eps       ncg     rms          rms(c)
DAV:   1    -0.217686514004E+03    0.11787E-08   -0.26039E-10   198   0.138E-10    0.327E-10
RMM:   2    -0.217686514006E+03   -0.16080E-08    0.00000E+00     1   0.123E-10
  96 F= -.21768651E+03 E0= -.21769921E+03  d E =-.945874E-10
       N       E                     dE             d eps       ncg     rms          rms(c)
DAV:   1    -0.217686514007E+03   -0.27903E-08   -0.31735E-10   198   0.171E-10    0.291E-10
RMM:   2    -0.217686514006E+03    0.11642E-08    0.00000E+00     1   0.104E-10
  97 F= -.21768651E+03 E0= -.21769921E+03  d E =-.181899E-10
       N       E                     dE             d eps       ncg     rms          rms(c)
DAV:   1    -0.217686514006E+03    0.64756E-09   -0.31464E-10   198   0.163E-10    0.329E-10
RMM:   2    -0.217686514005E+03    0.80399E-09    0.00000E+00     1   0.106E-10
  98 F= -.21768651E+03 E0= -.21769921E+03  d E =0.287400E-09
       N       E                     dE             d eps       ncg     rms          rms(c)
DAV:   1    -0.217686514006E+03    0.52023E-09   -0.36276E-10   198   0.138E-10    0.379E-10
RMM:   2    -0.217686514006E+03    0.12733E-09    0.00000E+00     1   0.152E-10
  99 F= -.21768651E+03 E0= -.21769921E+03  d E =-.156433E-09
       N       E                     dE             d eps       ncg     rms          rms(c)
DAV:   1    -0.217686514005E+03    0.41837E-09   -0.37242E-10   198   0.167E-10    0.221E-10
RMM:   2    -0.217686514006E+03   -0.33833E-09    0.00000E+00     1   0.897E-11
 100 F= -.21768651E+03 E0= -.21769921E+03  d E =-.472937E-10
       N       E                     dE             d eps       ncg     rms          rms(c)
DAV:   1    -0.217686514006E+03   -0.58935E-09   -0.27641E-10   198   0.113E-10    0.270E-10
RMM:   2    -0.217686514006E+03    0.40382E-09    0.00000E+00     1   0.789E-11
 101 F= -.21768651E+03 E0= -.21769921E+03  d E =0.152795E-09
       N       E                     dE             d eps       ncg     rms          rms(c)
DAV:   1    -0.217686514005E+03    0.70213E-09   -0.35615E-10   198   0.121E-10    0.336E-10
RMM:   2    -0.217686514006E+03   -0.46930E-09    0.00000E+00     1   0.120E-10
 102 F= -.21768651E+03 E0= -.21769921E+03  d E =-.170985E-09
       N       E                     dE             d eps       ncg     rms          rms(c)
DAV:   1    -0.217686514006E+03   -0.58208E-09   -0.33885E-10   198   0.170E-10    0.283E-10
RMM:   2    -0.217686514006E+03    0.26921E-09    0.00000E+00     1   0.119E-10
 103 F= -.21768651E+03 E0= -.21769921E+03  d E =0.156433E-09
       N       E                     dE             d eps       ncg     rms          rms(c)
DAV:   1    -0.217686514005E+03    0.62209E-09   -0.35041E-10   198   0.157E-10    0.218E-10
RMM:   2    -0.217686514006E+03   -0.41109E-09    0.00000E+00     1   0.106E-10
 104 F= -.21768651E+03 E0= -.21769921E+03  d E =-.582077E-10
       N       E                     dE             d eps       ncg     rms          rms(c)
DAV:   1    -0.217686514005E+03    0.29104E-10   -0.33280E-10   198   0.142E-10    0.233E-10
RMM:   2    -0.217686514006E+03   -0.44747E-09    0.00000E+00     1   0.894E-11
 105 F= -.21768651E+03 E0= -.21769921E+03  d E =-.727596E-11
       N       E                     dE             d eps       ncg     rms          rms(c)
DAV:   1    -0.217686514006E+03   -0.12260E-08   -0.37106E-10   198   0.126E-10    0.372E-10
RMM:   2    -0.217686514006E+03    0.87675E-09    0.00000E+00     1   0.127E-10
 106 F= -.21768651E+03 E0= -.21769921E+03  d E =0.982254E-10
       N       E                     dE             d eps       ncg     rms          rms(c)
DAV:   1    -0.217686514006E+03    0.14188E-09   -0.33482E-10   198   0.165E-10    0.285E-10
RMM:   2    -0.217686514006E+03    0.70941E-09    0.00000E+00     1   0.108E-10
 107 F= -.21768651E+03 E0= -.21769921E+03  d E =-.254659E-10
       N       E                     dE             d eps       ncg     rms          rms(c)
DAV:   1    -0.217686514006E+03    0.33469E-09   -0.17063E-10   198   0.186E-10    0.398E-10
RMM:   2    -0.217686514006E+03    0.37107E-09    0.00000E+00     1   0.151E-10
 108 F= -.21768651E+03 E0= -.21769921E+03  d E =-.363798E-11
       N       E                     dE             d eps       ncg     rms          rms(c)
DAV:   1    -0.217686514006E+03    0.32742E-10   -0.22605E-10   198   0.217E-10    0.431E-10
RMM:   2    -0.217686514006E+03    0.32014E-09    0.00000E+00     1   0.136E-10
 109 F= -.21768651E+03 E0= -.21769921E+03  d E =-.181899E-10
       N       E                     dE             d eps       ncg     rms          rms(c)
DAV:   1    -0.217686514006E+03    0.80036E-10   -0.31813E-10   198   0.181E-10    0.231E-10
RMM:   2    -0.217686514006E+03    0.29104E-10    0.00000E+00     1   0.866E-11
 110 F= -.21768651E+03 E0= -.21769921E+03  d E =-.211003E-09
       N       E                     dE             d eps       ncg     rms          rms(c)
DAV:   1    -0.217686514005E+03    0.33833E-09   -0.20905E-10   198   0.108E-10    0.431E-10
RMM:   2    -0.217686514006E+03   -0.14188E-09    0.00000E+00     1   0.133E-10
 111 F= -.21768651E+03 E0= -.21769921E+03  d E =0.167347E-09
       N       E                     dE             d eps       ncg     rms          rms(c)
DAV:   1    -0.217686514006E+03   -0.96770E-09   -0.32023E-10   198   0.240E-10    0.330E-10
RMM:   2    -0.217686514006E+03    0.74579E-09    0.00000E+00     1   0.105E-10
 112 F= -.21768651E+03 E0= -.21769921E+03  d E =-.800355E-10
       N       E                     dE             d eps       ncg     rms          rms(c)
DAV:   1    -0.217686514006E+03    0.32378E-09   -0.36129E-10   198   0.147E-10    0.343E-10
RMM:   2    -0.217686514006E+03    0.48385E-09    0.00000E+00     1   0.135E-10
 113 F= -.21768651E+03 E0= -.21769921E+03  d E =0.618456E-10
       N       E                     dE             d eps       ncg     rms          rms(c)
DAV:   1    -0.217686514005E+03    0.78944E-09   -0.39551E-10   198   0.168E-10    0.295E-10
RMM:   2    -0.217686514006E+03   -0.23283E-09    0.00000E+00     1   0.127E-10
 114 F= -.21768651E+03 E0= -.21769921E+03  d E =0.727596E-10
       N       E                     dE             d eps       ncg     rms          rms(c)
DAV:   1    -0.217686514006E+03   -0.81855E-09   -0.34479E-10   198   0.163E-10    0.224E-10
RMM:   2    -0.217686514006E+03    0.59299E-09    0.00000E+00     1   0.114E-10
 115 F= -.21768651E+03 E0= -.21769921E+03  d E =0.727596E-11
       N       E                     dE             d eps       ncg     rms          rms(c)
DAV:   1    -0.217686514006E+03    0.23283E-09   -0.24887E-10   198   0.142E-10    0.292E-10
RMM:   2    -0.217686514006E+03    0.33469E-09    0.00000E+00     1   0.938E-11
 116 F= -.21768651E+03 E0= -.21769921E+03  d E =-.254659E-10
       N       E                     dE             d eps       ncg     rms          rms(c)
DAV:   1    -0.217686514006E+03   -0.31650E-09   -0.35779E-10   198   0.103E-10    0.281E-10
RMM:   2    -0.217686514006E+03    0.67303E-09    0.00000E+00     1   0.918E-11
 117 F= -.21768651E+03 E0= -.21769921E+03  d E =0.218279E-10
       N       E                     dE             d eps       ncg     rms          rms(c)
DAV:   1    -0.217686514006E+03    0.47658E-09   -0.35022E-10   198   0.111E-10    0.298E-10
RMM:   2    -0.217686514006E+03    0.21464E-09    0.00000E+00     1   0.104E-10
 118 F= -.21768651E+03 E0= -.21769921E+03  d E =0.181899E-10
       N       E                     dE             d eps       ncg     rms          rms(c)
DAV:   1    -0.217686514005E+03    0.26557E-09   -0.28712E-10   198   0.111E-10    0.416E-10
RMM:   2    -0.217686514006E+03   -0.28740E-09    0.00000E+00     1   0.155E-10
 119 F= -.21768651E+03 E0= -.21769921E+03  d E =-.236469E-09
       N       E                     dE             d eps       ncg     rms          rms(c)
DAV:   1    -0.217686514005E+03   -0.72760E-11   -0.19580E-10   198   0.226E-10    0.272E-10
RMM:   2    -0.217686514006E+03   -0.16007E-09    0.00000E+00     1   0.115E-10
 120 F= -.21768651E+03 E0= -.21769921E+03  d E =0.120053E-09
       N       E                     dE             d eps       ncg     rms          rms(c)
DAV:   1    -0.217686514006E+03   -0.82218E-09   -0.19220E-10   198   0.187E-10    0.368E-10
RMM:   2    -0.217686514006E+03    0.56025E-09    0.00000E+00     1   0.133E-10
 121 F= -.21768651E+03 E0= -.21769921E+03  d E =-.101863E-09
       N       E                     dE             d eps       ncg     rms          rms(c)
DAV:   1    -0.217686514006E+03   -0.72760E-11   -0.23155E-10   198   0.172E-10    0.293E-10
RMM:   2    -0.217686514006E+03    0.69485E-09    0.00000E+00     1   0.118E-10
 122 F= -.21768651E+03 E0= -.21769921E+03  d E =0.127329E-09
       N       E                     dE             d eps       ncg     rms          rms(c)
DAV:   1    -0.217686514005E+03    0.14006E-08   -0.42709E-10   198   0.190E-10    0.330E-10
RMM:   2    -0.217686514006E+03   -0.85493E-09    0.00000E+00     1   0.925E-11
 123 F= -.21768651E+03 E0= -.21769921E+03  d E =-.149157E-09
       N       E                     dE             d eps       ncg     rms          rms(c)
DAV:   1    -0.217686514005E+03   -0.51296E-09   -0.36490E-10   198   0.164E-10    0.410E-10
RMM:   2    -0.217686514006E+03   -0.34561E-09    0.00000E+00     1   0.139E-10
 124 F= -.21768651E+03 E0= -.21769921E+03  d E =-.363798E-11
       N       E                     dE             d eps       ncg     rms          rms(c)
DAV:   1    -0.217686514006E+03   -0.46930E-09   -0.26081E-10   198   0.258E-10    0.223E-10
RMM:   2    -0.217686514006E+03    0.18190E-09    0.00000E+00     1   0.105E-10
 125 F= -.21768651E+03 E0= -.21769921E+03  d E =0.582077E-10
       N       E                     dE             d eps       ncg     rms          rms(c)
DAV:   1    -0.217686514005E+03    0.60390E-09   -0.25671E-10   198   0.138E-10    0.415E-10
RMM:   2    -0.217686514006E+03   -0.21828E-09    0.00000E+00     1   0.135E-10
 126 F= -.21768651E+03 E0= -.21769921E+03  d E =0.203727E-09
       N       E                     dE             d eps       ncg     rms          rms(c)
DAV:   1    -0.217686514005E+03    0.58208E-10   -0.22825E-10   198   0.210E-10    0.318E-10
RMM:   2    -0.217686514006E+03   -0.53478E-09    0.00000E+00     1   0.142E-10
 127 F= -.21768651E+03 E0= -.21769921E+03  d E =-.258296E-09
       N       E                     dE             d eps       ncg     rms          rms(c)
DAV:   1    -0.217686514005E+03   -0.10550E-09   -0.33108E-10   198   0.222E-10    0.191E-10
RMM:   2    -0.217686514006E+03   -0.19645E-09    0.00000E+00     1   0.117E-10
 128 F= -.21768651E+03 E0= -.21769921E+03  d E =0.232831E-09
       N       E                     dE             d eps       ncg     rms          rms(c)
DAV:   1    -0.217686514005E+03    0.36016E-09   -0.37171E-10   198   0.141E-10    0.390E-10
RMM:   2    -0.217686514006E+03   -0.73487E-09    0.00000E+00     1   0.142E-10
 129 F= -.21768651E+03 E0= -.21769921E+03  d E =-.178261E-09
       N       E                     dE             d eps       ncg     rms          rms(c)
DAV:   1    -0.217686514004E+03    0.52751E-09   -0.37425E-10   198   0.211E-10    0.309E-10
RMM:   2    -0.217686514005E+03   -0.10186E-08    0.00000E+00     1   0.117E-10
 130 F= -.21768651E+03 E0= -.21769921E+03  d E =0.243745E-09
       N       E                     dE             d eps       ncg     rms          rms(c)
DAV:   1    -0.217686514005E+03   -0.72396E-09   -0.33889E-10   198   0.182E-10    0.401E-10
RMM:   2    -0.217686514006E+03   -0.36016E-09    0.00000E+00     1   0.117E-10
 131 F= -.21768651E+03 E0= -.21769921E+03  d E =-.654836E-10
       N       E                     dE             d eps       ncg     rms          rms(c)
DAV:   1    -0.217686514006E+03   -0.92768E-09   -0.20191E-10   198   0.191E-10    0.349E-10
RMM:   2    -0.217686514006E+03    0.56025E-09    0.00000E+00     1   0.126E-10
 132 F= -.21768651E+03 E0= -.21769921E+03  d E =-.727596E-11
       N       E                     dE             d eps       ncg     rms          rms(c)
DAV:   1    -0.217686514005E+03    0.64028E-09   -0.45508E-10   198   0.192E-10    0.395E-10
RMM:   2    -0.217686514006E+03   -0.22192E-09    0.00000E+00     1   0.142E-10
 133 F= -.21768651E+03 E0= -.21769921E+03  d E =-.141881E-09
       N       E                     dE             d eps       ncg     rms          rms(c)
DAV:   1    -0.217686514006E+03   -0.10077E-08   -0.34991E-10   198   0.172E-10    0.375E-10
RMM:   2    -0.217686514006E+03    0.91313E-09    0.00000E+00     1   0.117E-10
 134 F= -.21768651E+03 E0= -.21769921E+03  d E =0.127329E-09
       N       E                     dE             d eps       ncg     rms          rms(c)
DAV:   1    -0.217686514005E+03    0.15352E-08   -0.33220E-10   198   0.208E-10    0.488E-10
RMM:   2    -0.217686514006E+03   -0.68758E-09    0.00000E+00     1   0.158E-10
 135 F= -.21768651E+03 E0= -.21769921E+03  d E =-.654836E-10
       N       E                     dE             d eps       ncg     rms          rms(c)
DAV:   1    -0.217686514006E+03   -0.10441E-08   -0.38436E-10   198   0.209E-10    0.328E-10
RMM:   2    -0.217686514006E+03    0.45111E-09    0.00000E+00     1   0.128E-10
 136 F= -.21768651E+03 E0= -.21769921E+03  d E =0.945874E-10
       N       E                     dE             d eps       ncg     rms          rms(c)
DAV:   1    -0.217686514007E+03   -0.62573E-09   -0.29060E-10   198   0.178E-10    0.467E-10
RMM:   2    -0.217686514006E+03    0.10587E-08    0.00000E+00     1   0.166E-10
 137 F= -.21768651E+03 E0= -.21769921E+03  d E =-.181899E-10
       N       E                     dE             d eps       ncg     rms          rms(c)
DAV:   1    -0.217686514004E+03    0.27103E-08   -0.32036E-10   198   0.290E-10    0.342E-10
RMM:   2    -0.217686514006E+03   -0.17062E-08    0.00000E+00     1   0.134E-10
 138 F= -.21768651E+03 E0= -.21769921E+03  d E =-.545697E-10
       N       E                     dE             d eps       ncg     rms          rms(c)
DAV:   1    -0.217686514005E+03   -0.15207E-08   -0.18306E-10   198   0.214E-10    0.405E-10
RMM:   2    -0.217686514006E+03   -0.26921E-09    0.00000E+00     1   0.134E-10
 139 F= -.21768651E+03 E0= -.21769921E+03  d E =-.836735E-10
       N       E                     dE             d eps       ncg     rms          rms(c)
DAV:   1    -0.217686514006E+03   -0.42928E-09   -0.34796E-10   198   0.216E-10    0.387E-10
RMM:   2    -0.217686514006E+03    0.90949E-10    0.00000E+00     1   0.153E-10
 140 F= -.21768651E+03 E0= -.21769921E+03  d E =-.691216E-10
       N       E                     dE             d eps       ncg     rms          rms(c)
DAV:   1    -0.217686514006E+03    0.10914E-09   -0.14592E-10   198   0.297E-10    0.229E-10
RMM:   2    -0.217686514006E+03    0.22919E-09    0.00000E+00     1   0.122E-10
 141 F= -.21768651E+03 E0= -.21769921E+03  d E =0.247383E-09
       N       E                     dE             d eps       ncg     rms          rms(c)
DAV:   1    -0.217686514006E+03   -0.62209E-09   -0.32735E-10   198   0.141E-10    0.235E-10
RMM:   2    -0.217686514006E+03    0.66575E-09    0.00000E+00     1   0.114E-10
 142 F= -.21768651E+03 E0= -.21769921E+03  d E =-.185537E-09
       N       E                     dE             d eps       ncg     rms          rms(c)
DAV:   1    -0.217686514005E+03    0.17208E-08   -0.24843E-10   198   0.134E-10    0.363E-10
RMM:   2    -0.217686514006E+03   -0.11096E-08    0.00000E+00     1   0.127E-10
 143 F= -.21768651E+03 E0= -.21769921E+03  d E =-.545697E-10
       N       E                     dE             d eps       ncg     rms          rms(c)
DAV:   1    -0.217686514006E+03   -0.86220E-09   -0.28753E-10   198   0.140E-10    0.286E-10
RMM:   2    -0.217686514006E+03   -0.13097E-09    0.00000E+00     1   0.946E-11
 144 F= -.21768651E+03 E0= -.21769921E+03  d E =0.116415E-09
       N       E                     dE             d eps       ncg     rms          rms(c)
DAV:   1    -0.217686514005E+03    0.10914E-10   -0.38816E-10   198   0.117E-10    0.293E-10
RMM:   2    -0.217686514006E+03   -0.23283E-09    0.00000E+00     1   0.104E-10
 145 F= -.21768651E+03 E0= -.21769921E+03  d E =-.909495E-10
       N       E                     dE             d eps       ncg     rms          rms(c)
DAV:   1    -0.217686514006E+03   -0.10550E-09   -0.35712E-10   198   0.156E-10    0.256E-10
RMM:   2    -0.217686514006E+03   -0.98225E-10    0.00000E+00     1   0.964E-11
 146 F= -.21768651E+03 E0= -.21769921E+03  d E =0.291038E-10
       N       E                     dE             d eps       ncg     rms          rms(c)
DAV:   1    -0.217686514006E+03   -0.22919E-09   -0.27769E-10   198   0.134E-10    0.266E-10
RMM:   2    -0.217686514006E+03    0.30923E-09    0.00000E+00     1   0.100E-10
 147 F= -.21768651E+03 E0= -.21769921E+03  d E =0.178261E-09
       N       E                     dE             d eps       ncg     rms          rms(c)
DAV:   1    -0.217686514006E+03   -0.31287E-09   -0.34671E-10   198   0.147E-10    0.287E-10
RMM:   2    -0.217686514006E+03    0.51659E-09    0.00000E+00     1   0.105E-10
 148 F= -.21768651E+03 E0= -.21769921E+03  d E =-.105501E-09
       N       E                     dE             d eps       ncg     rms          rms(c)
DAV:   1    -0.217686514007E+03   -0.81491E-09   -0.41224E-10   198   0.141E-10    0.251E-10
RMM:   2    -0.217686514006E+03    0.12406E-08    0.00000E+00     1   0.106E-10
 149 F= -.21768651E+03 E0= -.21769921E+03  d E =-.909495E-10
       N       E                     dE             d eps       ncg     rms          rms(c)
DAV:   1    -0.217686514005E+03    0.16371E-08   -0.30431E-10   198   0.112E-10    0.446E-10
RMM:   2    -0.217686514006E+03   -0.26193E-09    0.00000E+00     1   0.132E-10
 150 F= -.21768651E+03 E0= -.21769921E+03  d E =0.134605E-09
       N       E                     dE             d eps       ncg     rms          rms(c)
DAV:   1    -0.217686514005E+03    0.68758E-09   -0.24644E-10   198   0.195E-10    0.269E-10
RMM:   2    -0.217686514006E+03   -0.10114E-08    0.00000E+00     1   0.114E-10
 151 F= -.21768651E+03 E0= -.21769921E+03  d E =-.618456E-10
       N       E                     dE             d eps       ncg     rms          rms(c)
DAV:   1    -0.217686514006E+03   -0.10368E-08   -0.26804E-10   198   0.137E-10    0.272E-10
RMM:   2    -0.217686514006E+03    0.65484E-10    0.00000E+00     1   0.116E-10
 152 F= -.21768651E+03 E0= -.21769921E+03  d E =0.400178E-10
       N       E                     dE             d eps       ncg     rms          rms(c)
DAV:   1    -0.217686514006E+03   -0.17826E-09   -0.28222E-10   198   0.181E-10    0.291E-10
RMM:   2    -0.217686514006E+03    0.26193E-09    0.00000E+00     1   0.125E-10
 153 F= -.21768651E+03 E0= -.21769921E+03  d E =0.181899E-10
       N       E                     dE             d eps       ncg     rms          rms(c)
DAV:   1    -0.217686514006E+03   -0.63665E-09   -0.43658E-10   198   0.179E-10    0.367E-10
RMM:   2    -0.217686514006E+03    0.68758E-09    0.00000E+00     1   0.134E-10
 154 F= -.21768651E+03 E0= -.21769921E+03  d E =-.211003E-09
       N       E                     dE             d eps       ncg     rms          rms(c)
DAV:   1    -0.217686514005E+03    0.12114E-08   -0.25238E-10   198   0.183E-10    0.351E-10
RMM:   2    -0.217686514006E+03   -0.48385E-09    0.00000E+00     1   0.110E-10
 155 F= -.21768651E+03 E0= -.21769921E+03  d E =0.400178E-10
       N       E                     dE             d eps       ncg     rms          rms(c)
DAV:   1    -0.217686514005E+03    0.83674E-10   -0.29196E-10   198   0.192E-10    0.401E-10
RMM:   2    -0.217686514006E+03   -0.38926E-09    0.00000E+00     1   0.130E-10
 156 F= -.21768651E+03 E0= -.21769921E+03  d E =0.178261E-09
       N       E                     dE             d eps       ncg     rms          rms(c)
DAV:   1    -0.217686514005E+03   -0.24011E-09   -0.34827E-10   198   0.174E-10    0.301E-10
RMM:   2    -0.217686514006E+03   -0.25102E-09    0.00000E+00     1   0.104E-10
 157 F= -.21768651E+03 E0= -.21769921E+03  d E =-.101863E-09
       N       E                     dE             d eps       ncg     rms          rms(c)
DAV:   1    -0.217686514006E+03   -0.40745E-09   -0.21229E-10   198   0.159E-10    0.326E-10
RMM:   2    -0.217686514006E+03    0.17099E-09    0.00000E+00     1   0.112E-10
 158 F= -.21768651E+03 E0= -.21769921E+03  d E =0.145519E-10
       N       E                     dE             d eps       ncg     rms          rms(c)
DAV:   1    -0.217686514005E+03    0.45111E-09   -0.33624E-10   198   0.135E-10    0.258E-10
RMM:   2    -0.217686514006E+03   -0.42201E-09    0.00000E+00     1   0.995E-11
 159 F= -.21768651E+03 E0= -.21769921E+03  d E =-.141881E-09
       N       E                     dE             d eps       ncg     rms          rms(c)
DAV:   1    -0.217686514005E+03    0.23647E-09   -0.26520E-10   198   0.133E-10    0.300E-10
RMM:   2    -0.217686514006E+03   -0.48021E-09    0.00000E+00     1   0.151E-10
 160 F= -.21768651E+03 E0= -.21769921E+03  d E =0.178261E-09
       N       E                     dE             d eps       ncg     rms          rms(c)
DAV:   1    -0.217686514007E+03   -0.15825E-08   -0.28704E-10   198   0.225E-10    0.271E-10
RMM:   2    -0.217686514006E+03    0.10768E-08    0.00000E+00     1   0.136E-10
 161 F= -.21768651E+03 E0= -.21769921E+03  d E =-.254659E-10
       N       E                     dE             d eps       ncg     rms          rms(c)
DAV:   1    -0.217686514006E+03    0.58208E-09   -0.39991E-10   198   0.185E-10    0.305E-10
RMM:   2    -0.217686514006E+03    0.42928E-09    0.00000E+00     1   0.953E-11
 162 F= -.21768651E+03 E0= -.21769921E+03  d E =-.654836E-10
       N       E                     dE             d eps       ncg     rms          rms(c)
DAV:   1    -0.217686514005E+03    0.15389E-08   -0.31458E-10   198   0.114E-10    0.232E-10
RMM:   2    -0.217686514006E+03   -0.93496E-09    0.00000E+00     1   0.900E-11
 163 F= -.21768651E+03 E0= -.21769921E+03  d E =0.174623E-09
       N       E                     dE             d eps       ncg     rms          rms(c)
DAV:   1    -0.217686514006E+03   -0.17171E-08   -0.31345E-10   198   0.117E-10    0.280E-10
RMM:   2    -0.217686514006E+03    0.78217E-09    0.00000E+00     1   0.964E-11
 164 F= -.21768651E+03 E0= -.21769921E+03  d E =0.000000E+00
       N       E                     dE             d eps       ncg     rms          rms(c)
DAV:   1    -0.217686514006E+03    0.40018E-09   -0.22091E-10   198   0.144E-10    0.418E-10
RMM:   2    -0.217686514006E+03    0.26557E-09    0.00000E+00     1   0.127E-10
 165 F= -.21768651E+03 E0= -.21769921E+03  d E =-.116415E-09
       N       E                     dE             d eps       ncg     rms          rms(c)
DAV:   1    -0.217686514007E+03   -0.60390E-09   -0.32034E-10   198   0.163E-10    0.224E-10
RMM:   2    -0.217686514006E+03    0.10041E-08    0.00000E+00     1   0.955E-11
 166 F= -.21768651E+03 E0= -.21769921E+03  d E =0.134605E-09
       N       E                     dE             d eps       ncg     rms          rms(c)
DAV:   1    -0.217686514005E+03    0.16335E-08   -0.30006E-10   198   0.102E-10    0.331E-10
RMM:   2    -0.217686514006E+03   -0.82218E-09    0.00000E+00     1   0.105E-10
 167 F= -.21768651E+03 E0= -.21769921E+03  d E =-.192813E-09
       N       E                     dE             d eps       ncg     rms          rms(c)
DAV:   1    -0.217686514006E+03   -0.13424E-08   -0.32287E-10   198   0.166E-10    0.273E-10
RMM:   2    -0.217686514006E+03    0.47658E-09    0.00000E+00     1   0.105E-10
 168 F= -.21768651E+03 E0= -.21769921E+03  d E =-.436557E-10
       N       E                     dE             d eps       ncg     rms          rms(c)
DAV:   1    -0.217686514006E+03    0.53478E-09   -0.36219E-10   198   0.121E-10    0.376E-10
RMM:   2    -0.217686514006E+03    0.10186E-09    0.00000E+00     1   0.104E-10
 169 F= -.21768651E+03 E0= -.21769921E+03  d E =0.160071E-09
       N       E                     dE             d eps       ncg     rms          rms(c)
DAV:   1    -0.217686514005E+03    0.52387E-09   -0.32687E-10   198   0.188E-10    0.424E-10
RMM:   2    -0.217686514006E+03   -0.49840E-09    0.00000E+00     1   0.139E-10
 170 F= -.21768651E+03 E0= -.21769921E+03  d E =-.763976E-10
       N       E                     dE             d eps       ncg     rms          rms(c)
DAV:   1    -0.217686514006E+03   -0.12624E-08   -0.20145E-10   198   0.210E-10    0.358E-10
RMM:   2    -0.217686514006E+03    0.92768E-09    0.00000E+00     1   0.122E-10
 171 F= -.21768651E+03 E0= -.21769921E+03  d E =0.163709E-09
       N       E                     dE             d eps       ncg     rms          rms(c)
DAV:   1    -0.217686514007E+03   -0.69122E-10   -0.39770E-10   198   0.230E-10    0.288E-10
RMM:   2    -0.217686514006E+03    0.78580E-09    0.00000E+00     1   0.135E-10
 172 F= -.21768651E+03 E0= -.21769921E+03  d E =-.211003E-09
       N       E                     dE             d eps       ncg     rms          rms(c)
DAV:   1    -0.217686514006E+03    0.33469E-09   -0.27736E-10   198   0.179E-10    0.465E-10
RMM:   2    -0.217686514006E+03    0.56025E-09    0.00000E+00     1   0.163E-10
 173 F= -.21768651E+03 E0= -.21769921E+03  d E =0.109139E-09
       N       E                     dE             d eps       ncg     rms          rms(c)
DAV:   1    -0.217686514005E+03    0.74942E-09   -0.27339E-10   198   0.245E-10    0.389E-10
RMM:   2    -0.217686514006E+03   -0.18554E-09    0.00000E+00     1   0.136E-10
 174 F= -.21768651E+03 E0= -.21769921E+03  d E =0.363798E-11
       N       E                     dE             d eps       ncg     rms          rms(c)
DAV:   1    -0.217686514006E+03   -0.62209E-09   -0.39415E-10   198   0.169E-10    0.302E-10
RMM:   2    -0.217686514006E+03    0.41109E-09    0.00000E+00     1   0.111E-10
 175 F= -.21768651E+03 E0= -.21769921E+03  d E =-.254659E-10
       N       E                     dE             d eps       ncg     rms          rms(c)
DAV:   1    -0.217686514006E+03    0.47294E-09   -0.30030E-10   198   0.163E-10    0.308E-10
RMM:   2    -0.217686514006E+03   -0.14552E-09    0.00000E+00     1   0.117E-10
 176 F= -.21768651E+03 E0= -.21769921E+03  d E =-.836735E-10
       N       E                     dE             d eps       ncg     rms          rms(c)
DAV:   1    -0.217686514005E+03    0.65484E-09   -0.19406E-10   198   0.139E-10    0.390E-10
RMM:   2    -0.217686514006E+03   -0.62209E-09    0.00000E+00     1   0.140E-10
 177 F= -.21768651E+03 E0= -.21769921E+03  d E =0.178261E-09
       N       E                     dE             d eps       ncg     rms          rms(c)
DAV:   1    -0.217686514006E+03   -0.15534E-08   -0.37757E-10   198   0.169E-10    0.345E-10
RMM:   2    -0.217686514006E+03    0.66575E-09    0.00000E+00     1   0.120E-10
 178 F= -.21768651E+03 E0= -.21769921E+03  d E =-.265572E-09
       N       E                     dE             d eps       ncg     rms          rms(c)
DAV:   1    -0.217686514006E+03    0.43656E-09   -0.18691E-10   198   0.167E-10    0.259E-10
RMM:   2    -0.217686514006E+03    0.50204E-09    0.00000E+00     1   0.106E-10
 179 F= -.21768651E+03 E0= -.21769921E+03  d E =0.272848E-09
       N       E                     dE             d eps       ncg     rms          rms(c)
DAV:   1    -0.217686514006E+03    0.19645E-09   -0.41662E-10   198   0.174E-10    0.306E-10
RMM:   2    -0.217686514006E+03    0.12005E-09    0.00000E+00     1   0.943E-11
 180 F= -.21768651E+03 E0= -.21769921E+03  d E =-.185537E-09
       N       E                     dE             d eps       ncg     rms          rms(c)
DAV:   1    -0.217686514005E+03    0.10878E-08   -0.29637E-10   198   0.117E-10    0.310E-10
RMM:   2    -0.217686514006E+03   -0.78580E-09    0.00000E+00     1   0.103E-10
 181 F= -.21768651E+03 E0= -.21769921E+03  d E =0.181899E-09
       N       E                     dE             d eps       ncg     rms          rms(c)
DAV:   1    -0.217686514006E+03   -0.11023E-08   -0.34620E-10   198   0.158E-10    0.272E-10
RMM:   2    -0.217686514006E+03    0.15280E-09    0.00000E+00     1   0.106E-10
 182 F= -.21768651E+03 E0= -.21769921E+03  d E =-.163709E-09
       N       E                     dE             d eps       ncg     rms          rms(c)
DAV:   1    -0.217686514006E+03    0.69122E-10   -0.39289E-10   198   0.136E-10    0.282E-10
RMM:   2    -0.217686514005E+03    0.29468E-09    0.00000E+00     1   0.133E-10
 183 F= -.21768651E+03 E0= -.21769921E+03  d E =0.211003E-09
       N       E                     dE             d eps       ncg     rms          rms(c)
DAV:   1    -0.217686514007E+03   -0.89494E-09   -0.34946E-10   198   0.175E-10    0.361E-10
RMM:   2    -0.217686514006E+03    0.10696E-08    0.00000E+00     1   0.132E-10
 184 F= -.21768651E+03 E0= -.21769921E+03  d E =-.120053E-09
       N       E                     dE             d eps       ncg     rms          rms(c)
DAV:   1    -0.217686514005E+03    0.20409E-08   -0.19118E-10   198   0.244E-10    0.247E-10
RMM:   2    -0.217686514006E+03   -0.10768E-08    0.00000E+00     1   0.123E-10
 185 F= -.21768651E+03 E0= -.21769921E+03  d E =-.105501E-09
       N       E                     dE             d eps       ncg     rms          rms(c)
DAV:   1    -0.217686514005E+03   -0.80763E-09   -0.27397E-10   198   0.183E-10    0.472E-10
RMM:   2    -0.217686514006E+03   -0.25102E-09    0.00000E+00     1   0.198E-10
 186 F= -.21768651E+03 E0= -.21769921E+03  d E =0.181899E-10
       N       E                     dE             d eps       ncg     rms          rms(c)
DAV:   1    -0.217686514006E+03   -0.58208E-10   -0.40691E-10   198   0.295E-10    0.325E-10
RMM:   2    -0.217686514006E+03   -0.13824E-09    0.00000E+00     1   0.112E-10
 187 F= -.21768651E+03 E0= -.21769921E+03  d E =0.545697E-10
       N       E                     dE             d eps       ncg     rms          rms(c)
DAV:   1    -0.217686514005E+03    0.25830E-09   -0.27559E-10   198   0.168E-10    0.298E-10
RMM:   2    -0.217686514006E+03   -0.32742E-09    0.00000E+00     1   0.110E-10
 188 F= -.21768651E+03 E0= -.21769921E+03  d E =0.691216E-10
       N       E                     dE             d eps       ncg     rms          rms(c)
DAV:   1    -0.217686514005E+03    0.40382E-09   -0.26711E-10   198   0.160E-10    0.393E-10
RMM:   2    -0.217686514006E+03   -0.90222E-09    0.00000E+00     1   0.139E-10
 189 F= -.21768651E+03 E0= -.21769921E+03  d E =-.170985E-09
       N       E                     dE             d eps       ncg     rms          rms(c)
DAV:   1    -0.217686514006E+03   -0.11751E-08   -0.10401E-10   198   0.218E-10    0.227E-10
RMM:   2    -0.217686514006E+03    0.38563E-09    0.00000E+00     1   0.109E-10
 190 F= -.21768651E+03 E0= -.21769921E+03  d E =0.112777E-09
       N       E                     dE             d eps       ncg     rms          rms(c)
DAV:   1    -0.217686514006E+03   -0.18554E-09   -0.38036E-10   198   0.145E-10    0.205E-10
RMM:   2    -0.217686514006E+03    0.56389E-09    0.00000E+00     1   0.102E-10
 191 F= -.21768651E+03 E0= -.21769921E+03  d E =-.727596E-11
       N       E                     dE             d eps       ncg     rms          rms(c)
DAV:   1    -0.217686514005E+03    0.86948E-09   -0.20928E-10   198   0.128E-10    0.301E-10
RMM:   2    -0.217686514006E+03   -0.18917E-09    0.00000E+00     1   0.115E-10
 192 F= -.21768651E+03 E0= -.21769921E+03  d E =0.116415E-09
       N       E                     dE             d eps       ncg     rms          rms(c)
DAV:   1    -0.217686514006E+03   -0.53114E-09   -0.40293E-10   198   0.127E-10    0.257E-10
RMM:   2    -0.217686514006E+03    0.34925E-09    0.00000E+00     1   0.132E-10
 193 F= -.21768651E+03 E0= -.21769921E+03  d E =0.727596E-11
       N       E                     dE             d eps       ncg     rms          rms(c)
DAV:   1    -0.217686514006E+03   -0.72760E-10   -0.32417E-10   198   0.137E-10    0.373E-10
RMM:   2    -0.217686514006E+03    0.23647E-09    0.00000E+00     1   0.121E-10
 194 F= -.21768651E+03 E0= -.21769921E+03  d E =-.185537E-09
       N       E                     dE             d eps       ncg     rms          rms(c)
DAV:   1    -0.217686514007E+03   -0.90222E-09   -0.28435E-10   198   0.165E-10    0.304E-10
RMM:   2    -0.217686514006E+03    0.12624E-08    0.00000E+00     1   0.109E-10
 195 F= -.21768651E+03 E0= -.21769921E+03  d E =0.123691E-09
       N       E                     dE             d eps       ncg     rms          rms(c)
DAV:   1    -0.217686514006E+03    0.85129E-09   -0.36072E-10   198   0.192E-10    0.214E-10
RMM:   2    -0.217686514006E+03    0.38199E-09    0.00000E+00     1   0.104E-10
 196 F= -.21768651E+03 E0= -.21769921E+03  d E =-.291038E-10
       N       E                     dE             d eps       ncg     rms          rms(c)
DAV:   1    -0.217686514006E+03   -0.24374E-09   -0.34259E-10   198   0.114E-10    0.307E-10
RMM:   2    -0.217686514006E+03    0.47658E-09    0.00000E+00     1   0.102E-10
 197 F= -.21768651E+03 E0= -.21769921E+03  d E =-.149157E-09
       N       E                     dE             d eps       ncg     rms          rms(c)
DAV:   1    -0.217686514007E+03   -0.46202E-09   -0.35904E-10   198   0.143E-10    0.291E-10
RMM:   2    -0.217686514006E+03    0.10150E-08    0.00000E+00     1   0.121E-10
 198 F= -.21768651E+03 E0= -.21769921E+03  d E =0.763976E-10
       N       E                     dE             d eps       ncg     rms          rms(c)
DAV:   1    -0.217686514006E+03    0.10077E-08   -0.34663E-10   198   0.159E-10    0.360E-10
RMM:   2    -0.217686514006E+03   -0.69122E-10    0.00000E+00     1   0.124E-10
 199 F= -.21768651E+03 E0= -.21769921E+03  d E =-.763976E-10
       N       E                     dE             d eps       ncg     rms          rms(c)
DAV:   1    -0.217686514005E+03    0.92768E-09   -0.27188E-10   198   0.193E-10    0.303E-10
RMM:   2    -0.217686514006E+03   -0.88039E-09    0.00000E+00     1   0.115E-10
 200 F= -.21768651E+03 E0= -.21769921E+03  d E =0.116415E-09
       N       E                     dE             d eps       ncg     rms          rms(c)
DAV:   1    -0.217686514006E+03   -0.83310E-09   -0.28510E-10   198   0.171E-10    0.420E-10
RMM:   2    -0.217686514006E+03    0.00000E+00    0.00000E+00     1   0.161E-10
 201 F= -.21768651E+03 E0= -.21769921E+03  d E =0.472937E-10
       N       E                     dE             d eps       ncg     rms          rms(c)
DAV:   1    -0.217686514006E+03    0.29104E-10   -0.26455E-10   198   0.195E-10    0.313E-10
RMM:   2    -0.217686514006E+03    0.43656E-10    0.00000E+00     1   0.112E-10
 202 F= -.21768651E+03 E0= -.21769921E+03  d E =0.727596E-10
       N       E                     dE             d eps       ncg     rms          rms(c)
DAV:   1    -0.217686514006E+03   -0.26921E-09   -0.34200E-10   198   0.164E-10    0.316E-10
RMM:   2    -0.217686514006E+03    0.23283E-09    0.00000E+00     1   0.934E-11
 203 F= -.21768651E+03 E0= -.21769921E+03  d E =-.800355E-10
       N       E                     dE             d eps       ncg     rms          rms(c)
DAV:   1    -0.217686514007E+03   -0.86220E-09   -0.34893E-10   198   0.114E-10    0.341E-10
RMM:   2    -0.217686514006E+03    0.10477E-08    0.00000E+00     1   0.126E-10
 204 F= -.21768651E+03 E0= -.21769921E+03  d E =-.472937E-10
       N       E                     dE             d eps       ncg     rms          rms(c)
DAV:   1    -0.217686514005E+03    0.12842E-08   -0.25246E-10   198   0.193E-10    0.266E-10
RMM:   2    -0.217686514006E+03   -0.29468E-09    0.00000E+00     1   0.977E-11
 205 F= -.21768651E+03 E0= -.21769921E+03  d E =-.582077E-10
       N       E                     dE             d eps       ncg     rms          rms(c)
DAV:   1    -0.217686514006E+03   -0.39654E-09   -0.27481E-10   198   0.141E-10    0.311E-10
RMM:   2    -0.217686514006E+03    0.83674E-10    0.00000E+00     1   0.122E-10
 206 F= -.21768651E+03 E0= -.21769921E+03  d E =-.181899E-10
       N       E                     dE             d eps       ncg     rms          rms(c)
DAV:   1    -0.217686514005E+03    0.98589E-09   -0.50090E-10   198   0.184E-10    0.219E-10
RMM:   2    -0.217686514006E+03   -0.68394E-09    0.00000E+00     1   0.105E-10
 207 F= -.21768651E+03 E0= -.21769921E+03  d E =0.218279E-09
       N       E                     dE             d eps       ncg     rms          rms(c)
DAV:   1    -0.217686514005E+03   -0.30195E-09   -0.30536E-10   198   0.134E-10    0.325E-10
RMM:   2    -0.217686514006E+03   -0.55661E-09    0.00000E+00     1   0.107E-10
 208 F= -.21768651E+03 E0= -.21769921E+03  d E =-.174623E-09
       N       E                     dE             d eps       ncg     rms          rms(c)
DAV:   1    -0.217686514006E+03   -0.52387E-09   -0.30557E-10   198   0.152E-10    0.250E-10
RMM:   2    -0.217686514006E+03    0.58208E-10    0.00000E+00     1   0.103E-10
 209 F= -.21768651E+03 E0= -.21769921E+03  d E =0.909495E-10
       N       E                     dE             d eps       ncg     rms          rms(c)
DAV:   1    -0.217686514006E+03   -0.10914E-10   -0.35723E-11   198   0.147E-10    0.322E-10
RMM:   2    -0.217686514006E+03    0.11642E-09    0.00000E+00     1   0.115E-10
 210 F= -.21768651E+03 E0= -.21769921E+03  d E =0.472937E-10
       N       E                     dE             d eps       ncg     rms          rms(c)
DAV:   1    -0.217686514005E+03    0.24374E-09   -0.33474E-10   198   0.154E-10    0.289E-10
RMM:   2    -0.217686514006E+03   -0.29831E-09    0.00000E+00     1   0.117E-10
 211 F= -.21768651E+03 E0= -.21769921E+03  d E =-.170985E-09
       N       E                     dE             d eps       ncg     rms          rms(c)
DAV:   1    -0.217686514006E+03   -0.31650E-09   -0.37508E-10   198   0.170E-10    0.293E-10
RMM:   2    -0.217686514006E+03    0.54570E-10    0.00000E+00     1   0.111E-10
 212 F= -.21768651E+03 E0= -.21769921E+03  d E =0.363798E-10
       N       E                     dE             d eps       ncg     rms          rms(c)
DAV:   1    -0.217686514005E+03    0.56025E-09   -0.35183E-10   198   0.140E-10    0.240E-10
RMM:   2    -0.217686514006E+03   -0.36380E-09    0.00000E+00     1   0.102E-10
 213 F= -.21768651E+03 E0= -.21769921E+03  d E =0.141881E-09
       N       E                     dE             d eps       ncg     rms          rms(c)
DAV:   1    -0.217686514006E+03   -0.49477E-09   -0.20791E-10   198   0.134E-10    0.328E-10
RMM:   2    -0.217686514006E+03    0.12733E-09    0.00000E+00     1   0.994E-11
 214 F= -.21768651E+03 E0= -.21769921E+03  d E =-.363798E-11
       N       E                     dE             d eps       ncg     rms          rms(c)
DAV:   1    -0.217686514006E+03   -0.58571E-09   -0.33599E-10   198   0.134E-10    0.294E-10
RMM:   2    -0.217686514006E+03    0.57480E-09    0.00000E+00     1   0.105E-10
 215 F= -.21768651E+03 E0= -.21769921E+03  d E =-.138243E-09
       N       E                     dE             d eps       ncg     rms          rms(c)
DAV:   1    -0.217686514006E+03    0.69122E-09   -0.24839E-10   198   0.115E-10    0.200E-10
RMM:   2    -0.217686514006E+03   -0.13824E-09    0.00000E+00     1   0.107E-10
 216 F= -.21768651E+03 E0= -.21769921E+03  d E =-.218279E-10
       N       E                     dE             d eps       ncg     rms          rms(c)
DAV:   1    -0.217686514004E+03    0.12478E-08   -0.37019E-10   198   0.103E-10    0.398E-10
RMM:   2    -0.217686514006E+03   -0.14224E-08    0.00000E+00     1   0.135E-10
 217 F= -.21768651E+03 E0= -.21769921E+03  d E =-.363798E-10
       N       E                     dE             d eps       ncg     rms          rms(c)
DAV:   1    -0.217686514006E+03   -0.14770E-08   -0.22666E-10   198   0.170E-10    0.209E-10
RMM:   2    -0.217686514006E+03    0.20009E-09    0.00000E+00     1   0.924E-11
 218 F= -.21768651E+03 E0= -.21769921E+03  d E =0.145519E-09
       N       E                     dE             d eps       ncg     rms          rms(c)
DAV:   1    -0.217686514005E+03    0.42564E-09   -0.49140E-10   198   0.148E-10    0.408E-10
RMM:   2    -0.217686514006E+03   -0.15643E-09    0.00000E+00     1   0.136E-10
 219 F= -.21768651E+03 E0= -.21769921E+03  d E =0.691216E-10
       N       E                     dE             d eps       ncg     rms          rms(c)
DAV:   1    -0.217686514007E+03   -0.13060E-08   -0.25506E-10   198   0.205E-10    0.267E-10
RMM:   2    -0.217686514006E+03    0.11460E-08    0.00000E+00     1   0.100E-10
 220 F= -.21768651E+03 E0= -.21769921E+03  d E =-.363798E-11
       N       E                     dE             d eps       ncg     rms          rms(c)
DAV:   1    -0.217686514006E+03    0.30923E-09   -0.23708E-10   198   0.147E-10    0.479E-10
RMM:   2    -0.217686514006E+03    0.55661E-09    0.00000E+00     1   0.141E-10
 221 F= -.21768651E+03 E0= -.21769921E+03  d E =-.280124E-09
       N       E                     dE             d eps       ncg     rms          rms(c)
DAV:   1    -0.217686514005E+03    0.16225E-08   -0.24906E-10   198   0.198E-10    0.486E-10
RMM:   2    -0.217686514006E+03   -0.88403E-09    0.00000E+00     1   0.147E-10
 222 F= -.21768651E+03 E0= -.21769921E+03  d E =0.181899E-09
       N       E                     dE             d eps       ncg     rms          rms(c)
DAV:   1    -0.217686514005E+03    0.15643E-09   -0.42369E-10   198   0.196E-10    0.261E-10
RMM:   2    -0.217686514006E+03   -0.98589E-09    0.00000E+00     1   0.847E-11
 223 F= -.21768651E+03 E0= -.21769921E+03  d E =0.545697E-10
       N       E                     dE             d eps       ncg     rms          rms(c)
DAV:   1    -0.217686514005E+03   -0.81491E-09   -0.28945E-10   198   0.128E-10    0.330E-10
RMM:   2    -0.217686514006E+03   -0.38199E-09    0.00000E+00     1   0.117E-10
 224 F= -.21768651E+03 E0= -.21769921E+03  d E =-.211003E-09
       N       E                     dE             d eps       ncg     rms          rms(c)
DAV:   1    -0.217686514006E+03   -0.13824E-09   -0.30714E-10   198   0.186E-10    0.315E-10
RMM:   2    -0.217686514006E+03   -0.40018E-10    0.00000E+00     1   0.119E-10
 225 F= -.21768651E+03 E0= -.21769921E+03  d E =0.203727E-09
       N       E                     dE             d eps       ncg     rms          rms(c)
DAV:   1    -0.217686514006E+03   -0.18554E-09   -0.28092E-10   198   0.153E-10    0.208E-10
RMM:   2    -0.217686514006E+03    0.21464E-09    0.00000E+00     1   0.998E-11
 226 F= -.21768651E+03 E0= -.21769921E+03  d E =0.691216E-10
       N       E                     dE             d eps       ncg     rms          rms(c)
DAV:   1    -0.217686514005E+03    0.77489E-09   -0.31092E-10   198   0.140E-10    0.326E-10
RMM:   2    -0.217686514006E+03   -0.62573E-09    0.00000E+00     1   0.128E-10
 227 F= -.21768651E+03 E0= -.21769921E+03  d E =-.654836E-10
       N       E                     dE             d eps       ncg     rms          rms(c)
DAV:   1    -0.217686514006E+03   -0.14261E-08   -0.27064E-10   198   0.168E-10    0.267E-10
RMM:   2    -0.217686514006E+03    0.71304E-09    0.00000E+00     1   0.994E-11
 228 F= -.21768651E+03 E0= -.21769921E+03  d E =-.873115E-10
       N       E                     dE             d eps       ncg     rms          rms(c)
DAV:   1    -0.217686514005E+03    0.13533E-08   -0.38695E-10   198   0.134E-10    0.310E-10
RMM:   2    -0.217686514006E+03   -0.54570E-09    0.00000E+00     1   0.117E-10
 229 F= -.21768651E+03 E0= -.21769921E+03  d E =0.945874E-10
       N       E                     dE             d eps       ncg     rms          rms(c)
DAV:   1    -0.217686514006E+03   -0.85856E-09   -0.31147E-10   198   0.184E-10    0.264E-10
RMM:   2    -0.217686514006E+03    0.17099E-09    0.00000E+00     1   0.103E-10
 230 F= -.21768651E+03 E0= -.21769921E+03  d E =-.141881E-09
       N       E                     dE             d eps       ncg     rms          rms(c)
DAV:   1    -0.217686514005E+03    0.65847E-09   -0.20976E-10   198   0.162E-10    0.294E-10
RMM:   2    -0.217686514006E+03   -0.41109E-09    0.00000E+00     1   0.117E-10
 231 F= -.21768651E+03 E0= -.21769921E+03  d E =0.763976E-10
       N       E                     dE             d eps       ncg     rms          rms(c)
DAV:   1    -0.217686514005E+03    0.00000E+00   -0.41050E-10   198   0.144E-10    0.293E-10
RMM:   2    -0.217686514006E+03   -0.44747E-09    0.00000E+00     1   0.112E-10
 232 F= -.21768651E+03 E0= -.21769921E+03  d E =-.363798E-10
       N       E                     dE             d eps       ncg     rms          rms(c)
DAV:   1    -0.217686514005E+03    0.38199E-09   -0.31781E-10   198   0.148E-10    0.252E-10
RMM:   2    -0.217686514006E+03   -0.94587E-09    0.00000E+00     1   0.985E-11
 233 F= -.21768651E+03 E0= -.21769921E+03  d E =-.116415E-09
       N       E                     dE             d eps       ncg     rms          rms(c)
DAV:   1    -0.217686514006E+03   -0.97498E-09   -0.29542E-10   198   0.105E-10    0.365E-10
RMM:   2    -0.217686514006E+03    0.28376E-09    0.00000E+00     1   0.106E-10
 234 F= -.21768651E+03 E0= -.21769921E+03  d E =0.254659E-09
       N       E                     dE             d eps       ncg     rms          rms(c)
DAV:   1    -0.217686514005E+03    0.52023E-09   -0.40722E-10   198   0.185E-10    0.287E-10
RMM:   2    -0.217686514006E+03   -0.45839E-09    0.00000E+00     1   0.107E-10
 235 F= -.21768651E+03 E0= -.21769921E+03  d E =-.221917E-09
       N       E                     dE             d eps       ncg     rms          rms(c)
DAV:   1    -0.217686514006E+03   -0.23647E-09   -0.41729E-10   198   0.122E-10    0.296E-10
RMM:   2    -0.217686514006E+03   -0.20736E-09    0.00000E+00     1   0.139E-10
 236 F= -.21768651E+03 E0= -.21769921E+03  d E =0.145519E-10
       N       E                     dE             d eps       ncg     rms          rms(c)
DAV:   1    -0.217686514006E+03   -0.51296E-09   -0.23597E-10   198   0.143E-10    0.276E-10
RMM:   2    -0.217686514006E+03    0.30195E-09    0.00000E+00     1   0.106E-10
 237 F= -.21768651E+03 E0= -.21769921E+03  d E =-.363798E-11
       N       E                     dE             d eps       ncg     rms          rms(c)
DAV:   1    -0.217686514007E+03   -0.69122E-09   -0.46090E-10   198   0.139E-10    0.232E-10
RMM:   2    -0.217686514006E+03    0.96406E-09    0.00000E+00     1   0.973E-11
 238 F= -.21768651E+03 E0= -.21769921E+03  d E =-.291038E-10
       N       E                     dE             d eps       ncg     rms          rms(c)
DAV:   1    -0.217686514006E+03    0.56389E-09   -0.40596E-10   198   0.138E-10    0.285E-10
RMM:   2    -0.217686514006E+03    0.49113E-09    0.00000E+00     1   0.856E-11
 239 F= -.21768651E+03 E0= -.21769921E+03  d E =0.909495E-10
       N       E                     dE             d eps       ncg     rms          rms(c)
DAV:   1    -0.217686514006E+03    0.60754E-09   -0.32605E-10   198   0.145E-10    0.302E-10
RMM:   2    -0.217686514006E+03    0.47294E-10    0.00000E+00     1   0.855E-11
[...]
 939 F= -.21768651E+03 E0= -.21769921E+03  d E =-.691216E-10
       N       E                     dE             d eps       ncg     rms          rms(c)
DAV:   1    -0.217686514005E+03    0.13788E-08   -0.29203E-10   198   0.164E-10    0.262E-10
RMM:   2    -0.217686514006E+03   -0.48749E-09    0.00000E+00     0   0.966E-11
 940 F= -.21768651E+03 E0= -.21769921E+03  d E =0.211003E-09
       N       E                     dE             d eps       ncg     rms          rms(c)
DAV:   1    -0.217686514006E+03   -0.74215E-09   -0.33007E-10   198   0.152E-10    0.270E-10
RMM:   2    -0.217686514006E+03    0.13824E-09    0.00000E+00     0   0.130E-10
 941 F= -.21768651E+03 E0= -.21769921E+03  d E =-.116415E-09
       N       E                     dE             d eps       ncg     rms          rms(c)
DAV:   1    -0.217686514005E+03    0.27285E-09   -0.45748E-10   198   0.173E-10    0.267E-10
RMM:   2    -0.217686514006E+03   -0.30559E-09    0.00000E+00     0   0.989E-11
 942 F= -.21768651E+03 E0= -.21769921E+03  d E =-.170985E-09
       N       E                     dE             d eps       ncg     rms          rms(c)
DAV:   1    -0.217686514006E+03   -0.60754E-09   -0.32257E-10   198   0.151E-10    0.341E-10
RMM:   2    -0.217686514006E+03    0.38926E-09    0.00000E+00     0   0.104E-10
 943 F= -.21768651E+03 E0= -.21769921E+03  d E =0.873115E-10
       N       E                     dE             d eps       ncg     rms          rms(c)
DAV:   1    -0.217686514005E+03    0.88767E-09   -0.42865E-10   198   0.185E-10    0.184E-10
RMM:   2    -0.217686514006E+03   -0.32742E-09    0.00000E+00     0   0.937E-11
 944 F= -.21768651E+03 E0= -.21769921E+03  d E =0.170985E-09
       N       E                     dE             d eps       ncg     rms          rms(c)
DAV:   1    -0.217686514004E+03    0.13642E-08   -0.33214E-10   198   0.120E-10    0.365E-10
RMM:   2    -0.217686514006E+03   -0.17717E-08    0.00000E+00     0   0.102E-10
 945 F= -.21768651E+03 E0= -.21769921E+03  d E =-.800355E-10
       N       E                     dE             d eps       ncg     rms          rms(c)
DAV:   1    -0.217686514006E+03   -0.18736E-08   -0.26859E-10   198   0.135E-10    0.235E-10
RMM:   2    -0.217686514006E+03    0.54570E-10    0.00000E+00     0   0.830E-11
 946 F= -.21768651E+03 E0= -.21769921E+03  d E =-.472937E-10
       N       E                     dE             d eps       ncg     rms          rms(c)
DAV:   1    -0.217686514006E+03   -0.94587E-10   -0.28208E-10   198   0.101E-10    0.334E-10
RMM:   2    -0.217686514006E+03    0.20373E-09    0.00000E+00     0   0.967E-11
 947 F= -.21768651E+03 E0= -.21769921E+03  d E =0.545697E-10
       N       E                     dE             d eps       ncg     rms          rms(c)
DAV:   1    -0.217686514006E+03    0.20009E-09   -0.18978E-10   198   0.143E-10    0.315E-10
RMM:   2    -0.217686514006E+03    0.10914E-10    0.00000E+00     0   0.982E-11
 948 F= -.21768651E+03 E0= -.21769921E+03  d E =0.727596E-11
       N       E                     dE             d eps       ncg     rms          rms(c)
DAV:   1    -0.217686514006E+03   -0.48021E-09   -0.27346E-10   198   0.163E-10    0.305E-10
RMM:   2    -0.217686514006E+03    0.40745E-09    0.00000E+00     0   0.125E-10
 949 F= -.21768651E+03 E0= -.21769921E+03  d E =-.836735E-10
       N       E                     dE             d eps       ncg     rms          rms(c)
DAV:   1    -0.217686514006E+03   -0.13824E-09   -0.36591E-10   198   0.168E-10    0.261E-10
RMM:   2    -0.217686514006E+03    0.45111E-09    0.00000E+00     0   0.110E-10
 950 F= -.21768651E+03 E0= -.21769921E+03  d E =-.945874E-10
       N       E                     dE             d eps       ncg     rms          rms(c)
DAV:   1    -0.217686514006E+03    0.80036E-10   -0.17007E-10   198   0.159E-10    0.220E-10
RMM:   2    -0.217686514006E+03    0.53478E-09    0.00000E+00     0   0.123E-10
 951 F= -.21768651E+03 E0= -.21769921E+03  d E =0.163709E-09
       N       E                     dE             d eps       ncg     rms          rms(c)
DAV:   1    -0.217686514007E+03   -0.58571E-09   -0.23597E-10   198   0.153E-10    0.260E-10
RMM:   2    -0.217686514006E+03    0.11314E-08    0.00000E+00     0   0.116E-10
 952 F= -.21768651E+03 E0= -.21769921E+03  d E =0.109139E-10
       N       E                     dE             d eps       ncg     rms          rms(c)
DAV:   1    -0.217686514005E+03    0.13606E-08   -0.37460E-10   198   0.142E-10    0.351E-10
RMM:   2    -0.217686514006E+03   -0.23283E-09    0.00000E+00     0   0.108E-10
 953 F= -.21768651E+03 E0= -.21769921E+03  d E =-.363798E-11
       N       E                     dE             d eps       ncg     rms          rms(c)
DAV:   1    -0.217686514006E+03   -0.53842E-09   -0.29184E-10   198   0.119E-10    0.251E-10
RMM:   2    -0.217686514006E+03    0.22192E-09    0.00000E+00     0   0.865E-11
 954 F= -.21768651E+03 E0= -.21769921E+03  d E =-.836735E-10
       N       E                     dE             d eps       ncg     rms          rms(c)
DAV:   1    -0.217686514007E+03   -0.60390E-09   -0.17522E-10   198   0.132E-10    0.306E-10
RMM:   2    -0.217686514006E+03    0.84765E-09    0.00000E+00     0   0.110E-10
 955 F= -.21768651E+03 E0= -.21769921E+03  d E =0.218279E-10
       N       E                     dE             d eps       ncg     rms          rms(c)
DAV:   1    -0.217686514007E+03   -0.44020E-09   -0.32144E-10   198   0.151E-10    0.339E-10
RMM:   2    -0.217686514006E+03    0.14115E-08    0.00000E+00     0   0.125E-10
 956 F= -.21768651E+03 E0= -.21769921E+03  d E =0.123691E-09
       N       E                     dE             d eps       ncg     rms          rms(c)
DAV:   1    -0.217686514007E+03    0.26193E-09   -0.34031E-10   198   0.172E-10    0.325E-10
RMM:   2    -0.217686514006E+03    0.95679E-09    0.00000E+00     0   0.111E-10
 957 F= -.21768651E+03 E0= -.21769921E+03  d E =-.192813E-09
       N       E                     dE             d eps       ncg     rms          rms(c)
DAV:   1    -0.217686514006E+03    0.99317E-09   -0.34572E-10   198   0.148E-10    0.249E-10
RMM:   2    -0.217686514006E+03    0.12005E-09    0.00000E+00     0   0.112E-10
 958 F= -.21768651E+03 E0= -.21769921E+03  d E =0.156433E-09
       N       E                     dE             d eps       ncg     rms          rms(c)
DAV:   1    -0.217686514006E+03    0.11278E-09   -0.39285E-10   198   0.126E-10    0.266E-10
RMM:   2    -0.217686514006E+03   -0.58208E-10    0.00000E+00     0   0.104E-10
 959 F= -.21768651E+03 E0= -.21769921E+03  d E =-.654836E-10
       N       E                     dE             d eps       ncg     rms          rms(c)
DAV:   1    -0.217686514006E+03   -0.62573E-09   -0.31846E-10   198   0.132E-10    0.258E-10
RMM:   2    -0.217686514006E+03    0.63301E-09    0.00000E+00     0   0.100E-10
 960 F= -.21768651E+03 E0= -.21769921E+03  d E =0.654836E-10
       N       E                     dE             d eps       ncg     rms          rms(c)
DAV:   1    -0.217686514005E+03    0.83674E-09   -0.31476E-10   198   0.152E-10    0.221E-10
RMM:   2    -0.217686514006E+03   -0.35288E-09    0.00000E+00     0   0.979E-11
 961 F= -.21768651E+03 E0= -.21769921E+03  d E =-.149157E-09
       N       E                     dE             d eps       ncg     rms          rms(c)
DAV:   1    -0.217686514005E+03    0.53478E-09   -0.39126E-10   198   0.112E-10    0.288E-10
RMM:   2    -0.217686514006E+03   -0.72760E-09    0.00000E+00     0   0.861E-11
 962 F= -.21768651E+03 E0= -.21769921E+03  d E =0.160071E-09
       N       E                     dE             d eps       ncg     rms          rms(c)
DAV:   1    -0.217686514005E+03   -0.23283E-09   -0.17493E-10   198   0.112E-10    0.277E-10
RMM:   2    -0.217686514006E+03   -0.46566E-09    0.00000E+00     0   0.102E-10
 963 F= -.21768651E+03 E0= -.21769921E+03  d E =0.291038E-10
       N       E                     dE             d eps       ncg     rms          rms(c)
DAV:   1    -0.217686514005E+03    0.25466E-10   -0.34145E-10   198   0.144E-10    0.399E-10
RMM:   2    -0.217686514006E+03   -0.50932E-09    0.00000E+00     0   0.130E-10
 964 F= -.21768651E+03 E0= -.21769921E+03  d E =-.181899E-10
       N       E                     dE             d eps       ncg     rms          rms(c)
DAV:   1    -0.217686514005E+03   -0.17826E-09   -0.40070E-10   198   0.188E-10    0.252E-10
RMM:   2    -0.217686514006E+03   -0.47658E-09    0.00000E+00     0   0.109E-10
 965 F= -.21768651E+03 E0= -.21769921E+03  d E =-.145519E-09
       N       E                     dE             d eps       ncg     rms          rms(c)
DAV:   1    -0.217686514006E+03   -0.84401E-09   -0.10100E-10   198   0.158E-10    0.268E-10
RMM:   2    -0.217686514006E+03    0.34197E-09    0.00000E+00     0   0.108E-10
 966 F= -.21768651E+03 E0= -.21769921E+03  d E =-.254659E-10
       N       E                     dE             d eps       ncg     rms          rms(c)
DAV:   1    -0.217686514005E+03    0.71304E-09   -0.32093E-10   198   0.140E-10    0.535E-10
RMM:   2    -0.217686514006E+03   -0.30923E-09    0.00000E+00     0   0.143E-10
 967 F= -.21768651E+03 E0= -.21769921E+03  d E =0.618456E-10
       N       E                     dE             d eps       ncg     rms          rms(c)
DAV:   1    -0.217686514006E+03   -0.69849E-09   -0.29471E-10   198   0.254E-10    0.324E-10
RMM:   2    -0.217686514006E+03    0.38563E-09    0.00000E+00     0   0.127E-10
 968 F= -.21768651E+03 E0= -.21769921E+03  d E =-.363798E-11
       N       E                     dE             d eps       ncg     rms          rms(c)
DAV:   1    -0.217686514005E+03    0.86220E-09   -0.24718E-10   198   0.172E-10    0.281E-10
RMM:   2    -0.217686514006E+03   -0.39654E-09    0.00000E+00     0   0.940E-11
 969 F= -.21768651E+03 E0= -.21769921E+03  d E =0.800355E-10
       N       E                     dE             d eps       ncg     rms          rms(c)
DAV:   1    -0.217686514005E+03   -0.16007E-09   -0.38917E-10   198   0.162E-10    0.296E-10
RMM:   2    -0.217686514006E+03   -0.38926E-09    0.00000E+00     0   0.115E-10
 970 F= -.21768651E+03 E0= -.21769921E+03  d E =-.152795E-09
       N       E                     dE             d eps       ncg     rms          rms(c)
DAV:   1    -0.217686514006E+03   -0.10914E-08   -0.17277E-10   198   0.146E-10    0.329E-10
RMM:   2    -0.217686514006E+03    0.70577E-09    0.00000E+00     0   0.112E-10
 971 F= -.21768651E+03 E0= -.21769921E+03  d E =0.363798E-11
       N       E                     dE             d eps       ncg     rms          rms(c)
DAV:   1    -0.217686514007E+03   -0.36744E-09   -0.25697E-10   198   0.137E-10    0.276E-10
RMM:   2    -0.217686514006E+03    0.12369E-08    0.00000E+00     0   0.979E-11
 972 F= -.21768651E+03 E0= -.21769921E+03  d E =0.163709E-09
       N       E                     dE             d eps       ncg     rms          rms(c)
DAV:   1    -0.217686514006E+03    0.48021E-09   -0.36549E-10   198   0.145E-10    0.237E-10
RMM:   2    -0.217686514006E+03    0.67303E-09    0.00000E+00     0   0.976E-11
 973 F= -.21768651E+03 E0= -.21769921E+03  d E =-.836735E-10
       N       E                     dE             d eps       ncg     rms          rms(c)
DAV:   1    -0.217686514005E+03    0.90222E-09   -0.26103E-10   198   0.120E-10    0.277E-10
RMM:   2    -0.217686514006E+03   -0.21828E-09    0.00000E+00     0   0.107E-10
 974 F= -.21768651E+03 E0= -.21769921E+03  d E =0.109139E-10
       N       E                     dE             d eps       ncg     rms          rms(c)
DAV:   1    -0.217686514007E+03   -0.17535E-08   -0.27115E-10   198   0.104E-10    0.255E-10
RMM:   2    -0.217686514006E+03    0.16298E-08    0.00000E+00     0   0.848E-11
 975 F= -.21768651E+03 E0= -.21769921E+03  d E =0.945874E-10
       N       E                     dE             d eps       ncg     rms          rms(c)
DAV:   1    -0.217686514006E+03    0.16371E-08   -0.36364E-10   198   0.103E-10    0.381E-10
RMM:   2    -0.217686514006E+03   -0.19281E-09    0.00000E+00     0   0.103E-10
 976 F= -.21768651E+03 E0= -.21769921E+03  d E =-.185537E-09
       N       E                     dE             d eps       ncg     rms          rms(c)
DAV:   1    -0.217686514005E+03    0.57480E-09   -0.41768E-10   198   0.134E-10    0.367E-10
RMM:   2    -0.217686514005E+03   -0.49840E-09    0.00000E+00     0   0.128E-10
 977 F= -.21768651E+03 E0= -.21769921E+03  d E =0.269210E-09
       N       E                     dE             d eps       ncg     rms          rms(c)
DAV:   1    -0.217686514005E+03    0.38563E-09   -0.32884E-10   198   0.177E-10    0.232E-10
RMM:   2    -0.217686514006E+03   -0.10223E-08    0.00000E+00     0   0.107E-10
 978 F= -.21768651E+03 E0= -.21769921E+03  d E =-.138243E-09
       N       E                     dE             d eps       ncg     rms          rms(c)
DAV:   1    -0.217686514006E+03   -0.10477E-08   -0.35014E-10   198   0.134E-10    0.387E-10
RMM:   2    -0.217686514006E+03    0.32742E-10    0.00000E+00     0   0.114E-10
 979 F= -.21768651E+03 E0= -.21769921E+03  d E =0.727596E-11
       N       E                     dE             d eps       ncg     rms          rms(c)
DAV:   1    -0.217686514005E+03    0.16735E-09   -0.28566E-10   198   0.179E-10    0.385E-10
RMM:   2    -0.217686514006E+03   -0.16371E-09    0.00000E+00     0   0.125E-10
 980 F= -.21768651E+03 E0= -.21769921E+03  d E =-.291038E-10
       N       E                     dE             d eps       ncg     rms          rms(c)
DAV:   1    -0.217686514005E+03   -0.14552E-10   -0.23362E-10   198   0.254E-10    0.465E-10
RMM:   2    -0.217686514006E+03   -0.43656E-10    0.00000E+00     0   0.179E-10
 981 F= -.21768651E+03 E0= -.21769921E+03  d E =0.105501E-09
       N       E                     dE             d eps       ncg     rms          rms(c)
DAV:   1    -0.217686514005E+03    0.69849E-09   -0.36248E-10   198   0.311E-10    0.223E-10
RMM:   2    -0.217686514006E+03   -0.75670E-09    0.00000E+00     0   0.100E-10
 982 F= -.21768651E+03 E0= -.21769921E+03  d E =-.145519E-10
       N       E                     dE             d eps       ncg     rms          rms(c)
DAV:   1    -0.217686514005E+03   -0.45111E-09   -0.28184E-10   198   0.154E-10    0.328E-10
RMM:   2    -0.217686514006E+03   -0.37471E-09    0.00000E+00     0   0.110E-10
 983 F= -.21768651E+03 E0= -.21769921E+03  d E =-.691216E-10
       N       E                     dE             d eps       ncg     rms          rms(c)
DAV:   1    -0.217686514006E+03   -0.94587E-09   -0.29157E-10   198   0.165E-10    0.321E-10
RMM:   2    -0.217686514006E+03    0.60390E-09    0.00000E+00     0   0.103E-10
 984 F= -.21768651E+03 E0= -.21769921E+03  d E =0.327418E-10
       N       E                     dE             d eps       ncg     rms          rms(c)
DAV:   1    -0.217686514007E+03   -0.63301E-09   -0.30572E-10   198   0.124E-10    0.302E-10
RMM:   2    -0.217686514006E+03    0.10477E-08    0.00000E+00     0   0.103E-10
 985 F= -.21768651E+03 E0= -.21769921E+03  d E =-.189175E-09
       N       E                     dE             d eps       ncg     rms          rms(c)
DAV:   1    -0.217686514005E+03    0.15352E-08   -0.26537E-10   198   0.149E-10    0.395E-10
RMM:   2    -0.217686514006E+03   -0.37835E-09    0.00000E+00     0   0.132E-10
 986 F= -.21768651E+03 E0= -.21769921E+03  d E =0.109139E-09
       N       E                     dE             d eps       ncg     rms          rms(c)
DAV:   1    -0.217686514006E+03   -0.40018E-09   -0.23834E-10   198   0.210E-10    0.228E-10
RMM:   2    -0.217686514006E+03   -0.90949E-10    0.00000E+00     0   0.109E-10
 987 F= -.21768651E+03 E0= -.21769921E+03  d E =-.112777E-09
       N       E                     dE             d eps       ncg     rms          rms(c)
DAV:   1    -0.217686514006E+03   -0.34925E-09   -0.20211E-10   198   0.178E-10    0.307E-10
RMM:   2    -0.217686514006E+03    0.25466E-09    0.00000E+00     0   0.103E-10
 988 F= -.21768651E+03 E0= -.21769921E+03  d E =-.363798E-11
       N       E                     dE             d eps       ncg     rms          rms(c)
DAV:   1    -0.217686514006E+03   -0.72760E-11   -0.35389E-10   198   0.144E-10    0.382E-10
RMM:   2    -0.217686514006E+03    0.38199E-09    0.00000E+00     0   0.126E-10
 989 F= -.21768651E+03 E0= -.21769921E+03  d E =0.120053E-09
       N       E                     dE             d eps       ncg     rms          rms(c)
DAV:   1    -0.217686514006E+03    0.11642E-09   -0.40120E-10   198   0.222E-10    0.244E-10
RMM:   2    -0.217686514006E+03    0.26921E-09    0.00000E+00     0   0.106E-10
 990 F= -.21768651E+03 E0= -.21769921E+03  d E =0.363798E-11
       N       E                     dE             d eps       ncg     rms          rms(c)
DAV:   1    -0.217686514005E+03    0.54206E-09   -0.26022E-10   198   0.158E-10    0.379E-10
RMM:   2    -0.217686514006E+03   -0.33106E-09    0.00000E+00     0   0.136E-10
 991 F= -.21768651E+03 E0= -.21769921E+03  d E =-.582077E-10
       N       E                     dE             d eps       ncg     rms          rms(c)
DAV:   1    -0.217686514006E+03   -0.41109E-09   -0.35284E-10   198   0.182E-10    0.283E-10
RMM:   2    -0.217686514006E+03    0.40018E-10    0.00000E+00     0   0.111E-10
 992 F= -.21768651E+03 E0= -.21769921E+03  d E =-.400178E-10
       N       E                     dE             d eps       ncg     rms          rms(c)
DAV:   1    -0.217686514007E+03   -0.77489E-09   -0.18985E-10   198   0.131E-10    0.338E-10
RMM:   2    -0.217686514006E+03    0.78944E-09    0.00000E+00     0   0.129E-10
 993 F= -.21768651E+03 E0= -.21769921E+03  d E =-.254659E-10
       N       E                     dE             d eps       ncg     rms          rms(c)
DAV:   1    -0.217686514005E+03    0.18154E-08   -0.33840E-10   198   0.183E-10    0.294E-10
RMM:   2    -0.217686514006E+03   -0.81127E-09    0.00000E+00     0   0.110E-10
 994 F= -.21768651E+03 E0= -.21769921E+03  d E =0.214641E-09
       N       E                     dE             d eps       ncg     rms          rms(c)
DAV:   1    -0.217686514006E+03   -0.16807E-08   -0.32942E-10   198   0.162E-10    0.302E-10
RMM:   2    -0.217686514006E+03    0.77125E-09    0.00000E+00     0   0.120E-10
 995 F= -.21768651E+03 E0= -.21769921E+03  d E =-.982254E-10
       N       E                     dE             d eps       ncg     rms          rms(c)
DAV:   1    -0.217686514006E+03    0.91313E-09   -0.32059E-10   198   0.140E-10    0.282E-10
RMM:   2    -0.217686514006E+03   -0.25466E-09    0.00000E+00     0   0.896E-11
 996 F= -.21768651E+03 E0= -.21769921E+03  d E =-.112777E-09
       N       E                     dE             d eps       ncg     rms          rms(c)
DAV:   1    -0.217686514006E+03   -0.36380E-09   -0.46213E-10   198   0.134E-10    0.305E-10
RMM:   2    -0.217686514006E+03    0.16371E-09    0.00000E+00     0   0.836E-11
 997 F= -.21768651E+03 E0= -.21769921E+03  d E =0.545697E-10
       N       E                     dE             d eps       ncg     rms          rms(c)
DAV:   1    -0.217686514006E+03   -0.12733E-09   -0.31739E-10   198   0.120E-10    0.231E-10
RMM:   2    -0.217686514006E+03    0.42564E-09    0.00000E+00     0   0.143E-10
 998 F= -.21768651E+03 E0= -.21769921E+03  d E =0.134605E-09
       N       E                     dE             d eps       ncg     rms          rms(c)
DAV:   1    -0.217686514006E+03    0.10914E-09   -0.37291E-10   198   0.150E-10    0.292E-10
RMM:   2    -0.217686514006E+03    0.98225E-10    0.00000E+00     0   0.108E-10
 999 F= -.21768651E+03 E0= -.21769921E+03  d E =-.218279E-09
       N       E                     dE             d eps       ncg     rms          rms(c)
DAV:   1    -0.217686514006E+03    0.35652E-09   -0.27920E-10   198   0.137E-10    0.351E-10
RMM:   2    -0.217686514006E+03   -0.21100E-09    0.00000E+00     0   0.105E-10
1000 F= -.21768651E+03 E0= -.21769921E+03  d E =0.472937E-10
