   4   4   0   0
  0.1811798E+02  0.7000487E-09  0.7000487E-09  0.7000487E-09  0.1500000E-16
   1.0000000000000000E-004
  CAR 
 unknown system                          
     12.77983334    -20.01140534  301      6.34553065      1.00000000
    -20.011  0.0000E+00  0.0000E+00
    -19.902  0.0000E+00  0.0000E+00
    -19.793  0.0000E+00  0.0000E+00
    -19.683  0.0000E+00  0.0000E+00
    -19.574  0.0000E+00  0.0000E+00
    -19.465  0.0000E+00  0.0000E+00
    -19.356  0.0000E+00  0.0000E+00
    -19.246  0.0000E+00  0.0000E+00
    -19.137  0.0000E+00  0.0000E+00
    -19.028  0.0000E+00  0.0000E+00
    -18.918  0.0000E+00  0.0000E+00
    -18.809  0.1434E-16  0.1567E-17
    -18.700  0.2194E-07  0.2398E-08
    -18.590  0.3530E-02  0.3858E-03
    -18.481  0.3197E+00  0.3533E-01
    -18.372  0.3193E+00  0.7023E-01
    -18.263  0.3252E-02  0.7059E-01
    -18.153  0.1457E-07  0.7059E-01
    -18.044  0.0000E+00  0.7059E-01
    -17.935  0.0000E+00  0.7059E-01
    -17.825  0.0000E+00  0.7059E-01
    -17.716  0.0000E+00  0.7059E-01
    -17.607  0.0000E+00  0.7059E-01
    -17.497  0.0000E+00  0.7059E-01
    -17.388  0.0000E+00  0.7059E-01
    -17.279  0.0000E+00  0.7059E-01
    -17.169  0.0000E+00  0.7059E-01
    -17.060  0.0000E+00  0.7059E-01
    -16.951  0.0000E+00  0.7059E-01
    -16.842  0.0000E+00  0.7059E-01
    -16.732  0.0000E+00  0.7059E-01
    -16.623  0.0000E+00  0.7059E-01
    -16.514  0.0000E+00  0.7059E-01
    -16.404  0.0000E+00  0.7059E-01
    -16.295  0.0000E+00  0.7059E-01
    -16.186  0.0000E+00  0.7059E-01
    -16.076  0.0000E+00  0.7059E-01
    -15.967  0.0000E+00  0.7059E-01
    -15.858  0.0000E+00  0.7059E-01
    -15.749  0.0000E+00  0.7059E-01
    -15.639  0.0000E+00  0.7059E-01
    -15.530  0.0000E+00  0.7059E-01
    -15.421  0.0000E+00  0.7059E-01
    -15.311  0.0000E+00  0.7059E-01
    -15.202  0.0000E+00  0.7059E-01
    -15.093  0.0000E+00  0.7059E-01
    -14.983  0.0000E+00  0.7059E-01
    -14.874  0.0000E+00  0.7059E-01
    -14.765  0.0000E+00  0.7059E-01
    -14.656  0.0000E+00  0.7059E-01
    -14.546  0.0000E+00  0.7059E-01
    -14.437  0.0000E+00  0.7059E-01
    -14.328  0.0000E+00  0.7059E-01
    -14.218  0.0000E+00  0.7059E-01
    -14.109  0.0000E+00  0.7059E-01
    -14.000  0.0000E+00  0.7059E-01
    -13.890  0.0000E+00  0.7059E-01
    -13.781  0.0000E+00  0.7059E-01
    -13.672  0.0000E+00  0.7059E-01
    -13.562  0.0000E+00  0.7059E-01
    -13.453  0.0000E+00  0.7059E-01
    -13.344  0.0000E+00  0.7059E-01
    -13.235  0.0000E+00  0.7059E-01
    -13.125  0.0000E+00  0.7059E-01
    -13.016  0.0000E+00  0.7059E-01
    -12.907  0.0000E+00  0.7059E-01
    -12.797  0.0000E+00  0.7059E-01
    -12.688  0.0000E+00  0.7059E-01
    -12.579  0.0000E+00  0.7059E-01
    -12.469  0.0000E+00  0.7059E-01
    -12.360  0.0000E+00  0.7059E-01
    -12.251  0.0000E+00  0.7059E-01
    -12.142  0.0000E+00  0.7059E-01
    -12.032  0.0000E+00  0.7059E-01
    -11.923  0.0000E+00  0.7059E-01
    -11.814  0.0000E+00  0.7059E-01
    -11.704  0.0000E+00  0.7059E-01
    -11.595  0.0000E+00  0.7059E-01
    -11.486  0.0000E+00  0.7059E-01
    -11.376  0.0000E+00  0.7059E-01
    -11.267  0.0000E+00  0.7059E-01
    -11.158  0.0000E+00  0.7059E-01
    -11.048  0.0000E+00  0.7059E-01
    -10.939  0.0000E+00  0.7059E-01
    -10.830  0.0000E+00  0.7059E-01
    -10.721  0.0000E+00  0.7059E-01
    -10.611  0.0000E+00  0.7059E-01
    -10.502  0.0000E+00  0.7059E-01
    -10.393  0.0000E+00  0.7059E-01
    -10.283  0.0000E+00  0.7059E-01
    -10.174  0.0000E+00  0.7059E-01
    -10.065  0.2628E-13  0.7059E-01
     -9.955  0.3926E-06  0.7059E-01
     -9.846  0.1182E-02  0.7072E-01
     -9.737  0.6934E-02  0.7148E-01
     -9.628  0.4944E-03  0.7153E-01
     -9.518  0.1625E-06  0.7153E-01
     -9.409  0.2489E-02  0.7180E-01
     -9.300  0.4224E-01  0.7642E-01
     -9.190  0.6929E-02  0.7718E-01
     -9.081  0.1847E-05  0.7718E-01
     -8.972  0.9217E-13  0.7718E-01
     -8.862  0.0000E+00  0.7718E-01
     -8.753  0.1368E-10  0.7718E-01
     -8.644  0.3417E-04  0.7718E-01
     -8.534  0.2034E-01  0.7940E-01
     -8.425  0.3109E-01  0.8280E-01
     -8.316  0.2245E-03  0.8283E-01
     -8.207  0.1993E-01  0.8501E-01
     -8.097  0.3153E-01  0.8845E-01
     -7.988  0.2473E-03  0.8848E-01
     -7.879  0.3389E-02  0.8885E-01
     -7.769  0.4679E-02  0.8936E-01
     -7.660  0.8974E-02  0.9034E-01
     -7.551  0.8049E-01  0.9914E-01
     -7.441  0.1432E-01  0.1007E+00
     -7.332  0.6629E-02  0.1014E+00
     -7.223  0.1298E+00  0.1156E+00
     -7.114  0.1861E-01  0.1176E+00
     -7.004  0.4374E-05  0.1176E+00
     -6.895  0.3179E-12  0.1176E+00
     -6.786  0.0000E+00  0.1176E+00
     -6.676  0.0000E+00  0.1176E+00
     -6.567  0.0000E+00  0.1176E+00
     -6.458  0.0000E+00  0.1176E+00
     -6.348  0.0000E+00  0.1176E+00
     -6.239  0.0000E+00  0.1176E+00
     -6.130  0.0000E+00  0.1176E+00
     -6.020  0.0000E+00  0.1176E+00
     -5.911  0.0000E+00  0.1176E+00
     -5.802  0.0000E+00  0.1176E+00
     -5.693  0.0000E+00  0.1176E+00
     -5.583  0.0000E+00  0.1176E+00
     -5.474  0.0000E+00  0.1176E+00
     -5.365  0.0000E+00  0.1176E+00
     -5.255  0.0000E+00  0.1176E+00
     -5.146  0.0000E+00  0.1176E+00
     -5.037  0.0000E+00  0.1176E+00
     -4.927  0.0000E+00  0.1176E+00
     -4.818  0.0000E+00  0.1176E+00
     -4.709  0.0000E+00  0.1176E+00
     -4.600  0.0000E+00  0.1176E+00
     -4.490  0.0000E+00  0.1176E+00
     -4.381  0.0000E+00  0.1176E+00
     -4.272  0.0000E+00  0.1176E+00
     -4.162  0.0000E+00  0.1176E+00
     -4.053  0.0000E+00  0.1176E+00
     -3.944  0.0000E+00  0.1176E+00
     -3.834  0.0000E+00  0.1176E+00
     -3.725  0.0000E+00  0.1176E+00
     -3.616  0.0000E+00  0.1176E+00
     -3.506  0.0000E+00  0.1176E+00
     -3.397  0.0000E+00  0.1176E+00
     -3.288  0.6904E-11  0.1176E+00
     -3.179  0.2354E-04  0.1176E+00
     -3.069  0.1832E-01  0.1197E+00
     -2.960  0.3305E-01  0.1233E+00
     -2.851  0.2690E-03  0.1233E+00
     -2.741  0.3873E-03  0.1233E+00
     -2.632  0.3095E-01  0.1267E+00
     -2.523  0.2026E-01  0.1289E+00
     -2.413  0.6584E-04  0.1289E+00
     -2.304  0.5654E-10  0.1289E+00
     -2.195  0.3140E-05  0.1289E+00
     -2.086  0.1144E-01  0.1302E+00
     -1.976  0.3967E-01  0.1345E+00
     -1.867  0.5411E-03  0.1346E+00
     -1.758  0.1867E-08  0.1346E+00
     -1.648  0.1822E-05  0.1346E+00
     -1.539  0.8725E-03  0.1347E+00
     -1.430  0.3584E-02  0.1351E+00
     -1.320  0.1982E-01  0.1372E+00
     -1.211  0.1303E-01  0.1387E+00
     -1.102  0.1660E-01  0.1405E+00
     -0.992  0.5811E-02  0.1411E+00
     -0.883  0.5563E-03  0.1412E+00
     -0.774  0.9689E-06  0.1412E+00
     -0.665  0.3262E-02  0.1415E+00
     -0.555  0.3282E-01  0.1451E+00
     -0.446  0.5511E-01  0.1511E+00
     -0.337  0.1211E-01  0.1525E+00
     -0.227  0.2659E-02  0.1528E+00
     -0.118  0.2923E-01  0.1560E+00
     -0.009  0.1914E-01  0.1580E+00
      0.101  0.1144E-02  0.1582E+00
      0.210  0.3491E-01  0.1620E+00
      0.319  0.1674E-01  0.1638E+00
      0.428  0.9759E-02  0.1649E+00
      0.538  0.1865E-01  0.1669E+00
      0.647  0.1067E-01  0.1681E+00
      0.756  0.2500E-01  0.1708E+00
      0.866  0.1772E-01  0.1728E+00
      0.975  0.1866E-01  0.1748E+00
      1.084  0.1985E-01  0.1770E+00
      1.194  0.2838E-01  0.1801E+00
      1.303  0.2529E-01  0.1828E+00
      1.412  0.1802E-02  0.1830E+00
      1.522  0.3285E-01  0.1866E+00
      1.631  0.4259E-01  0.1913E+00
      1.740  0.6599E-02  0.1920E+00
      1.849  0.2822E-04  0.1920E+00
      1.959  0.7921E-02  0.1929E+00
      2.068  0.5822E-01  0.1992E+00
      2.177  0.2617E-01  0.2021E+00
      2.287  0.1676E-01  0.2039E+00
      2.396  0.6207E-01  0.2107E+00
      2.505  0.2200E-01  0.2131E+00
      2.615  0.1974E-01  0.2153E+00
      2.724  0.5892E-01  0.2217E+00
      2.833  0.4123E-01  0.2262E+00
      2.942  0.3287E-01  0.2298E+00
      3.052  0.2025E-01  0.2320E+00
      3.161  0.5219E-01  0.2377E+00
      3.270  0.1848E-01  0.2397E+00
      3.380  0.2198E-01  0.2422E+00
      3.489  0.5776E-01  0.2485E+00
      3.598  0.4129E-01  0.2530E+00
      3.708  0.2446E-02  0.2532E+00
      3.817  0.3665E-01  0.2573E+00
      3.926  0.1438E-01  0.2588E+00
      4.036  0.1350E-04  0.2588E+00
      4.145  0.2783E-11  0.2588E+00
      4.254  0.0000E+00  0.2588E+00
      4.363  0.0000E+00  0.2588E+00
      4.473  0.0000E+00  0.2588E+00
      4.582  0.0000E+00  0.2588E+00
      4.691  0.0000E+00  0.2588E+00
      4.801  0.1319E-16  0.2588E+00
      4.910  0.8891E-08  0.2588E+00
      5.019  0.6736E-03  0.2589E+00
      5.129  0.1775E-01  0.2608E+00
      5.238  0.1078E-01  0.2620E+00
      5.347  0.1737E-01  0.2639E+00
      5.456  0.5081E-02  0.2645E+00
      5.566  0.9639E-05  0.2645E+00
      5.675  0.5566E-03  0.2645E+00
      5.784  0.1158E-02  0.2647E+00
      5.894  0.5748E-03  0.2647E+00
      6.003  0.9340E-02  0.2657E+00
      6.112  0.1949E-01  0.2679E+00
      6.222  0.5832E-02  0.2685E+00
      6.331  0.1794E-01  0.2705E+00
      6.440  0.2005E-02  0.2707E+00
      6.549  0.1181E-01  0.2720E+00
      6.659  0.5397E-01  0.2779E+00
      6.768  0.3940E-01  0.2822E+00
      6.877  0.1526E-02  0.2824E+00
      6.987  0.1487E-06  0.2824E+00
      7.096  0.1794E-14  0.2824E+00
      7.205  0.0000E+00  0.2824E+00
      7.315  0.0000E+00  0.2824E+00
      7.424  0.1335E-15  0.2824E+00
      7.533  0.2603E-07  0.2824E+00
      7.643  0.6189E-03  0.2824E+00
      7.752  0.8144E-02  0.2833E+00
      7.861  0.9546E-02  0.2844E+00
      7.970  0.1051E-02  0.2845E+00
      8.080  0.1010E-01  0.2856E+00
      8.189  0.1420E-01  0.2871E+00
      8.298  0.1786E-01  0.2891E+00
      8.408  0.2281E-01  0.2916E+00
      8.517  0.1349E-01  0.2930E+00
      8.626  0.1468E-01  0.2947E+00
      8.736  0.2932E-01  0.2979E+00
      8.845  0.3831E-01  0.3020E+00
      8.954  0.1870E-01  0.3041E+00
      9.063  0.1563E-01  0.3058E+00
      9.173  0.9930E-02  0.3069E+00
      9.282  0.4411E-01  0.3117E+00
      9.391  0.4245E-01  0.3163E+00
      9.501  0.3902E-01  0.3206E+00
      9.610  0.6615E-01  0.3278E+00
      9.719  0.2633E-01  0.3307E+00
      9.829  0.4063E-01  0.3352E+00
      9.938  0.5187E-01  0.3408E+00
     10.047  0.1892E-01  0.3429E+00
     10.157  0.4163E-01  0.3474E+00
     10.266  0.4960E-01  0.3529E+00
     10.375  0.4746E-01  0.3581E+00
     10.484  0.2833E-01  0.3611E+00
     10.594  0.3852E-01  0.3654E+00
     10.703  0.2744E-01  0.3684E+00
     10.812  0.4177E-02  0.3688E+00
     10.922  0.2776E-01  0.3718E+00
     11.031  0.2127E-01  0.3742E+00
     11.140  0.3512E-03  0.3742E+00
     11.250  0.2854E-02  0.3745E+00
     11.359  0.1734E-01  0.3764E+00
     11.468  0.4692E-03  0.3765E+00
     11.577  0.3688E-08  0.3765E+00
     11.687  0.3441E-17  0.3765E+00
     11.796  0.0000E+00  0.3765E+00
     11.905  0.0000E+00  0.3765E+00
     12.015  0.0000E+00  0.3765E+00
     12.124  0.0000E+00  0.3765E+00
     12.233  0.0000E+00  0.3765E+00
     12.343  0.0000E+00  0.3765E+00
     12.452  0.0000E+00  0.3765E+00
     12.561  0.0000E+00  0.3765E+00
     12.671  0.0000E+00  0.3765E+00
     12.780  0.0000E+00  0.3765E+00
