   4   4   0   0
  0.1811798E+02  0.7000487E-09  0.7000487E-09  0.7000487E-09  0.1500000E-16
   1.0000000000000000E-004
  CAR 
 unknown system                          
     26.47381046    -20.66353601  301      6.34561663      1.00000000
    -20.664  0.0000E+00  0.0000E+00
    -20.506  0.0000E+00  0.0000E+00
    -20.349  0.0000E+00  0.0000E+00
    -20.192  0.0000E+00  0.0000E+00
    -20.035  0.0000E+00  0.0000E+00
    -19.878  0.0000E+00  0.0000E+00
    -19.721  0.0000E+00  0.0000E+00
    -19.564  0.0000E+00  0.0000E+00
    -19.407  0.0000E+00  0.0000E+00
    -19.249  0.0000E+00  0.0000E+00
    -19.092  0.0000E+00  0.0000E+00
    -18.935  0.0000E+00  0.0000E+00
    -18.778  0.1154E-13  0.1813E-14
    -18.621  0.2056E-03  0.3231E-04
    -18.464  0.2922E+00  0.4595E-01
    -18.307  0.1568E+00  0.7059E-01
    -18.150  0.4230E-05  0.7059E-01
    -17.992  0.0000E+00  0.7059E-01
    -17.835  0.0000E+00  0.7059E-01
    -17.678  0.0000E+00  0.7059E-01
    -17.521  0.0000E+00  0.7059E-01
    -17.364  0.0000E+00  0.7059E-01
    -17.207  0.0000E+00  0.7059E-01
    -17.050  0.0000E+00  0.7059E-01
    -16.893  0.0000E+00  0.7059E-01
    -16.735  0.0000E+00  0.7059E-01
    -16.578  0.0000E+00  0.7059E-01
    -16.421  0.0000E+00  0.7059E-01
    -16.264  0.0000E+00  0.7059E-01
    -16.107  0.0000E+00  0.7059E-01
    -15.950  0.0000E+00  0.7059E-01
    -15.793  0.0000E+00  0.7059E-01
    -15.636  0.0000E+00  0.7059E-01
    -15.478  0.0000E+00  0.7059E-01
    -15.321  0.0000E+00  0.7059E-01
    -15.164  0.0000E+00  0.7059E-01
    -15.007  0.0000E+00  0.7059E-01
    -14.850  0.0000E+00  0.7059E-01
    -14.693  0.0000E+00  0.7059E-01
    -14.536  0.0000E+00  0.7059E-01
    -14.379  0.0000E+00  0.7059E-01
    -14.221  0.0000E+00  0.7059E-01
    -14.064  0.0000E+00  0.7059E-01
    -13.907  0.0000E+00  0.7059E-01
    -13.750  0.0000E+00  0.7059E-01
    -13.593  0.0000E+00  0.7059E-01
    -13.436  0.0000E+00  0.7059E-01
    -13.279  0.0000E+00  0.7059E-01
    -13.122  0.0000E+00  0.7059E-01
    -12.964  0.0000E+00  0.7059E-01
    -12.807  0.0000E+00  0.7059E-01
    -12.650  0.0000E+00  0.7059E-01
    -12.493  0.0000E+00  0.7059E-01
    -12.336  0.0000E+00  0.7059E-01
    -12.179  0.0000E+00  0.7059E-01
    -12.022  0.0000E+00  0.7059E-01
    -11.865  0.0000E+00  0.7059E-01
    -11.707  0.0000E+00  0.7059E-01
    -11.550  0.0000E+00  0.7059E-01
    -11.393  0.0000E+00  0.7059E-01
    -11.236  0.0000E+00  0.7059E-01
    -11.079  0.0000E+00  0.7059E-01
    -10.922  0.0000E+00  0.7059E-01
    -10.765  0.0000E+00  0.7059E-01
    -10.608  0.0000E+00  0.7059E-01
    -10.450  0.0000E+00  0.7059E-01
    -10.293  0.0000E+00  0.7059E-01
    -10.136  0.0000E+00  0.7059E-01
     -9.979  0.1634E-07  0.7059E-01
     -9.822  0.1848E-02  0.7088E-01
     -9.665  0.4141E-02  0.7153E-01
     -9.508  0.2037E-05  0.7153E-01
     -9.351  0.1540E-01  0.7395E-01
     -9.193  0.2054E-01  0.7718E-01
     -9.036  0.1831E-05  0.7718E-01
     -8.879  0.0000E+00  0.7718E-01
     -8.722  0.1535E-08  0.7718E-01
     -8.565  0.5002E-02  0.7796E-01
     -8.408  0.3091E-01  0.8282E-01
     -8.251  0.2435E-02  0.8320E-01
     -8.094  0.3345E-01  0.8846E-01
     -7.936  0.7734E-03  0.8858E-01
     -7.779  0.4817E-02  0.8934E-01
     -7.622  0.2155E-01  0.9272E-01
     -7.465  0.5074E-01  0.1007E+00
     -7.308  0.1525E-01  0.1031E+00
     -7.151  0.9252E-01  0.1176E+00
     -6.994  0.1233E-03  0.1176E+00
     -6.837  0.2685E-13  0.1176E+00
     -6.679  0.0000E+00  0.1176E+00
     -6.522  0.0000E+00  0.1176E+00
     -6.365  0.0000E+00  0.1176E+00
     -6.208  0.0000E+00  0.1176E+00
     -6.051  0.0000E+00  0.1176E+00
     -5.894  0.0000E+00  0.1176E+00
     -5.737  0.0000E+00  0.1176E+00
     -5.580  0.0000E+00  0.1176E+00
     -5.422  0.0000E+00  0.1176E+00
     -5.265  0.0000E+00  0.1176E+00
     -5.108  0.0000E+00  0.1176E+00
     -4.951  0.0000E+00  0.1176E+00
     -4.794  0.0000E+00  0.1176E+00
     -4.637  0.0000E+00  0.1176E+00
     -4.480  0.0000E+00  0.1176E+00
     -4.323  0.0000E+00  0.1176E+00
     -4.165  0.0000E+00  0.1176E+00
     -4.008  0.0000E+00  0.1176E+00
     -3.851  0.0000E+00  0.1176E+00
     -3.694  0.0000E+00  0.1176E+00
     -3.537  0.0000E+00  0.1176E+00
     -3.380  0.0000E+00  0.1176E+00
     -3.223  0.1093E-06  0.1176E+00
     -3.066  0.1408E-01  0.1199E+00
     -2.908  0.2186E-01  0.1233E+00
     -2.751  0.1288E-03  0.1233E+00
     -2.594  0.3160E-01  0.1283E+00
     -2.437  0.4216E-02  0.1289E+00
     -2.280  0.1769E-08  0.1289E+00
     -2.123  0.1238E-02  0.1291E+00
     -1.966  0.3454E-01  0.1346E+00
     -1.809  0.1664E-03  0.1346E+00
     -1.651  0.9221E-06  0.1346E+00
     -1.494  0.1117E-02  0.1348E+00
     -1.337  0.1388E-01  0.1369E+00
     -1.180  0.1364E-01  0.1391E+00
     -1.023  0.1219E-01  0.1410E+00
     -0.866  0.1098E-02  0.1412E+00
     -0.709  0.2119E-03  0.1412E+00
     -0.552  0.2597E-01  0.1453E+00
     -0.394  0.4468E-01  0.1523E+00
     -0.237  0.2128E-02  0.1526E+00
     -0.080  0.2813E-01  0.1571E+00
      0.077  0.6755E-02  0.1581E+00
      0.234  0.3110E-01  0.1630E+00
      0.391  0.9428E-02  0.1645E+00
      0.548  0.1609E-01  0.1670E+00
      0.705  0.1597E-01  0.1695E+00
      0.863  0.2021E-01  0.1727E+00
      1.020  0.1706E-01  0.1754E+00
      1.177  0.2659E-01  0.1796E+00
      1.334  0.2154E-01  0.1829E+00
      1.491  0.1151E-01  0.1848E+00
      1.648  0.4301E-01  0.1915E+00
      1.805  0.3086E-02  0.1920E+00
      1.962  0.6405E-02  0.1930E+00
      2.120  0.4866E-01  0.2007E+00
      2.277  0.1877E-01  0.2036E+00
      2.434  0.5409E-01  0.2121E+00
      2.591  0.1522E-01  0.2145E+00
      2.748  0.5350E-01  0.2229E+00
      2.905  0.3894E-01  0.2290E+00
      3.062  0.2324E-01  0.2327E+00
      3.219  0.3729E-01  0.2385E+00
      3.377  0.2228E-01  0.2420E+00
      3.534  0.5860E-01  0.2512E+00
      3.691  0.1248E-01  0.2532E+00
      3.848  0.3286E-01  0.2584E+00
      4.005  0.2956E-02  0.2588E+00
      4.162  0.3557E-09  0.2588E+00
      4.319  0.0000E+00  0.2588E+00
      4.476  0.0000E+00  0.2588E+00
      4.634  0.0000E+00  0.2588E+00
      4.791  0.7980E-18  0.2588E+00
      4.948  0.8217E-06  0.2588E+00
      5.105  0.1026E-01  0.2604E+00
      5.262  0.1389E-01  0.2626E+00
      5.419  0.1165E-01  0.2644E+00
      5.576  0.1410E-03  0.2645E+00
      5.733  0.1057E-02  0.2646E+00
      5.891  0.4666E-03  0.2647E+00
      6.048  0.9426E-02  0.2662E+00
      6.205  0.1438E-01  0.2685E+00
      6.362  0.1400E-01  0.2707E+00
      6.519  0.3486E-02  0.2712E+00
      6.676  0.5051E-01  0.2791E+00
      6.833  0.2047E-01  0.2824E+00
      6.990  0.1217E-04  0.2824E+00
      7.147  0.0000E+00  0.2824E+00
      7.305  0.0000E+00  0.2824E+00
      7.462  0.1938E-12  0.2824E+00
      7.619  0.1004E-03  0.2824E+00
      7.776  0.7208E-02  0.2835E+00
      7.933  0.5887E-02  0.2844E+00
      8.090  0.8050E-02  0.2857E+00
      8.247  0.1403E-01  0.2879E+00
      8.404  0.2313E-01  0.2915E+00
      8.562  0.1589E-01  0.2940E+00
      8.719  0.1798E-01  0.2969E+00
      8.876  0.3413E-01  0.3022E+00
      9.033  0.2114E-01  0.3055E+00
      9.190  0.1050E-01  0.3072E+00
      9.347  0.4841E-01  0.3148E+00
      9.504  0.3912E-01  0.3209E+00
      9.661  0.5355E-01  0.3294E+00
      9.819  0.3241E-01  0.3344E+00
      9.976  0.4389E-01  0.3413E+00
     10.133  0.3568E-01  0.3469E+00
     10.290  0.4597E-01  0.3542E+00
     10.447  0.3337E-01  0.3594E+00
     10.604  0.3930E-01  0.3656E+00
     10.761  0.2069E-01  0.3688E+00
     10.918  0.2562E-01  0.3729E+00
     11.076  0.2272E-01  0.3764E+00
     11.233  0.8677E-02  0.3778E+00
     11.390  0.3839E-01  0.3838E+00
     11.547  0.1217E-01  0.3857E+00
     11.704  0.3162E-01  0.3907E+00
     11.861  0.9351E-02  0.3922E+00
     12.018  0.1586E-01  0.3947E+00
     12.175  0.2293E-01  0.3983E+00
     12.333  0.1984E-01  0.4014E+00
     12.490  0.2975E-01  0.4061E+00
     12.647  0.3118E-01  0.4110E+00
     12.804  0.8929E-03  0.4111E+00
     12.961  0.2860E-01  0.4156E+00
     13.118  0.2828E-01  0.4200E+00
     13.275  0.2621E-01  0.4242E+00
     13.432  0.7993E-01  0.4367E+00
     13.590  0.9511E-02  0.4382E+00
     13.747  0.2506E-01  0.4422E+00
     13.904  0.1460E-01  0.4444E+00
     14.061  0.2151E-01  0.4478E+00
     14.218  0.9485E-02  0.4493E+00
     14.375  0.5096E-07  0.4493E+00
     14.532  0.9329E-05  0.4493E+00
     14.689  0.2710E-01  0.4536E+00
     14.847  0.4002E-01  0.4599E+00
     15.004  0.9451E-02  0.4614E+00
     15.161  0.2833E-01  0.4658E+00
     15.318  0.5452E-01  0.4744E+00
     15.475  0.6668E-01  0.4848E+00
     15.632  0.3288E-01  0.4900E+00
     15.789  0.1501E-01  0.4924E+00
     15.946  0.1029E-01  0.4940E+00
     16.104  0.3998E-01  0.5003E+00
     16.261  0.1982E-01  0.5034E+00
     16.418  0.2068E-01  0.5066E+00
     16.575  0.4287E-01  0.5134E+00
     16.732  0.3540E-01  0.5189E+00
     16.889  0.4894E-01  0.5266E+00
     17.046  0.3137E-01  0.5316E+00
     17.203  0.3026E-01  0.5363E+00
     17.361  0.4789E-01  0.5438E+00
     17.518  0.2207E-01  0.5473E+00
     17.675  0.1191E-01  0.5492E+00
     17.832  0.1357E-01  0.5513E+00
     17.989  0.2902E-01  0.5559E+00
     18.146  0.3165E-01  0.5608E+00
     18.303  0.1510E-01  0.5632E+00
     18.460  0.3045E-01  0.5680E+00
     18.618  0.3094E-01  0.5729E+00
     18.775  0.1306E-01  0.5749E+00
     18.932  0.3983E-01  0.5812E+00
     19.089  0.2279E-01  0.5847E+00
     19.246  0.3828E-01  0.5908E+00
     19.403  0.2720E-01  0.5950E+00
     19.560  0.4167E-01  0.6016E+00
     19.717  0.5027E-01  0.6095E+00
     19.875  0.4833E-01  0.6171E+00
     20.032  0.2128E-01  0.6204E+00
     20.189  0.4485E-01  0.6275E+00
     20.346  0.3649E-01  0.6332E+00
     20.503  0.1517E-01  0.6356E+00
     20.660  0.1335E-01  0.6377E+00
     20.817  0.4441E-01  0.6447E+00
     20.974  0.5046E-01  0.6526E+00
     21.132  0.2017E-01  0.6558E+00
     21.289  0.2139E-01  0.6591E+00
     21.446  0.5757E-01  0.6682E+00
     21.603  0.1194E-01  0.6700E+00
     21.760  0.4540E-01  0.6772E+00
     21.917  0.2000E-01  0.6803E+00
     22.074  0.4366E-01  0.6872E+00
     22.231  0.4915E-01  0.6949E+00
     22.389  0.1834E-01  0.6978E+00
     22.546  0.8020E-02  0.6990E+00
     22.703  0.4470E-01  0.7061E+00
     22.860  0.3318E-01  0.7113E+00
     23.017  0.2316E-01  0.7149E+00
     23.174  0.3530E-01  0.7205E+00
     23.331  0.4885E-01  0.7281E+00
     23.488  0.4339E-01  0.7350E+00
     23.646  0.5477E-01  0.7436E+00
     23.803  0.2240E-01  0.7471E+00
     23.960  0.1291E-01  0.7491E+00
     24.117  0.1780E-01  0.7519E+00
     24.274  0.5480E-02  0.7528E+00
     24.431  0.1132E-02  0.7529E+00
     24.588  0.2805E-05  0.7529E+00
     24.745  0.0000E+00  0.7529E+00
     24.903  0.0000E+00  0.7529E+00
     25.060  0.0000E+00  0.7529E+00
     25.217  0.0000E+00  0.7529E+00
     25.374  0.0000E+00  0.7529E+00
     25.531  0.0000E+00  0.7529E+00
     25.688  0.0000E+00  0.7529E+00
     25.845  0.0000E+00  0.7529E+00
     26.002  0.0000E+00  0.7529E+00
     26.160  0.0000E+00  0.7529E+00
     26.317  0.0000E+00  0.7529E+00
     26.474  0.0000E+00  0.7529E+00
