       N       E                     dE             d eps       ncg     rms          rms(c)
DAV:   1     0.321228096821E+02    0.32123E+02   -0.10544E+04  1216   0.546E+02
DAV:   2    -0.171814708803E+02   -0.49304E+02   -0.49246E+02  1824   0.748E+01
DAV:   3    -0.177059580888E+02   -0.52449E+00   -0.52449E+00  1216   0.102E+01
DAV:   4    -0.177077817557E+02   -0.18237E-02   -0.18237E-02  2368   0.696E-01
DAV:   5    -0.177077818294E+02   -0.73774E-07   -0.74204E-07  1216   0.435E-03    0.883E+00
DAV:   6    -0.174046358133E+02    0.30315E+00   -0.10900E+00  1696   0.214E+00    0.604E+00
DAV:   7    -0.173833211284E+02    0.21315E-01   -0.24027E-01  1952   0.129E+00    0.164E+00
DAV:   8    -0.173830137614E+02    0.30737E-03   -0.17168E-02  1728   0.369E-01    0.218E-01
DAV:   9    -0.173833000023E+02   -0.28624E-03   -0.19987E-03  1984   0.130E-01    0.113E-01
DAV:  10    -0.173833913151E+02   -0.91313E-04   -0.83383E-05  1696   0.342E-02    0.435E-02
DAV:  11    -0.173834410998E+02   -0.49785E-04   -0.77834E-05  1792   0.338E-02    0.131E-02
DAV:  12    -0.173834421255E+02   -0.10257E-05   -0.12128E-06  1888   0.393E-03    0.801E-03
DAV:  13    -0.173834427310E+02   -0.60551E-06   -0.75015E-07  1728   0.274E-03
   1 F= -.17383443E+02 E0= -.17383140E+02  d E =-.604666E-03
 Found     6 degrees of freedom:
 Adding 6 more for cell shape distortion
       N       E                     dE             d eps       ncg     rms          rms(c)
DAV:   1    -0.174599908895E+02   -0.76549E-01   -0.45896E+00  3104   0.100E+01    0.212E+00
DAV:   2    -0.173848841951E+02    0.75107E-01   -0.22133E-01  3840   0.199E+00    0.119E+00
DAV:   3    -0.173612381950E+02    0.23646E-01   -0.47723E-02  3552   0.927E-01    0.341E-01
DAV:   4    -0.173595151933E+02    0.17230E-02   -0.17918E-03  3712   0.162E-01    0.231E-01
DAV:   5    -0.173590929248E+02    0.42227E-03   -0.50744E-04  3936   0.893E-02    0.618E-02
DAV:   6    -0.173590863499E+02    0.65749E-05   -0.28514E-05  3424   0.253E-02    0.125E-02
DAV:   7    -0.173590865520E+02   -0.20206E-06   -0.29674E-06  3776   0.773E-03
   2 F= -.17359087E+02 E0= -.17358118E+02  d E =-.193789E-02
       N       E                     dE             d eps       ncg     rms          rms(c)
DAV:   1    -0.174008275912E+02   -0.41741E-01   -0.22613E+00  3616   0.620E+00    0.106E+00
DAV:   2    -0.173831917157E+02    0.17636E-01   -0.59098E-02  3392   0.107E+00    0.581E-01
DAV:   3    -0.173775379694E+02    0.56537E-02   -0.12204E-02  3936   0.471E-01    0.192E-01
DAV:   4    -0.173771970963E+02    0.34087E-03   -0.35425E-04  3136   0.732E-02    0.142E-01
DAV:   5    -0.173770915307E+02    0.10557E-03   -0.15111E-04  4128   0.480E-02    0.324E-02
DAV:   6    -0.173770924965E+02   -0.96577E-06   -0.65601E-06  3104   0.121E-02
   3 F= -.17377092E+02 E0= -.17376806E+02  d E =-.572287E-03
       N       E                     dE             d eps       ncg     rms          rms(c)
DAV:   1    -0.174786715301E+02   -0.10158E+00   -0.38653E+00  3168   0.922E+00    0.228E+00
DAV:   2    -0.174019711827E+02    0.76700E-01   -0.19747E-01  3840   0.193E+00    0.126E+00
DAV:   3    -0.173782280614E+02    0.23743E-01   -0.50800E-02  3712   0.974E-01    0.377E-01
DAV:   4    -0.173769943743E+02    0.12337E-02   -0.14477E-03  3360   0.147E-01    0.283E-01
DAV:   5    -0.173765231774E+02    0.47120E-03   -0.59538E-04  4224   0.944E-02    0.540E-02
DAV:   6    -0.173765237960E+02   -0.61851E-06   -0.19970E-05  2880   0.203E-02    0.160E-02
DAV:   7    -0.173765237995E+02   -0.35523E-08   -0.31252E-06  4320   0.701E-03
   4 F= -.17376524E+02 E0= -.17376290E+02  d E =-.466967E-03
       N       E                     dE             d eps       ncg     rms          rms(c)
DAV:   1    -0.173795962307E+02   -0.30724E-02   -0.26022E+00  3680   0.655E+00    0.115E+00
DAV:   2    -0.173611650875E+02    0.18431E-01   -0.64988E-02  3456   0.114E+00    0.668E-01
DAV:   3    -0.173549391449E+02    0.62259E-02   -0.12392E-02  3904   0.483E-01    0.183E-01
DAV:   4    -0.173544964526E+02    0.44269E-03   -0.44332E-04  3424   0.832E-02    0.131E-01
DAV:   5    -0.173543911242E+02    0.10533E-03   -0.14563E-04  4160   0.478E-02    0.321E-02
DAV:   6    -0.173543918690E+02   -0.74481E-06   -0.64807E-06  3104   0.117E-02
   5 F= -.17354392E+02 E0= -.17353979E+02  d E =-.826520E-03
       N       E                     dE             d eps       ncg     rms          rms(c)
DAV:   1    -0.176737093383E+02   -0.31932E+00   -0.13653E+01  2848   0.189E+01    0.389E+00
DAV:   2    -0.174305500245E+02    0.24316E+00   -0.76578E-01  4096   0.366E+00    0.198E+00
DAV:   3    -0.173673374129E+02    0.63213E-01   -0.14631E-01  3296   0.170E+00    0.573E-01
DAV:   4    -0.173626947095E+02    0.46427E-02   -0.33911E-03  3424   0.203E-01    0.386E-01
DAV:   5    -0.173609313659E+02    0.17633E-02   -0.12945E-03  3648   0.121E-01    0.117E-01
DAV:   6    -0.173609105457E+02    0.20820E-04   -0.96844E-05  3904   0.482E-02    0.223E-02
DAV:   7    -0.173609098430E+02    0.70277E-06   -0.13345E-05  3232   0.183E-02    0.759E-03
DAV:   8    -0.173609102212E+02   -0.37825E-06   -0.75146E-07  2784   0.356E-03
   6 F= -.17360910E+02 E0= -.17359919E+02  d E =-.198234E-02
       N       E                     dE             d eps       ncg     rms          rms(c)
DAV:   1    -0.174013606332E+02   -0.40451E-01   -0.22439E+00  3776   0.615E+00    0.105E+00
DAV:   2    -0.173833615368E+02    0.17999E-01   -0.56088E-02  3264   0.105E+00    0.583E-01
DAV:   3    -0.173776335123E+02    0.57280E-02   -0.12885E-02  4000   0.482E-01    0.198E-01
DAV:   4    -0.173773066272E+02    0.32689E-03   -0.33692E-04  3264   0.727E-02    0.146E-01
DAV:   5    -0.173771995869E+02    0.10704E-03   -0.16441E-04  3968   0.499E-02    0.343E-02
DAV:   6    -0.173772007582E+02   -0.11713E-05   -0.76648E-06  3552   0.132E-02    0.913E-03
DAV:   7    -0.173772008626E+02   -0.10440E-06   -0.78967E-07  3072   0.343E-03
   7 F= -.17377201E+02 E0= -.17376921E+02  d E =-.560608E-03
       N       E                     dE             d eps       ncg     rms          rms(c)
DAV:   1    -0.174783541463E+02   -0.10115E+00   -0.38533E+00  3104   0.920E+00    0.228E+00
DAV:   2    -0.174018134404E+02    0.76541E-01   -0.19582E-01  4000   0.192E+00    0.126E+00
DAV:   3    -0.173780918973E+02    0.23722E-01   -0.50936E-02  3392   0.977E-01    0.378E-01
DAV:   4    -0.173768748218E+02    0.12171E-02   -0.14372E-03  3808   0.150E-01    0.286E-01
DAV:   5    -0.173764021695E+02    0.47265E-03   -0.60559E-04  3968   0.986E-02    0.513E-02
DAV:   6    -0.173764029051E+02   -0.73563E-06   -0.22124E-05  3040   0.209E-02    0.165E-02
DAV:   7    -0.173764030510E+02   -0.14592E-06   -0.28427E-06  4160   0.617E-03
   8 F= -.17376403E+02 E0= -.17376125E+02  d E =-.556692E-03
       N       E                     dE             d eps       ncg     rms          rms(c)
DAV:   1    -0.173793622938E+02   -0.29594E-02   -0.26107E+00  3712   0.656E+00    0.114E+00
DAV:   2    -0.173609703388E+02    0.18392E-01   -0.62703E-02  3360   0.113E+00    0.663E-01
DAV:   3    -0.173547505434E+02    0.62198E-02   -0.13161E-02  3936   0.498E-01    0.184E-01
DAV:   4    -0.173543599489E+02    0.39059E-03   -0.39284E-04  3264   0.805E-02    0.136E-01
DAV:   5    -0.173542508658E+02    0.10908E-03   -0.15416E-04  4192   0.505E-02    0.324E-02
DAV:   6    -0.173542515546E+02   -0.68880E-06   -0.64674E-06  2944   0.120E-02
   9 F= -.17354252E+02 E0= -.17353962E+02  d E =-.579159E-03
       N       E                     dE             d eps       ncg     rms          rms(c)
DAV:   1    -0.177119621597E+02   -0.35771E+00   -0.11471E+01  1376   0.180E+01    0.397E+00
DAV:   2    -0.174489367370E+02    0.26303E+00   -0.62510E-01  1632   0.324E+00    0.197E+00
DAV:   3    -0.173758585506E+02    0.73078E-01   -0.22383E-01  1952   0.184E+00    0.674E-01
DAV:   4    -0.173725324571E+02    0.33261E-02   -0.40147E-03  1248   0.242E-01    0.453E-01
DAV:   5    -0.173701487585E+02    0.23837E-02   -0.24225E-03  2240   0.158E-01    0.101E-01
DAV:   6    -0.173701324918E+02    0.16267E-04   -0.10194E-04  1344   0.471E-02    0.502E-02
DAV:   7    -0.173701351136E+02   -0.26218E-05   -0.22805E-05  2272   0.155E-02    0.658E-03
DAV:   8    -0.173701369224E+02   -0.18088E-05   -0.96185E-07  1120   0.474E-03    0.286E-03
DAV:   9    -0.173701393252E+02   -0.24028E-05   -0.33209E-07   832   0.215E-03    0.250E-03
DAV:  10    -0.173701390620E+02    0.26321E-06   -0.45007E-08   640   0.827E-04
  10 F= -.17370139E+02 E0= -.17369837E+02  d E =-.604666E-03
       N       E                     dE             d eps       ncg     rms          rms(c)
DAV:   1    -0.174107776597E+02   -0.40638E-01   -0.10924E+00  1536   0.466E+00    0.108E+00
DAV:   2    -0.173897442248E+02    0.21033E-01   -0.52152E-02  1696   0.880E-01    0.587E-01
DAV:   3    -0.173836039437E+02    0.61403E-02   -0.21115E-02  1888   0.510E-01    0.218E-01
DAV:   4    -0.173834334412E+02    0.17050E-03   -0.36805E-04  1216   0.809E-02    0.153E-01
DAV:   5    -0.173833228587E+02    0.11058E-03   -0.18859E-04  2144   0.429E-02    0.272E-02
DAV:   6    -0.173833234325E+02   -0.57376E-06   -0.50185E-06  1344   0.990E-03
  11 F= -.17383323E+02 E0= -.17383021E+02  d E =-.604666E-03
       N       E                     dE             d eps       ncg     rms          rms(c)
DAV:   1    -0.174824487474E+02   -0.99126E-01   -0.45466E+00  1536   0.947E+00    0.223E+00
DAV:   2    -0.173963569538E+02    0.86092E-01   -0.21553E-01  1696   0.181E+00    0.121E+00
DAV:   3    -0.173710327115E+02    0.25324E-01   -0.84755E-02  1888   0.103E+00    0.467E-01
DAV:   4    -0.173703266880E+02    0.70602E-03   -0.14042E-03  1216   0.160E-01    0.332E-01
DAV:   5    -0.173698146090E+02    0.51208E-03   -0.81310E-04  2048   0.891E-02    0.566E-02
DAV:   6    -0.173698148903E+02   -0.28135E-06   -0.22601E-05  1376   0.205E-02    0.345E-02
DAV:   7    -0.173698163696E+02   -0.14793E-05   -0.68481E-06  2016   0.906E-03    0.484E-03
DAV:   8    -0.173698160730E+02    0.29669E-06   -0.48948E-07   832   0.282E-03
  12 F= -.17369816E+02 E0= -.17369514E+02  d E =-.604674E-03
       N       E                     dE             d eps       ncg     rms          rms(c)
DAV:   1    -0.173714328036E+02   -0.16164E-02   -0.11964E+00  1504   0.492E+00    0.113E+00
DAV:   2    -0.173490672543E+02    0.22366E-01   -0.56160E-02  1792   0.937E-01    0.623E-01
DAV:   3    -0.173423561512E+02    0.67111E-02   -0.22444E-02  1824   0.531E-01    0.235E-01
DAV:   4    -0.173421791574E+02    0.17699E-03   -0.38208E-04  1280   0.838E-02    0.168E-01
DAV:   5    -0.173420580770E+02    0.12108E-03   -0.20754E-04  1952   0.452E-02    0.299E-02
DAV:   6    -0.173420587717E+02   -0.69478E-06   -0.63036E-06  1472   0.109E-02
  13 F= -.17342059E+02 E0= -.17341752E+02  d E =-.613620E-03
       N       E                     dE             d eps       ncg     rms          rms(c)
DAV:   1    -0.175168812062E+02   -0.17482E+00   -0.67882E+00  5728   0.116E+01    0.237E+00
DAV:   2    -0.174112569071E+02    0.10562E+00   -0.26614E-01  5920   0.209E+00    0.141E+00
DAV:   3    -0.173752310261E+02    0.36026E-01   -0.10281E-01  6560   0.111E+00    0.412E-01
DAV:   4    -0.173739003047E+02    0.13307E-02   -0.21923E-03  4640   0.192E-01    0.283E-01
DAV:   5    -0.173734110934E+02    0.48921E-03   -0.86921E-04  7136   0.108E-01    0.650E-02
DAV:   6    -0.173734056872E+02    0.54063E-05   -0.33877E-05  4864   0.259E-02    0.285E-02
DAV:   7    -0.173734044939E+02    0.11932E-05   -0.62631E-06  6848   0.839E-03    0.622E-03
DAV:   8    -0.173734048322E+02   -0.33828E-06   -0.50293E-07  4320   0.272E-03
  14 F= -.17373405E+02 E0= -.17372814E+02  d E =-.118151E-02
       N       E                     dE             d eps       ncg     rms          rms(c)
DAV:   1    -0.173864058379E+02   -0.13001E-01   -0.17260E+00  6624   0.482E+00    0.540E-01
DAV:   2    -0.173830684099E+02    0.33374E-02   -0.16713E-02  4928   0.551E-01    0.310E-01
DAV:   3    -0.173810293377E+02    0.20391E-02   -0.41112E-03  7328   0.221E-01    0.493E-02
DAV:   4    -0.173810276870E+02    0.16506E-05   -0.13686E-04  4672   0.545E-02    0.253E-02
DAV:   5    -0.173810257297E+02    0.19574E-05   -0.98497E-06  7264   0.120E-02    0.676E-03
DAV:   6    -0.173810258962E+02   -0.16656E-06   -0.88703E-07  4544   0.373E-03
  15 F= -.17381026E+02 E0= -.17380785E+02  d E =-.480808E-03
       N       E                     dE             d eps       ncg     rms          rms(c)
DAV:   1    -0.174067844876E+02   -0.25759E-01   -0.11553E+00  6688   0.375E+00    0.109E+00
DAV:   2    -0.173894072089E+02    0.17377E-01   -0.21224E-02  5280   0.554E-01    0.620E-01
DAV:   3    -0.173810477563E+02    0.83595E-02   -0.16444E-02  7104   0.421E-01    0.988E-02
DAV:   4    -0.173810349199E+02    0.12836E-04   -0.49867E-04  4608   0.103E-01    0.490E-02
DAV:   5    -0.173810253637E+02    0.95563E-05   -0.46224E-05  7104   0.276E-02    0.810E-03
DAV:   6    -0.173810257837E+02   -0.41997E-06   -0.30787E-06  4928   0.662E-03
  16 F= -.17381026E+02 E0= -.17380785E+02  d E =-.480830E-03
       N       E                     dE             d eps       ncg     rms          rms(c)
DAV:   1    -0.173782947789E+02    0.27306E-02   -0.19476E+00  6496   0.500E+00    0.560E-01
DAV:   2    -0.173755482479E+02    0.27465E-02   -0.19943E-02  5088   0.590E-01    0.312E-01
DAV:   3    -0.173734413620E+02    0.21069E-02   -0.35294E-03  7200   0.199E-01    0.694E-02
DAV:   4    -0.173734082954E+02    0.33067E-04   -0.17033E-04  4800   0.612E-02    0.268E-02
DAV:   5    -0.173734047957E+02    0.34996E-05   -0.18754E-05  7200   0.170E-02    0.489E-03
DAV:   6    -0.173734049552E+02   -0.15942E-06   -0.10042E-06  4672   0.382E-03
  17 F= -.17373405E+02 E0= -.17372814E+02  d E =-.118129E-02
       N       E                     dE             d eps       ncg     rms          rms(c)
DAV:   1    -0.174312200443E+02   -0.57815E-01   -0.41468E+00  4128   0.757E+00    0.153E+00
DAV:   2    -0.173952249045E+02    0.35995E-01   -0.56581E-02  3232   0.999E-01    0.889E-01
DAV:   3    -0.173721402678E+02    0.23085E-01   -0.34204E-02  4352   0.624E-01    0.144E-01
DAV:   4    -0.173714085596E+02    0.73171E-03   -0.16061E-03  3040   0.184E-01    0.647E-02
DAV:   5    -0.173710430153E+02    0.36554E-03   -0.29262E-04  4288   0.605E-02    0.116E-02
DAV:   6    -0.173709924107E+02    0.50605E-04   -0.16136E-05  3104   0.159E-02    0.536E-03
DAV:   7    -0.173709717006E+02    0.20710E-04   -0.99719E-07  4192   0.346E-03    0.195E-03
DAV:   8    -0.173709602652E+02    0.11435E-04   -0.17726E-07  2016   0.153E-03    0.459E-04
DAV:   9    -0.173709559583E+02    0.43069E-05   -0.36748E-08  1472   0.733E-04    0.343E-04
DAV:  10    -0.173709557329E+02    0.22533E-06   -0.35941E-09  1408   0.288E-04
  18 F= -.17370956E+02 E0= -.17370665E+02  d E =-.582170E-03
       N       E                     dE             d eps       ncg     rms          rms(c)
DAV:   1    -0.173876245851E+02   -0.16669E-01   -0.18080E+00  4384   0.490E+00    0.567E-01
DAV:   2    -0.173829752935E+02    0.46493E-02   -0.17021E-02  2944   0.558E-01    0.324E-01
DAV:   3    -0.173803542209E+02    0.26211E-02   -0.53703E-03  4640   0.274E-01    0.496E-02
DAV:   4    -0.173803519117E+02    0.23092E-05   -0.20190E-04  2656   0.684E-02    0.264E-02
DAV:   5    -0.173803511531E+02    0.75861E-06   -0.68680E-06  4768   0.129E-02
  19 F= -.17380351E+02 E0= -.17380053E+02  d E =-.596872E-03
       N       E                     dE             d eps       ncg     rms          rms(c)
DAV:   1    -0.174138191841E+02   -0.33467E-01   -0.13728E+00  4224   0.404E+00    0.115E+00
DAV:   2    -0.173912825612E+02    0.22537E-01   -0.25659E-02  3104   0.618E-01    0.648E-01
DAV:   3    -0.173804483344E+02    0.10834E-01   -0.20758E-02  4608   0.493E-01    0.106E-01
DAV:   4    -0.173804255649E+02    0.22769E-04   -0.66303E-04  2624   0.127E-01    0.560E-02
DAV:   5    -0.173804124605E+02    0.13104E-04   -0.54779E-05  4576   0.371E-02    0.845E-03
DAV:   6    -0.173804129823E+02   -0.52181E-06   -0.37472E-06  2816   0.792E-03
  20 F= -.17380413E+02 E0= -.17380116E+02  d E =-.593795E-03
       N       E                     dE             d eps       ncg     rms          rms(c)
DAV:   1    -0.173785218625E+02    0.18906E-02   -0.20911E+00  4608   0.499E+00    0.591E-01
DAV:   2    -0.173741431252E+02    0.43787E-02   -0.18631E-02  2752   0.575E-01    0.324E-01
DAV:   3    -0.173714188621E+02    0.27243E-02   -0.47074E-03  4736   0.255E-01    0.685E-02
DAV:   4    -0.173713821838E+02    0.36678E-04   -0.21764E-04  2624   0.758E-02    0.301E-02
DAV:   5    -0.173713781899E+02    0.39939E-05   -0.22606E-05  4768   0.222E-02    0.528E-03
DAV:   6    -0.173713783828E+02   -0.19291E-06   -0.10559E-06  2656   0.420E-03
  21 F= -.17371378E+02 E0= -.17371097E+02  d E =-.562392E-03
       N       E                     dE             d eps       ncg     rms          rms(c)
DAV:   1    -0.174376803302E+02   -0.66302E-01   -0.41196E+00  7296   0.697E+00    0.162E+00
DAV:   2    -0.173930295487E+02    0.44651E-01   -0.59297E-02  4576   0.943E-01    0.914E-01
DAV:   3    -0.173714607802E+02    0.21569E-01   -0.41605E-02  7616   0.664E-01    0.153E-01
DAV:   4    -0.173714042842E+02    0.56496E-04   -0.12952E-03  4192   0.177E-01    0.803E-02
DAV:   5    -0.173713773853E+02    0.26899E-04   -0.10482E-04  7456   0.509E-02    0.141E-02
DAV:   6    -0.173713785107E+02   -0.11254E-05   -0.77282E-06  4672   0.116E-02    0.574E-03
DAV:   7    -0.173713790903E+02   -0.57959E-06   -0.12342E-06  7008   0.387E-03
  22 F= -.17371379E+02 E0= -.17371092E+02  d E =-.574162E-03
       N       E                     dE             d eps       ncg     rms          rms(c)
DAV:   1    -0.173875857493E+02   -0.16207E-01   -0.18816E+00  6944   0.510E+00    0.561E-01
DAV:   2    -0.173830673023E+02    0.45184E-02   -0.18961E-02  4640   0.589E-01    0.322E-01
DAV:   3    -0.173804363699E+02    0.26309E-02   -0.53345E-03  7488   0.276E-01    0.503E-02
DAV:   4    -0.173804341481E+02    0.22219E-05   -0.19560E-04  4512   0.679E-02    0.264E-02
DAV:   5    -0.173804328762E+02    0.12718E-05   -0.79724E-06  7584   0.133E-02    0.895E-03
DAV:   6    -0.173804331005E+02   -0.22427E-06   -0.91207E-07  4448   0.480E-03
  23 F= -.17380433E+02 E0= -.17380135E+02  d E =-.595446E-03
       N       E                     dE             d eps       ncg     rms          rms(c)
DAV:   1    -0.174138801821E+02   -0.33447E-01   -0.13179E+00  7136   0.393E+00    0.114E+00
DAV:   2    -0.173912365043E+02    0.22644E-01   -0.24174E-02  4992   0.592E-01    0.645E-01
DAV:   3    -0.173804687255E+02    0.10768E-01   -0.20788E-02  7520   0.496E-01    0.106E-01
DAV:   4    -0.173804443261E+02    0.24399E-04   -0.62548E-04  4448   0.124E-01    0.539E-02
DAV:   5    -0.173804323700E+02    0.11956E-04   -0.50626E-05  7232   0.362E-02    0.797E-03
DAV:   6    -0.173804329292E+02   -0.55924E-06   -0.36021E-06  4640   0.784E-03
  24 F= -.17380433E+02 E0= -.17380135E+02  d E =-.595498E-03
       N       E                     dE             d eps       ncg     rms          rms(c)
DAV:   1    -0.173782097418E+02    0.22226E-02   -0.21731E+00  7136   0.519E+00    0.584E-01
DAV:   2    -0.173741202050E+02    0.40895E-02   -0.20305E-02  4704   0.602E-01    0.324E-01
DAV:   3    -0.173714349873E+02    0.26852E-02   -0.44195E-03  7680   0.247E-01    0.738E-02
DAV:   4    -0.173713828685E+02    0.52119E-04   -0.22969E-04  4448   0.777E-02    0.294E-02
DAV:   5    -0.173713789040E+02    0.39646E-05   -0.23524E-05  7456   0.228E-02    0.571E-03
DAV:   6    -0.173713791149E+02   -0.21089E-06   -0.10689E-06  4544   0.436E-03
  25 F= -.17371379E+02 E0= -.17371092E+02  d E =-.574139E-03
       N       E                     dE             d eps       ncg     rms          rms(c)
DAV:   1    -0.174083840752E+02   -0.37005E-01   -0.55540E+00  2816   0.789E+00    0.101E+00
DAV:   2    -0.173960690150E+02    0.12315E-01   -0.75760E-02  4352   0.115E+00    0.629E-01
DAV:   3    -0.173828185946E+02    0.13250E-01   -0.23845E-02  3392   0.546E-01    0.337E-02
DAV:   4    -0.173828924355E+02   -0.73841E-04   -0.10339E-03  3968   0.138E-01    0.222E-02
DAV:   5    -0.173828662012E+02    0.26234E-04   -0.39454E-05  3616   0.223E-02    0.232E-03
DAV:   6    -0.173828632436E+02    0.29576E-05   -0.23430E-06  3904   0.622E-03    0.163E-03
DAV:   7    -0.173828615082E+02    0.17354E-05   -0.77641E-08  3008   0.112E-03    0.412E-04
DAV:   8    -0.173828608952E+02    0.61300E-06   -0.58636E-09  2240   0.316E-04
  26 F= -.17382861E+02 E0= -.17382559E+02  d E =-.604666E-03
       N       E                     dE             d eps       ncg     rms          rms(c)
DAV:   1    -0.173819199469E+02    0.94156E-03   -0.37955E+00  2496   0.475E+00    0.126E-02
DAV:   2    -0.173832955733E+02   -0.13756E-02   -0.13568E-02  2816   0.303E-01    0.594E-03
DAV:   3    -0.173833045502E+02   -0.89768E-05   -0.86593E-05  4544   0.250E-02    0.173E-03
DAV:   4    -0.173833046485E+02   -0.98346E-07   -0.18660E-07  2880   0.192E-03
  27 F= -.17383305E+02 E0= -.17383002E+02  d E =-.604666E-03
       N       E                     dE             d eps       ncg     rms          rms(c)
DAV:   1    -0.173823697265E+02    0.93482E-03   -0.20951E+00  2496   0.359E+00    0.249E-02
DAV:   2    -0.173832958923E+02   -0.92617E-03   -0.85478E-03  2816   0.238E-01    0.122E-02
DAV:   3    -0.173833040531E+02   -0.81608E-05   -0.64874E-05  4512   0.237E-02    0.370E-03
DAV:   4    -0.173833045478E+02   -0.49462E-06   -0.64855E-07  2816   0.323E-03
  28 F= -.17383305E+02 E0= -.17383002E+02  d E =-.604666E-03
       N       E                     dE             d eps       ncg     rms          rms(c)
DAV:   1    -0.173814321238E+02    0.18719E-02   -0.37950E+00  2496   0.474E+00    0.145E-02
DAV:   2    -0.173828512581E+02   -0.14191E-02   -0.13998E-02  2944   0.306E-01    0.732E-03
DAV:   3    -0.173828602034E+02   -0.89453E-05   -0.82971E-05  4416   0.234E-02    0.395E-03
DAV:   4    -0.173828603818E+02   -0.17840E-06   -0.47687E-07  2976   0.252E-03
  29 F= -.17382860E+02 E0= -.17382558E+02  d E =-.604666E-03
       N       E                     dE             d eps       ncg     rms          rms(c)
DAV:   1    -0.173780823022E+02    0.47779E-02   -0.71450E+00  1216   0.735E+00    0.802E-02
DAV:   2    -0.173819689220E+02   -0.38866E-02   -0.37498E-02  1408   0.592E-01    0.316E-02
DAV:   3    -0.173820042879E+02   -0.35366E-04   -0.26877E-04  2176   0.644E-02    0.195E-02
DAV:   4    -0.173820050531E+02   -0.76517E-06   -0.92806E-06  1472   0.978E-03
  30 F= -.17382005E+02 E0= -.17381703E+02  d E =-.604666E-03
       N       E                     dE             d eps       ncg     rms          rms(c)
DAV:   1    -0.173825784516E+02   -0.57416E-03   -0.88331E-01  1216   0.252E+00    0.393E-02
DAV:   2    -0.173830819514E+02   -0.50350E-03   -0.47830E-03  1280   0.212E-01    0.148E-02
DAV:   3    -0.173830887154E+02   -0.67640E-05   -0.43481E-05  2208   0.263E-02    0.944E-03
DAV:   4    -0.173830891001E+02   -0.38468E-06   -0.10028E-06  1440   0.310E-03
  31 F= -.17383089E+02 E0= -.17382787E+02  d E =-.604666E-03
       N       E                     dE             d eps       ncg     rms          rms(c)
DAV:   1    -0.173810642916E+02    0.20244E-02   -0.35533E+00  1216   0.511E+00    0.786E-02
DAV:   2    -0.173830594464E+02   -0.19952E-02   -0.19101E-02  1280   0.424E-01    0.301E-02
DAV:   3    -0.173830868698E+02   -0.27423E-04   -0.17219E-04  2208   0.527E-02    0.188E-02
DAV:   4    -0.173830890421E+02   -0.21722E-05   -0.43390E-06  1440   0.656E-03    0.450E-03
DAV:   5    -0.173830892292E+02   -0.18716E-06   -0.54701E-07  1984   0.281E-03
  32 F= -.17383089E+02 E0= -.17382787E+02  d E =-.604666E-03
       N       E                     dE             d eps       ncg     rms          rms(c)
DAV:   1    -0.173814948686E+02    0.15942E-02   -0.88343E-01  1216   0.252E+00    0.395E-02
DAV:   2    -0.173819972768E+02   -0.50241E-03   -0.47416E-03  1280   0.211E-01    0.152E-02
DAV:   3    -0.173820045018E+02   -0.72250E-05   -0.42955E-05  2208   0.263E-02    0.950E-03
DAV:   4    -0.173820051276E+02   -0.62579E-06   -0.11145E-06  1440   0.334E-03
  33 F= -.17382005E+02 E0= -.17381703E+02  d E =-.604666E-03
       N       E                     dE             d eps       ncg     rms          rms(c)
DAV:   1    -0.173784744133E+02    0.35301E-02   -0.37507E+00  2496   0.568E+00    0.209E-01
DAV:   2    -0.173820111812E+02   -0.35368E-02   -0.33432E-02  3872   0.673E-01    0.932E-02
DAV:   3    -0.173819998256E+02    0.11356E-04   -0.21831E-04  3648   0.492E-02    0.390E-02
DAV:   4    -0.173819836440E+02    0.16182E-04   -0.73116E-05  3808   0.248E-02    0.468E-03
DAV:   5    -0.173819785294E+02    0.51146E-05   -0.13863E-05  3744   0.115E-02    0.173E-03
DAV:   6    -0.173819753248E+02    0.32046E-05   -0.68766E-06  4448   0.718E-03    0.600E-04
DAV:   7    -0.173819743305E+02    0.99427E-06   -0.16704E-06  4000   0.390E-03
  34 F= -.17381974E+02 E0= -.17381672E+02  d E =-.604611E-03
       N       E                     dE             d eps       ncg     rms          rms(c)
DAV:   1    -0.173827939728E+02   -0.81865E-03   -0.22882E-01  2528   0.116E+00    0.760E-02
DAV:   2    -0.173830458914E+02   -0.25192E-03   -0.25632E-03  4384   0.174E-01    0.509E-02
DAV:   3    -0.173830467258E+02   -0.83442E-06   -0.22191E-05  3136   0.139E-02    0.105E-02
DAV:   4    -0.173830472365E+02   -0.51072E-06   -0.11720E-06  4352   0.432E-03
  35 F= -.17383047E+02 E0= -.17382745E+02  d E =-.604662E-03
       N       E                     dE             d eps       ncg     rms          rms(c)
DAV:   1    -0.173829343108E+02    0.11242E-03   -0.12688E-01  2528   0.887E-01    0.169E-01
DAV:   2    -0.173830367845E+02   -0.10247E-03   -0.12963E-03  4352   0.132E-01    0.937E-02
DAV:   3    -0.173830453435E+02   -0.85590E-05   -0.80175E-05  3136   0.266E-02    0.164E-02
DAV:   4    -0.173830471659E+02   -0.18224E-05   -0.43701E-06  4192   0.832E-03    0.580E-03
DAV:   5    -0.173830471958E+02   -0.29879E-07   -0.92752E-07  3040   0.267E-03
  36 F= -.17383047E+02 E0= -.17382745E+02  d E =-.604662E-03
       N       E                     dE             d eps       ncg     rms          rms(c)
DAV:   1    -0.173817302292E+02    0.13169E-02   -0.22676E-01  2528   0.115E+00    0.999E-02
DAV:   2    -0.173819696194E+02   -0.23939E-03   -0.24939E-03  4512   0.171E-01    0.450E-02
DAV:   3    -0.173819719520E+02   -0.23326E-05   -0.92306E-06  3040   0.958E-03    0.204E-02
DAV:   4    -0.173819736907E+02   -0.17387E-05   -0.34496E-06  4416   0.651E-03    0.249E-03
DAV:   5    -0.173819737011E+02   -0.10442E-07   -0.32499E-07  2624   0.171E-03
  37 F= -.17381974E+02 E0= -.17381671E+02  d E =-.604611E-03
       N       E                     dE             d eps       ncg     rms          rms(c)
DAV:   1    -0.173783085296E+02    0.36652E-02   -0.40603E-01  1216   0.173E+00    0.310E-01
DAV:   2    -0.173770490819E+02    0.12594E-02   -0.14225E-02  2144   0.372E-01    0.243E-01
DAV:   3    -0.173769924380E+02    0.56644E-04   -0.60616E-04  1440   0.932E-02    0.139E-01
DAV:   4    -0.173769876409E+02    0.47970E-05   -0.23055E-04  2176   0.409E-02    0.208E-02
DAV:   5    -0.173769879471E+02   -0.30618E-06   -0.78149E-06  1280   0.944E-03
  38 F= -.17376988E+02 E0= -.17376686E+02  d E =-.604666E-03
       N       E                     dE             d eps       ncg     rms          rms(c)
DAV:   1    -0.173821810635E+02   -0.51934E-02   -0.50210E-02  1216   0.618E-01    0.144E-01
DAV:   2    -0.173818222738E+02    0.35879E-03   -0.31052E-03  2048   0.162E-01    0.106E-01
DAV:   3    -0.173818070208E+02    0.15253E-04   -0.14749E-04  1568   0.457E-02    0.627E-02
DAV:   4    -0.173818036422E+02    0.33786E-05   -0.48471E-05  2048   0.184E-02    0.105E-02
DAV:   5    -0.173818035038E+02    0.13839E-06   -0.15645E-06  1376   0.405E-03
  39 F= -.17381804E+02 E0= -.17381501E+02  d E =-.604666E-03
       N       E                     dE             d eps       ncg     rms          rms(c)
DAV:   1    -0.173833296377E+02   -0.15260E-02   -0.19897E-01  1216   0.123E+00    0.285E-01
DAV:   2    -0.173818778924E+02    0.14517E-02   -0.12342E-02  2048   0.326E-01    0.211E-01
DAV:   3    -0.173818163613E+02    0.61531E-04   -0.59447E-04  1600   0.919E-02    0.125E-01
DAV:   4    -0.173818033961E+02    0.12965E-04   -0.20034E-04  2048   0.373E-02    0.217E-02
DAV:   5    -0.173818029026E+02    0.49347E-06   -0.64328E-06  1408   0.822E-03
  40 F= -.17381803E+02 E0= -.17381501E+02  d E =-.604666E-03
       N       E                     dE             d eps       ncg     rms          rms(c)
DAV:   1    -0.173773688846E+02    0.44345E-02   -0.49488E-02  1216   0.615E-01    0.142E-01
DAV:   2    -0.173770051198E+02    0.36376E-03   -0.30720E-03  2048   0.161E-01    0.104E-01
DAV:   3    -0.173769894966E+02    0.15623E-04   -0.14763E-04  1568   0.455E-02    0.611E-02
DAV:   4    -0.173769864540E+02    0.30426E-05   -0.50622E-05  2016   0.187E-02    0.111E-02
DAV:   5    -0.173769863437E+02    0.11029E-06   -0.16456E-06  1376   0.416E-03
  41 F= -.17376986E+02 E0= -.17376684E+02  d E =-.604666E-03
       N       E                     dE             d eps       ncg     rms          rms(c)
DAV:   1    -0.173805551462E+02   -0.35687E-02   -0.13060E+00  4192   0.274E+00    0.364E-01
DAV:   2    -0.173817940366E+02   -0.12389E-02   -0.40436E-02  7072   0.717E-01    0.240E-01
DAV:   3    -0.173816597339E+02    0.13430E-03   -0.10346E-03  4896   0.116E-01    0.111E-01
DAV:   4    -0.173816461149E+02    0.13619E-04   -0.16807E-04  7200   0.371E-02    0.281E-02
DAV:   5    -0.173816469225E+02   -0.80765E-06   -0.85123E-06  4896   0.104E-02
  42 F= -.17381647E+02 E0= -.17381360E+02  d E =-.573819E-03
       N       E                     dE             d eps       ncg     rms          rms(c)
DAV:   1    -0.173813531466E+02    0.29297E-03   -0.11852E+00  4032   0.237E+00    0.802E-02
DAV:   2    -0.173830179267E+02   -0.16648E-02   -0.17475E-02  7744   0.460E-01    0.466E-02
DAV:   3    -0.173830069272E+02    0.11000E-04   -0.16562E-05  4384   0.144E-02    0.250E-02
DAV:   4    -0.173830041924E+02    0.27348E-05   -0.83012E-06  7680   0.882E-03    0.350E-03
DAV:   5    -0.173830041376E+02    0.54854E-07   -0.26912E-07  3968   0.184E-03
  43 F= -.17383004E+02 E0= -.17382706E+02  d E =-.595763E-03
       N       E                     dE             d eps       ncg     rms          rms(c)
DAV:   1    -0.173824476313E+02    0.55656E-03   -0.59907E-01  4032   0.169E+00    0.175E-01
DAV:   2    -0.173830688877E+02   -0.62126E-03   -0.84645E-03  7584   0.324E-01    0.797E-02
DAV:   3    -0.173830039573E+02    0.64930E-04   -0.29333E-04  4448   0.438E-02    0.208E-02
DAV:   4    -0.173830044819E+02   -0.52456E-06   -0.11910E-05  7488   0.145E-02    0.112E-02
DAV:   5    -0.173830040828E+02    0.39908E-06   -0.29667E-06  4512   0.497E-03
  44 F= -.17383004E+02 E0= -.17382706E+02  d E =-.595769E-03
       N       E                     dE             d eps       ncg     rms          rms(c)
DAV:   1    -0.173801038245E+02    0.29007E-02   -0.12226E+00  4032   0.240E+00    0.981E-02
DAV:   2    -0.173816685586E+02   -0.15647E-02   -0.16143E-02  7712   0.447E-01    0.375E-02
DAV:   3    -0.173816468572E+02    0.21701E-04   -0.78642E-05  4416   0.220E-02    0.154E-02
DAV:   4    -0.173816469375E+02   -0.80312E-07   -0.11362E-05  7648   0.105E-02    0.574E-03
DAV:   5    -0.173816468150E+02    0.12256E-06   -0.20633E-06  4192   0.430E-03
  45 F= -.17381647E+02 E0= -.17381360E+02  d E =-.573780E-03
       N       E                     dE             d eps       ncg     rms          rms(c)
DAV:   1    -0.173787811416E+02    0.28658E-02   -0.21938E+00  1216   0.340E+00    0.278E-01
DAV:   2    -0.173797863487E+02   -0.10052E-02   -0.25511E-02  2208   0.582E-01    0.157E-01
DAV:   3    -0.173798746221E+02   -0.88273E-04   -0.50583E-04  1472   0.723E-02    0.692E-02
DAV:   4    -0.173800441967E+02   -0.16957E-03   -0.14139E-04  2112   0.320E-02    0.173E-02
DAV:   5    -0.173801028245E+02   -0.58628E-04   -0.11786E-05  1472   0.109E-02    0.669E-03
DAV:   6    -0.173801189268E+02   -0.16102E-04   -0.28299E-06  2176   0.478E-03    0.210E-03
DAV:   7    -0.173801197004E+02   -0.77364E-06   -0.86687E-08   800   0.114E-03
  46 F= -.17380120E+02 E0= -.17379817E+02  d E =-.604667E-03
       N       E                     dE             d eps       ncg     rms          rms(c)
DAV:   1    -0.173827572556E+02   -0.26383E-02   -0.27674E-01  1216   0.118E+00    0.122E-01
DAV:   2    -0.173827715335E+02   -0.14278E-04   -0.43838E-03  1952   0.224E-01    0.617E-02
DAV:   3    -0.173827522711E+02    0.19262E-04   -0.90926E-05  1696   0.309E-02    0.290E-02
DAV:   4    -0.173827495839E+02    0.26872E-05   -0.18103E-05  2144   0.113E-02    0.122E-02
DAV:   5    -0.173827495138E+02    0.70050E-07   -0.86110E-07  1536   0.326E-03
  47 F= -.17382750E+02 E0= -.17382447E+02  d E =-.604666E-03
       N       E                     dE             d eps       ncg     rms          rms(c)
DAV:   1    -0.173821728604E+02    0.57672E-03   -0.11072E+00  1216   0.238E+00    0.250E-01
DAV:   2    -0.173822738297E+02   -0.10097E-03   -0.17285E-02  2016   0.448E-01    0.126E-01
DAV:   3    -0.173821938761E+02    0.79954E-04   -0.36573E-04  1696   0.611E-02    0.593E-02
DAV:   4    -0.173821830925E+02    0.10784E-04   -0.71866E-05  2144   0.226E-02    0.244E-02
DAV:   5    -0.173821830840E+02    0.84431E-08   -0.36038E-06  1664   0.659E-03
  48 F= -.17382183E+02 E0= -.17381881E+02  d E =-.604666E-03
       N       E                     dE             d eps       ncg     rms          rms(c)
DAV:   1    -0.173789908073E+02    0.31923E-02   -0.27715E-01  1216   0.119E+00    0.124E-01
DAV:   2    -0.173790334521E+02   -0.42645E-04   -0.43213E-03  2016   0.224E-01    0.645E-02
DAV:   3    -0.173790140478E+02    0.19404E-04   -0.91785E-05  1664   0.302E-02    0.303E-02
DAV:   4    -0.173790118299E+02    0.22178E-05   -0.17136E-05  2048   0.111E-02    0.120E-02
DAV:   5    -0.173790117567E+02    0.73237E-07   -0.92492E-07  1504   0.333E-03
  49 F= -.17379012E+02 E0= -.17378709E+02  d E =-.604671E-03
