 vasp.6.3.2 27Jun22 (build Jun 14 2024 17:29:11) complex                         
 executed on             LinuxGNU date 2026.03.30  07:45:39
 running on    8 total cores
 distrk:  each k-point on    8 cores,    1 groups
 distr:  one band on NCORE=   1 cores,    8 groups


--------------------------------------------------------------------------------------------------------


 INCAR:
   EDIFF = 1e-06
   ENCUT = 400.0
   IBRION = 6
   ISIF = 3
   ISMEAR = 0
   LCHARG = False
   LREAL = Auto
   LWAVE = False
   NFREE = 4
   NSW = 1
   POTIM = 0.015
   SIGMA = 0.05

 POTCAR:    PAW_PBE Na_pv 19Sep2006               
 POTCAR:    PAW_PBE Si 05Jan2001                  
 POTCAR:    PAW_PBE S 06Sep2000                   
 -----------------------------------------------------------------------------
|                                                                             |
|           W    W    AA    RRRRR   N    N  II  N    N   GGGG   !!!           |
|           W    W   A  A   R    R  NN   N  II  NN   N  G    G  !!!           |
|           W    W  A    A  R    R  N N  N  II  N N  N  G       !!!           |
|           W WW W  AAAAAA  RRRRR   N  N N  II  N  N N  G  GGG   !            |
|           WW  WW  A    A  R   R   N   NN  II  N   NN  G    G                |
|           W    W  A    A  R    R  N    N  II  N    N   GGGG   !!!           |
|                                                                             |
|     For optimal performance we recommend to set                             |
|       NCORE = 2 up to number-of-cores-per-socket                            |
|     NCORE specifies how many cores store one orbital (NPAR=cpu/NCORE).      |
|     This setting can greatly improve the performance of VASP for DFT.       |
|     The default, NCORE=1 might be grossly inefficient on modern             |
|     multi-core architectures or massively parallel machines. Do your        |
|     own testing! More info at https://www.vasp.at/wiki/index.php/NCORE      |
|     Unfortunately you need to use the default for GW and RPA                |
|     calculations (for HF NCORE is supported but not extensively tested      |
|     yet).                                                                   |
|                                                                             |
 -----------------------------------------------------------------------------

 POTCAR:    PAW_PBE Na_pv 19Sep2006               
   SHA256 =  6a2f546d9e11350984debacf3dc457d8cffc0868e817d445faca461816a32b94 Na_pv/POTCAR          
   COPYR  = (c) Copyright 19Sep2006 Georg Kresse                                                    
   COPYR  = This file is part of the software VASP. Any use, copying, and all other rights are regul
   COPYR  = If you do not have a valid VASP license, you may not use, copy or distribute this file. 
   VRHFIN =Na: p6s1                                                                                 
   LEXCH  = PE                                                                                      
   EATOM  =   766.0439 eV,   56.3026 Ry                                                             
                                                                                                    
   TITEL  = PAW_PBE Na_pv 19Sep2006                                                                 
   LULTRA =        F    use ultrasoft PP ?                                                          
   IUNSCR =        1    unscreen: 0-lin 1-nonlin 2-no                                               
   RPACOR =    1.800    partial core radius                                                         
   POMASS =   22.990; ZVAL   =    7.000    mass and valenz                                          
   RCORE  =    2.200    outmost cutoff radius                                                       
   RWIGS  =    2.200; RWIGS  =    1.164    wigner-seitz radius (au A)                               
   ENMAX  =  259.561; ENMIN  =  194.671 eV                                                          
   ICORE  =        2    local potential                                                             
   LCOR   =        T    correct aug charges                                                         
   LPAW   =        T    paw PP                                                                      
   EAUG   =  368.056                                                                                
   DEXC   =    0.000                                                                                
   RMAX   =    2.245    core radius for proj-oper                                                   
   RAUG   =    1.300    factor for augmentation sphere                                              
   RDEP   =    2.259    radius for radial grids                                                     
   RDEPT  =    1.738    core radius for aug-charge                                                  
                                                                                                    
   Atomic configuration                                                                             
    5 entries                                                                                       
     n  l   j            E        occ.                                                              
     1  0  0.50     -1033.6933   2.0000                                                             
     2  0  0.50       -56.7526   2.0000                                                             
     2  1  1.50       -28.6721   6.0000                                                             
     3  0  0.50        -2.7440   1.0000                                                             
     3  2  1.50        -1.3606   0.0000                                                             
   Description                                                                                      
     l       E           TYP  RCUT    TYP  RCUT                                                     
     1    -28.6720912     23  2.000                                                                 
     1      6.8029130     23  2.000                                                                 
     0     -2.7439560     23  2.200                                                                 
     0     34.0145650     23  2.200                                                                 
     2     -1.3605826     23  2.200                                                                 
  local pseudopotential read in
  partial core-charges read in
  partial kinetic energy density read in
  atomic valenz-charges read in
  non local Contribution for L=           1  read in
    real space projection operators read in
  non local Contribution for L=           1  read in
    real space projection operators read in
  non local Contribution for L=           0  read in
    real space projection operators read in
  non local Contribution for L=           0  read in
    real space projection operators read in
    PAW grid and wavefunctions read in

   number of l-projection  operators is LMAX  =           4
   number of lm-projection operators is LMMAX =           8

 POTCAR:    PAW_PBE Si 05Jan2001                  
   SHA256 =  79d9987ad8750f624c4d6acb2a16d13abf6a777132adc04dc6c8399be72b42bb Si/POTCAR             
   COPYR  = (c) Copyright 05Jan2001 Georg Kresse                                                    
   COPYR  = This file is part of the software VASP. Any use, copying, and all other rights are regul
   COPYR  = If you do not have a valid VASP license, you may not use, copy or distribute this file. 
   VRHFIN =Si: s2p2                                                                                 
   LEXCH  = PE                                                                                      
   EATOM  =   103.0669 eV,    7.5752 Ry                                                             
                                                                                                    
   TITEL  = PAW_PBE Si 05Jan2001                                                                    
   LULTRA =        F    use ultrasoft PP ?                                                          
   IUNSCR =        1    unscreen: 0-lin 1-nonlin 2-no                                               
   RPACOR =    1.500    partial core radius                                                         
   POMASS =   28.085; ZVAL   =    4.000    mass and valenz                                          
   RCORE  =    1.900    outmost cutoff radius                                                       
   RWIGS  =    2.480; RWIGS  =    1.312    wigner-seitz radius (au A)                               
   ENMAX  =  245.345; ENMIN  =  184.009 eV                                                          
   ICORE  =        2    local potential                                                             
   LCOR   =        T    correct aug charges                                                         
   LPAW   =        T    paw PP                                                                      
   EAUG   =  322.069                                                                                
   DEXC   =    0.000                                                                                
   RMAX   =    1.950    core radius for proj-oper                                                   
   RAUG   =    1.300    factor for augmentation sphere                                              
   RDEP   =    1.993    radius for radial grids                                                     
   RDEPT  =    1.837    core radius for aug-charge                                                  
                                                                                                    
   Atomic configuration                                                                             
    6 entries                                                                                       
     n  l   j            E        occ.                                                              
     1  0  0.50     -1785.8828   2.0000                                                             
     2  0  0.50      -139.4969   2.0000                                                             
     2  1  1.50       -95.5546   6.0000                                                             
     3  0  0.50       -10.8127   2.0000                                                             
     3  1  0.50        -4.0811   2.0000                                                             
     3  2  1.50        -4.0817   0.0000                                                             
   Description                                                                                      
     l       E           TYP  RCUT    TYP  RCUT                                                     
     0    -10.8127223     23  1.900                                                                 
     0     -7.6451159     23  1.900                                                                 
     1     -4.0811372     23  1.900                                                                 
     1      2.4879257     23  1.900                                                                 
     2     -4.0817478      7  1.900                                                                 
  local pseudopotential read in
  partial core-charges read in
  partial kinetic energy density read in
  atomic valenz-charges read in
  non local Contribution for L=           0  read in
    real space projection operators read in
  non local Contribution for L=           0  read in
    real space projection operators read in
  non local Contribution for L=           1  read in
    real space projection operators read in
  non local Contribution for L=           1  read in
    real space projection operators read in
    PAW grid and wavefunctions read in

   number of l-projection  operators is LMAX  =           4
   number of lm-projection operators is LMMAX =           8

 POTCAR:    PAW_PBE S 06Sep2000                   
   SHA256 =  0fc7481fb0695f01bdc6462160264c5c84044ae9ec85a907d398b887a2bc3132 S/POTCAR              
   COPYR  = (c) Copyright 06Sep2000 Georg Kresse                                                    
   COPYR  = This file is part of the software VASP. Any use, copying, and all other rights are regul
   COPYR  = If you do not have a valid VASP license, you may not use, copy or distribute this file. 
   VRHFIN =S : s2p4                                                                                 
   LEXCH  = PE                                                                                      
   EATOM  =   276.8230 eV,   20.3459 Ry                                                             
                                                                                                    
   TITEL  = PAW_PBE S 06Sep2000                                                                     
   LULTRA =        F    use ultrasoft PP ?                                                          
   IUNSCR =        1    unscreen: 0-lin 1-nonlin 2-no                                               
   RPACOR =    1.500    partial core radius                                                         
   POMASS =   32.066; ZVAL   =    6.000    mass and valenz                                          
   RCORE  =    1.900    outmost cutoff radius                                                       
   RWIGS  =    2.200; RWIGS  =    1.164    wigner-seitz radius (au A)                               
   ENMAX  =  258.689; ENMIN  =  194.016 eV                                                          
   ICORE  =        2    local potential                                                             
   LCOR   =        T    correct aug charges                                                         
   LPAW   =        T    paw PP                                                                      
   EAUG   =  335.092                                                                                
   DEXC   =    0.000                                                                                
   RMAX   =    1.942    core radius for proj-oper                                                   
   RAUG   =    1.300    factor for augmentation sphere                                              
   RDEP   =    1.954    radius for radial grids                                                     
   RDEPT  =    1.744    core radius for aug-charge                                                  
                                                                                                    
   Atomic configuration                                                                             
    6 entries                                                                                       
     n  l   j            E        occ.                                                              
     1  0  0.50     -2405.8406   2.0000                                                             
     2  0  0.50      -211.7007   2.0000                                                             
     2  1  1.50      -156.4958   6.0000                                                             
     3  0  0.50       -17.2562   2.0000                                                             
     3  1  0.50        -7.0085   4.0000                                                             
     3  2  1.50        -6.8029   0.0000                                                             
   Description                                                                                      
     l       E           TYP  RCUT    TYP  RCUT                                                     
     0    -17.2561641     23  1.900                                                                 
     0    -15.8743224     23  1.900                                                                 
     1     -7.0085400     23  1.900                                                                 
     1     -2.7779785     23  1.900                                                                 
     2     -6.8029130     23  1.900                                                                 
  local pseudopotential read in
  partial core-charges read in
  partial kinetic energy density read in
  atomic valenz-charges read in
  non local Contribution for L=           0  read in
    real space projection operators read in
  non local Contribution for L=           0  read in
    real space projection operators read in
  non local Contribution for L=           1  read in
    real space projection operators read in
  non local Contribution for L=           1  read in
    real space projection operators read in
    PAW grid and wavefunctions read in

   number of l-projection  operators is LMAX  =           4
   number of lm-projection operators is LMMAX =           8

 -----------------------------------------------------------------------------
|                                                                             |
|               ----> ADVICE to this user running VASP <----                  |
|                                                                             |
|     You have a (more or less) 'small supercell' and for smaller cells       |
|     it is recommended to use the reciprocal-space projection scheme!        |
|     The real-space optimization is not efficient for small cells and it     |
|     is also less accurate ...                                               |
|     Therefore, set LREAL=.FALSE. in the INCAR file.                         |
|                                                                             |
 -----------------------------------------------------------------------------

 Optimization of the real space projectors (new method)

 maximal supplied QI-value         = 17.01
 optimisation between [QCUT,QGAM] = [ 10.20, 20.41] = [ 29.16,116.64] Ry 
 Optimized for a Real-space Cutoff    1.30 Angstroem

   l    n(q)    QCUT    max X(q) W(low)/X(q) W(high)/X(q)  e(spline) 
   1      7    10.205     4.940    0.23E-03    0.84E-03    0.11E-06
   1      7    10.205     6.253    0.40E-03    0.13E-02    0.18E-06
   0      8    10.205    37.438    0.23E-03    0.37E-03    0.42E-07
   0      8    10.205     9.606    0.16E-03    0.26E-03    0.31E-07
 Optimization of the real space projectors (new method)

 maximal supplied QI-value         = 19.84
 optimisation between [QCUT,QGAM] = [ 10.12, 20.44] = [ 28.68,116.96] Ry 
 Optimized for a Real-space Cutoff    1.23 Angstroem

   l    n(q)    QCUT    max X(q) W(low)/X(q) W(high)/X(q)  e(spline) 
   0      7    10.119   159.560    0.56E-04    0.22E-03    0.45E-07
   0      7    10.119   115.863    0.56E-04    0.21E-03    0.45E-07
   1      7    10.119    88.339    0.34E-03    0.49E-03    0.11E-06
   1      7    10.119    48.592    0.33E-03    0.48E-03    0.11E-06
 Optimization of the real space projectors (new method)

 maximal supplied QI-value         = 19.84
 optimisation between [QCUT,QGAM] = [ 10.12, 20.44] = [ 28.68,116.96] Ry 
 Optimized for a Real-space Cutoff    1.23 Angstroem

   l    n(q)    QCUT    max X(q) W(low)/X(q) W(high)/X(q)  e(spline) 
   0      7    10.119   187.594    0.62E-04    0.28E-03    0.52E-07
   0      7    10.119   164.243    0.61E-04    0.28E-03    0.52E-07
   1      7    10.119    67.533    0.45E-03    0.63E-03    0.13E-06
   1      7    10.119    50.729    0.44E-03    0.62E-03    0.12E-06
  PAW_PBE Na_pv 19Sep2006               :
 energy of atom  1       EATOM= -766.0439
 kinetic energy error for atom=    0.0103 (will be added to EATOM!!)
  PAW_PBE Si 05Jan2001                  :
 energy of atom  2       EATOM= -103.0669
 kinetic energy error for atom=    0.0012 (will be added to EATOM!!)
  PAW_PBE S 06Sep2000                   :
 energy of atom  3       EATOM= -276.8230
 kinetic energy error for atom=    0.0046 (will be added to EATOM!!)


 POSCAR: Na1 Si1 S2
  positions in direct lattice
  velocities in cartesian coordinates
 exchange correlation table for  LEXCH =        8
   RHO(1)=    0.500       N(1)  =     2000
   RHO(2)=  100.500       N(2)  =     4000



--------------------------------------------------------------------------------------------------------


 ion  position               nearest neighbor table
   1  0.500  0.500  0.500-
   2  0.000  0.000  0.000-   4 2.45   4 2.45   4 2.45   3 2.45   3 2.45   3 2.45
   3  0.734  0.734  0.734-   2 2.45   2 2.45   2 2.45
   4  0.266  0.266  0.266-   2 2.45   2 2.45   2 2.45

  LATTYP: Found a trigonal (rhomboedric) cell.
 ALAT       =     7.0004864999
 COS(alpha) =     0.8724988307
  
  Lattice vectors:
  
 A1 = (   1.7675443044,   1.0204921799,   6.6963567765)
 A2 = (  -1.7675443044,   1.0204921799,   6.6963567765)
 A3 = (  -0.0000000000,  -2.0409843599,   6.6963567765)


Analysis of symmetry for initial positions (statically):
=====================================================================
 Subroutine PRICEL returns:
 Original cell was already a primitive cell.
 

 Routine SETGRP: Setting up the symmetry group for a 
 trigonal (rhombohedral) supercell.


 Subroutine GETGRP returns: Found 12 space group operations
 (whereof 12 operations were pure point group operations)
 out of a pool of 12 trial point group operations.


The static configuration has the point symmetry D_3d.


Analysis of symmetry for dynamics (positions and initial velocities):
=====================================================================
 Subroutine PRICEL returns:
 Original cell was already a primitive cell.
 

 Routine SETGRP: Setting up the symmetry group for a 
 trigonal (rhombohedral) supercell.


 Subroutine GETGRP returns: Found 12 space group operations
 (whereof 12 operations were pure point group operations)
 out of a pool of 12 trial point group operations.


The dynamic configuration has the point symmetry D_3d.


 Subroutine INISYM returns: Found 12 space group operations
 (whereof 12 operations are pure point group operations),
 and found     1 'primitive' translations


----------------------------------------------------------------------------------------

                                     Primitive cell                                     

  volume of cell :      72.4719

  direct lattice vectors                    reciprocal lattice vectors
     1.767544304  1.020492180  6.696356777     0.282878341  0.163319886  0.049778311
    -1.767544304  1.020492180  6.696356777    -0.282878341  0.163319886  0.049778311
    -0.000000000 -2.040984360  6.696356777    -0.000000000 -0.326639772  0.049778311

  length of vectors
     7.000486500  7.000486500  7.000486500     0.330410988  0.330410988  0.330410988

  position of ions in fractional coordinates (direct lattice)
     0.500000093  0.500000093  0.500000093
     0.000000000  0.000000000  0.000000000
     0.733981476  0.733981476  0.733981476
     0.266018709  0.266018709  0.266018709

  ion indices of the primitive-cell ions
   primitive index   ion index
                 1           1
                 2           2
                 3           3
                 4           4

----------------------------------------------------------------------------------------



 KPOINTS: pymatgen with grid density = 600 / numbe

Automatic generation of k-mesh.
 Grid dimensions read from file:
 generate k-points for:    5    5    5

 Generating k-lattice:

  Cartesian coordinates                     Fractional coordinates (reciprocal lattice)
     0.056575668  0.032663977  0.009955662     0.200000000 -0.000000000 -0.000000000
    -0.056575668  0.032663977  0.009955662     0.000000000  0.200000000 -0.000000000
    -0.000000000 -0.065327954  0.009955662    -0.000000000 -0.000000000  0.200000000

  Length of vectors
     0.066082198  0.066082198  0.066082198

  Shift w.r.t. Gamma in fractional coordinates (k-lattice)
     0.000000000  0.000000000  0.000000000

 
 Subroutine IBZKPT returns following result:
 ===========================================
 
 Found     19 irreducible k-points:
 
 Following reciprocal coordinates:
            Coordinates               Weight
  0.000000  0.000000  0.000000      1.000000
  0.200000  0.000000  0.000000      6.000000
  0.400000  0.000000  0.000000      6.000000
  0.200000  0.200000  0.000000      6.000000
  0.400000  0.200000  0.000000     12.000000
 -0.400000  0.200000  0.000000     12.000000
 -0.200000  0.200000  0.000000      6.000000
  0.400000  0.400000  0.000000      6.000000
 -0.400000  0.400000  0.000000      6.000000
  0.200000  0.200000  0.200000      2.000000
  0.400000  0.200000  0.200000      6.000000
 -0.400000  0.200000  0.200000      6.000000
 -0.200000  0.200000  0.200000      6.000000
  0.400000  0.400000  0.200000      6.000000
 -0.400000  0.400000  0.200000     12.000000
 -0.200000  0.400000  0.200000     12.000000
 -0.400000 -0.400000  0.200000      6.000000
  0.400000  0.400000  0.400000      2.000000
 -0.400000  0.400000  0.400000      6.000000
 
 Following cartesian coordinates:
            Coordinates               Weight
  0.000000  0.000000  0.000000      1.000000
  0.056576  0.032664  0.009956      6.000000
  0.113151  0.065328  0.019911      6.000000
  0.000000  0.065328  0.019911      6.000000
  0.056576  0.097992  0.029867     12.000000
 -0.169727 -0.032664 -0.009956     12.000000
 -0.113151 -0.000000  0.000000      6.000000
  0.000000  0.130656  0.039823      6.000000
 -0.226303  0.000000  0.000000      6.000000
  0.000000  0.000000  0.029867      2.000000
  0.056576  0.032664  0.039823      6.000000
 -0.169727 -0.097992 -0.000000      6.000000
 -0.113151 -0.065328  0.009956      6.000000
  0.000000  0.065328  0.049778      6.000000
 -0.226303 -0.065328  0.009956     12.000000
 -0.169727 -0.032664  0.019911     12.000000
 -0.000000 -0.195984 -0.029867      6.000000
  0.000000  0.000000  0.059734      2.000000
 -0.226303 -0.130656  0.019911      6.000000
 
 
 Subroutine IBZKPT_HF returns following result:
 ==============================================
 
 Found    125 k-points in 1st BZ
 the following    125 k-points will be used (e.g. in the exchange kernel)
 Following reciprocal coordinates:   # in IRBZ
  0.000000  0.000000  0.000000    0.00800000   1 t-inv F
  0.200000  0.000000  0.000000    0.00800000   2 t-inv F
  0.400000  0.000000  0.000000    0.00800000   3 t-inv F
  0.200000  0.200000  0.000000    0.00800000   4 t-inv F
  0.400000  0.200000  0.000000    0.00800000   5 t-inv F
 -0.400000  0.200000  0.000000    0.00800000   6 t-inv F
 -0.200000  0.200000  0.000000    0.00800000   7 t-inv F
  0.400000  0.400000  0.000000    0.00800000   8 t-inv F
 -0.400000  0.400000  0.000000    0.00800000   9 t-inv F
  0.200000  0.200000  0.200000    0.00800000  10 t-inv F
  0.400000  0.200000  0.200000    0.00800000  11 t-inv F
 -0.400000  0.200000  0.200000    0.00800000  12 t-inv F
 -0.200000  0.200000  0.200000    0.00800000  13 t-inv F
  0.400000  0.400000  0.200000    0.00800000  14 t-inv F
 -0.400000  0.400000  0.200000    0.00800000  15 t-inv F
 -0.200000  0.400000  0.200000    0.00800000  16 t-inv F
 -0.400000 -0.400000  0.200000    0.00800000  17 t-inv F
  0.400000  0.400000  0.400000    0.00800000  18 t-inv F
 -0.400000  0.400000  0.400000    0.00800000  19 t-inv F
 -0.200000 -0.000000 -0.000000    0.00800000   2 t-inv F
  0.000000  0.200000  0.000000    0.00800000   2 t-inv F
 -0.000000 -0.200000 -0.000000    0.00800000   2 t-inv F
  0.000000  0.000000  0.200000    0.00800000   2 t-inv F
 -0.000000 -0.000000 -0.200000    0.00800000   2 t-inv F
 -0.400000 -0.000000 -0.000000    0.00800000   3 t-inv F
  0.000000  0.400000  0.000000    0.00800000   3 t-inv F
 -0.000000 -0.400000 -0.000000    0.00800000   3 t-inv F
  0.000000  0.000000  0.400000    0.00800000   3 t-inv F
 -0.000000 -0.000000 -0.400000    0.00800000   3 t-inv F
 -0.200000 -0.200000 -0.000000    0.00800000   4 t-inv F
 -0.200000 -0.000000 -0.200000    0.00800000   4 t-inv F
  0.200000  0.000000  0.200000    0.00800000   4 t-inv F
  0.000000  0.200000  0.200000    0.00800000   4 t-inv F
 -0.000000 -0.200000 -0.200000    0.00800000   4 t-inv F
 -0.400000 -0.200000 -0.000000    0.00800000   5 t-inv F
 -0.400000 -0.000000 -0.200000    0.00800000   5 t-inv F
  0.400000  0.000000  0.200000    0.00800000   5 t-inv F
  0.000000  0.400000  0.200000    0.00800000   5 t-inv F
 -0.000000 -0.400000 -0.200000    0.00800000   5 t-inv F
 -0.200000 -0.400000 -0.000000    0.00800000   5 t-inv F
  0.200000  0.400000  0.000000    0.00800000   5 t-inv F
  0.200000  0.000000  0.400000    0.00800000   5 t-inv F
 -0.200000 -0.000000 -0.400000    0.00800000   5 t-inv F
 -0.000000 -0.200000 -0.400000    0.00800000   5 t-inv F
  0.000000  0.200000  0.400000    0.00800000   5 t-inv F
  0.400000 -0.200000 -0.000000    0.00800000   6 t-inv F
  0.400000 -0.000000 -0.200000    0.00800000   6 t-inv F
 -0.400000  0.000000  0.200000    0.00800000   6 t-inv F
  0.000000 -0.400000  0.200000    0.00800000   6 t-inv F
 -0.000000  0.400000 -0.200000    0.00800000   6 t-inv F
 -0.200000  0.400000 -0.000000    0.00800000   6 t-inv F
  0.200000 -0.400000  0.000000    0.00800000   6 t-inv F
  0.200000  0.000000 -0.400000    0.00800000   6 t-inv F
 -0.200000 -0.000000  0.400000    0.00800000   6 t-inv F
 -0.000000 -0.200000  0.400000    0.00800000   6 t-inv F
  0.000000  0.200000 -0.400000    0.00800000   6 t-inv F
  0.200000 -0.200000 -0.000000    0.00800000   7 t-inv F
  0.200000 -0.000000 -0.200000    0.00800000   7 t-inv F
 -0.200000  0.000000  0.200000    0.00800000   7 t-inv F
  0.000000 -0.200000  0.200000    0.00800000   7 t-inv F
 -0.000000  0.200000 -0.200000    0.00800000   7 t-inv F
 -0.400000 -0.400000 -0.000000    0.00800000   8 t-inv F
 -0.400000 -0.000000 -0.400000    0.00800000   8 t-inv F
  0.400000  0.000000  0.400000    0.00800000   8 t-inv F
  0.000000  0.400000  0.400000    0.00800000   8 t-inv F
 -0.000000 -0.400000 -0.400000    0.00800000   8 t-inv F
  0.400000 -0.400000 -0.000000    0.00800000   9 t-inv F
  0.400000 -0.000000 -0.400000    0.00800000   9 t-inv F
 -0.400000  0.000000  0.400000    0.00800000   9 t-inv F
  0.000000 -0.400000  0.400000    0.00800000   9 t-inv F
 -0.000000  0.400000 -0.400000    0.00800000   9 t-inv F
 -0.200000 -0.200000 -0.200000    0.00800000  10 t-inv F
 -0.400000 -0.200000 -0.200000    0.00800000  11 t-inv F
  0.200000  0.400000  0.200000    0.00800000  11 t-inv F
 -0.200000 -0.400000 -0.200000    0.00800000  11 t-inv F
  0.200000  0.200000  0.400000    0.00800000  11 t-inv F
 -0.200000 -0.200000 -0.400000    0.00800000  11 t-inv F
  0.400000 -0.200000 -0.200000    0.00800000  12 t-inv F
  0.200000 -0.400000  0.200000    0.00800000  12 t-inv F
 -0.200000  0.400000 -0.200000    0.00800000  12 t-inv F
  0.200000  0.200000 -0.400000    0.00800000  12 t-inv F
 -0.200000 -0.200000  0.400000    0.00800000  12 t-inv F
  0.200000 -0.200000 -0.200000    0.00800000  13 t-inv F
  0.200000 -0.200000  0.200000    0.00800000  13 t-inv F
 -0.200000  0.200000 -0.200000    0.00800000  13 t-inv F
  0.200000  0.200000 -0.200000    0.00800000  13 t-inv F
 -0.200000 -0.200000  0.200000    0.00800000  13 t-inv F
 -0.400000 -0.400000 -0.200000    0.00800000  14 t-inv F
 -0.400000 -0.200000 -0.400000    0.00800000  14 t-inv F
  0.400000  0.200000  0.400000    0.00800000  14 t-inv F
  0.200000  0.400000  0.400000    0.00800000  14 t-inv F
 -0.200000 -0.400000 -0.400000    0.00800000  14 t-inv F
  0.400000 -0.400000 -0.200000    0.00800000  15 t-inv F
  0.400000 -0.200000 -0.400000    0.00800000  15 t-inv F
 -0.400000  0.200000  0.400000    0.00800000  15 t-inv F
  0.200000 -0.400000  0.400000    0.00800000  15 t-inv F
 -0.200000  0.400000 -0.400000    0.00800000  15 t-inv F
 -0.400000  0.400000 -0.200000    0.00800000  15 t-inv F
  0.400000 -0.400000  0.200000    0.00800000  15 t-inv F
  0.400000  0.200000 -0.400000    0.00800000  15 t-inv F
 -0.400000 -0.200000  0.400000    0.00800000  15 t-inv F
 -0.200000 -0.400000  0.400000    0.00800000  15 t-inv F
  0.200000  0.400000 -0.400000    0.00800000  15 t-inv F
  0.200000 -0.400000 -0.200000    0.00800000  16 t-inv F
  0.200000 -0.200000 -0.400000    0.00800000  16 t-inv F
 -0.200000  0.200000  0.400000    0.00800000  16 t-inv F
  0.200000 -0.200000  0.400000    0.00800000  16 t-inv F
 -0.200000  0.200000 -0.400000    0.00800000  16 t-inv F
 -0.400000  0.200000 -0.200000    0.00800000  16 t-inv F
  0.400000 -0.200000  0.200000    0.00800000  16 t-inv F
  0.400000  0.200000 -0.200000    0.00800000  16 t-inv F
 -0.400000 -0.200000  0.200000    0.00800000  16 t-inv F
 -0.200000 -0.400000  0.200000    0.00800000  16 t-inv F
  0.200000  0.400000 -0.200000    0.00800000  16 t-inv F
  0.400000  0.400000 -0.200000    0.00800000  17 t-inv F
  0.400000 -0.200000  0.400000    0.00800000  17 t-inv F
 -0.400000  0.200000 -0.400000    0.00800000  17 t-inv F
  0.200000 -0.400000 -0.400000    0.00800000  17 t-inv F
 -0.200000  0.400000  0.400000    0.00800000  17 t-inv F
 -0.400000 -0.400000 -0.400000    0.00800000  18 t-inv F
  0.400000 -0.400000 -0.400000    0.00800000  19 t-inv F
  0.400000 -0.400000  0.400000    0.00800000  19 t-inv F
 -0.400000  0.400000 -0.400000    0.00800000  19 t-inv F
  0.400000  0.400000 -0.400000    0.00800000  19 t-inv F
 -0.400000 -0.400000  0.400000    0.00800000  19 t-inv F


--------------------------------------------------------------------------------------------------------




 Dimension of arrays:
   k-points           NKPTS =     19   k-points in BZ     NKDIM =     19   number of bands    NBANDS=     16
   number of dos      NEDOS =    301   number of ions     NIONS =      4
   non local maximal  LDIM  =      4   non local SUM 2l+1 LMDIM =      8
   total plane-waves  NPLWV =  46656
   max r-space proj   IRMAX =   5992   max aug-charges    IRDMAX=  21722
   dimension x,y,z NGX =    36 NGY =   36 NGZ =   36
   dimension x,y,z NGXF=    72 NGYF=   72 NGZF=   72
   support grid    NGXF=    72 NGYF=   72 NGZF=   72
   ions per type =               1   1   2
   NGX,Y,Z   is equivalent  to a cutoff of   8.55,  8.55,  8.55 a.u.
   NGXF,Y,Z  is equivalent  to a cutoff of  17.10, 17.10, 17.10 a.u.

 SYSTEM =  unknown system                          
 POSCAR =  Na1 Si1 S2                              

 Startparameter for this run:
   NWRITE =      2    write-flag & timer
   PREC   = normal    normal or accurate (medium, high low for compatibility)
   ISTART =      0    job   : 0-new  1-cont  2-samecut
   ICHARG =      2    charge: 1-file 2-atom 10-const
   ISPIN  =      1    spin polarized calculation?
   LNONCOLLINEAR =      F non collinear calculations
   LSORBIT =      F    spin-orbit coupling
   INIWAV =      1    electr: 0-lowe 1-rand  2-diag
   LASPH  =      F    aspherical Exc in radial PAW
 Electronic Relaxation 1
   ENCUT  =  400.0 eV  29.40 Ry    5.42 a.u.  11.42 11.42 11.42*2*pi/ulx,y,z
   ENINI  =  400.0     initial cutoff
   ENAUG  =  368.1 eV  augmentation charge cutoff
   NELM   =     60;   NELMIN=  2; NELMDL=  0     # of ELM steps 
   EDIFF  = 0.1E-05   stopping-criterion for ELM
   LREAL  =      T    real-space projection
   NLSPLINE    = F    spline interpolate recip. space projectors
   LCOMPAT=      F    compatible to vasp.4.4
   GGA_COMPAT  = T    GGA compatible to vasp.4.4-vasp.4.6
   LMAXPAW     = -100 max onsite density
   LMAXMIX     =    2 max onsite mixed and CHGCAR
   VOSKOWN=      0    Vosko Wilk Nusair interpolation
   ROPT   =   -0.00050  -0.00050  -0.00050
 Ionic relaxation
   EDIFFG = 0.1E-04   stopping-criterion for IOM
   NSW    =     85    number of steps for IOM
   NBLOCK =      1;   KBLOCK =     85    inner block; outer block 
   IBRION =      6    ionic relax: 0-MD 1-quasi-New 2-CG
   NFREE  =      4    steps in history (QN), initial steepest desc. (CG)
   ISIF   =      3    stress and relaxation
   IWAVPR =     11    prediction:  0-non 1-charg 2-wave 3-comb
   ISYM   =      2    0-nonsym 1-usesym 2-fastsym
   LCORR  =      T    Harris-Foulkes like correction to forces

   POTIM  = 0.0150    time-step for ionic-motion
   TEIN   =    0.0    initial temperature
   TEBEG  =    0.0;   TEEND  =   0.0 temperature during run
   SMASS  =  -3.00    Nose mass-parameter (am)
   estimated Nose-frequenzy (Omega)   =  0.10E-29 period in steps = 0.42E+48 mass=  -0.112E-26a.u.
   SCALEE = 1.0000    scale energy and forces
   NPACO  =    256;   APACO  = 10.0  distance and # of slots for P.C.
   PSTRESS=    0.0 pullay stress

  Mass of Ions in am
   POMASS =  22.99 28.09 32.07
  Ionic Valenz
   ZVAL   =   7.00  4.00  6.00
  Atomic Wigner-Seitz radii
   RWIGS  =  -1.00 -1.00 -1.00
  virtual crystal weights 
   VCA    =   1.00  1.00  1.00
   NELECT =      23.0000    total number of electrons
   NUPDOWN=      -1.0000    fix difference up-down

 DOS related values:
   EMIN   =  10.00;   EMAX   =-10.00  energy-range for DOS
   EFERMI =   0.00
   ISMEAR =     0;   SIGMA  =   0.05  broadening in eV -4-tet -1-fermi 0-gaus

 Electronic relaxation 2 (details)
   IALGO  =     38    algorithm
   LDIAG  =      T    sub-space diagonalisation (order eigenvalues)
   LSUBROT=      F    optimize rotation matrix (better conditioning)
   TURBO    =      0    0=normal 1=particle mesh
   IRESTART =      0    0=no restart 2=restart with 2 vectors
   NREBOOT  =      0    no. of reboots
   NMIN     =      0    reboot dimension
   EREF     =   0.00    reference energy to select bands
   IMIX   =      4    mixing-type and parameters
     AMIX     =   0.40;   BMIX     =  1.00
     AMIX_MAG =   1.60;   BMIX_MAG =  1.00
     AMIN     =   0.10
     WC   =   100.;   INIMIX=   1;  MIXPRE=   1;  MAXMIX= -45

 Intra band minimization:
   WEIMIN = 0.0010     energy-eigenvalue tresh-hold
   EBREAK =  0.16E-07  absolut break condition
   DEPER  =   0.30     relativ break condition  

   TIME   =   0.40     timestep for ELM

  volume/ion in A,a.u.               =      18.12       122.27
  Fermi-wavevector in a.u.,A,eV,Ry     =   1.116677  2.110213 16.966018  1.246967
  Thomas-Fermi vector in A             =   2.253293

 Write flags
   LWAVE        =      F    write WAVECAR
   LDOWNSAMPLE  =      F    k-point downsampling of WAVECAR
   LCHARG       =      F    write CHGCAR
   LVTOT        =      F    write LOCPOT, total local potential
   LVHAR        =      F    write LOCPOT, Hartree potential only
   LELF         =      F    write electronic localiz. function (ELF)
   LORBIT       =      0    0 simple, 1 ext, 2 COOP (PROOUT), +10 PAW based schemes


 Dipole corrections
   LMONO  =      F    monopole corrections only (constant potential shift)
   LDIPOL =      F    correct potential (dipole corrections)
   IDIPOL =      0    1-x, 2-y, 3-z, 4-all directions 
   EPSILON=  1.0000000 bulk dielectric constant

 Exchange correlation treatment:
   GGA     =    --    GGA type
   LEXCH   =     8    internal setting for exchange type
   LIBXC   =     F    Libxc                    
   VOSKOWN =     0    Vosko Wilk Nusair interpolation
   LHFCALC =     F    Hartree Fock is set to
   LHFONE  =     F    Hartree Fock one center treatment
   AEXX    =    0.0000 exact exchange contribution

 Linear response parameters
   LEPSILON=     F    determine dielectric tensor
   LRPA    =     F    only Hartree local field effects (RPA)
   LNABLA  =     F    use nabla operator in PAW spheres
   LVEL    =     F    velocity operator in full k-point grid
   CSHIFT  =0.1000    complex shift for real part using Kramers Kronig
   OMEGAMAX=  -1.0    maximum frequency
   DEG_THRESHOLD= 0.2000000E-02 threshold for treating states as degnerate
   RTIME   =   -0.100 relaxation time in fs
  (WPLASMAI=    0.000 imaginary part of plasma frequency in eV, 0.658/RTIME)
   DFIELD  = 0.0000000 0.0000000 0.0000000 field for delta impulse in time

  Optional k-point grid parameters
   LKPOINTS_OPT  =     F    use optional k-point grid
   KPOINTS_OPT_MODE=     1    mode for optional k-point grid

 Orbital magnetization related:
   ORBITALMAG=     F  switch on orbital magnetization
   LCHIMAG   =     F  perturbation theory with respect to B field
   DQ        =  0.001000  dq finite difference perturbation B field
   LLRAUG    =     F  two centre corrections for induced B field



--------------------------------------------------------------------------------------------------------


 finite differences with symmetry
 charge density and potential will be updated during run
 non-spin polarized calculation
 Variant of blocked Davidson
 Davidson routine will perform the subspace rotation
 perform sub-space diagonalisation
    after iterative eigenvector-optimisation
 modified Broyden-mixing scheme, WC =      100.0
 initial mixing is a Kerker type mixing with AMIX =  0.4000 and BMIX =      1.0000
 Hartree-type preconditioning will be used
 using additional bands            4
 real space projection scheme for non local part
 use partial core corrections
 calculate Harris-corrections to forces   (improved forces if not selfconsistent)
 use gradient corrections 
 use of overlap-Matrix (Vanderbilt PP)
 Gauss-broadening in eV      SIGMA  =   0.05


--------------------------------------------------------------------------------------------------------


  energy-cutoff  :      400.00
  volume of cell :       72.47
      direct lattice vectors                 reciprocal lattice vectors
     1.767544304  1.020492180  6.696356777     0.282878341  0.163319886  0.049778311
    -1.767544304  1.020492180  6.696356777    -0.282878341  0.163319886  0.049778311
    -0.000000000 -2.040984360  6.696356777    -0.000000000 -0.326639772  0.049778311

  length of vectors
     7.000486500  7.000486500  7.000486500     0.330410988  0.330410988  0.330410988



 k-points in units of 2pi/SCALE and weight: pymatgen with grid density = 600 / numbe
   0.00000000  0.00000000  0.00000000       0.008
   0.05657567  0.03266398  0.00995566       0.048
   0.11315134  0.06532795  0.01991132       0.048
   0.00000000  0.06532795  0.01991132       0.048
   0.05657567  0.09799193  0.02986699       0.096
  -0.16972700 -0.03266398 -0.00995566       0.096
  -0.11315134 -0.00000000  0.00000000       0.048
   0.00000000  0.13065591  0.03982265       0.048
  -0.22630267 -0.00000000  0.00000000       0.048
   0.00000000  0.00000000  0.02986699       0.016
   0.05657567  0.03266398  0.03982265       0.048
  -0.16972700 -0.09799193 -0.00000000       0.048
  -0.11315134 -0.06532795  0.00995566       0.048
   0.00000000  0.06532795  0.04977831       0.048
  -0.22630267 -0.06532795  0.00995566       0.096
  -0.16972700 -0.03266398  0.01991132       0.096
  -0.00000000 -0.19598386 -0.02986699       0.048
   0.00000000  0.00000000  0.05973397       0.016
  -0.22630267 -0.13065591  0.01991132       0.048

 k-points in reciprocal lattice and weights: pymatgen with grid density = 600 / numbe
   0.00000000  0.00000000  0.00000000       0.008
   0.20000000  0.00000000  0.00000000       0.048
   0.40000000  0.00000000  0.00000000       0.048
   0.20000000  0.20000000  0.00000000       0.048
   0.40000000  0.20000000  0.00000000       0.096
  -0.40000000  0.20000000  0.00000000       0.096
  -0.20000000  0.20000000  0.00000000       0.048
   0.40000000  0.40000000  0.00000000       0.048
  -0.40000000  0.40000000  0.00000000       0.048
   0.20000000  0.20000000  0.20000000       0.016
   0.40000000  0.20000000  0.20000000       0.048
  -0.40000000  0.20000000  0.20000000       0.048
  -0.20000000  0.20000000  0.20000000       0.048
   0.40000000  0.40000000  0.20000000       0.048
  -0.40000000  0.40000000  0.20000000       0.096
  -0.20000000  0.40000000  0.20000000       0.096
  -0.40000000 -0.40000000  0.20000000       0.048
   0.40000000  0.40000000  0.40000000       0.016
  -0.40000000  0.40000000  0.40000000       0.048

 position of ions in fractional coordinates (direct lattice) 
   0.50000009  0.50000009  0.50000009
   0.00000000  0.00000000  0.00000000
   0.73398148  0.73398148  0.73398148
   0.26601871  0.26601871  0.26601871

 position of ions in cartesian coordinates  (Angst):
   0.00000000 -0.00000000 10.04453703
   0.00000000  0.00000000  0.00000000
   0.00000000 -0.00000000 14.74500550
  -0.00000000 -0.00000000  5.34406856



--------------------------------------------------------------------------------------------------------


 k-point   1 :   0.0000 0.0000 0.0000  plane waves:    1293
 k-point   2 :   0.2000 0.0000 0.0000  plane waves:    1311
 k-point   3 :   0.4000 0.0000 0.0000  plane waves:    1314
 k-point   4 :   0.2000 0.2000 0.0000  plane waves:    1324
 k-point   5 :   0.4000 0.2000 0.0000  plane waves:    1314
 k-point   6 :  -0.4000 0.2000 0.0000  plane waves:    1319
 k-point   7 :  -0.2000 0.2000 0.0000  plane waves:    1320
 k-point   8 :   0.4000 0.4000 0.0000  plane waves:    1323
 k-point   9 :  -0.4000 0.4000 0.0000  plane waves:    1314
 k-point  10 :   0.2000 0.2000 0.2000  plane waves:    1318
 k-point  11 :   0.4000 0.2000 0.2000  plane waves:    1315
 k-point  12 :  -0.4000 0.2000 0.2000  plane waves:    1321
 k-point  13 :  -0.2000 0.2000 0.2000  plane waves:    1320
 k-point  14 :   0.4000 0.4000 0.2000  plane waves:    1303
 k-point  15 :  -0.4000 0.4000 0.2000  plane waves:    1310
 k-point  16 :  -0.2000 0.4000 0.2000  plane waves:    1313
 k-point  17 :  -0.4000-0.4000 0.2000  plane waves:    1316
 k-point  18 :   0.4000 0.4000 0.4000  plane waves:    1300
 k-point  19 :  -0.4000 0.4000 0.4000  plane waves:    1317

 maximum and minimum number of plane-waves per node :      1324     1293

 maximum number of plane-waves:      1324
 maximum index in each direction: 
   IXMAX=   11   IYMAX=   11   IZMAX=   11
   IXMIN=  -11   IYMIN=  -11   IZMIN=  -11


 serial   3D FFT for wavefunctions
 parallel 3D FFT for charge:
    minimum data exchange during FFTs selected (reduces bandwidth)


 total amount of memory used by VASP MPI-rank0    39418. kBytes
=======================================================================

   base      :      30000. kBytes
   nonlr-proj:       1831. kBytes
   fftplans  :       1814. kBytes
   grid      :       4935. kBytes
   one-center:         12. kBytes
   wavefun   :        826. kBytes

     INWAV:  cpu time      0.0000: real time      0.0002
 Broyden mixing: mesh for mixing (old mesh)
   NGX = 23   NGY = 23   NGZ = 23
  (NGX  = 72   NGY  = 72   NGZ  = 72)
  gives a total of  12167 points

 initial charge density was supplied:
 charge density of overlapping atoms calculated
 number of electron      23.0000000 magnetization 
 keeping initial charge density in first step


--------------------------------------------------------------------------------------------------------


 Maximum index for non-local projection operator         5771
 Maximum index for augmentation-charges         2559 (set IRDMAX)


--------------------------------------------------------------------------------------------------------


 First call to EWALD:  gamma=   0.425
 Maximum number of real-space cells 4x 4x 4
 Maximum number of reciprocal cells 4x 4x 4

    FEWALD:  cpu time      0.0006: real time      0.0006


--------------------------------------- Iteration      1(   1)  ---------------------------------------


    POTLOK:  cpu time      0.0223: real time      0.0657
    SETDIJ:  cpu time      0.0018: real time      0.0019
     EDDAV:  cpu time      0.3333: real time      0.3337
       DOS:  cpu time      0.0003: real time      0.0004
    --------------------------------------------
      LOOP:  cpu time      0.3577: real time      0.4016

 eigenvalue-minimisations  :   608
 total energy-change (2. order) : 0.1285608E+03  (-0.9508335E+03)
 number of electron      23.0000000 magnetization 
 augmentation part       23.0000000 magnetization 

 Free energy of the ion-electron system (eV)
  ---------------------------------------------------
  alpha Z        PSCENC =        32.46263744
  Ewald energy   TEWEN  =     -1052.74740773
  -Hartree energ DENC   =      -269.56421725
  -exchange      EXHF   =         0.00000000
  -V(xc)+E(xc)   XCENC  =        40.66466781
  PAW double counting   =      1025.43992223    -1090.03883641
  entropy T*S    EENTRO =        -0.00320207
  eigenvalues    EBANDS =        19.61115296
  atomic energy  EATOM  =      1422.73612946
  Solvation  Ediel_sol  =         0.00000000
  ---------------------------------------------------
  free energy    TOTEN  =       128.56084645 eV

  energy without entropy =      128.56404851  energy(sigma->0) =      128.56244748


--------------------------------------------------------------------------------------------------------




--------------------------------------- Iteration      1(   2)  ---------------------------------------


     EDDAV:  cpu time      0.3717: real time      0.3721
       DOS:  cpu time      0.0002: real time      0.0003
    --------------------------------------------
      LOOP:  cpu time      0.3719: real time      0.3724

 eigenvalue-minimisations  :   712
 total energy-change (2. order) :-0.1361963E+03  (-0.1339653E+03)
 number of electron      23.0000000 magnetization 
 augmentation part       23.0000000 magnetization 

 Free energy of the ion-electron system (eV)
  ---------------------------------------------------
  alpha Z        PSCENC =        32.46263744
  Ewald energy   TEWEN  =     -1052.74740773
  -Hartree energ DENC   =      -269.56421725
  -exchange      EXHF   =         0.00000000
  -V(xc)+E(xc)   XCENC  =        40.66466781
  PAW double counting   =      1025.43992223    -1090.03883641
  entropy T*S    EENTRO =        -0.00063927
  eigenvalues    EBANDS =      -116.58772172
  atomic energy  EATOM  =      1422.73612946
  Solvation  Ediel_sol  =         0.00000000
  ---------------------------------------------------
  free energy    TOTEN  =        -7.63546544 eV

  energy without entropy =       -7.63482617  energy(sigma->0) =       -7.63514580


--------------------------------------------------------------------------------------------------------




--------------------------------------- Iteration      1(   3)  ---------------------------------------


     EDDAV:  cpu time      0.4343: real time      0.4347
       DOS:  cpu time      0.0002: real time      0.0003
    --------------------------------------------
      LOOP:  cpu time      0.4345: real time      0.4350

 eigenvalue-minimisations  :   840
 total energy-change (2. order) :-0.9898646E+01  (-0.9806034E+01)
 number of electron      23.0000000 magnetization 
 augmentation part       23.0000000 magnetization 

 Free energy of the ion-electron system (eV)
  ---------------------------------------------------
  alpha Z        PSCENC =        32.46263744
  Ewald energy   TEWEN  =     -1052.74740773
  -Hartree energ DENC   =      -269.56421725
  -exchange      EXHF   =         0.00000000
  -V(xc)+E(xc)   XCENC  =        40.66466781
  PAW double counting   =      1025.43992223    -1090.03883641
  entropy T*S    EENTRO =        -0.00060469
  eigenvalues    EBANDS =      -126.48640232
  atomic energy  EATOM  =      1422.73612946
  Solvation  Ediel_sol  =         0.00000000
  ---------------------------------------------------
  free energy    TOTEN  =       -17.53411146 eV

  energy without entropy =      -17.53350677  energy(sigma->0) =      -17.53380911


--------------------------------------------------------------------------------------------------------




--------------------------------------- Iteration      1(   4)  ---------------------------------------


     EDDAV:  cpu time      0.3778: real time      0.3783
       DOS:  cpu time      0.0003: real time      0.0003
    --------------------------------------------
      LOOP:  cpu time      0.3781: real time      0.3787

 eigenvalue-minimisations  :   720
 total energy-change (2. order) :-0.1688937E+00  (-0.1688158E+00)
 number of electron      23.0000000 magnetization 
 augmentation part       23.0000000 magnetization 

 Free energy of the ion-electron system (eV)
  ---------------------------------------------------
  alpha Z        PSCENC =        32.46263744
  Ewald energy   TEWEN  =     -1052.74740773
  -Hartree energ DENC   =      -269.56421725
  -exchange      EXHF   =         0.00000000
  -V(xc)+E(xc)   XCENC  =        40.66466781
  PAW double counting   =      1025.43992223    -1090.03883641
  entropy T*S    EENTRO =        -0.00060468
  eigenvalues    EBANDS =      -126.65529605
  atomic energy  EATOM  =      1422.73612946
  Solvation  Ediel_sol  =         0.00000000
  ---------------------------------------------------
  free energy    TOTEN  =       -17.70300517 eV

  energy without entropy =      -17.70240049  energy(sigma->0) =      -17.70270283


--------------------------------------------------------------------------------------------------------




--------------------------------------- Iteration      1(   5)  ---------------------------------------


     EDDAV:  cpu time      0.4264: real time      0.4266
       DOS:  cpu time      0.0002: real time      0.0003
    CHARGE:  cpu time      0.0349: real time      0.0349
    MIXING:  cpu time      0.0009: real time      0.0010
    --------------------------------------------
      LOOP:  cpu time      0.4624: real time      0.4628

 eigenvalue-minimisations  :   840
 total energy-change (2. order) :-0.4545684E-02  (-0.4545306E-02)
 number of electron      22.9999992 magnetization 
 augmentation part        2.5296497 magnetization 

 Broyden mixing:
  rms(total) = 0.89109E+00    rms(broyden)= 0.89108E+00
  rms(prec ) = 0.10050E+01
  weight for this iteration     100.00

 Free energy of the ion-electron system (eV)
  ---------------------------------------------------
  alpha Z        PSCENC =        32.46263744
  Ewald energy   TEWEN  =     -1052.74740773
  -Hartree energ DENC   =      -269.56421725
  -exchange      EXHF   =         0.00000000
  -V(xc)+E(xc)   XCENC  =        40.66466781
  PAW double counting   =      1025.43992223    -1090.03883641
  entropy T*S    EENTRO =        -0.00060468
  eigenvalues    EBANDS =      -126.65984173
  atomic energy  EATOM  =      1422.73612946
  Solvation  Ediel_sol  =         0.00000000
  ---------------------------------------------------
  free energy    TOTEN  =       -17.70755085 eV

  energy without entropy =      -17.70694617  energy(sigma->0) =      -17.70724851


--------------------------------------------------------------------------------------------------------




--------------------------------------- Iteration      1(   6)  ---------------------------------------


    POTLOK:  cpu time      0.0220: real time      0.0222
    SETDIJ:  cpu time      0.0017: real time      0.0017
     EDDAV:  cpu time      0.3610: real time      0.3615
       DOS:  cpu time      0.0002: real time      0.0003
    CHARGE:  cpu time      0.0329: real time      0.0329
    MIXING:  cpu time      0.0010: real time      0.0010
    --------------------------------------------
      LOOP:  cpu time      0.4188: real time      0.4195

 eigenvalue-minimisations  :   688
 total energy-change (2. order) : 0.3051454E+00  (-0.8011895E-01)
 number of electron      22.9999992 magnetization 
 augmentation part        2.5627578 magnetization 

 Broyden mixing:
  rms(total) = 0.61143E+00    rms(broyden)= 0.61143E+00
  rms(prec ) = 0.64026E+00
  weight for this iteration     100.00

 eigenvalues of (default mixing * dielectric matrix)
  average eigenvalue GAMMA=   2.7550
  2.7550

 Free energy of the ion-electron system (eV)
  ---------------------------------------------------
  alpha Z        PSCENC =        32.46263744
  Ewald energy   TEWEN  =     -1052.74740773
  -Hartree energ DENC   =      -272.53853807
  -exchange      EXHF   =         0.00000000
  -V(xc)+E(xc)   XCENC  =        41.08272060
  PAW double counting   =      1315.67346926    -1380.36701055
  entropy T*S    EENTRO =        -0.00060467
  eigenvalues    EBANDS =      -123.70380117
  atomic energy  EATOM  =      1422.73612946
  Solvation  Ediel_sol  =         0.00000000
  ---------------------------------------------------
  free energy    TOTEN  =       -17.40240542 eV

  energy without entropy =      -17.40180075  energy(sigma->0) =      -17.40210308


--------------------------------------------------------------------------------------------------------




--------------------------------------- Iteration      1(   7)  ---------------------------------------


    POTLOK:  cpu time      0.0208: real time      0.0209
    SETDIJ:  cpu time      0.0016: real time      0.0016
     EDDAV:  cpu time      0.4165: real time      0.4165
       DOS:  cpu time      0.0002: real time      0.0003
    CHARGE:  cpu time      0.0328: real time      0.0328
    MIXING:  cpu time      0.0009: real time      0.0009
    --------------------------------------------
      LOOP:  cpu time      0.4727: real time      0.4730

 eigenvalue-minimisations  :   824
 total energy-change (2. order) : 0.1773494E-01  (-0.2800207E-01)
 number of electron      22.9999992 magnetization 
 augmentation part        2.5835299 magnetization 

 Broyden mixing:
  rms(total) = 0.15058E+00    rms(broyden)= 0.15058E+00
  rms(prec ) = 0.16270E+00
  weight for this iteration     100.00

 eigenvalues of (default mixing * dielectric matrix)
  average eigenvalue GAMMA=   1.7431
  1.1859  2.3002

 Free energy of the ion-electron system (eV)
  ---------------------------------------------------
  alpha Z        PSCENC =        32.46263744
  Ewald energy   TEWEN  =     -1052.74740773
  -Hartree energ DENC   =      -274.07027448
  -exchange      EXHF   =         0.00000000
  -V(xc)+E(xc)   XCENC  =        41.44609256
  PAW double counting   =      1830.35457593    -1895.30618379
  entropy T*S    EENTRO =        -0.00060467
  eigenvalues    EBANDS =      -122.25963521
  atomic energy  EATOM  =      1422.73612946
  Solvation  Ediel_sol  =         0.00000000
  ---------------------------------------------------
  free energy    TOTEN  =       -17.38467048 eV

  energy without entropy =      -17.38406581  energy(sigma->0) =      -17.38436814


--------------------------------------------------------------------------------------------------------




--------------------------------------- Iteration      1(   8)  ---------------------------------------


    POTLOK:  cpu time      0.0207: real time      0.0210
    SETDIJ:  cpu time      0.0017: real time      0.0017
     EDDAV:  cpu time      0.3714: real time      0.3719
       DOS:  cpu time      0.0002: real time      0.0003
    CHARGE:  cpu time      0.0329: real time      0.0329
    MIXING:  cpu time      0.0009: real time      0.0009
    --------------------------------------------
      LOOP:  cpu time      0.4279: real time      0.4287

 eigenvalue-minimisations  :   712
 total energy-change (2. order) : 0.1838875E-02  (-0.1655310E-02)
 number of electron      22.9999992 magnetization 
 augmentation part        2.5806754 magnetization 

 Broyden mixing:
  rms(total) = 0.37914E-01    rms(broyden)= 0.37914E-01
  rms(prec ) = 0.42750E-01
  weight for this iteration     100.00

 eigenvalues of (default mixing * dielectric matrix)
  average eigenvalue GAMMA=   1.6996
  2.4771  1.1145  1.5073

 Free energy of the ion-electron system (eV)
  ---------------------------------------------------
  alpha Z        PSCENC =        32.46263744
  Ewald energy   TEWEN  =     -1052.74740773
  -Hartree energ DENC   =      -273.57669370
  -exchange      EXHF   =         0.00000000
  -V(xc)+E(xc)   XCENC  =        41.47077660
  PAW double counting   =      1952.72908412    -2017.81673857
  entropy T*S    EENTRO =        -0.00060467
  eigenvalues    EBANDS =      -122.64001456
  atomic energy  EATOM  =      1422.73612946
  Solvation  Ediel_sol  =         0.00000000
  ---------------------------------------------------
  free energy    TOTEN  =       -17.38283160 eV

  energy without entropy =      -17.38222693  energy(sigma->0) =      -17.38252927


--------------------------------------------------------------------------------------------------------




--------------------------------------- Iteration      1(   9)  ---------------------------------------


    POTLOK:  cpu time      0.0209: real time      0.0211
    SETDIJ:  cpu time      0.0016: real time      0.0016
     EDDAV:  cpu time      0.4011: real time      0.4012
       DOS:  cpu time      0.0002: real time      0.0003
    CHARGE:  cpu time      0.0338: real time      0.0338
    MIXING:  cpu time      0.0012: real time      0.0012
    --------------------------------------------
      LOOP:  cpu time      0.4588: real time      0.4592

 eigenvalue-minimisations  :   768
 total energy-change (2. order) :-0.4839484E-03  (-0.2882311E-03)
 number of electron      22.9999992 magnetization 
 augmentation part        2.5786770 magnetization 

 Broyden mixing:
  rms(total) = 0.10749E-01    rms(broyden)= 0.10749E-01
  rms(prec ) = 0.11993E-01
  weight for this iteration     100.00

 eigenvalues of (default mixing * dielectric matrix)
  average eigenvalue GAMMA=   1.6051
  2.2615  1.1057  1.5265  1.5265

 Free energy of the ion-electron system (eV)
  ---------------------------------------------------
  alpha Z        PSCENC =        32.46263744
  Ewald energy   TEWEN  =     -1052.74740773
  -Hartree energ DENC   =      -273.40768477
  -exchange      EXHF   =         0.00000000
  -V(xc)+E(xc)   XCENC  =        41.48454462
  PAW double counting   =      1982.25433784    -2047.39102576
  entropy T*S    EENTRO =        -0.00060467
  eigenvalues    EBANDS =      -122.77424198
  atomic energy  EATOM  =      1422.73612946
  Solvation  Ediel_sol  =         0.00000000
  ---------------------------------------------------
  free energy    TOTEN  =       -17.38331555 eV

  energy without entropy =      -17.38271088  energy(sigma->0) =      -17.38301322


--------------------------------------------------------------------------------------------------------




--------------------------------------- Iteration      1(  10)  ---------------------------------------


    POTLOK:  cpu time      0.0221: real time      0.0223
    SETDIJ:  cpu time      0.0016: real time      0.0016
     EDDAV:  cpu time      0.4132: real time      0.4134
       DOS:  cpu time      0.0003: real time      0.0004
    CHARGE:  cpu time      0.0340: real time      0.0343
    MIXING:  cpu time      0.0011: real time      0.0011
    --------------------------------------------
      LOOP:  cpu time      0.4723: real time      0.4730

 eigenvalue-minimisations  :   808
 total energy-change (2. order) :-0.6838322E-04  (-0.1690827E-04)
 number of electron      22.9999992 magnetization 
 augmentation part        2.5788104 magnetization 

 Broyden mixing:
  rms(total) = 0.42462E-02    rms(broyden)= 0.42462E-02
  rms(prec ) = 0.56554E-02
  weight for this iteration     100.00

 eigenvalues of (default mixing * dielectric matrix)
  average eigenvalue GAMMA=   1.6765
  2.4258  2.4258  1.0785  1.2263  1.2263

 Free energy of the ion-electron system (eV)
  ---------------------------------------------------
  alpha Z        PSCENC =        32.46263744
  Ewald energy   TEWEN  =     -1052.74740773
  -Hartree energ DENC   =      -273.42145688
  -exchange      EXHF   =         0.00000000
  -V(xc)+E(xc)   XCENC  =        41.48573639
  PAW double counting   =      1967.46380653    -2032.60047611
  entropy T*S    EENTRO =        -0.00060467
  eigenvalues    EBANDS =      -122.76174837
  atomic energy  EATOM  =      1422.73612946
  Solvation  Ediel_sol  =         0.00000000
  ---------------------------------------------------
  free energy    TOTEN  =       -17.38338393 eV

  energy without entropy =      -17.38277927  energy(sigma->0) =      -17.38308160


--------------------------------------------------------------------------------------------------------




--------------------------------------- Iteration      1(  11)  ---------------------------------------


    POTLOK:  cpu time      0.0220: real time      0.0223
    SETDIJ:  cpu time      0.0016: real time      0.0016
     EDDAV:  cpu time      0.3669: real time      0.3669
       DOS:  cpu time      0.0002: real time      0.0003
    CHARGE:  cpu time      0.0329: real time      0.0329
    MIXING:  cpu time      0.0010: real time      0.0010
    --------------------------------------------
      LOOP:  cpu time      0.4246: real time      0.4249

 eigenvalue-minimisations  :   704
 total energy-change (2. order) :-0.5470896E-04  (-0.6636509E-05)
 number of electron      22.9999992 magnetization 
 augmentation part        2.5787882 magnetization 

 Broyden mixing:
  rms(total) = 0.90073E-03    rms(broyden)= 0.90073E-03
  rms(prec ) = 0.13512E-02
  weight for this iteration     100.00

 eigenvalues of (default mixing * dielectric matrix)
  average eigenvalue GAMMA=   1.7180
  2.8186  2.4266  1.0024  1.3528  1.3537  1.3537

 Free energy of the ion-electron system (eV)
  ---------------------------------------------------
  alpha Z        PSCENC =        32.46263744
  Ewald energy   TEWEN  =     -1052.74740773
  -Hartree energ DENC   =      -273.39580234
  -exchange      EXHF   =         0.00000000
  -V(xc)+E(xc)   XCENC  =        41.48831904
  PAW double counting   =      1962.25582933    -2027.40387741
  entropy T*S    EENTRO =        -0.00060467
  eigenvalues    EBANDS =      -122.77866177
  atomic energy  EATOM  =      1422.73612946
  Solvation  Ediel_sol  =         0.00000000
  ---------------------------------------------------
  free energy    TOTEN  =       -17.38343864 eV

  energy without entropy =      -17.38283398  energy(sigma->0) =      -17.38313631


--------------------------------------------------------------------------------------------------------




--------------------------------------- Iteration      1(  12)  ---------------------------------------


    POTLOK:  cpu time      0.0208: real time      0.0210
    SETDIJ:  cpu time      0.0016: real time      0.0016
     EDDAV:  cpu time      0.4230: real time      0.4231
       DOS:  cpu time      0.0002: real time      0.0003
    CHARGE:  cpu time      0.0327: real time      0.0327
    MIXING:  cpu time      0.0010: real time      0.0010
    --------------------------------------------
      LOOP:  cpu time      0.4793: real time      0.4797

 eigenvalue-minimisations  :   840
 total energy-change (2. order) :-0.3482224E-05  (-0.6986498E-06)
 number of electron      22.9999992 magnetization 
 augmentation part        2.5788059 magnetization 

 Broyden mixing:
  rms(total) = 0.99731E-03    rms(broyden)= 0.99731E-03
  rms(prec ) = 0.10328E-02
  weight for this iteration     100.00

 eigenvalues of (default mixing * dielectric matrix)
  average eigenvalue GAMMA=   1.6717
  2.8666  2.4689  2.0802  1.2283  1.2283  1.0606  0.7688

 Free energy of the ion-electron system (eV)
  ---------------------------------------------------
  alpha Z        PSCENC =        32.46263744
  Ewald energy   TEWEN  =     -1052.74740773
  -Hartree energ DENC   =      -273.39935110
  -exchange      EXHF   =         0.00000000
  -V(xc)+E(xc)   XCENC  =        41.49004126
  PAW double counting   =      1963.31167457    -2028.46289974
  entropy T*S    EENTRO =        -0.00060467
  eigenvalues    EBANDS =      -122.77366162
  atomic energy  EATOM  =      1422.73612946
  Solvation  Ediel_sol  =         0.00000000
  ---------------------------------------------------
  free energy    TOTEN  =       -17.38344212 eV

  energy without entropy =      -17.38283746  energy(sigma->0) =      -17.38313979


--------------------------------------------------------------------------------------------------------




--------------------------------------- Iteration      1(  13)  ---------------------------------------


    POTLOK:  cpu time      0.0206: real time      0.0208
    SETDIJ:  cpu time      0.0017: real time      0.0017
     EDDAV:  cpu time      0.2878: real time      0.2883
       DOS:  cpu time      0.0002: real time      0.0003
    --------------------------------------------
      LOOP:  cpu time      0.3103: real time      0.3110

 eigenvalue-minimisations  :   496
 total energy-change (2. order) :-0.3799955E-06  (-0.3783278E-07)
 number of electron      22.9999992 magnetization 
 augmentation part        2.5788059 magnetization 

 Free energy of the ion-electron system (eV)
  ---------------------------------------------------
  alpha Z        PSCENC =        32.46263744
  Ewald energy   TEWEN  =     -1052.74740773
  -Hartree energ DENC   =      -273.40220941
  -exchange      EXHF   =         0.00000000
  -V(xc)+E(xc)   XCENC  =        41.49010990
  PAW double counting   =      1962.79905132    -2027.95026394
  entropy T*S    EENTRO =        -0.00060467
  eigenvalues    EBANDS =      -122.77088489
  atomic energy  EATOM  =      1422.73612946
  Solvation  Ediel_sol  =         0.00000000
  ---------------------------------------------------
  free energy    TOTEN  =       -17.38344250 eV

  energy without entropy =      -17.38283784  energy(sigma->0) =      -17.38314017


--------------------------------------------------------------------------------------------------------




 average (electrostatic) potential at core
  the test charge radii are     0.9254  0.9892  0.9698
  (the norm of the test charge is              1.0000)
       1 -44.2613       2 -84.8592       3 -86.3089       4 -86.3089



 E-fermi :   6.2851     XC(G=0):  -9.6293     alpha+bet :-11.3648

 Fermi energy:         6.2850833298

 k-point     1 :       0.0000    0.0000    0.0000
  band No.  band energies     occupation 
      1     -18.4551      2.00000
      2     -18.4551      2.00000
      3     -18.4439      2.00000
      4      -9.7812      2.00000
      5      -7.8048      2.00000
      6      -1.5883      2.00000
      7       3.2724      2.00000
      8       3.4988      2.00000
      9       3.4988      2.00000
     10       3.5391      2.00000
     11       3.5391      2.00000
     12       5.6689      2.00000
     13       7.7147      0.00000
     14       8.7445      0.00000
     15       8.7445      0.00000
     16       9.4803      0.00000

 k-point     2 :       0.2000    0.0000    0.0000
  band No.  band energies     occupation 
      1     -18.4741      2.00000
      2     -18.4593      2.00000
      3     -18.4395      2.00000
      4      -9.3193      2.00000
      5      -7.5594      2.00000
      6      -1.4421      2.00000
      7       0.8812      2.00000
      8       2.0709      2.00000
      9       2.4087      2.00000
     10       3.2034      2.00000
     11       3.7866      2.00000
     12       6.6419      0.00000
     13       8.0393      0.00000
     14       9.5035      0.00000
     15       9.5375      0.00000
     16      10.5324      0.00000

 k-point     3 :       0.4000    0.0000    0.0000
  band No.  band energies     occupation 
      1     -18.5042      2.00000
      2     -18.4662      2.00000
      3     -18.4321      2.00000
      4      -8.1668      2.00000
      5      -7.2566      2.00000
      6      -2.5956      2.00000
      7      -0.5123      2.00000
      8       1.2256      2.00000
      9       1.6053      2.00000
     10       2.7546      2.00000
     11       3.4543      2.00000
     12       5.3248      2.00000
     13       8.5013      0.00000
     14       9.7180      0.00000
     15      10.2169      0.00000
     16      10.6435      0.00000

 k-point     4 :       0.2000    0.2000    0.0000
  band No.  band energies     occupation 
      1     -18.4741      2.00000
      2     -18.4594      2.00000
      3     -18.4396      2.00000
      4      -9.3126      2.00000
      5      -7.5739      2.00000
      6      -1.3892      2.00000
      7       0.7870      2.00000
      8       2.1391      2.00000
      9       2.3958      2.00000
     10       3.2063      2.00000
     11       3.8138      2.00000
     12       6.6147      0.00000
     13       7.8088      0.00000
     14       9.5060      0.00000
     15       9.5212      0.00000
     16      11.2822      0.00000

 k-point     5 :       0.4000    0.2000    0.0000
  band No.  band energies     occupation 
      1     -18.4935      2.00000
      2     -18.4698      2.00000
      3     -18.4336      2.00000
      4      -8.4878      2.00000
      5      -7.2588      2.00000
      6      -2.0440      2.00000
      7      -0.0791      2.00000
      8       0.5094      2.00000
      9       1.9903      2.00000
     10       2.4017      2.00000
     11       3.3380      2.00000
     12       6.6179      0.00000
     13       8.7242      0.00000
     14       9.6416      0.00000
     15      10.1971      0.00000
     16      10.9816      0.00000

 k-point     6 :      -0.4000    0.2000    0.0000
  band No.  band energies     occupation 
      1     -18.5026      2.00000
      2     -18.4792      2.00000
      3     -18.4300      2.00000
      4      -7.5619      2.00000
      5      -7.2686      2.00000
      6      -3.0037      2.00000
      7      -0.4299      2.00000
      8       0.2516      2.00000
      9       1.0476      2.00000
     10       2.6507      2.00000
     11       2.8627      2.00000
     12       6.2239      1.91667
     13       9.2317      0.00000
     14       9.8225      0.00000
     15      10.3839      0.00000
     16      10.8709      0.00000

 k-point     7 :      -0.2000    0.2000    0.0000
  band No.  band energies     occupation 
      1     -18.4935      2.00000
      2     -18.4698      2.00000
      3     -18.4337      2.00000
      4      -8.5000      2.00000
      5      -7.2388      2.00000
      6      -2.0406      2.00000
      7      -0.0183      2.00000
      8       0.3896      2.00000
      9       1.9867      2.00000
     10       2.2992      2.00000
     11       3.4736      2.00000
     12       6.6822      0.00000
     13       9.2390      0.00000
     14       9.2837      0.00000
     15      10.1762      0.00000
     16      11.3001      0.00000

 k-point     8 :       0.4000    0.4000    0.0000
  band No.  band energies     occupation 
      1     -18.5042      2.00000
      2     -18.4663      2.00000
      3     -18.4322      2.00000
      4      -8.1543      2.00000
      5      -7.2685      2.00000
      6      -2.6277      2.00000
      7      -0.6283      2.00000
      8       1.4489      2.00000
      9       1.5906      2.00000
     10       3.0756      2.00000
     11       3.4963      2.00000
     12       5.0514      2.00000
     13       8.1175      0.00000
     14       9.0675      0.00000
     15       9.4649      0.00000
     16       9.9936      0.00000

 k-point     9 :      -0.4000    0.4000    0.0000
  band No.  band energies     occupation 
      1     -18.5026      2.00000
      2     -18.4791      2.00000
      3     -18.4300      2.00000
      4      -7.5643      2.00000
      5      -7.2600      2.00000
      6      -3.0357      2.00000
      7      -0.5053      2.00000
      8       0.2094      2.00000
      9       1.1957      2.00000
     10       2.7382      2.00000
     11       3.0882      2.00000
     12       5.8810      2.00000
     13       9.1592      0.00000
     14       9.1921      0.00000
     15       9.8456      0.00000
     16      10.4318      0.00000

 k-point    10 :       0.2000    0.2000    0.2000
  band No.  band energies     occupation 
      1     -18.4552      2.00000
      2     -18.4552      2.00000
      3     -18.4442      2.00000
      4      -9.7608      2.00000
      5      -7.8528      2.00000
      6      -1.4114      2.00000
      7       2.7632      2.00000
      8       3.5002      2.00000
      9       3.5002      2.00000
     10       3.5378      2.00000
     11       3.5378      2.00000
     12       6.0651      2.00000
     13       7.7147      0.00000
     14       8.7368      0.00000
     15       8.7368      0.00000
     16       9.6360      0.00000

 k-point    11 :       0.4000    0.2000    0.2000
  band No.  band energies     occupation 
      1     -18.4740      2.00000
      2     -18.4594      2.00000
      3     -18.4396      2.00000
      4      -9.2935      2.00000
      5      -7.6145      2.00000
      6      -1.3037      2.00000
      7       0.9978      2.00000
      8       2.0175      2.00000
      9       2.4134      2.00000
     10       2.8097      2.00000
     11       3.7780      2.00000
     12       6.6266      0.00000
     13       8.6905      0.00000
     14       9.3974      0.00000
     15       9.5216      0.00000
     16      10.0574      0.00000

 k-point    12 :      -0.4000    0.2000    0.2000
  band No.  band energies     occupation 
      1     -18.5042      2.00000
      2     -18.4663      2.00000
      3     -18.4322      2.00000
      4      -8.1511      2.00000
      5      -7.2764      2.00000
      6      -2.6297      2.00000
      7      -0.5146      2.00000
      8       1.4800      2.00000
      9       1.6028      2.00000
     10       2.6256      2.00000
     11       3.4622      2.00000
     12       5.2193      2.00000
     13       8.5358      0.00000
     14       8.9655      0.00000
     15      10.1499      0.00000
     16      10.2602      0.00000

 k-point    13 :      -0.2000    0.2000    0.2000
  band No.  band energies     occupation 
      1     -18.5042      2.00000
      2     -18.4663      2.00000
      3     -18.4322      2.00000
      4      -8.1687      2.00000
      5      -7.2518      2.00000
      6      -2.5945      2.00000
      7      -0.5843      2.00000
      8       1.2195      2.00000
      9       1.5977      2.00000
     10       3.0168      2.00000
     11       3.4753      2.00000
     12       5.2160      2.00000
     13       8.4122      0.00000
     14       9.3293      0.00000
     15       9.8879      0.00000
     16      10.1144      0.00000

 k-point    14 :       0.4000    0.4000    0.2000
  band No.  band energies     occupation 
      1     -18.4740      2.00000
      2     -18.4594      2.00000
      3     -18.4395      2.00000
      4      -9.2820      2.00000
      5      -7.6382      2.00000
      6      -1.2071      2.00000
      7       0.7935      2.00000
      8       2.2653      2.00000
      9       2.3925      2.00000
     10       2.7023      2.00000
     11       3.8220      2.00000
     12       6.5872      0.00000
     13       8.2044      0.00000
     14       9.4712      0.00000
     15       9.5042      0.00000
     16      10.8570      0.00000

 k-point    15 :      -0.4000    0.4000    0.2000
  band No.  band energies     occupation 
      1     -18.4935      2.00000
      2     -18.4698      2.00000
      3     -18.4336      2.00000
      4      -8.4672      2.00000
      5      -7.2918      2.00000
      6      -2.0493      2.00000
      7      -0.1454      2.00000
      8       0.6771      2.00000
      9       2.0210      2.00000
     10       2.6045      2.00000
     11       3.0589      2.00000
     12       6.4972      0.00000
     13       8.3022      0.00000
     14       9.9043      0.00000
     15      10.3141      0.00000
     16      10.6522      0.00000

 k-point    16 :      -0.2000    0.4000    0.2000
  band No.  band energies     occupation 
      1     -18.5026      2.00000
      2     -18.4791      2.00000
      3     -18.4300      2.00000
      4      -7.5634      2.00000
      5      -7.2632      2.00000
      6      -3.0236      2.00000
      7      -0.4793      2.00000
      8       0.2296      2.00000
      9       1.1380      2.00000
     10       2.6701      2.00000
     11       3.0352      2.00000
     12       6.0184      2.00000
     13       8.8907      0.00000
     14       9.8324      0.00000
     15      10.0119      0.00000
     16      10.4858      0.00000

[...]
 -----------------------------------------------------------------------------------------------
   -.400E-12 -.613E-08 0.166E+00   -.119E-14 0.260E-14 0.000E+00   -.445E-17 0.802E-12 -.161E+00   0.709E-09 -.243E-10 -.239E-02


 POSITION                                       TOTAL-FORCE (eV/Angst)
 -----------------------------------------------------------------------------------
      0.00000     -0.00000     10.04454         0.000000      0.000000     -0.013088
      0.00000      0.00000      0.00000        -0.000000      0.000000     -0.180462
      0.00000     -0.00000     14.71501        -0.000000     -0.000000      0.277215
     -0.00000     -0.00000      5.34407         0.000000      0.000000     -0.083664
 -----------------------------------------------------------------------------------
    total drift:                                0.000000     -0.000000      0.002547


--------------------------------------------------------------------------------------------------------



  FREE ENERGIE OF THE ION-ELECTRON SYSTEM (eV)
  ---------------------------------------------------
  free  energy   TOTEN  =       -17.37901167 eV

  energy  without entropy=      -17.37840700  energy(sigma->0) =      -17.37870934

 d Force =-0.3210649E-02[-0.416E-02,-0.226E-02]  d Energy =-0.3171068E-02-0.396E-04
 d Force =-0.3279434E+00[-0.346E+00,-0.310E+00]  d Ewald  =-0.3279558E+00 0.124E-04


--------------------------------------------------------------------------------------------------------


    POTLOK:  cpu time      0.0224: real time      0.0224


--------------------------------------------------------------------------------------------------------


 Finite differences progress:
  Degree of freedom:  12/ 12
  Displacement:        4/  4
  Total:              48/ 48


--------------------------------------------------------------------------------------------------------



  ELASTIC MODULI  (kBar)
 Direction    XX          YY          ZZ          XY          YZ          ZX
 --------------------------------------------------------------------------------
 XX        1332.7622    322.7034    308.8857      0.0000     76.3886     -0.0000
 YY         317.0668   1363.1904    307.4454     -0.0000    -77.3975     -0.0000
 ZZ         307.4930    307.4930   1342.3923      0.0000     -0.0000     -0.0000
 XY           1.8788      1.8671      1.7196    502.8908      0.0353     79.4667
 YZ          78.1465    -71.8348      1.8613     -0.0000    602.8341     -0.0000
 ZX           0.8232      0.6289      0.2980     73.2576      0.0769    594.7523
 --------------------------------------------------------------------------------


  SYMMETRIZED ELASTIC MODULI (kBar)
 Direction    XX          YY          ZZ          XY          YZ          ZX
 --------------------------------------------------------------------------------
 XX        1342.3989    325.4625    307.8293     -0.0000     76.1520      0.0000
 YY         325.4625   1342.3989    307.8293      0.0000    -76.1520      0.0000
 ZZ         307.8293    307.8293   1342.3923      0.0000     -0.0000      0.0000
 XY           0.0000      0.0000      0.0000    508.4682      0.0000     76.1520
 YZ          76.1520    -76.1520     -0.0000      0.0000    598.7932      0.0000
 ZX           0.0000      0.0000      0.0000     76.1520      0.0000    598.7932
 --------------------------------------------------------------------------------

 INTERNAL STRAIN TENSORS FROM STRAINED CELLS
 ============================================

 INTERNAL STRAIN TENSOR FOR ION    1 for displacements in x,y,z  (eV/Angst):
          X           Y           Z          XY          YZ          ZX
  --------------------------------------------------------------------------------
  x    -0.00000     0.00000     0.00000     0.00000    -0.00000    -0.00000
  y     0.00000    -0.00000    -0.00000    -0.00000     0.00000     0.00000
  z     0.00000    -0.00000     0.00000    -0.00000     0.00000    -0.00000

 INTERNAL STRAIN TENSOR FOR ION    2 for displacements in x,y,z  (eV/Angst):
          X           Y           Z          XY          YZ          ZX
  --------------------------------------------------------------------------------
  x    -0.00000     0.00000     0.00000     0.00000    -0.00000    -0.00000
  y     0.00000    -0.00000    -0.00000    -0.00000    -0.00000     0.00000
  z     0.00000    -0.00000     0.00000    -0.00000     0.00000    -0.00000

 INTERNAL STRAIN TENSOR FOR ION    3 for displacements in x,y,z  (eV/Angst):
          X           Y           Z          XY          YZ          ZX
  --------------------------------------------------------------------------------
  x     0.00000    -0.00000     0.00000     0.53580     0.00000    -5.89007
  y     0.50032    -0.35206     0.00000    -0.00007    -5.95011    -0.00059
  z    -1.15077    -1.08804    -8.25097    -0.00073     0.00616     0.00003

 INTERNAL STRAIN TENSOR FOR ION    4 for displacements in x,y,z  (eV/Angst):
          X           Y           Z          XY          YZ          ZX
  --------------------------------------------------------------------------------
  x     0.00000    -0.00000    -0.00000    -0.53580    -0.00000     5.89007
  y    -0.50032     0.35206    -0.00000     0.00007     5.95011     0.00059
  z     1.15077     1.08804     8.25097     0.00073    -0.00616    -0.00003

 INTERNAL STRAIN TENSORS FROM DISPLACED ATOMS
 ============================================

 INTERNAL STRAIN TENSOR FOR ION    1 for displacements in x,y,z  (eV/Angst):
          X           Y           Z          XY          YZ          ZX
  --------------------------------------------------------------------------------
  x     0.00000     0.00000     0.00000     0.00000     0.00000     0.00000
  y     0.00000     0.00000     0.00000     0.00000     0.00000     0.00000
  z     0.00000     0.00000     0.00000     0.00000     0.00000     0.00000

 INTERNAL STRAIN TENSOR FOR ION    2 for displacements in x,y,z  (eV/Angst):
          X           Y           Z          XY          YZ          ZX
  --------------------------------------------------------------------------------
  x     0.00000     0.00000     0.00000     0.00000     0.00000     0.00000
  y     0.00000     0.00000     0.00000     0.00000     0.00000     0.00000
  z     0.00000     0.00000     0.00000     0.00000     0.00000     0.00000

 INTERNAL STRAIN TENSOR FOR ION    3 for displacements in x,y,z  (eV/Angst):
          X           Y           Z          XY          YZ          ZX
  --------------------------------------------------------------------------------
  x     0.00000    -0.00000    -0.00000     0.82524    -0.00000    -6.07735
  y     0.82524    -0.82524     0.00000    -0.00000    -6.07735    -0.00000
  z    -1.22578    -1.22578    -8.31112     0.00000     0.00000    -0.00000

 INTERNAL STRAIN TENSOR FOR ION    4 for displacements in x,y,z  (eV/Angst):
          X           Y           Z          XY          YZ          ZX
  --------------------------------------------------------------------------------
  x    -0.00000     0.00000     0.00000    -0.82524     0.00000     6.07735
  y    -0.82524     0.82524    -0.00000     0.00000     6.07735     0.00000
  z     1.22578     1.22578     8.31112    -0.00000    -0.00000     0.00000


--------------------------------------------------------------------------------------------------------



 Eigenvectors and eigenvalues of the dynamical matrix
 ----------------------------------------------------


   1 f  =   12.913693 THz    81.139125 2PiTHz  430.754428 cm-1    53.406718 meV
             X         Y         Z           dx          dy          dz
      0.000000 -0.000000 10.044537     0.000000   -0.000000    0.119496  
      0.000000  0.000000  0.000000    -0.000000    0.000000   -0.859070  
      0.000000 -0.000000 14.745006     0.000000   -0.000000    0.351937  
     -0.000000 -0.000000  5.344069    -0.000000   -0.000000    0.351937  

   2 f  =    9.178977 THz    57.673216 2PiTHz  306.177731 cm-1    37.961183 meV
             X         Y         Z           dx          dy          dz
      0.000000 -0.000000 10.044537    -0.000000    0.000000   -0.000000  
      0.000000  0.000000  0.000000    -0.000000    0.000000    0.000000  
      0.000000 -0.000000 14.745006    -0.000000    0.000000   -0.707107  
     -0.000000 -0.000000  5.344069     0.000000   -0.000000    0.707107  

   3 f  =    6.787642 THz    42.648011 2PiTHz  226.411360 cm-1    28.071418 meV
             X         Y         Z           dx          dy          dz
      0.000000 -0.000000 10.044537    -0.000000   -0.000000    0.000000  
      0.000000  0.000000  0.000000     0.000000   -0.000000   -0.000000  
      0.000000 -0.000000 14.745006    -0.707107   -0.000001    0.000000  
     -0.000000 -0.000000  5.344069     0.707107    0.000001   -0.000000  

   4 f  =    6.787642 THz    42.648011 2PiTHz  226.411360 cm-1    28.071418 meV
             X         Y         Z           dx          dy          dz
      0.000000 -0.000000 10.044537     0.000000   -0.000000   -0.000000  
      0.000000  0.000000  0.000000     0.000000    0.000000   -0.000000  
      0.000000 -0.000000 14.745006     0.000001   -0.707107   -0.000000  
     -0.000000 -0.000000  5.344069    -0.000001    0.707107    0.000000  

   5 f  =    6.518861 THz    40.959213 2PiTHz  217.445803 cm-1    26.959831 meV
             X         Y         Z           dx          dy          dz
      0.000000 -0.000000 10.044537     0.085722   -0.000000   -0.000000  
      0.000000  0.000000  0.000000     0.816237   -0.000002    0.000000  
      0.000000 -0.000000 14.745006    -0.403986    0.000001    0.000000  
     -0.000000 -0.000000  5.344069    -0.403986    0.000001    0.000000  

   6 f  =    6.518861 THz    40.959213 2PiTHz  217.445803 cm-1    26.959831 meV
             X         Y         Z           dx          dy          dz
      0.000000 -0.000000 10.044537    -0.000000   -0.085722    0.000000  
      0.000000  0.000000  0.000000    -0.000002   -0.816237   -0.000000  
      0.000000 -0.000000 14.745006     0.000001    0.403986   -0.000000  
     -0.000000 -0.000000  5.344069     0.000001    0.403986   -0.000000  

   7 f  =    6.407340 THz    40.258504 2PiTHz  213.725852 cm-1    26.498616 meV
             X         Y         Z           dx          dy          dz
      0.000000 -0.000000 10.044537    -0.000000    0.000000   -0.881917  
      0.000000  0.000000  0.000000    -0.000000   -0.000000    0.138404  
      0.000000 -0.000000 14.745006     0.000000    0.000000    0.318643  
     -0.000000 -0.000000  5.344069     0.000000    0.000000    0.318643  

   8 f  =    4.189696 THz    26.324633 2PiTHz  139.753200 cm-1    17.327181 meV
             X         Y         Z           dx          dy          dz
      0.000000 -0.000000 10.044537     0.872081   -0.000000    0.000000  
      0.000000  0.000000  0.000000    -0.338769    0.000000    0.000000  
      0.000000 -0.000000 14.745006    -0.249710    0.000000    0.000000  
     -0.000000 -0.000000  5.344069    -0.249710    0.000000    0.000000  

   9 f  =    4.189696 THz    26.324633 2PiTHz  139.753200 cm-1    17.327181 meV
             X         Y         Z           dx          dy          dz
      0.000000 -0.000000 10.044537    -0.000000   -0.872081   -0.000000  
      0.000000  0.000000  0.000000     0.000000    0.338769    0.000000  
      0.000000 -0.000000 14.745006     0.000000    0.249710    0.000000  
     -0.000000 -0.000000  5.344069     0.000000    0.249710    0.000000  

  10 f/i=    0.068232 THz     0.428714 2PiTHz    2.275970 cm-1     0.282184 meV
             X         Y         Z           dx          dy          dz
      0.000000 -0.000000 10.044537     0.000000   -0.000000   -0.456009  
      0.000000  0.000000  0.000000     0.000000   -0.000000   -0.492791  
      0.000000 -0.000000 14.745006     0.000000   -0.000000   -0.524029  
     -0.000000 -0.000000  5.344069     0.000000   -0.000000   -0.524029  

  11 f/i=    0.198601 THz     1.247845 2PiTHz    6.624605 cm-1     0.821346 meV
             X         Y         Z           dx          dy          dz
      0.000000 -0.000000 10.044537     0.000402   -0.481795    0.000000  
      0.000000  0.000000  0.000000     0.000390   -0.467967    0.000000  
      0.000000 -0.000000 14.745006     0.000437   -0.523870    0.000000  
     -0.000000 -0.000000  5.344069     0.000437   -0.523870    0.000000  

  12 f/i=    0.198601 THz     1.247845 2PiTHz    6.624605 cm-1     0.821346 meV
             X         Y         Z           dx          dy          dz
      0.000000 -0.000000 10.044537    -0.481795   -0.000402   -0.000000  
      0.000000  0.000000  0.000000    -0.467967   -0.000390   -0.000000  
      0.000000 -0.000000 14.745006    -0.523870   -0.000437   -0.000000  
     -0.000000 -0.000000  5.344069    -0.523870   -0.000437   -0.000000  



--------------------------------------------------------------------------------------------------------



 ELASTIC MODULI CONTR FROM IONIC RELAXATION (kBar)
 Direction    XX          YY          ZZ          XY          YZ          ZX
 --------------------------------------------------------------------------------
 XX         -10.9913     -1.0284    -40.7485     -0.0000     36.6848      0.0000
 YY          -1.0284    -10.9913    -40.7485     -0.0000    -36.6848      0.0000
 ZZ         -40.7485    -40.7485   -276.2855     -0.0000      0.0000      0.0000
 XY          -0.0000     -0.0000     -0.0000     -4.9814     -0.0000     36.6848
 YZ          36.6848    -36.6848      0.0000     -0.0000   -270.1582      0.0000
 ZX           0.0000      0.0000      0.0000     36.6848      0.0000   -270.1580
 --------------------------------------------------------------------------------


 TOTAL ELASTIC MODULI (kBar)
 Direction    XX          YY          ZZ          XY          YZ          ZX
 --------------------------------------------------------------------------------
 XX        1331.4076    324.4340    267.0808     -0.0000    112.8368      0.0000
 YY         324.4340   1331.4076    267.0808      0.0000   -112.8368      0.0000
 ZZ         267.0808    267.0808   1066.1068      0.0000     -0.0000      0.0000
 XY           0.0000      0.0000      0.0000    503.4868      0.0000    112.8368
 YZ         112.8368   -112.8368     -0.0000      0.0000    328.6350      0.0000
 ZX           0.0000      0.0000      0.0000    112.8368      0.0000    328.6351
 --------------------------------------------------------------------------------



--------------------------------------------------------------------------------------------------------


  LATTYP: Found a trigonal (rhomboedric) cell.
 ALAT       =     7.0004864999
 COS(alpha) =     0.8724988307
  
  Lattice vectors:
  
 A1 = (   1.7675443044,   1.0204921799,   6.6963567765)
 A2 = (  -1.7675443044,   1.0204921799,   6.6963567765)
 A3 = (  -0.0000000000,  -2.0409843599,   6.6963567765)


Analysis of symmetry for initial positions (statically):
=====================================================================
 Subroutine PRICEL returns:
 Original cell was already a primitive cell.
 

 Routine SETGRP: Setting up the symmetry group for a 
 trigonal (rhombohedral) supercell.


 Subroutine GETGRP returns: Found 12 space group operations
 (whereof 12 operations were pure point group operations)
 out of a pool of 12 trial point group operations.


The static configuration has the point symmetry D_3d.


Analysis of symmetry for dynamics (positions and initial velocities):
=====================================================================
 Subroutine PRICEL returns:
 Original cell was already a primitive cell.
 

 Routine SETGRP: Setting up the symmetry group for a 
 trigonal (rhombohedral) supercell.


 Subroutine GETGRP returns: Found 12 space group operations
 (whereof 12 operations were pure point group operations)
 out of a pool of 12 trial point group operations.


The dynamic configuration has the point symmetry D_3d.


 Subroutine INISYM returns: Found 12 space group operations
 (whereof 12 operations are pure point group operations),
 and found     1 'primitive' translations


 KPOINTS: pymatgen with grid density = 600 / numbe

Automatic generation of k-mesh.
 Grid dimensions read from file:
 generate k-points for:    5    5    5

 Generating k-lattice:

  Cartesian coordinates                     Fractional coordinates (reciprocal lattice)
     0.056575668  0.032663977  0.009955662     0.200000000 -0.000000000 -0.000000000
    -0.056575668  0.032663977  0.009955662     0.000000000  0.200000000 -0.000000000
    -0.000000000 -0.065327954  0.009955662    -0.000000000 -0.000000000  0.200000000

  Length of vectors
     0.066082198  0.066082198  0.066082198

  Shift w.r.t. Gamma in fractional coordinates (k-lattice)
     0.000000000  0.000000000  0.000000000

 
 Subroutine IBZKPT returns following result:
 ===========================================
 
 Found     19 irreducible k-points:
 
 Following reciprocal coordinates:
            Coordinates               Weight
  0.000000  0.000000  0.000000      1.000000
  0.200000  0.000000  0.000000      6.000000
  0.400000  0.000000  0.000000      6.000000
  0.200000  0.200000  0.000000      6.000000
  0.400000  0.200000  0.000000     12.000000
 -0.400000  0.200000  0.000000     12.000000
 -0.200000  0.200000  0.000000      6.000000
  0.400000  0.400000  0.000000      6.000000
 -0.400000  0.400000  0.000000      6.000000
  0.200000  0.200000  0.200000      2.000000
  0.400000  0.200000  0.200000      6.000000
 -0.400000  0.200000  0.200000      6.000000
 -0.200000  0.200000  0.200000      6.000000
  0.400000  0.400000  0.200000      6.000000
 -0.400000  0.400000  0.200000     12.000000
 -0.200000  0.400000  0.200000     12.000000
 -0.400000 -0.400000  0.200000      6.000000
  0.400000  0.400000  0.400000      2.000000
 -0.400000  0.400000  0.400000      6.000000
 
 Following cartesian coordinates:
            Coordinates               Weight
  0.000000  0.000000  0.000000      1.000000
  0.056576  0.032664  0.009956      6.000000
  0.113151  0.065328  0.019911      6.000000
  0.000000  0.065328  0.019911      6.000000
  0.056576  0.097992  0.029867     12.000000
 -0.169727 -0.032664 -0.009956     12.000000
 -0.113151 -0.000000  0.000000      6.000000
  0.000000  0.130656  0.039823      6.000000
 -0.226303  0.000000  0.000000      6.000000
  0.000000  0.000000  0.029867      2.000000
  0.056576  0.032664  0.039823      6.000000
 -0.169727 -0.097992 -0.000000      6.000000
 -0.113151 -0.065328  0.009956      6.000000
  0.000000  0.065328  0.049778      6.000000
 -0.226303 -0.065328  0.009956     12.000000
 -0.169727 -0.032664  0.019911     12.000000
 -0.000000 -0.195984 -0.029867      6.000000
  0.000000  0.000000  0.059734      2.000000
 -0.226303 -0.130656  0.019911      6.000000
 
     LOOP+:  cpu time      3.4497: real time      3.4854
    4ORBIT:  cpu time      0.0000: real time      0.0000

 total amount of memory used by VASP MPI-rank0    39418. kBytes
=======================================================================

   base      :      30000. kBytes
   nonlr-proj:       1831. kBytes
   fftplans  :       1814. kBytes
   grid      :       4935. kBytes
   one-center:         12. kBytes
   wavefun   :        826. kBytes

  
  
 General timing and accounting informations for this job:
 ========================================================
  
                  Total CPU time used (sec):      376.060
                            User time (sec):      375.114
                          System time (sec):        0.946
                         Elapsed time (sec):      378.616
  
                   Maximum memory used (kb):      123784.
                   Average memory used (kb):          N/A
  
                          Minor page faults:        37544
                          Major page faults:           81
                 Voluntary context switches:         1409
