 vasp.6.3.2 27Jun22 (build Jun 14 2024 17:29:11) complex                         
 executed on             LinuxGNU date 2026.03.30  04:26:00
 running on   32 total cores
 distrk:  each k-point on   32 cores,    1 groups
 distr:  one band on NCORE=   1 cores,   32 groups


--------------------------------------------------------------------------------------------------------


 INCAR:
   EDIFF = 1e-06
   ENCUT = 400.0
   IBRION = 6
   ISIF = 3
   ISMEAR = 0
   LCHARG = False
   LREAL = Auto
   LWAVE = False
   NFREE = 4
   NSW = 1
   POTIM = 0.015
   SIGMA = 0.05

 POTCAR:    PAW_PBE Na_pv 19Sep2006               
 POTCAR:    PAW_PBE Si 05Jan2001                  
 POTCAR:    PAW_PBE S 06Sep2000                   
 -----------------------------------------------------------------------------
|                                                                             |
|           W    W    AA    RRRRR   N    N  II  N    N   GGGG   !!!           |
|           W    W   A  A   R    R  NN   N  II  NN   N  G    G  !!!           |
|           W    W  A    A  R    R  N N  N  II  N N  N  G       !!!           |
|           W WW W  AAAAAA  RRRRR   N  N N  II  N  N N  G  GGG   !            |
|           WW  WW  A    A  R   R   N   NN  II  N   NN  G    G                |
|           W    W  A    A  R    R  N    N  II  N    N   GGGG   !!!           |
|                                                                             |
|     For optimal performance we recommend to set                             |
|       NCORE = 2 up to number-of-cores-per-socket                            |
|     NCORE specifies how many cores store one orbital (NPAR=cpu/NCORE).      |
|     This setting can greatly improve the performance of VASP for DFT.       |
|     The default, NCORE=1 might be grossly inefficient on modern             |
|     multi-core architectures or massively parallel machines. Do your        |
|     own testing! More info at https://www.vasp.at/wiki/index.php/NCORE      |
|     Unfortunately you need to use the default for GW and RPA                |
|     calculations (for HF NCORE is supported but not extensively tested      |
|     yet).                                                                   |
|                                                                             |
 -----------------------------------------------------------------------------

 POTCAR:    PAW_PBE Na_pv 19Sep2006               
   SHA256 =  6a2f546d9e11350984debacf3dc457d8cffc0868e817d445faca461816a32b94 Na_pv/POTCAR          
   COPYR  = (c) Copyright 19Sep2006 Georg Kresse                                                    
   COPYR  = This file is part of the software VASP. Any use, copying, and all other rights are regul
   COPYR  = If you do not have a valid VASP license, you may not use, copy or distribute this file. 
   VRHFIN =Na: p6s1                                                                                 
   LEXCH  = PE                                                                                      
   EATOM  =   766.0439 eV,   56.3026 Ry                                                             
                                                                                                    
   TITEL  = PAW_PBE Na_pv 19Sep2006                                                                 
   LULTRA =        F    use ultrasoft PP ?                                                          
   IUNSCR =        1    unscreen: 0-lin 1-nonlin 2-no                                               
   RPACOR =    1.800    partial core radius                                                         
   POMASS =   22.990; ZVAL   =    7.000    mass and valenz                                          
   RCORE  =    2.200    outmost cutoff radius                                                       
   RWIGS  =    2.200; RWIGS  =    1.164    wigner-seitz radius (au A)                               
   ENMAX  =  259.561; ENMIN  =  194.671 eV                                                          
   ICORE  =        2    local potential                                                             
   LCOR   =        T    correct aug charges                                                         
   LPAW   =        T    paw PP                                                                      
   EAUG   =  368.056                                                                                
   DEXC   =    0.000                                                                                
   RMAX   =    2.245    core radius for proj-oper                                                   
   RAUG   =    1.300    factor for augmentation sphere                                              
   RDEP   =    2.259    radius for radial grids                                                     
   RDEPT  =    1.738    core radius for aug-charge                                                  
                                                                                                    
   Atomic configuration                                                                             
    5 entries                                                                                       
     n  l   j            E        occ.                                                              
     1  0  0.50     -1033.6933   2.0000                                                             
     2  0  0.50       -56.7526   2.0000                                                             
     2  1  1.50       -28.6721   6.0000                                                             
     3  0  0.50        -2.7440   1.0000                                                             
     3  2  1.50        -1.3606   0.0000                                                             
   Description                                                                                      
     l       E           TYP  RCUT    TYP  RCUT                                                     
     1    -28.6720912     23  2.000                                                                 
     1      6.8029130     23  2.000                                                                 
     0     -2.7439560     23  2.200                                                                 
     0     34.0145650     23  2.200                                                                 
     2     -1.3605826     23  2.200                                                                 
  local pseudopotential read in
  partial core-charges read in
  partial kinetic energy density read in
  atomic valenz-charges read in
  non local Contribution for L=           1  read in
    real space projection operators read in
  non local Contribution for L=           1  read in
    real space projection operators read in
  non local Contribution for L=           0  read in
    real space projection operators read in
  non local Contribution for L=           0  read in
    real space projection operators read in
    PAW grid and wavefunctions read in

   number of l-projection  operators is LMAX  =           4
   number of lm-projection operators is LMMAX =           8

 POTCAR:    PAW_PBE Si 05Jan2001                  
   SHA256 =  79d9987ad8750f624c4d6acb2a16d13abf6a777132adc04dc6c8399be72b42bb Si/POTCAR             
   COPYR  = (c) Copyright 05Jan2001 Georg Kresse                                                    
   COPYR  = This file is part of the software VASP. Any use, copying, and all other rights are regul
   COPYR  = If you do not have a valid VASP license, you may not use, copy or distribute this file. 
   VRHFIN =Si: s2p2                                                                                 
   LEXCH  = PE                                                                                      
   EATOM  =   103.0669 eV,    7.5752 Ry                                                             
                                                                                                    
   TITEL  = PAW_PBE Si 05Jan2001                                                                    
   LULTRA =        F    use ultrasoft PP ?                                                          
   IUNSCR =        1    unscreen: 0-lin 1-nonlin 2-no                                               
   RPACOR =    1.500    partial core radius                                                         
   POMASS =   28.085; ZVAL   =    4.000    mass and valenz                                          
   RCORE  =    1.900    outmost cutoff radius                                                       
   RWIGS  =    2.480; RWIGS  =    1.312    wigner-seitz radius (au A)                               
   ENMAX  =  245.345; ENMIN  =  184.009 eV                                                          
   ICORE  =        2    local potential                                                             
   LCOR   =        T    correct aug charges                                                         
   LPAW   =        T    paw PP                                                                      
   EAUG   =  322.069                                                                                
   DEXC   =    0.000                                                                                
   RMAX   =    1.950    core radius for proj-oper                                                   
   RAUG   =    1.300    factor for augmentation sphere                                              
   RDEP   =    1.993    radius for radial grids                                                     
   RDEPT  =    1.837    core radius for aug-charge                                                  
                                                                                                    
   Atomic configuration                                                                             
    6 entries                                                                                       
     n  l   j            E        occ.                                                              
     1  0  0.50     -1785.8828   2.0000                                                             
     2  0  0.50      -139.4969   2.0000                                                             
     2  1  1.50       -95.5546   6.0000                                                             
     3  0  0.50       -10.8127   2.0000                                                             
     3  1  0.50        -4.0811   2.0000                                                             
     3  2  1.50        -4.0817   0.0000                                                             
   Description                                                                                      
     l       E           TYP  RCUT    TYP  RCUT                                                     
     0    -10.8127223     23  1.900                                                                 
     0     -7.6451159     23  1.900                                                                 
     1     -4.0811372     23  1.900                                                                 
     1      2.4879257     23  1.900                                                                 
     2     -4.0817478      7  1.900                                                                 
  local pseudopotential read in
  partial core-charges read in
  partial kinetic energy density read in
  atomic valenz-charges read in
  non local Contribution for L=           0  read in
    real space projection operators read in
  non local Contribution for L=           0  read in
    real space projection operators read in
  non local Contribution for L=           1  read in
    real space projection operators read in
  non local Contribution for L=           1  read in
    real space projection operators read in
    PAW grid and wavefunctions read in

   number of l-projection  operators is LMAX  =           4
   number of lm-projection operators is LMMAX =           8

 POTCAR:    PAW_PBE S 06Sep2000                   
   SHA256 =  0fc7481fb0695f01bdc6462160264c5c84044ae9ec85a907d398b887a2bc3132 S/POTCAR              
   COPYR  = (c) Copyright 06Sep2000 Georg Kresse                                                    
   COPYR  = This file is part of the software VASP. Any use, copying, and all other rights are regul
   COPYR  = If you do not have a valid VASP license, you may not use, copy or distribute this file. 
   VRHFIN =S : s2p4                                                                                 
   LEXCH  = PE                                                                                      
   EATOM  =   276.8230 eV,   20.3459 Ry                                                             
                                                                                                    
   TITEL  = PAW_PBE S 06Sep2000                                                                     
   LULTRA =        F    use ultrasoft PP ?                                                          
   IUNSCR =        1    unscreen: 0-lin 1-nonlin 2-no                                               
   RPACOR =    1.500    partial core radius                                                         
   POMASS =   32.066; ZVAL   =    6.000    mass and valenz                                          
   RCORE  =    1.900    outmost cutoff radius                                                       
   RWIGS  =    2.200; RWIGS  =    1.164    wigner-seitz radius (au A)                               
   ENMAX  =  258.689; ENMIN  =  194.016 eV                                                          
   ICORE  =        2    local potential                                                             
   LCOR   =        T    correct aug charges                                                         
   LPAW   =        T    paw PP                                                                      
   EAUG   =  335.092                                                                                
   DEXC   =    0.000                                                                                
   RMAX   =    1.942    core radius for proj-oper                                                   
   RAUG   =    1.300    factor for augmentation sphere                                              
   RDEP   =    1.954    radius for radial grids                                                     
   RDEPT  =    1.744    core radius for aug-charge                                                  
                                                                                                    
   Atomic configuration                                                                             
    6 entries                                                                                       
     n  l   j            E        occ.                                                              
     1  0  0.50     -2405.8406   2.0000                                                             
     2  0  0.50      -211.7007   2.0000                                                             
     2  1  1.50      -156.4958   6.0000                                                             
     3  0  0.50       -17.2562   2.0000                                                             
     3  1  0.50        -7.0085   4.0000                                                             
     3  2  1.50        -6.8029   0.0000                                                             
   Description                                                                                      
     l       E           TYP  RCUT    TYP  RCUT                                                     
     0    -17.2561641     23  1.900                                                                 
     0    -15.8743224     23  1.900                                                                 
     1     -7.0085400     23  1.900                                                                 
     1     -2.7779785     23  1.900                                                                 
     2     -6.8029130     23  1.900                                                                 
  local pseudopotential read in
  partial core-charges read in
  partial kinetic energy density read in
  atomic valenz-charges read in
  non local Contribution for L=           0  read in
    real space projection operators read in
  non local Contribution for L=           0  read in
    real space projection operators read in
  non local Contribution for L=           1  read in
    real space projection operators read in
  non local Contribution for L=           1  read in
    real space projection operators read in
    PAW grid and wavefunctions read in

   number of l-projection  operators is LMAX  =           4
   number of lm-projection operators is LMMAX =           8

 -----------------------------------------------------------------------------
|                                                                             |
|               ----> ADVICE to this user running VASP <----                  |
|                                                                             |
|     You have a (more or less) 'small supercell' and for smaller cells       |
|     it is recommended to use the reciprocal-space projection scheme!        |
|     The real-space optimization is not efficient for small cells and it     |
|     is also less accurate ...                                               |
|     Therefore, set LREAL=.FALSE. in the INCAR file.                         |
|                                                                             |
 -----------------------------------------------------------------------------

 Optimization of the real space projectors (new method)

 maximal supplied QI-value         = 17.01
 optimisation between [QCUT,QGAM] = [ 10.20, 20.41] = [ 29.16,116.64] Ry 
 Optimized for a Real-space Cutoff    1.30 Angstroem

   l    n(q)    QCUT    max X(q) W(low)/X(q) W(high)/X(q)  e(spline) 
   1      7    10.205     4.940    0.23E-03    0.84E-03    0.11E-06
   1      7    10.205     6.253    0.40E-03    0.13E-02    0.18E-06
   0      8    10.205    37.438    0.23E-03    0.37E-03    0.42E-07
   0      8    10.205     9.606    0.16E-03    0.26E-03    0.31E-07
 Optimization of the real space projectors (new method)

 maximal supplied QI-value         = 19.84
 optimisation between [QCUT,QGAM] = [ 10.12, 20.44] = [ 28.68,116.96] Ry 
 Optimized for a Real-space Cutoff    1.23 Angstroem

   l    n(q)    QCUT    max X(q) W(low)/X(q) W(high)/X(q)  e(spline) 
   0      7    10.119   159.560    0.56E-04    0.22E-03    0.45E-07
   0      7    10.119   115.863    0.56E-04    0.21E-03    0.45E-07
   1      7    10.119    88.339    0.34E-03    0.49E-03    0.11E-06
   1      7    10.119    48.592    0.33E-03    0.48E-03    0.11E-06
 Optimization of the real space projectors (new method)

 maximal supplied QI-value         = 19.84
 optimisation between [QCUT,QGAM] = [ 10.12, 20.44] = [ 28.68,116.96] Ry 
 Optimized for a Real-space Cutoff    1.23 Angstroem

   l    n(q)    QCUT    max X(q) W(low)/X(q) W(high)/X(q)  e(spline) 
   0      7    10.119   187.594    0.62E-04    0.28E-03    0.52E-07
   0      7    10.119   164.243    0.61E-04    0.28E-03    0.52E-07
   1      7    10.119    67.533    0.45E-03    0.63E-03    0.13E-06
   1      7    10.119    50.729    0.44E-03    0.62E-03    0.12E-06
  PAW_PBE Na_pv 19Sep2006               :
 energy of atom  1       EATOM= -766.0439
 kinetic energy error for atom=    0.0103 (will be added to EATOM!!)
  PAW_PBE Si 05Jan2001                  :
 energy of atom  2       EATOM= -103.0669
 kinetic energy error for atom=    0.0012 (will be added to EATOM!!)
  PAW_PBE S 06Sep2000                   :
 energy of atom  3       EATOM= -276.8230
 kinetic energy error for atom=    0.0046 (will be added to EATOM!!)


 POSCAR: Na1 Si1 S2
  positions in direct lattice
  velocities in cartesian coordinates
 exchange correlation table for  LEXCH =        8
   RHO(1)=    0.500       N(1)  =     2000
   RHO(2)=  100.500       N(2)  =     4000



--------------------------------------------------------------------------------------------------------


 ion  position               nearest neighbor table
   1  0.500  0.500  0.500-
   2  0.000  0.000  0.000-   4 2.45   4 2.45   4 2.45   3 2.45   3 2.45   3 2.45
   3  0.734  0.734  0.734-   2 2.45   2 2.45   2 2.45
   4  0.266  0.266  0.266-   2 2.45   2 2.45   2 2.45

  LATTYP: Found a trigonal (rhomboedric) cell.
 ALAT       =     7.0004864999
 COS(alpha) =     0.8724988307
  
  Lattice vectors:
  
 A1 = (   1.7675443044,   1.0204921799,   6.6963567765)
 A2 = (  -1.7675443044,   1.0204921799,   6.6963567765)
 A3 = (  -0.0000000000,  -2.0409843599,   6.6963567765)


Analysis of symmetry for initial positions (statically):
=====================================================================
 Subroutine PRICEL returns:
 Original cell was already a primitive cell.
 

 Routine SETGRP: Setting up the symmetry group for a 
 trigonal (rhombohedral) supercell.


 Subroutine GETGRP returns: Found 12 space group operations
 (whereof 12 operations were pure point group operations)
 out of a pool of 12 trial point group operations.


The static configuration has the point symmetry D_3d.


Analysis of symmetry for dynamics (positions and initial velocities):
=====================================================================
 Subroutine PRICEL returns:
 Original cell was already a primitive cell.
 

 Routine SETGRP: Setting up the symmetry group for a 
 trigonal (rhombohedral) supercell.


 Subroutine GETGRP returns: Found 12 space group operations
 (whereof 12 operations were pure point group operations)
 out of a pool of 12 trial point group operations.


The dynamic configuration has the point symmetry D_3d.


 Subroutine INISYM returns: Found 12 space group operations
 (whereof 12 operations are pure point group operations),
 and found     1 'primitive' translations


----------------------------------------------------------------------------------------

                                     Primitive cell                                     

  volume of cell :      72.4719

  direct lattice vectors                    reciprocal lattice vectors
     1.767544304  1.020492180  6.696356777     0.282878341  0.163319886  0.049778311
    -1.767544304  1.020492180  6.696356777    -0.282878341  0.163319886  0.049778311
    -0.000000000 -2.040984360  6.696356777    -0.000000000 -0.326639772  0.049778311

  length of vectors
     7.000486500  7.000486500  7.000486500     0.330410988  0.330410988  0.330410988

  position of ions in fractional coordinates (direct lattice)
     0.500000093  0.500000093  0.500000093
     0.000000000  0.000000000  0.000000000
     0.733981476  0.733981476  0.733981476
     0.266018709  0.266018709  0.266018709

  ion indices of the primitive-cell ions
   primitive index   ion index
                 1           1
                 2           2
                 3           3
                 4           4

----------------------------------------------------------------------------------------



 KPOINTS: pymatgen with grid density = 600 / numbe

Automatic generation of k-mesh.
 Grid dimensions read from file:
 generate k-points for:    5    5    5

 Generating k-lattice:

  Cartesian coordinates                     Fractional coordinates (reciprocal lattice)
     0.056575668  0.032663977  0.009955662     0.200000000 -0.000000000 -0.000000000
    -0.056575668  0.032663977  0.009955662     0.000000000  0.200000000 -0.000000000
    -0.000000000 -0.065327954  0.009955662    -0.000000000 -0.000000000  0.200000000

  Length of vectors
     0.066082198  0.066082198  0.066082198

  Shift w.r.t. Gamma in fractional coordinates (k-lattice)
     0.000000000  0.000000000  0.000000000

 
 Subroutine IBZKPT returns following result:
 ===========================================
 
 Found     19 irreducible k-points:
 
 Following reciprocal coordinates:
            Coordinates               Weight
  0.000000  0.000000  0.000000      1.000000
  0.200000  0.000000  0.000000      6.000000
  0.400000  0.000000  0.000000      6.000000
  0.200000  0.200000  0.000000      6.000000
  0.400000  0.200000  0.000000     12.000000
 -0.400000  0.200000  0.000000     12.000000
 -0.200000  0.200000  0.000000      6.000000
  0.400000  0.400000  0.000000      6.000000
 -0.400000  0.400000  0.000000      6.000000
  0.200000  0.200000  0.200000      2.000000
  0.400000  0.200000  0.200000      6.000000
 -0.400000  0.200000  0.200000      6.000000
 -0.200000  0.200000  0.200000      6.000000
  0.400000  0.400000  0.200000      6.000000
 -0.400000  0.400000  0.200000     12.000000
 -0.200000  0.400000  0.200000     12.000000
 -0.400000 -0.400000  0.200000      6.000000
  0.400000  0.400000  0.400000      2.000000
 -0.400000  0.400000  0.400000      6.000000
 
 Following cartesian coordinates:
            Coordinates               Weight
  0.000000  0.000000  0.000000      1.000000
  0.056576  0.032664  0.009956      6.000000
  0.113151  0.065328  0.019911      6.000000
  0.000000  0.065328  0.019911      6.000000
  0.056576  0.097992  0.029867     12.000000
 -0.169727 -0.032664 -0.009956     12.000000
 -0.113151 -0.000000  0.000000      6.000000
  0.000000  0.130656  0.039823      6.000000
 -0.226303  0.000000  0.000000      6.000000
  0.000000  0.000000  0.029867      2.000000
  0.056576  0.032664  0.039823      6.000000
 -0.169727 -0.097992 -0.000000      6.000000
 -0.113151 -0.065328  0.009956      6.000000
  0.000000  0.065328  0.049778      6.000000
 -0.226303 -0.065328  0.009956     12.000000
 -0.169727 -0.032664  0.019911     12.000000
 -0.000000 -0.195984 -0.029867      6.000000
  0.000000  0.000000  0.059734      2.000000
 -0.226303 -0.130656  0.019911      6.000000
 
 
 Subroutine IBZKPT_HF returns following result:
 ==============================================
 
 Found    125 k-points in 1st BZ
 the following    125 k-points will be used (e.g. in the exchange kernel)
 Following reciprocal coordinates:   # in IRBZ
  0.000000  0.000000  0.000000    0.00800000   1 t-inv F
  0.200000  0.000000  0.000000    0.00800000   2 t-inv F
  0.400000  0.000000  0.000000    0.00800000   3 t-inv F
  0.200000  0.200000  0.000000    0.00800000   4 t-inv F
  0.400000  0.200000  0.000000    0.00800000   5 t-inv F
 -0.400000  0.200000  0.000000    0.00800000   6 t-inv F
 -0.200000  0.200000  0.000000    0.00800000   7 t-inv F
  0.400000  0.400000  0.000000    0.00800000   8 t-inv F
 -0.400000  0.400000  0.000000    0.00800000   9 t-inv F
  0.200000  0.200000  0.200000    0.00800000  10 t-inv F
  0.400000  0.200000  0.200000    0.00800000  11 t-inv F
 -0.400000  0.200000  0.200000    0.00800000  12 t-inv F
 -0.200000  0.200000  0.200000    0.00800000  13 t-inv F
  0.400000  0.400000  0.200000    0.00800000  14 t-inv F
 -0.400000  0.400000  0.200000    0.00800000  15 t-inv F
 -0.200000  0.400000  0.200000    0.00800000  16 t-inv F
 -0.400000 -0.400000  0.200000    0.00800000  17 t-inv F
  0.400000  0.400000  0.400000    0.00800000  18 t-inv F
 -0.400000  0.400000  0.400000    0.00800000  19 t-inv F
 -0.200000 -0.000000 -0.000000    0.00800000   2 t-inv F
  0.000000  0.200000  0.000000    0.00800000   2 t-inv F
 -0.000000 -0.200000 -0.000000    0.00800000   2 t-inv F
  0.000000  0.000000  0.200000    0.00800000   2 t-inv F
 -0.000000 -0.000000 -0.200000    0.00800000   2 t-inv F
 -0.400000 -0.000000 -0.000000    0.00800000   3 t-inv F
  0.000000  0.400000  0.000000    0.00800000   3 t-inv F
 -0.000000 -0.400000 -0.000000    0.00800000   3 t-inv F
  0.000000  0.000000  0.400000    0.00800000   3 t-inv F
 -0.000000 -0.000000 -0.400000    0.00800000   3 t-inv F
 -0.200000 -0.200000 -0.000000    0.00800000   4 t-inv F
 -0.200000 -0.000000 -0.200000    0.00800000   4 t-inv F
  0.200000  0.000000  0.200000    0.00800000   4 t-inv F
  0.000000  0.200000  0.200000    0.00800000   4 t-inv F
 -0.000000 -0.200000 -0.200000    0.00800000   4 t-inv F
 -0.400000 -0.200000 -0.000000    0.00800000   5 t-inv F
 -0.400000 -0.000000 -0.200000    0.00800000   5 t-inv F
  0.400000  0.000000  0.200000    0.00800000   5 t-inv F
  0.000000  0.400000  0.200000    0.00800000   5 t-inv F
 -0.000000 -0.400000 -0.200000    0.00800000   5 t-inv F
 -0.200000 -0.400000 -0.000000    0.00800000   5 t-inv F
  0.200000  0.400000  0.000000    0.00800000   5 t-inv F
  0.200000  0.000000  0.400000    0.00800000   5 t-inv F
 -0.200000 -0.000000 -0.400000    0.00800000   5 t-inv F
 -0.000000 -0.200000 -0.400000    0.00800000   5 t-inv F
  0.000000  0.200000  0.400000    0.00800000   5 t-inv F
  0.400000 -0.200000 -0.000000    0.00800000   6 t-inv F
  0.400000 -0.000000 -0.200000    0.00800000   6 t-inv F
 -0.400000  0.000000  0.200000    0.00800000   6 t-inv F
  0.000000 -0.400000  0.200000    0.00800000   6 t-inv F
 -0.000000  0.400000 -0.200000    0.00800000   6 t-inv F
 -0.200000  0.400000 -0.000000    0.00800000   6 t-inv F
  0.200000 -0.400000  0.000000    0.00800000   6 t-inv F
  0.200000  0.000000 -0.400000    0.00800000   6 t-inv F
 -0.200000 -0.000000  0.400000    0.00800000   6 t-inv F
 -0.000000 -0.200000  0.400000    0.00800000   6 t-inv F
  0.000000  0.200000 -0.400000    0.00800000   6 t-inv F
  0.200000 -0.200000 -0.000000    0.00800000   7 t-inv F
  0.200000 -0.000000 -0.200000    0.00800000   7 t-inv F
 -0.200000  0.000000  0.200000    0.00800000   7 t-inv F
  0.000000 -0.200000  0.200000    0.00800000   7 t-inv F
 -0.000000  0.200000 -0.200000    0.00800000   7 t-inv F
 -0.400000 -0.400000 -0.000000    0.00800000   8 t-inv F
 -0.400000 -0.000000 -0.400000    0.00800000   8 t-inv F
  0.400000  0.000000  0.400000    0.00800000   8 t-inv F
  0.000000  0.400000  0.400000    0.00800000   8 t-inv F
 -0.000000 -0.400000 -0.400000    0.00800000   8 t-inv F
  0.400000 -0.400000 -0.000000    0.00800000   9 t-inv F
  0.400000 -0.000000 -0.400000    0.00800000   9 t-inv F
 -0.400000  0.000000  0.400000    0.00800000   9 t-inv F
  0.000000 -0.400000  0.400000    0.00800000   9 t-inv F
 -0.000000  0.400000 -0.400000    0.00800000   9 t-inv F
 -0.200000 -0.200000 -0.200000    0.00800000  10 t-inv F
 -0.400000 -0.200000 -0.200000    0.00800000  11 t-inv F
  0.200000  0.400000  0.200000    0.00800000  11 t-inv F
 -0.200000 -0.400000 -0.200000    0.00800000  11 t-inv F
  0.200000  0.200000  0.400000    0.00800000  11 t-inv F
 -0.200000 -0.200000 -0.400000    0.00800000  11 t-inv F
  0.400000 -0.200000 -0.200000    0.00800000  12 t-inv F
  0.200000 -0.400000  0.200000    0.00800000  12 t-inv F
 -0.200000  0.400000 -0.200000    0.00800000  12 t-inv F
  0.200000  0.200000 -0.400000    0.00800000  12 t-inv F
 -0.200000 -0.200000  0.400000    0.00800000  12 t-inv F
  0.200000 -0.200000 -0.200000    0.00800000  13 t-inv F
  0.200000 -0.200000  0.200000    0.00800000  13 t-inv F
 -0.200000  0.200000 -0.200000    0.00800000  13 t-inv F
  0.200000  0.200000 -0.200000    0.00800000  13 t-inv F
 -0.200000 -0.200000  0.200000    0.00800000  13 t-inv F
 -0.400000 -0.400000 -0.200000    0.00800000  14 t-inv F
 -0.400000 -0.200000 -0.400000    0.00800000  14 t-inv F
  0.400000  0.200000  0.400000    0.00800000  14 t-inv F
  0.200000  0.400000  0.400000    0.00800000  14 t-inv F
 -0.200000 -0.400000 -0.400000    0.00800000  14 t-inv F
  0.400000 -0.400000 -0.200000    0.00800000  15 t-inv F
  0.400000 -0.200000 -0.400000    0.00800000  15 t-inv F
 -0.400000  0.200000  0.400000    0.00800000  15 t-inv F
  0.200000 -0.400000  0.400000    0.00800000  15 t-inv F
 -0.200000  0.400000 -0.400000    0.00800000  15 t-inv F
 -0.400000  0.400000 -0.200000    0.00800000  15 t-inv F
  0.400000 -0.400000  0.200000    0.00800000  15 t-inv F
  0.400000  0.200000 -0.400000    0.00800000  15 t-inv F
 -0.400000 -0.200000  0.400000    0.00800000  15 t-inv F
 -0.200000 -0.400000  0.400000    0.00800000  15 t-inv F
  0.200000  0.400000 -0.400000    0.00800000  15 t-inv F
  0.200000 -0.400000 -0.200000    0.00800000  16 t-inv F
  0.200000 -0.200000 -0.400000    0.00800000  16 t-inv F
 -0.200000  0.200000  0.400000    0.00800000  16 t-inv F
  0.200000 -0.200000  0.400000    0.00800000  16 t-inv F
 -0.200000  0.200000 -0.400000    0.00800000  16 t-inv F
 -0.400000  0.200000 -0.200000    0.00800000  16 t-inv F
  0.400000 -0.200000  0.200000    0.00800000  16 t-inv F
  0.400000  0.200000 -0.200000    0.00800000  16 t-inv F
 -0.400000 -0.200000  0.200000    0.00800000  16 t-inv F
 -0.200000 -0.400000  0.200000    0.00800000  16 t-inv F
  0.200000  0.400000 -0.200000    0.00800000  16 t-inv F
  0.400000  0.400000 -0.200000    0.00800000  17 t-inv F
  0.400000 -0.200000  0.400000    0.00800000  17 t-inv F
 -0.400000  0.200000 -0.400000    0.00800000  17 t-inv F
  0.200000 -0.400000 -0.400000    0.00800000  17 t-inv F
 -0.200000  0.400000  0.400000    0.00800000  17 t-inv F
 -0.400000 -0.400000 -0.400000    0.00800000  18 t-inv F
  0.400000 -0.400000 -0.400000    0.00800000  19 t-inv F
  0.400000 -0.400000  0.400000    0.00800000  19 t-inv F
 -0.400000  0.400000 -0.400000    0.00800000  19 t-inv F
  0.400000  0.400000 -0.400000    0.00800000  19 t-inv F
 -0.400000 -0.400000  0.400000    0.00800000  19 t-inv F


--------------------------------------------------------------------------------------------------------




 Dimension of arrays:
   k-points           NKPTS =     19   k-points in BZ     NKDIM =     19   number of bands    NBANDS=     32
   number of dos      NEDOS =    301   number of ions     NIONS =      4
   non local maximal  LDIM  =      4   non local SUM 2l+1 LMDIM =      8
   total plane-waves  NPLWV =  46656
   max r-space proj   IRMAX =   5992   max aug-charges    IRDMAX=  21722
   dimension x,y,z NGX =    36 NGY =   36 NGZ =   36
   dimension x,y,z NGXF=    72 NGYF=   72 NGZF=   72
   support grid    NGXF=    72 NGYF=   72 NGZF=   72
   ions per type =               1   1   2
   NGX,Y,Z   is equivalent  to a cutoff of   8.55,  8.55,  8.55 a.u.
   NGXF,Y,Z  is equivalent  to a cutoff of  17.10, 17.10, 17.10 a.u.

 SYSTEM =  unknown system                          
 POSCAR =  Na1 Si1 S2                              

 Startparameter for this run:
   NWRITE =      2    write-flag & timer
   PREC   = normal    normal or accurate (medium, high low for compatibility)
   ISTART =      0    job   : 0-new  1-cont  2-samecut
   ICHARG =      2    charge: 1-file 2-atom 10-const
   ISPIN  =      1    spin polarized calculation?
   LNONCOLLINEAR =      F non collinear calculations
   LSORBIT =      F    spin-orbit coupling
   INIWAV =      1    electr: 0-lowe 1-rand  2-diag
   LASPH  =      F    aspherical Exc in radial PAW
 Electronic Relaxation 1
   ENCUT  =  400.0 eV  29.40 Ry    5.42 a.u.  11.42 11.42 11.42*2*pi/ulx,y,z
   ENINI  =  400.0     initial cutoff
   ENAUG  =  368.1 eV  augmentation charge cutoff
   NELM   =     60;   NELMIN=  2; NELMDL= -5     # of ELM steps 
   EDIFF  = 0.1E-05   stopping-criterion for ELM
   LREAL  =      T    real-space projection
   NLSPLINE    = F    spline interpolate recip. space projectors
   LCOMPAT=      F    compatible to vasp.4.4
   GGA_COMPAT  = T    GGA compatible to vasp.4.4-vasp.4.6
   LMAXPAW     = -100 max onsite density
   LMAXMIX     =    2 max onsite mixed and CHGCAR
   VOSKOWN=      0    Vosko Wilk Nusair interpolation
   ROPT   =   -0.00050  -0.00050  -0.00050
 Ionic relaxation
   EDIFFG = 0.1E-04   stopping-criterion for IOM
   NSW    =     85    number of steps for IOM
   NBLOCK =      1;   KBLOCK =     85    inner block; outer block 
   IBRION =      6    ionic relax: 0-MD 1-quasi-New 2-CG
   NFREE  =      4    steps in history (QN), initial steepest desc. (CG)
   ISIF   =      3    stress and relaxation
   IWAVPR =     11    prediction:  0-non 1-charg 2-wave 3-comb
   ISYM   =      2    0-nonsym 1-usesym 2-fastsym
   LCORR  =      T    Harris-Foulkes like correction to forces

   POTIM  = 0.0150    time-step for ionic-motion
   TEIN   =    0.0    initial temperature
   TEBEG  =    0.0;   TEEND  =   0.0 temperature during run
   SMASS  =  -3.00    Nose mass-parameter (am)
   estimated Nose-frequenzy (Omega)   =  0.10E-29 period in steps = 0.42E+48 mass=  -0.112E-26a.u.
   SCALEE = 1.0000    scale energy and forces
   NPACO  =    256;   APACO  = 10.0  distance and # of slots for P.C.
   PSTRESS=    0.0 pullay stress

  Mass of Ions in am
   POMASS =  22.99 28.09 32.07
  Ionic Valenz
   ZVAL   =   7.00  4.00  6.00
  Atomic Wigner-Seitz radii
   RWIGS  =  -1.00 -1.00 -1.00
  virtual crystal weights 
   VCA    =   1.00  1.00  1.00
   NELECT =      23.0000    total number of electrons
   NUPDOWN=      -1.0000    fix difference up-down

 DOS related values:
   EMIN   =  10.00;   EMAX   =-10.00  energy-range for DOS
   EFERMI =   0.00
   ISMEAR =     0;   SIGMA  =   0.05  broadening in eV -4-tet -1-fermi 0-gaus

 Electronic relaxation 2 (details)
   IALGO  =     38    algorithm
   LDIAG  =      T    sub-space diagonalisation (order eigenvalues)
   LSUBROT=      F    optimize rotation matrix (better conditioning)
   TURBO    =      0    0=normal 1=particle mesh
   IRESTART =      0    0=no restart 2=restart with 2 vectors
   NREBOOT  =      0    no. of reboots
   NMIN     =      0    reboot dimension
   EREF     =   0.00    reference energy to select bands
   IMIX   =      4    mixing-type and parameters
     AMIX     =   0.40;   BMIX     =  1.00
     AMIX_MAG =   1.60;   BMIX_MAG =  1.00
     AMIN     =   0.10
     WC   =   100.;   INIMIX=   1;  MIXPRE=   1;  MAXMIX= -45

 Intra band minimization:
   WEIMIN = 0.0010     energy-eigenvalue tresh-hold
   EBREAK =  0.78E-08  absolut break condition
   DEPER  =   0.30     relativ break condition  

   TIME   =   0.40     timestep for ELM

  volume/ion in A,a.u.               =      18.12       122.27
  Fermi-wavevector in a.u.,A,eV,Ry     =   1.116677  2.110213 16.966018  1.246967
  Thomas-Fermi vector in A             =   2.253293

 Write flags
   LWAVE        =      F    write WAVECAR
   LDOWNSAMPLE  =      F    k-point downsampling of WAVECAR
   LCHARG       =      F    write CHGCAR
   LVTOT        =      F    write LOCPOT, total local potential
   LVHAR        =      F    write LOCPOT, Hartree potential only
   LELF         =      F    write electronic localiz. function (ELF)
   LORBIT       =      0    0 simple, 1 ext, 2 COOP (PROOUT), +10 PAW based schemes


 Dipole corrections
   LMONO  =      F    monopole corrections only (constant potential shift)
   LDIPOL =      F    correct potential (dipole corrections)
   IDIPOL =      0    1-x, 2-y, 3-z, 4-all directions 
   EPSILON=  1.0000000 bulk dielectric constant

 Exchange correlation treatment:
   GGA     =    --    GGA type
   LEXCH   =     8    internal setting for exchange type
   LIBXC   =     F    Libxc                    
   VOSKOWN =     0    Vosko Wilk Nusair interpolation
   LHFCALC =     F    Hartree Fock is set to
   LHFONE  =     F    Hartree Fock one center treatment
   AEXX    =    0.0000 exact exchange contribution

 Linear response parameters
   LEPSILON=     F    determine dielectric tensor
   LRPA    =     F    only Hartree local field effects (RPA)
   LNABLA  =     F    use nabla operator in PAW spheres
   LVEL    =     F    velocity operator in full k-point grid
   CSHIFT  =0.1000    complex shift for real part using Kramers Kronig
   OMEGAMAX=  -1.0    maximum frequency
   DEG_THRESHOLD= 0.2000000E-02 threshold for treating states as degnerate
   RTIME   =   -0.100 relaxation time in fs
  (WPLASMAI=    0.000 imaginary part of plasma frequency in eV, 0.658/RTIME)
   DFIELD  = 0.0000000 0.0000000 0.0000000 field for delta impulse in time

  Optional k-point grid parameters
   LKPOINTS_OPT  =     F    use optional k-point grid
   KPOINTS_OPT_MODE=     1    mode for optional k-point grid

 Orbital magnetization related:
   ORBITALMAG=     F  switch on orbital magnetization
   LCHIMAG   =     F  perturbation theory with respect to B field
   DQ        =  0.001000  dq finite difference perturbation B field
   LLRAUG    =     F  two centre corrections for induced B field



--------------------------------------------------------------------------------------------------------


 finite differences with symmetry
 charge density and potential will be updated during run
 non-spin polarized calculation
 Variant of blocked Davidson
 Davidson routine will perform the subspace rotation
 perform sub-space diagonalisation
    after iterative eigenvector-optimisation
 modified Broyden-mixing scheme, WC =      100.0
 initial mixing is a Kerker type mixing with AMIX =  0.4000 and BMIX =      1.0000
 Hartree-type preconditioning will be used
 using additional bands           20
 real space projection scheme for non local part
 use partial core corrections
 calculate Harris-corrections to forces   (improved forces if not selfconsistent)
 use gradient corrections 
 use of overlap-Matrix (Vanderbilt PP)
 Gauss-broadening in eV      SIGMA  =   0.05


--------------------------------------------------------------------------------------------------------


  energy-cutoff  :      400.00
  volume of cell :       72.47
      direct lattice vectors                 reciprocal lattice vectors
     1.767544304  1.020492180  6.696356777     0.282878341  0.163319886  0.049778311
    -1.767544304  1.020492180  6.696356777    -0.282878341  0.163319886  0.049778311
    -0.000000000 -2.040984360  6.696356777    -0.000000000 -0.326639772  0.049778311

  length of vectors
     7.000486500  7.000486500  7.000486500     0.330410988  0.330410988  0.330410988



 k-points in units of 2pi/SCALE and weight: pymatgen with grid density = 600 / numbe
   0.00000000  0.00000000  0.00000000       0.008
   0.05657567  0.03266398  0.00995566       0.048
   0.11315134  0.06532795  0.01991132       0.048
   0.00000000  0.06532795  0.01991132       0.048
   0.05657567  0.09799193  0.02986699       0.096
  -0.16972700 -0.03266398 -0.00995566       0.096
  -0.11315134 -0.00000000  0.00000000       0.048
   0.00000000  0.13065591  0.03982265       0.048
  -0.22630267 -0.00000000  0.00000000       0.048
   0.00000000  0.00000000  0.02986699       0.016
   0.05657567  0.03266398  0.03982265       0.048
  -0.16972700 -0.09799193 -0.00000000       0.048
  -0.11315134 -0.06532795  0.00995566       0.048
   0.00000000  0.06532795  0.04977831       0.048
  -0.22630267 -0.06532795  0.00995566       0.096
  -0.16972700 -0.03266398  0.01991132       0.096
  -0.00000000 -0.19598386 -0.02986699       0.048
   0.00000000  0.00000000  0.05973397       0.016
  -0.22630267 -0.13065591  0.01991132       0.048

 k-points in reciprocal lattice and weights: pymatgen with grid density = 600 / numbe
   0.00000000  0.00000000  0.00000000       0.008
   0.20000000  0.00000000  0.00000000       0.048
   0.40000000  0.00000000  0.00000000       0.048
   0.20000000  0.20000000  0.00000000       0.048
   0.40000000  0.20000000  0.00000000       0.096
  -0.40000000  0.20000000  0.00000000       0.096
  -0.20000000  0.20000000  0.00000000       0.048
   0.40000000  0.40000000  0.00000000       0.048
  -0.40000000  0.40000000  0.00000000       0.048
   0.20000000  0.20000000  0.20000000       0.016
   0.40000000  0.20000000  0.20000000       0.048
  -0.40000000  0.20000000  0.20000000       0.048
  -0.20000000  0.20000000  0.20000000       0.048
   0.40000000  0.40000000  0.20000000       0.048
  -0.40000000  0.40000000  0.20000000       0.096
  -0.20000000  0.40000000  0.20000000       0.096
  -0.40000000 -0.40000000  0.20000000       0.048
   0.40000000  0.40000000  0.40000000       0.016
  -0.40000000  0.40000000  0.40000000       0.048

 position of ions in fractional coordinates (direct lattice) 
   0.50000009  0.50000009  0.50000009
   0.00000000  0.00000000  0.00000000
   0.73398148  0.73398148  0.73398148
   0.26601871  0.26601871  0.26601871

 position of ions in cartesian coordinates  (Angst):
   0.00000000 -0.00000000 10.04453703
   0.00000000  0.00000000  0.00000000
   0.00000000 -0.00000000 14.74500550
  -0.00000000 -0.00000000  5.34406856



--------------------------------------------------------------------------------------------------------


 k-point   1 :   0.0000 0.0000 0.0000  plane waves:    1293
 k-point   2 :   0.2000 0.0000 0.0000  plane waves:    1311
 k-point   3 :   0.4000 0.0000 0.0000  plane waves:    1314
 k-point   4 :   0.2000 0.2000 0.0000  plane waves:    1324
 k-point   5 :   0.4000 0.2000 0.0000  plane waves:    1314
 k-point   6 :  -0.4000 0.2000 0.0000  plane waves:    1319
 k-point   7 :  -0.2000 0.2000 0.0000  plane waves:    1320
 k-point   8 :   0.4000 0.4000 0.0000  plane waves:    1323
 k-point   9 :  -0.4000 0.4000 0.0000  plane waves:    1314
 k-point  10 :   0.2000 0.2000 0.2000  plane waves:    1318
 k-point  11 :   0.4000 0.2000 0.2000  plane waves:    1315
 k-point  12 :  -0.4000 0.2000 0.2000  plane waves:    1321
 k-point  13 :  -0.2000 0.2000 0.2000  plane waves:    1320
 k-point  14 :   0.4000 0.4000 0.2000  plane waves:    1303
 k-point  15 :  -0.4000 0.4000 0.2000  plane waves:    1310
 k-point  16 :  -0.2000 0.4000 0.2000  plane waves:    1313
 k-point  17 :  -0.4000-0.4000 0.2000  plane waves:    1316
 k-point  18 :   0.4000 0.4000 0.4000  plane waves:    1300
 k-point  19 :  -0.4000 0.4000 0.4000  plane waves:    1317

 maximum and minimum number of plane-waves per node :      1324     1293

 maximum number of plane-waves:      1324
 maximum index in each direction: 
   IXMAX=   11   IYMAX=   11   IZMAX=   11
   IXMIN=  -11   IYMIN=  -11   IZMIN=  -11


 serial   3D FFT for wavefunctions
 parallel 3D FFT for charge:
    minimum data exchange during FFTs selected (reduces bandwidth)


 total amount of memory used by VASP MPI-rank0    35872. kBytes
=======================================================================

   base      :      30000. kBytes
   nonlr-proj:       1831. kBytes
   fftplans  :        708. kBytes
   grid      :       2903. kBytes
   one-center:         12. kBytes
   wavefun   :        418. kBytes

     INWAV:  cpu time      0.0000: real time      0.0002
 Broyden mixing: mesh for mixing (old mesh)
   NGX = 23   NGY = 23   NGZ = 23
  (NGX  = 72   NGY  = 72   NGZ  = 72)
  gives a total of  12167 points

 initial charge density was supplied:
 charge density of overlapping atoms calculated
 number of electron      23.0000000 magnetization 
 keeping initial charge density in first step


--------------------------------------------------------------------------------------------------------


 Maximum index for non-local projection operator         5771
 Maximum index for augmentation-charges         1257 (set IRDMAX)


--------------------------------------------------------------------------------------------------------


 First call to EWALD:  gamma=   0.425
 Maximum number of real-space cells 4x 4x 4
 Maximum number of reciprocal cells 4x 4x 4

    FEWALD:  cpu time      0.0007: real time      0.0009


--------------------------------------- Iteration      1(   1)  ---------------------------------------


    POTLOK:  cpu time      0.0149: real time      0.0153
    SETDIJ:  cpu time      0.0021: real time      0.0021
     EDDAV:  cpu time      0.4590: real time      0.4603
       DOS:  cpu time      0.0013: real time      0.0015
    --------------------------------------------
      LOOP:  cpu time      0.4773: real time      0.4792

 eigenvalue-minimisations  :  1216
 total energy-change (2. order) : 0.3212281E+02  (-0.1054362E+04)
 number of electron      23.0000000 magnetization 
 augmentation part       23.0000000 magnetization 

 Free energy of the ion-electron system (eV)
  ---------------------------------------------------
  alpha Z        PSCENC =        32.46263744
  Ewald energy   TEWEN  =     -1052.74740773
  -Hartree energ DENC   =      -269.56421725
  -exchange      EXHF   =         0.00000000
  -V(xc)+E(xc)   XCENC  =        40.66466781
  PAW double counting   =      1025.43992223    -1090.03883641
  entropy T*S    EENTRO =        -0.00065564
  eigenvalues    EBANDS =       -76.82943024
  atomic energy  EATOM  =      1422.73612946
  Solvation  Ediel_sol  =         0.00000000
  ---------------------------------------------------
  free energy    TOTEN  =        32.12280968 eV

  energy without entropy =       32.12346532  energy(sigma->0) =       32.12313750


--------------------------------------------------------------------------------------------------------




--------------------------------------- Iteration      1(   2)  ---------------------------------------


     EDDAV:  cpu time      0.7914: real time      0.7944
       DOS:  cpu time      0.0007: real time      0.0009
    --------------------------------------------
      LOOP:  cpu time      0.7921: real time      0.7953

 eigenvalue-minimisations  :  1824
 total energy-change (2. order) :-0.4930428E+02  (-0.4924637E+02)
 number of electron      23.0000000 magnetization 
 augmentation part       23.0000000 magnetization 

 Free energy of the ion-electron system (eV)
  ---------------------------------------------------
  alpha Z        PSCENC =        32.46263744
  Ewald energy   TEWEN  =     -1052.74740773
  -Hartree energ DENC   =      -269.56421725
  -exchange      EXHF   =         0.00000000
  -V(xc)+E(xc)   XCENC  =        40.66466781
  PAW double counting   =      1025.43992223    -1090.03883641
  entropy T*S    EENTRO =        -0.00060467
  eigenvalues    EBANDS =      -126.13376177
  atomic energy  EATOM  =      1422.73612946
  Solvation  Ediel_sol  =         0.00000000
  ---------------------------------------------------
  free energy    TOTEN  =       -17.18147088 eV

  energy without entropy =      -17.18086621  energy(sigma->0) =      -17.18116855


--------------------------------------------------------------------------------------------------------




--------------------------------------- Iteration      1(   3)  ---------------------------------------


     EDDAV:  cpu time      0.4280: real time      0.4283
       DOS:  cpu time      0.0006: real time      0.0007
    --------------------------------------------
      LOOP:  cpu time      0.4286: real time      0.4290

 eigenvalue-minimisations  :  1216
 total energy-change (2. order) :-0.5244872E+00  (-0.5244872E+00)
 number of electron      23.0000000 magnetization 
 augmentation part       23.0000000 magnetization 

 Free energy of the ion-electron system (eV)
  ---------------------------------------------------
  alpha Z        PSCENC =        32.46263744
  Ewald energy   TEWEN  =     -1052.74740773
  -Hartree energ DENC   =      -269.56421725
  -exchange      EXHF   =         0.00000000
  -V(xc)+E(xc)   XCENC  =        40.66466781
  PAW double counting   =      1025.43992223    -1090.03883641
  entropy T*S    EENTRO =        -0.00060468
  eigenvalues    EBANDS =      -126.65824897
  atomic energy  EATOM  =      1422.73612946
  Solvation  Ediel_sol  =         0.00000000
  ---------------------------------------------------
  free energy    TOTEN  =       -17.70595809 eV

  energy without entropy =      -17.70535341  energy(sigma->0) =      -17.70565575


--------------------------------------------------------------------------------------------------------




--------------------------------------- Iteration      1(   4)  ---------------------------------------


     EDDAV:  cpu time      1.1897: real time      1.1900
       DOS:  cpu time      0.0007: real time      0.0008
    --------------------------------------------
      LOOP:  cpu time      1.1904: real time      1.1909

 eigenvalue-minimisations  :  2368
 total energy-change (2. order) :-0.1823667E-02  (-0.1823666E-02)
 number of electron      23.0000000 magnetization 
 augmentation part       23.0000000 magnetization 

 Free energy of the ion-electron system (eV)
  ---------------------------------------------------
  alpha Z        PSCENC =        32.46263744
  Ewald energy   TEWEN  =     -1052.74740773
  -Hartree energ DENC   =      -269.56421725
  -exchange      EXHF   =         0.00000000
  -V(xc)+E(xc)   XCENC  =        40.66466781
  PAW double counting   =      1025.43992223    -1090.03883641
  entropy T*S    EENTRO =        -0.00060468
  eigenvalues    EBANDS =      -126.66007263
  atomic energy  EATOM  =      1422.73612946
  Solvation  Ediel_sol  =         0.00000000
  ---------------------------------------------------
  free energy    TOTEN  =       -17.70778176 eV

  energy without entropy =      -17.70717708  energy(sigma->0) =      -17.70747942


--------------------------------------------------------------------------------------------------------




--------------------------------------- Iteration      1(   5)  ---------------------------------------


     EDDAV:  cpu time      0.4232: real time      0.4233
       DOS:  cpu time      0.0007: real time      0.0008
    CHARGE:  cpu time      0.0209: real time      0.0211
    MIXING:  cpu time      0.0011: real time      0.0012
    --------------------------------------------
      LOOP:  cpu time      0.4458: real time      0.4464

 eigenvalue-minimisations  :  1216
 total energy-change (2. order) :-0.7377412E-07  (-0.7420361E-07)
 number of electron      22.9999992 magnetization 
 augmentation part        2.5290749 magnetization 

 Broyden mixing:
  rms(total) = 0.88326E+00    rms(broyden)= 0.88325E+00
  rms(prec ) = 0.99841E+00
  weight for this iteration     100.00

 Free energy of the ion-electron system (eV)
  ---------------------------------------------------
  alpha Z        PSCENC =        32.46263744
  Ewald energy   TEWEN  =     -1052.74740773
  -Hartree energ DENC   =      -269.56421725
  -exchange      EXHF   =         0.00000000
  -V(xc)+E(xc)   XCENC  =        40.66466781
  PAW double counting   =      1025.43992223    -1090.03883641
  entropy T*S    EENTRO =        -0.00060468
  eigenvalues    EBANDS =      -126.66007271
  atomic energy  EATOM  =      1422.73612946
  Solvation  Ediel_sol  =         0.00000000
  ---------------------------------------------------
  free energy    TOTEN  =       -17.70778183 eV

  energy without entropy =      -17.70717715  energy(sigma->0) =      -17.70747949


--------------------------------------------------------------------------------------------------------




--------------------------------------- Iteration      1(   6)  ---------------------------------------


    POTLOK:  cpu time      0.0113: real time      0.0116
    SETDIJ:  cpu time      0.0014: real time      0.0014
     EDDAV:  cpu time      0.6974: real time      0.6976
       DOS:  cpu time      0.0007: real time      0.0009
    CHARGE:  cpu time      0.0199: real time      0.0199
    MIXING:  cpu time      0.0006: real time      0.0006
    --------------------------------------------
      LOOP:  cpu time      0.7314: real time      0.7319

 eigenvalue-minimisations  :  1696
 total energy-change (2. order) : 0.3031460E+00  (-0.1089969E+00)
 number of electron      22.9999992 magnetization 
 augmentation part        2.5653413 magnetization 

 Broyden mixing:
  rms(total) = 0.60371E+00    rms(broyden)= 0.60371E+00
  rms(prec ) = 0.63235E+00
  weight for this iteration     100.00

 eigenvalues of (default mixing * dielectric matrix)
  average eigenvalue GAMMA=   2.6774
  2.6774

 Free energy of the ion-electron system (eV)
  ---------------------------------------------------
  alpha Z        PSCENC =        32.46263744
  Ewald energy   TEWEN  =     -1052.74740773
  -Hartree energ DENC   =      -272.54264432
  -exchange      EXHF   =         0.00000000
  -V(xc)+E(xc)   XCENC  =        41.08252875
  PAW double counting   =      1313.81481772    -1378.50610858
  entropy T*S    EENTRO =        -0.00060467
  eigenvalues    EBANDS =      -123.70398390
  atomic energy  EATOM  =      1422.73612946
  Solvation  Ediel_sol  =         0.00000000
  ---------------------------------------------------
  free energy    TOTEN  =       -17.40463581 eV

  energy without entropy =      -17.40403115  energy(sigma->0) =      -17.40433348


--------------------------------------------------------------------------------------------------------




--------------------------------------- Iteration      1(   7)  ---------------------------------------


    POTLOK:  cpu time      0.0108: real time      0.0110
    SETDIJ:  cpu time      0.0015: real time      0.0015
     EDDAV:  cpu time      0.8688: real time      0.8689
       DOS:  cpu time      0.0007: real time      0.0008
    CHARGE:  cpu time      0.0198: real time      0.0198
    MIXING:  cpu time      0.0005: real time      0.0006
    --------------------------------------------
      LOOP:  cpu time      0.9021: real time      0.9026

 eigenvalue-minimisations  :  1952
 total energy-change (2. order) : 0.2131468E-01  (-0.2402713E-01)
 number of electron      22.9999992 magnetization 
 augmentation part        2.5829106 magnetization 

 Broyden mixing:
  rms(total) = 0.16364E+00    rms(broyden)= 0.16364E+00
  rms(prec ) = 0.17342E+00
  weight for this iteration     100.00

 eigenvalues of (default mixing * dielectric matrix)
  average eigenvalue GAMMA=   1.8224
  1.2780  2.3667

 Free energy of the ion-electron system (eV)
  ---------------------------------------------------
  alpha Z        PSCENC =        32.46263744
  Ewald energy   TEWEN  =     -1052.74740773
  -Hartree energ DENC   =      -273.95536254
  -exchange      EXHF   =         0.00000000
  -V(xc)+E(xc)   XCENC  =        41.43352747
  PAW double counting   =      1810.84844943    -1875.79632475
  entropy T*S    EENTRO =        -0.00060467
  eigenvalues    EBANDS =      -122.36436525
  atomic energy  EATOM  =      1422.73612946
  Solvation  Ediel_sol  =         0.00000000
  ---------------------------------------------------
  free energy    TOTEN  =       -17.38332113 eV

  energy without entropy =      -17.38271646  energy(sigma->0) =      -17.38301880


--------------------------------------------------------------------------------------------------------




--------------------------------------- Iteration      1(   8)  ---------------------------------------


    POTLOK:  cpu time      0.0110: real time      0.0112
    SETDIJ:  cpu time      0.0015: real time      0.0015
     EDDAV:  cpu time      0.7722: real time      0.7722
       DOS:  cpu time      0.0007: real time      0.0009
    CHARGE:  cpu time      0.0197: real time      0.0197
    MIXING:  cpu time      0.0004: real time      0.0004
    --------------------------------------------
      LOOP:  cpu time      0.8055: real time      0.8059

 eigenvalue-minimisations  :  1728
 total energy-change (2. order) : 0.3073670E-03  (-0.1716792E-02)
 number of electron      22.9999992 magnetization 
 augmentation part        2.5803171 magnetization 

 Broyden mixing:
  rms(total) = 0.21849E-01    rms(broyden)= 0.21849E-01
  rms(prec ) = 0.27244E-01
  weight for this iteration     100.00

 eigenvalues of (default mixing * dielectric matrix)
  average eigenvalue GAMMA=   1.7196
  1.1042  2.4438  1.6108

 Free energy of the ion-electron system (eV)
  ---------------------------------------------------
  alpha Z        PSCENC =        32.46263744
  Ewald energy   TEWEN  =     -1052.74740773
  -Hartree energ DENC   =      -273.57915353
  -exchange      EXHF   =         0.00000000
  -V(xc)+E(xc)   XCENC  =        41.48339275
  PAW double counting   =      1972.81218724    -2037.91251816
  entropy T*S    EENTRO =        -0.00060467
  eigenvalues    EBANDS =      -122.63767657
  atomic energy  EATOM  =      1422.73612946
  Solvation  Ediel_sol  =         0.00000000
  ---------------------------------------------------
  free energy    TOTEN  =       -17.38301376 eV

  energy without entropy =      -17.38240910  energy(sigma->0) =      -17.38271143


--------------------------------------------------------------------------------------------------------




--------------------------------------- Iteration      1(   9)  ---------------------------------------


    POTLOK:  cpu time      0.0107: real time      0.0110
    SETDIJ:  cpu time      0.0014: real time      0.0014
     EDDAV:  cpu time      0.8870: real time      0.8871
       DOS:  cpu time      0.0007: real time      0.0009
    CHARGE:  cpu time      0.0201: real time      0.0201
    MIXING:  cpu time      0.0005: real time      0.0005
    --------------------------------------------
      LOOP:  cpu time      0.9205: real time      0.9211

 eigenvalue-minimisations  :  1984
 total energy-change (2. order) :-0.2862408E-03  (-0.1998655E-03)
 number of electron      22.9999992 magnetization 
 augmentation part        2.5787121 magnetization 

 Broyden mixing:
  rms(total) = 0.11316E-01    rms(broyden)= 0.11316E-01
  rms(prec ) = 0.12459E-01
  weight for this iteration     100.00

 eigenvalues of (default mixing * dielectric matrix)
  average eigenvalue GAMMA=   1.6892
  2.1503  2.1503  1.1111  1.3453

 Free energy of the ion-electron system (eV)
  ---------------------------------------------------
  alpha Z        PSCENC =        32.46263744
  Ewald energy   TEWEN  =     -1052.74740773
  -Hartree energ DENC   =      -273.42156905
  -exchange      EXHF   =         0.00000000
  -V(xc)+E(xc)   XCENC  =        41.48577699
  PAW double counting   =      1979.83054132    -2044.96649517
  entropy T*S    EENTRO =        -0.00060467
  eigenvalues    EBANDS =      -122.76230860
  atomic energy  EATOM  =      1422.73612946
  Solvation  Ediel_sol  =         0.00000000
  ---------------------------------------------------
  free energy    TOTEN  =       -17.38330000 eV

  energy without entropy =      -17.38269534  energy(sigma->0) =      -17.38299767


--------------------------------------------------------------------------------------------------------




--------------------------------------- Iteration      1(  10)  ---------------------------------------


    POTLOK:  cpu time      0.0111: real time      0.0113
    SETDIJ:  cpu time      0.0015: real time      0.0015
     EDDAV:  cpu time      0.7231: real time      0.7232
       DOS:  cpu time      0.0007: real time      0.0009
    CHARGE:  cpu time      0.0197: real time      0.0197
    MIXING:  cpu time      0.0004: real time      0.0004
    --------------------------------------------
      LOOP:  cpu time      0.7566: real time      0.7571

 eigenvalue-minimisations  :  1696
 total energy-change (2. order) :-0.9131287E-04  (-0.8338308E-05)
 number of electron      22.9999992 magnetization 
 augmentation part        2.5787834 magnetization 

 Broyden mixing:
  rms(total) = 0.43489E-02    rms(broyden)= 0.43489E-02
  rms(prec ) = 0.57293E-02
  weight for this iteration     100.00

 eigenvalues of (default mixing * dielectric matrix)
  average eigenvalue GAMMA=   1.7597
  2.5812  2.5812  1.1531  1.1531  1.3300

 Free energy of the ion-electron system (eV)
  ---------------------------------------------------
  alpha Z        PSCENC =        32.46263744
  Ewald energy   TEWEN  =     -1052.74740773
  -Hartree energ DENC   =      -273.41083093
  -exchange      EXHF   =         0.00000000
  -V(xc)+E(xc)   XCENC  =        41.48416921
  PAW double counting   =      1961.16677087    -2026.30334072
  entropy T*S    EENTRO =        -0.00060467
  eigenvalues    EBANDS =      -122.77091426
  atomic energy  EATOM  =      1422.73612946
  Solvation  Ediel_sol  =         0.00000000
  ---------------------------------------------------
  free energy    TOTEN  =       -17.38339132 eV

  energy without entropy =      -17.38278665  energy(sigma->0) =      -17.38308898


--------------------------------------------------------------------------------------------------------




--------------------------------------- Iteration      1(  11)  ---------------------------------------


    POTLOK:  cpu time      0.0107: real time      0.0115
    SETDIJ:  cpu time      0.0014: real time      0.0014
     EDDAV:  cpu time      0.7894: real time      0.7895
       DOS:  cpu time      0.0007: real time      0.0009
    CHARGE:  cpu time      0.0197: real time      0.0197
    MIXING:  cpu time      0.0005: real time      0.0005
    --------------------------------------------
      LOOP:  cpu time      0.8225: real time      0.8236

 eigenvalue-minimisations  :  1792
 total energy-change (2. order) :-0.4978467E-04  (-0.7783402E-05)
 number of electron      22.9999992 magnetization 
 augmentation part        2.5787956 magnetization 

 Broyden mixing:
  rms(total) = 0.13147E-02    rms(broyden)= 0.13147E-02
  rms(prec ) = 0.13924E-02
  weight for this iteration     100.00

 eigenvalues of (default mixing * dielectric matrix)
  average eigenvalue GAMMA=   1.7268
  2.7715  2.1171  2.1171  1.3005  0.9685  1.0859

 Free energy of the ion-electron system (eV)
  ---------------------------------------------------
  alpha Z        PSCENC =        32.46263744
  Ewald energy   TEWEN  =     -1052.74740773
  -Hartree energ DENC   =      -273.39756816
  -exchange      EXHF   =         0.00000000
  -V(xc)+E(xc)   XCENC  =        41.48983746
  PAW double counting   =      1963.62924507    -2028.77974196
  entropy T*S    EENTRO =        -0.00060467
  eigenvalues    EBANDS =      -122.77596803
  atomic energy  EATOM  =      1422.73612946
  Solvation  Ediel_sol  =         0.00000000
  ---------------------------------------------------
  free energy    TOTEN  =       -17.38344110 eV

  energy without entropy =      -17.38283643  energy(sigma->0) =      -17.38313877


--------------------------------------------------------------------------------------------------------




--------------------------------------- Iteration      1(  12)  ---------------------------------------


    POTLOK:  cpu time      0.0106: real time      0.0110
    SETDIJ:  cpu time      0.0016: real time      0.0016
     EDDAV:  cpu time      0.8585: real time      0.8587
       DOS:  cpu time      0.0007: real time      0.0008
    CHARGE:  cpu time      0.0197: real time      0.0197
    MIXING:  cpu time      0.0005: real time      0.0005
    --------------------------------------------
      LOOP:  cpu time      0.8915: real time      0.8922

 eigenvalue-minimisations  :  1888
 total energy-change (2. order) :-0.1025675E-05  (-0.1212798E-06)
 number of electron      22.9999992 magnetization 
 augmentation part        2.5788236 magnetization 

 Broyden mixing:
  rms(total) = 0.80067E-03    rms(broyden)= 0.80067E-03
  rms(prec ) = 0.83005E-03
  weight for this iteration     100.00

 eigenvalues of (default mixing * dielectric matrix)
  average eigenvalue GAMMA=   1.8007
  3.0489  2.5032  2.5032  1.3834  1.1029  1.1029  0.9602

 Free energy of the ion-electron system (eV)
  ---------------------------------------------------
  alpha Z        PSCENC =        32.46263744
  Ewald energy   TEWEN  =     -1052.74740773
  -Hartree energ DENC   =      -273.40180364
  -exchange      EXHF   =         0.00000000
  -V(xc)+E(xc)   XCENC  =        41.49019969
  PAW double counting   =      1963.48462925    -2028.63582501
  entropy T*S    EENTRO =        -0.00060467
  eigenvalues    EBANDS =      -122.77139692
  atomic energy  EATOM  =      1422.73612946
  Solvation  Ediel_sol  =         0.00000000
  ---------------------------------------------------
  free energy    TOTEN  =       -17.38344213 eV

  energy without entropy =      -17.38283746  energy(sigma->0) =      -17.38313979


--------------------------------------------------------------------------------------------------------




--------------------------------------- Iteration      1(  13)  ---------------------------------------


    POTLOK:  cpu time      0.0105: real time      0.0108
    SETDIJ:  cpu time      0.0014: real time      0.0014
     EDDAV:  cpu time      0.7701: real time      0.7702
       DOS:  cpu time      0.0007: real time      0.0008
    --------------------------------------------
      LOOP:  cpu time      0.7828: real time      0.7833

 eigenvalue-minimisations  :  1728
 total energy-change (2. order) :-0.6055127E-06  (-0.7501540E-07)
 number of electron      22.9999992 magnetization 
 augmentation part        2.5788236 magnetization 

 Free energy of the ion-electron system (eV)
  ---------------------------------------------------
  alpha Z        PSCENC =        32.46263744
  Ewald energy   TEWEN  =     -1052.74740773
  -Hartree energ DENC   =      -273.40337260
  -exchange      EXHF   =         0.00000000
  -V(xc)+E(xc)   XCENC  =        41.49019669
  PAW double counting   =      1962.53286062    -2027.68441314
  entropy T*S    EENTRO =        -0.00060467
  eigenvalues    EBANDS =      -122.76946881
  atomic energy  EATOM  =      1422.73612946
  Solvation  Ediel_sol  =         0.00000000
  ---------------------------------------------------
  free energy    TOTEN  =       -17.38344273 eV

  energy without entropy =      -17.38283807  energy(sigma->0) =      -17.38314040


--------------------------------------------------------------------------------------------------------




 average (electrostatic) potential at core
  the test charge radii are     0.9254  0.9892  0.9698
  (the norm of the test charge is              1.0000)
       1 -44.2615       2 -84.8589       3 -86.3086       4 -86.3086



 E-fermi :   6.2852     XC(G=0):  -9.6292     alpha+bet :-11.3648

 Fermi energy:         6.2852424901

 k-point     1 :       0.0000    0.0000    0.0000
  band No.  band energies     occupation 
      1     -18.4552      2.00000
      2     -18.4552      2.00000
      3     -18.4440      2.00000
      4      -9.7811      2.00000
      5      -7.8046      2.00000
      6      -1.5881      2.00000
      7       3.2725      2.00000
      8       3.4989      2.00000
      9       3.4989      2.00000
     10       3.5392      2.00000
     11       3.5392      2.00000
     12       5.6691      2.00000
     13       7.7149      0.00000
     14       8.7446      0.00000
     15       8.7446      0.00000
     16       9.4805      0.00000
     17      12.2274      0.00000
     18      12.2274      0.00000
     19      13.4845      0.00000
     20      14.6204      0.00000
     21      14.6204      0.00000
     22      15.6522      0.00000
     23      16.0270      0.00000
     24      16.3248      0.00000
     25      17.2438      0.00000
     26      17.2438      0.00000
     27      19.5913      0.00000
     28      19.5913      0.00000
     29      19.6071      0.00000
     30      19.6071      0.00000
     31      20.3854      0.00000
     32      24.3044      0.00000

 k-point     2 :       0.2000    0.0000    0.0000
  band No.  band energies     occupation 
      1     -18.4742      2.00000
      2     -18.4595      2.00000
      3     -18.4396      2.00000
      4      -9.3192      2.00000
      5      -7.5592      2.00000
      6      -1.4419      2.00000
      7       0.8813      2.00000
      8       2.0710      2.00000
      9       2.4088      2.00000
     10       3.2035      2.00000
     11       3.7868      2.00000
     12       6.6420      0.00000
     13       8.0395      0.00000
     14       9.5037      0.00000
     15       9.5377      0.00000
     16      10.5325      0.00000
     17      11.6238      0.00000
     18      12.4819      0.00000
     19      13.2038      0.00000
     20      13.2801      0.00000
     21      14.8324      0.00000
     22      15.4211      0.00000
     23      16.6734      0.00000
     24      17.0355      0.00000
     25      18.5836      0.00000
     26      18.9665      0.00000
     27      19.5762      0.00000
     28      20.0598      0.00000
     29      20.2252      0.00000
     30      22.0102      0.00000
     31      22.0116      0.00000
     32      23.1789      0.00000

 k-point     3 :       0.4000    0.0000    0.0000
  band No.  band energies     occupation 
      1     -18.5043      2.00000
      2     -18.4664      2.00000
      3     -18.4322      2.00000
      4      -8.1667      2.00000
      5      -7.2564      2.00000
      6      -2.5954      2.00000
      7      -0.5122      2.00000
      8       1.2257      2.00000
      9       1.6054      2.00000
     10       2.7548      2.00000
     11       3.4544      2.00000
     12       5.3249      2.00000
     13       8.5014      0.00000
     14       9.7181      0.00000
     15      10.2171      0.00000
     16      10.6436      0.00000
     17      10.7600      0.00000
     18      12.9266      0.00000
     19      14.6911      0.00000
     20      15.2753      0.00000
     21      15.6204      0.00000
     22      16.7720      0.00000
     23      16.8794      0.00000
     24      18.1322      0.00000
     25      18.9669      0.00000
     26      20.2302      0.00000
     27      20.7476      0.00000
     28      21.7174      0.00000
     29      22.1680      0.00000
     30      22.2400      0.00000
     31      22.6266      0.00000
     32      23.4472      0.00000

 k-point     4 :       0.2000    0.2000    0.0000
  band No.  band energies     occupation 
      1     -18.4742      2.00000
      2     -18.4596      2.00000
      3     -18.4397      2.00000
      4      -9.3125      2.00000
      5      -7.5737      2.00000
      6      -1.3890      2.00000
      7       0.7871      2.00000
      8       2.1393      2.00000
      9       2.3959      2.00000
     10       3.2064      2.00000
     11       3.8139      2.00000
     12       6.6148      0.00000
     13       7.8091      0.00000
     14       9.5062      0.00000
     15       9.5213      0.00000
     16      11.2819      0.00000
     17      11.3325      0.00000
     18      12.5091      0.00000
     19      13.0784      0.00000
     20      13.1049      0.00000
     21      14.6728      0.00000
     22      15.4552      0.00000
     23      16.4824      0.00000
     24      18.0022      0.00000
     25      18.1646      0.00000
     26      18.7908      0.00000
     27      19.7050      0.00000
     28      20.2733      0.00000
     29      20.6594      0.00000
     30      20.8250      0.00000
     31      23.4846      0.00000
     32      23.6691      0.00000

 k-point     5 :       0.4000    0.2000    0.0000
  band No.  band energies     occupation 
      1     -18.4937      2.00000
      2     -18.4700      2.00000
      3     -18.4337      2.00000
      4      -8.4877      2.00000
      5      -7.2587      2.00000
      6      -2.0438      2.00000
      7      -0.0790      2.00000
      8       0.5095      2.00000
      9       1.9905      2.00000
     10       2.4018      2.00000
     11       3.3381      2.00000
     12       6.6181      0.00000
     13       8.7244      0.00000
     14       9.6418      0.00000
     15      10.1973      0.00000
     16      10.9818      0.00000
     17      11.2760      0.00000
     18      12.4296      0.00000
     19      12.9227      0.00000
     20      13.7047      0.00000
     21      16.0572      0.00000
     22      16.9507      0.00000
     23      17.3124      0.00000
     24      18.4569      0.00000
     25      19.2086      0.00000
     26      19.4029      0.00000
     27      20.1159      0.00000
     28      21.3479      0.00000
     29      21.6291      0.00000
     30      21.9966      0.00000
     31      22.6656      0.00000
     32      23.5446      0.00000

 k-point     6 :      -0.4000    0.2000    0.0000
  band No.  band energies     occupation 
      1     -18.5027      2.00000
      2     -18.4793      2.00000
      3     -18.4301      2.00000
      4      -7.5618      2.00000
      5      -7.2684      2.00000
      6      -3.0035      2.00000
      7      -0.4297      2.00000
      8       0.2518      2.00000
      9       1.0477      2.00000
     10       2.6509      2.00000
     11       2.8628      2.00000
     12       6.2240      1.91667
     13       9.2318      0.00000
     14       9.8226      0.00000
     15      10.3840      0.00000
     16      10.8711      0.00000
     17      11.6928      0.00000
     18      12.1834      0.00000
     19      13.4100      0.00000
     20      15.4058      0.00000
     21      15.4273      0.00000
     22      16.6116      0.00000
     23      17.3280      0.00000
     24      18.8156      0.00000
     25      19.8420      0.00000
     26      20.1955      0.00000
     27      20.9463      0.00000
     28      21.6983      0.00000
     29      22.6130      0.00000
     30      23.0012      0.00000
     31      23.3133      0.00000
     32      23.4375      0.00000

 k-point     7 :      -0.2000    0.2000    0.0000
  band No.  band energies     occupation 
      1     -18.4937      2.00000
      2     -18.4700      2.00000
      3     -18.4337      2.00000
      4      -8.4999      2.00000
      5      -7.2387      2.00000
      6      -2.0404      2.00000
      7      -0.0182      2.00000
      8       0.3898      2.00000
      9       1.9869      2.00000
     10       2.2993      2.00000
     11       3.4738      2.00000
     12       6.6824      0.00000
     13       9.2393      0.00000
     14       9.2838      0.00000
     15      10.1763      0.00000
     16      11.3003      0.00000
     17      11.5968      0.00000
     18      11.9102      0.00000
     19      12.5837      0.00000
     20      13.0227      0.00000
     21      16.4910      0.00000
     22      16.8075      0.00000
     23      17.9033      0.00000
     24      18.1630      0.00000
     25      19.0341      0.00000
     26      19.1428      0.00000
     27      20.9558      0.00000
     28      21.4111      0.00000
     29      21.6262      0.00000
     30      22.6108      0.00000
     31      22.6714      0.00000
     32      23.7055      0.00000

 k-point     8 :       0.4000    0.4000    0.0000
  band No.  band energies     occupation 
      1     -18.5044      2.00000
      2     -18.4664      2.00000
      3     -18.4323      2.00000
      4      -8.1542      2.00000
      5      -7.2684      2.00000
      6      -2.6276      2.00000
      7      -0.6282      2.00000
      8       1.4490      2.00000
      9       1.5908      2.00000
     10       3.0757      2.00000
     11       3.4964      2.00000
     12       5.0515      2.00000
     13       8.1177      0.00000
     14       9.0677      0.00000
     15       9.4651      0.00000
     16       9.9937      0.00000
     17      13.2800      0.00000
     18      14.0427      0.00000
     19      15.1686      0.00000
     20      15.2177      0.00000
     21      15.5099      0.00000
     22      16.4887      0.00000
     23      17.1446      0.00000
     24      18.1031      0.00000
     25      18.3279      0.00000
     26      19.2839      0.00000
     27      19.6007      0.00000
     28      21.3899      0.00000
     29      21.8414      0.00000
     30      22.1032      0.00000
     31      23.0177      0.00000
     32      23.6793      0.00000

 k-point     9 :      -0.4000    0.4000    0.0000
  band No.  band energies     occupation 
      1     -18.5027      2.00000
      2     -18.4793      2.00000
      3     -18.4301      2.00000
      4      -7.5642      2.00000
      5      -7.2599      2.00000
      6      -3.0356      2.00000
      7      -0.5051      2.00000
      8       0.2095      2.00000
      9       1.1958      2.00000
     10       2.7383      2.00000
     11       3.0883      2.00000
     12       5.8812      2.00000
     13       9.1594      0.00000
     14       9.1922      0.00000
     15       9.8458      0.00000
     16      10.4320      0.00000
     17      12.5948      0.00000
     18      13.8994      0.00000
     19      14.6434      0.00000
[...]
 -----------------------------------------------------------------------------------------------
   0.126E-11 -.613E-08 0.165E+00   -.119E-14 0.260E-14 0.000E+00   0.687E-18 0.806E-12 -.162E+00   0.841E-09 -.244E-10 0.222E-04


 POSITION                                       TOTAL-FORCE (eV/Angst)
 -----------------------------------------------------------------------------------
      0.00000     -0.00000     10.04454         0.000000      0.000000     -0.013609
      0.00000      0.00000      0.00000        -0.000000      0.000000     -0.181031
      0.00000     -0.00000     14.71501        -0.000000     -0.000000      0.278084
     -0.00000     -0.00000      5.34407         0.000000      0.000000     -0.083443
 -----------------------------------------------------------------------------------
    total drift:                                0.000000     -0.000000      0.003405


--------------------------------------------------------------------------------------------------------



  FREE ENERGIE OF THE ION-ELECTRON SYSTEM (eV)
  ---------------------------------------------------
  free  energy   TOTEN  =       -17.37901176 eV

  energy  without entropy=      -17.37840709  energy(sigma->0) =      -17.37870942

 d Force =-0.3221660E-02[-0.417E-02,-0.227E-02]  d Energy =-0.3171327E-02-0.503E-04
 d Force =-0.3279434E+00[-0.346E+00,-0.310E+00]  d Ewald  =-0.3279558E+00 0.124E-04


--------------------------------------------------------------------------------------------------------


    POTLOK:  cpu time      0.0116: real time      0.0116


--------------------------------------------------------------------------------------------------------


 Finite differences progress:
  Degree of freedom:  12/ 12
  Displacement:        4/  4
  Total:              48/ 48


--------------------------------------------------------------------------------------------------------



  ELASTIC MODULI  (kBar)
 Direction    XX          YY          ZZ          XY          YZ          ZX
 --------------------------------------------------------------------------------
 XX        1343.9284    335.2253    321.8183      0.0000     76.1571     -0.0000
 YY         320.8038   1368.7280    310.8628     -0.0000    -77.8360     -0.0000
 ZZ         298.6455    298.6455   1327.3653     -0.0000     -0.0000     -0.0000
 XY           0.6356      0.5934      0.7487    503.6171     -0.0071     79.7573
 YZ          78.5880    -69.7888      3.6206     -0.0000    600.8097     -0.0000
 ZX           0.6835      0.5187      0.5745     73.4937      0.0535    595.5877
 --------------------------------------------------------------------------------


  SYMMETRIZED ELASTIC MODULI (kBar)
 Direction    XX          YY          ZZ          XY          YZ          ZX
 --------------------------------------------------------------------------------
 XX        1351.0583    333.2844    307.4930      0.0000     76.1090      0.0000
 YY         333.2844   1351.0583    307.4930      0.0000    -76.1090      0.0000
 ZZ         307.4930    307.4930   1327.3653      0.0000     -0.0000      0.0000
 XY           0.0000      0.0000      0.0000    508.8870      0.0000     76.1090
 YZ          76.1090    -76.1090     -0.0000      0.0000    598.1987      0.0000
 ZX           0.0000      0.0000      0.0000     76.1090     -0.0000    598.1987
 --------------------------------------------------------------------------------

 INTERNAL STRAIN TENSORS FROM STRAINED CELLS
 ============================================

 INTERNAL STRAIN TENSOR FOR ION    1 for displacements in x,y,z  (eV/Angst):
          X           Y           Z          XY          YZ          ZX
  --------------------------------------------------------------------------------
  x     0.00000     0.00000    -0.00000    -0.00000    -0.00000     0.00000
  y    -0.00000    -0.00000    -0.00000     0.00000    -0.00000    -0.00000
  z    -0.00000    -0.00000    -0.00000    -0.00000    -0.00000    -0.00000

 INTERNAL STRAIN TENSOR FOR ION    2 for displacements in x,y,z  (eV/Angst):
          X           Y           Z          XY          YZ          ZX
  --------------------------------------------------------------------------------
  x     0.00000     0.00000    -0.00000    -0.00000    -0.00000     0.00000
  y    -0.00000    -0.00000    -0.00000     0.00000    -0.00000    -0.00000
  z    -0.00000    -0.00000    -0.00000    -0.00000    -0.00000    -0.00000

 INTERNAL STRAIN TENSOR FOR ION    3 for displacements in x,y,z  (eV/Angst):
          X           Y           Z          XY          YZ          ZX
  --------------------------------------------------------------------------------
  x    -0.00000    -0.00000    -0.00000     0.52488    -0.00000    -5.89217
  y     0.49820    -0.35244     0.00000    -0.00008    -5.95959     0.00050
  z    -1.14099    -1.07351    -8.24747     0.00083     0.00572     0.00051

 INTERNAL STRAIN TENSOR FOR ION    4 for displacements in x,y,z  (eV/Angst):
          X           Y           Z          XY          YZ          ZX
  --------------------------------------------------------------------------------
  x    -0.00000    -0.00000     0.00000    -0.52488     0.00000     5.89217
  y    -0.49820     0.35244    -0.00000     0.00008     5.95959    -0.00050
  z     1.14099     1.07351     8.24747    -0.00083    -0.00572    -0.00051

 INTERNAL STRAIN TENSORS FROM DISPLACED ATOMS
 ============================================

 INTERNAL STRAIN TENSOR FOR ION    1 for displacements in x,y,z  (eV/Angst):
          X           Y           Z          XY          YZ          ZX
  --------------------------------------------------------------------------------
  x     0.00000     0.00000     0.00000     0.00000     0.00000     0.00000
  y     0.00000     0.00000     0.00000     0.00000     0.00000     0.00000
  z     0.00000     0.00000     0.00000     0.00000     0.00000     0.00000

 INTERNAL STRAIN TENSOR FOR ION    2 for displacements in x,y,z  (eV/Angst):
          X           Y           Z          XY          YZ          ZX
  --------------------------------------------------------------------------------
  x     0.00000     0.00000     0.00000     0.00000     0.00000     0.00000
  y     0.00000     0.00000     0.00000     0.00000     0.00000     0.00000
  z     0.00000     0.00000     0.00000     0.00000     0.00000     0.00000

 INTERNAL STRAIN TENSOR FOR ION    3 for displacements in x,y,z  (eV/Angst):
          X           Y           Z          XY          YZ          ZX
  --------------------------------------------------------------------------------
  x     0.00000    -0.00000    -0.00000     0.83813     0.00000    -6.08698
  y     0.83813    -0.83813     0.00000    -0.00000    -6.08698    -0.00000
  z    -1.08289    -1.08289    -8.12919     0.00000     0.00000    -0.00000

 INTERNAL STRAIN TENSOR FOR ION    4 for displacements in x,y,z  (eV/Angst):
          X           Y           Z          XY          YZ          ZX
  --------------------------------------------------------------------------------
  x    -0.00000     0.00000     0.00000    -0.83813    -0.00000     6.08698
  y    -0.83813     0.83813    -0.00000     0.00000     6.08698     0.00000
  z     1.08289     1.08289     8.12919    -0.00000    -0.00000     0.00000


--------------------------------------------------------------------------------------------------------



 Eigenvectors and eigenvalues of the dynamical matrix
 ----------------------------------------------------


   1 f  =   12.925330 THz    81.212245 2PiTHz  431.142611 cm-1    53.454847 meV
             X         Y         Z           dx          dy          dz
      0.000000 -0.000000 10.044537    -0.000000   -0.000000    0.120393  
      0.000000  0.000000  0.000000    -0.000000    0.000000   -0.859454  
      0.000000 -0.000000 14.745006     0.000000   -0.000000    0.351315  
     -0.000000 -0.000000  5.344069    -0.000000   -0.000000    0.351315  

   2 f  =    9.173344 THz    57.637819 2PiTHz  305.989812 cm-1    37.937884 meV
             X         Y         Z           dx          dy          dz
      0.000000 -0.000000 10.044537     0.000000   -0.000000   -0.000000  
      0.000000  0.000000  0.000000    -0.000000    0.000000    0.000000  
      0.000000 -0.000000 14.745006    -0.000000    0.000000   -0.707107  
     -0.000000 -0.000000  5.344069     0.000000   -0.000000    0.707107  

   3 f  =    6.783301 THz    42.620739 2PiTHz  226.266576 cm-1    28.053467 meV
             X         Y         Z           dx          dy          dz
      0.000000 -0.000000 10.044537    -0.000000    0.000000    0.000000  
      0.000000  0.000000  0.000000    -0.000000   -0.000000   -0.000000  
      0.000000 -0.000000 14.745006     0.707107   -0.000000   -0.000000  
     -0.000000 -0.000000  5.344069    -0.707107    0.000000   -0.000000  

   4 f  =    6.783301 THz    42.620739 2PiTHz  226.266576 cm-1    28.053467 meV
             X         Y         Z           dx          dy          dz
      0.000000 -0.000000 10.044537    -0.000000   -0.000000   -0.000000  
      0.000000  0.000000  0.000000    -0.000000    0.000000    0.000000  
      0.000000 -0.000000 14.745006     0.000000    0.707107    0.000000  
     -0.000000 -0.000000  5.344069    -0.000000   -0.707107   -0.000000  

   5 f  =    6.498223 THz    40.829537 2PiTHz  216.757376 cm-1    26.874477 meV
             X         Y         Z           dx          dy          dz
      0.000000 -0.000000 10.044537     0.084000   -0.000000    0.000000  
      0.000000  0.000000  0.000000     0.816486   -0.000001   -0.000000  
      0.000000 -0.000000 14.745006    -0.403915    0.000000   -0.000000  
     -0.000000 -0.000000  5.344069    -0.403915    0.000000   -0.000000  

   6 f  =    6.498223 THz    40.829537 2PiTHz  216.757376 cm-1    26.874477 meV
             X         Y         Z           dx          dy          dz
      0.000000 -0.000000 10.044537    -0.000000   -0.084000    0.000000  
      0.000000  0.000000  0.000000    -0.000001   -0.816486   -0.000000  
      0.000000 -0.000000 14.745006     0.000000    0.403915   -0.000000  
     -0.000000 -0.000000  5.344069     0.000000    0.403915   -0.000000  

   7 f  =    6.408226 THz    40.264070 2PiTHz  213.755401 cm-1    26.502280 meV
             X         Y         Z           dx          dy          dz
      0.000000 -0.000000 10.044537     0.000000    0.000000   -0.883746  
      0.000000  0.000000  0.000000     0.000000   -0.000000    0.135193  
      0.000000 -0.000000 14.745006    -0.000000    0.000000    0.316794  
     -0.000000 -0.000000  5.344069    -0.000000    0.000000    0.316794  

   8 f  =    4.181288 THz    26.271808 2PiTHz  139.472758 cm-1    17.292410 meV
             X         Y         Z           dx          dy          dz
      0.000000 -0.000000 10.044537     0.869987    0.000000   -0.000000  
      0.000000  0.000000  0.000000    -0.339602   -0.000000    0.000000  
      0.000000 -0.000000 14.745006    -0.252777   -0.000000    0.000000  
     -0.000000 -0.000000  5.344069    -0.252777   -0.000000    0.000000  

   9 f  =    4.181288 THz    26.271808 2PiTHz  139.472758 cm-1    17.292410 meV
             X         Y         Z           dx          dy          dz
      0.000000 -0.000000 10.044537     0.000000   -0.869987   -0.000000  
      0.000000  0.000000  0.000000    -0.000000    0.339602    0.000000  
      0.000000 -0.000000 14.745006    -0.000000    0.252777    0.000000  
     -0.000000 -0.000000  5.344069    -0.000000    0.252777    0.000000  

  10 f/i=    0.039970 THz     0.251137 2PiTHz    1.333245 cm-1     0.165301 meV
             X         Y         Z           dx          dy          dz
      0.000000 -0.000000 10.044537     0.000000   -0.000000   -0.452216  
      0.000000  0.000000  0.000000     0.000000   -0.000000   -0.493013  
      0.000000 -0.000000 14.745006     0.000000   -0.000000   -0.525566  
     -0.000000 -0.000000  5.344069     0.000000   -0.000000   -0.525566  

  11 f/i=    0.213409 THz     1.340886 2PiTHz    7.118546 cm-1     0.882587 meV
             X         Y         Z           dx          dy          dz
      0.000000 -0.000000 10.044537    -0.002462    0.485860    0.000000  
      0.000000  0.000000  0.000000    -0.002366    0.466922   -0.000000  
      0.000000 -0.000000 14.745006    -0.002648    0.522445   -0.000000  
     -0.000000 -0.000000  5.344069    -0.002648    0.522445   -0.000000  

  12 f/i=    0.213409 THz     1.340886 2PiTHz    7.118546 cm-1     0.882587 meV
             X         Y         Z           dx          dy          dz
      0.000000 -0.000000 10.044537    -0.485860   -0.002462   -0.000000  
      0.000000  0.000000  0.000000    -0.466922   -0.002366   -0.000000  
      0.000000 -0.000000 14.745006    -0.522445   -0.002648   -0.000000  
     -0.000000 -0.000000  5.344069    -0.522445   -0.002648   -0.000000  



--------------------------------------------------------------------------------------------------------



 ELASTIC MODULI CONTR FROM IONIC RELAXATION (kBar)
 Direction    XX          YY          ZZ          XY          YZ          ZX
 --------------------------------------------------------------------------------
 XX          -9.8409      0.4487    -35.2536     -0.0000     37.3645      0.0000
 YY           0.4487     -9.8409    -35.2536      0.0000    -37.3645     -0.0000
 ZZ         -35.2536    -35.2536   -264.6470      0.0000      0.0000     -0.0000
 XY          -0.0000      0.0000      0.0000     -5.1448      0.0000     37.3645
 YZ          37.3645    -37.3645      0.0000      0.0000   -271.3621     -0.0000
 ZX           0.0000     -0.0000     -0.0000     37.3645     -0.0000   -271.3622
 --------------------------------------------------------------------------------


 TOTAL ELASTIC MODULI (kBar)
 Direction    XX          YY          ZZ          XY          YZ          ZX
 --------------------------------------------------------------------------------
 XX        1341.2174    333.7331    272.2394      0.0000    113.4735      0.0000
 YY         333.7331   1341.2174    272.2394      0.0000   -113.4735      0.0000
 ZZ         272.2394    272.2394   1062.7183      0.0000     -0.0000      0.0000
 XY           0.0000      0.0000      0.0000    503.7422      0.0000    113.4735
 YZ         113.4735   -113.4735     -0.0000      0.0000    326.8365     -0.0000
 ZX           0.0000      0.0000      0.0000    113.4735     -0.0000    326.8365
 --------------------------------------------------------------------------------



--------------------------------------------------------------------------------------------------------


  LATTYP: Found a trigonal (rhomboedric) cell.
 ALAT       =     7.0004864999
 COS(alpha) =     0.8724988307
  
  Lattice vectors:
  
 A1 = (   1.7675443044,   1.0204921799,   6.6963567765)
 A2 = (  -1.7675443044,   1.0204921799,   6.6963567765)
 A3 = (  -0.0000000000,  -2.0409843599,   6.6963567765)


Analysis of symmetry for initial positions (statically):
=====================================================================
 Subroutine PRICEL returns:
 Original cell was already a primitive cell.
 

 Routine SETGRP: Setting up the symmetry group for a 
 trigonal (rhombohedral) supercell.


 Subroutine GETGRP returns: Found 12 space group operations
 (whereof 12 operations were pure point group operations)
 out of a pool of 12 trial point group operations.


The static configuration has the point symmetry D_3d.


Analysis of symmetry for dynamics (positions and initial velocities):
=====================================================================
 Subroutine PRICEL returns:
 Original cell was already a primitive cell.
 

 Routine SETGRP: Setting up the symmetry group for a 
 trigonal (rhombohedral) supercell.


 Subroutine GETGRP returns: Found 12 space group operations
 (whereof 12 operations were pure point group operations)
 out of a pool of 12 trial point group operations.


The dynamic configuration has the point symmetry D_3d.


 Subroutine INISYM returns: Found 12 space group operations
 (whereof 12 operations are pure point group operations),
 and found     1 'primitive' translations


 KPOINTS: pymatgen with grid density = 600 / numbe

Automatic generation of k-mesh.
 Grid dimensions read from file:
 generate k-points for:    5    5    5

 Generating k-lattice:

  Cartesian coordinates                     Fractional coordinates (reciprocal lattice)
     0.056575668  0.032663977  0.009955662     0.200000000 -0.000000000 -0.000000000
    -0.056575668  0.032663977  0.009955662     0.000000000  0.200000000 -0.000000000
    -0.000000000 -0.065327954  0.009955662    -0.000000000 -0.000000000  0.200000000

  Length of vectors
     0.066082198  0.066082198  0.066082198

  Shift w.r.t. Gamma in fractional coordinates (k-lattice)
     0.000000000  0.000000000  0.000000000

 
 Subroutine IBZKPT returns following result:
 ===========================================
 
 Found     19 irreducible k-points:
 
 Following reciprocal coordinates:
            Coordinates               Weight
  0.000000  0.000000  0.000000      1.000000
  0.200000  0.000000  0.000000      6.000000
  0.400000  0.000000  0.000000      6.000000
  0.200000  0.200000  0.000000      6.000000
  0.400000  0.200000  0.000000     12.000000
 -0.400000  0.200000  0.000000     12.000000
 -0.200000  0.200000  0.000000      6.000000
  0.400000  0.400000  0.000000      6.000000
 -0.400000  0.400000  0.000000      6.000000
  0.200000  0.200000  0.200000      2.000000
  0.400000  0.200000  0.200000      6.000000
 -0.400000  0.200000  0.200000      6.000000
 -0.200000  0.200000  0.200000      6.000000
  0.400000  0.400000  0.200000      6.000000
 -0.400000  0.400000  0.200000     12.000000
 -0.200000  0.400000  0.200000     12.000000
 -0.400000 -0.400000  0.200000      6.000000
  0.400000  0.400000  0.400000      2.000000
 -0.400000  0.400000  0.400000      6.000000
 
 Following cartesian coordinates:
            Coordinates               Weight
  0.000000  0.000000  0.000000      1.000000
  0.056576  0.032664  0.009956      6.000000
  0.113151  0.065328  0.019911      6.000000
  0.000000  0.065328  0.019911      6.000000
  0.056576  0.097992  0.029867     12.000000
 -0.169727 -0.032664 -0.009956     12.000000
 -0.113151 -0.000000  0.000000      6.000000
  0.000000  0.130656  0.039823      6.000000
 -0.226303  0.000000  0.000000      6.000000
  0.000000  0.000000  0.029867      2.000000
  0.056576  0.032664  0.039823      6.000000
 -0.169727 -0.097992 -0.000000      6.000000
 -0.113151 -0.065328  0.009956      6.000000
  0.000000  0.065328  0.049778      6.000000
 -0.226303 -0.065328  0.009956     12.000000
 -0.169727 -0.032664  0.019911     12.000000
 -0.000000 -0.195984 -0.029867      6.000000
  0.000000  0.000000  0.059734      2.000000
 -0.226303 -0.130656  0.019911      6.000000
 
     LOOP+:  cpu time      4.4103: real time      4.4398
    4ORBIT:  cpu time      0.0000: real time      0.0000

 total amount of memory used by VASP MPI-rank0    35872. kBytes
=======================================================================

   base      :      30000. kBytes
   nonlr-proj:       1831. kBytes
   fftplans  :        708. kBytes
   grid      :       2903. kBytes
   one-center:         12. kBytes
   wavefun   :        418. kBytes

  
  
 General timing and accounting informations for this job:
 ========================================================
  
                  Total CPU time used (sec):      541.832
                            User time (sec):      540.563
                          System time (sec):        1.270
                         Elapsed time (sec):      544.987
  
                   Maximum memory used (kb):      136608.
                   Average memory used (kb):          N/A
  
                          Minor page faults:        53514
                          Major page faults:          182
                 Voluntary context switches:         1883
