  79  79   0   0
  0.2352942E+02  0.1210264E-08  0.7093817E-09  0.2165102E-08  0.5000000E-15
   1.0000000000000000E-004
  CAR 
 endpoint_relax                          
      9.34975929    -23.89490456  301      0.87890031      1.00000000
    -23.895  0.0000E+00  0.0000E+00
    -23.784  0.0000E+00  0.0000E+00
    -23.673  0.0000E+00  0.0000E+00
    -23.562 -0.2159E-30 -0.2393E-31
    -23.452 -0.1617E-26 -0.1792E-27
    -23.341 -0.6461E-23 -0.7162E-24
    -23.230 -0.1397E-19 -0.1549E-20
    -23.119 -0.1633E-16 -0.1812E-17
    -23.008 -0.1001E-13 -0.1111E-14
    -22.898 -0.3396E-11 -0.3775E-12
    -22.787 -0.6206E-09 -0.6915E-10
    -22.676 -0.6086E-07 -0.6813E-08
    -22.565 -0.3185E-05 -0.3598E-06
    -22.454 -0.8810E-04 -0.1012E-04
    -22.343 -0.1263E-02 -0.1501E-03
    -22.233 -0.9012E-02 -0.1149E-02
    -22.122 -0.2828E-01 -0.4283E-02
    -22.011 -0.1221E-01 -0.5636E-02
    -21.900  0.1745E+00  0.1370E-01
    -21.789  0.7041E+00  0.9173E-01
    -21.679  0.1583E+01  0.2672E+00
    -21.568  0.2110E+01  0.5010E+00
    -21.457  0.1638E+01  0.6825E+00
    -21.346  0.7595E+00  0.7666E+00
    -21.235  0.1806E+00  0.7866E+00
    -21.125 -0.2011E-01  0.7844E+00
    -21.014 -0.2968E-01  0.7811E+00
    -20.903 -0.8826E-02  0.7801E+00
    -20.792 -0.1232E-02  0.7800E+00
    -20.681 -0.8910E-04  0.7800E+00
    -20.570 -0.3434E-05  0.7800E+00
    -20.460 -0.7121E-07  0.7800E+00
    -20.349 -0.7973E-09  0.7800E+00
    -20.238 -0.4828E-11  0.7800E+00
    -20.127 -0.1582E-13  0.7800E+00
    -20.016 -0.2672E-16  0.7800E+00
    -19.906  0.0000E+00  0.7800E+00
    -19.795  0.0000E+00  0.7800E+00
    -19.684  0.0000E+00  0.7800E+00
    -19.573  0.0000E+00  0.7800E+00
    -19.462  0.0000E+00  0.7800E+00
    -19.351  0.0000E+00  0.7800E+00
    -19.241  0.0000E+00  0.7800E+00
    -19.130  0.0000E+00  0.7800E+00
    -19.019  0.0000E+00  0.7800E+00
    -18.908  0.0000E+00  0.7800E+00
    -18.797  0.0000E+00  0.7800E+00
    -18.687  0.0000E+00  0.7800E+00
    -18.576  0.0000E+00  0.7800E+00
    -18.465  0.0000E+00  0.7800E+00
    -18.354  0.0000E+00  0.7800E+00
    -18.243  0.0000E+00  0.7800E+00
    -18.132  0.0000E+00  0.7800E+00
    -18.022  0.0000E+00  0.7800E+00
    -17.911  0.0000E+00  0.7800E+00
    -17.800  0.0000E+00  0.7800E+00
    -17.689  0.0000E+00  0.7800E+00
    -17.578  0.0000E+00  0.7800E+00
    -17.468  0.0000E+00  0.7800E+00
    -17.357  0.0000E+00  0.7800E+00
    -17.246  0.0000E+00  0.7800E+00
    -17.135  0.0000E+00  0.7800E+00
    -17.024  0.0000E+00  0.7800E+00
    -16.914  0.0000E+00  0.7800E+00
    -16.803  0.0000E+00  0.7800E+00
    -16.692  0.0000E+00  0.7800E+00
    -16.581  0.0000E+00  0.7800E+00
    -16.470  0.0000E+00  0.7800E+00
    -16.359  0.0000E+00  0.7800E+00
    -16.249  0.0000E+00  0.7800E+00
    -16.138  0.0000E+00  0.7800E+00
    -16.027  0.0000E+00  0.7800E+00
    -15.916  0.0000E+00  0.7800E+00
    -15.805  0.0000E+00  0.7800E+00
    -15.695  0.0000E+00  0.7800E+00
    -15.584  0.0000E+00  0.7800E+00
    -15.473  0.0000E+00  0.7800E+00
    -15.362  0.0000E+00  0.7800E+00
    -15.251  0.0000E+00  0.7800E+00
    -15.140  0.0000E+00  0.7800E+00
    -15.030  0.0000E+00  0.7800E+00
    -14.919  0.0000E+00  0.7800E+00
    -14.808  0.0000E+00  0.7800E+00
    -14.697  0.0000E+00  0.7800E+00
    -14.586  0.0000E+00  0.7800E+00
    -14.476  0.0000E+00  0.7800E+00
    -14.365  0.0000E+00  0.7800E+00
    -14.254  0.0000E+00  0.7800E+00
    -14.143  0.0000E+00  0.7800E+00
    -14.032  0.0000E+00  0.7800E+00
    -13.922  0.0000E+00  0.7800E+00
    -13.811  0.0000E+00  0.7800E+00
    -13.700  0.0000E+00  0.7800E+00
    -13.589  0.0000E+00  0.7800E+00
    -13.478  0.0000E+00  0.7800E+00
    -13.367  0.0000E+00  0.7800E+00
    -13.257  0.0000E+00  0.7800E+00
    -13.146  0.0000E+00  0.7800E+00
    -13.035  0.0000E+00  0.7800E+00
    -12.924  0.0000E+00  0.7800E+00
    -12.813  0.0000E+00  0.7800E+00
    -12.703  0.0000E+00  0.7800E+00
    -12.592  0.0000E+00  0.7800E+00
    -12.481  0.0000E+00  0.7800E+00
    -12.370  0.0000E+00  0.7800E+00
    -12.259 -0.8614E-32  0.7800E+00
    -12.148 -0.7292E-28  0.7800E+00
    -12.038 -0.3277E-24  0.7800E+00
    -11.927 -0.7948E-21  0.7800E+00
    -11.816 -0.1040E-17  0.7800E+00
    -11.705 -0.7146E-15  0.7800E+00
    -11.594 -0.2698E-12  0.7800E+00
    -11.484 -0.5497E-10  0.7800E+00
    -11.373 -0.6019E-08  0.7800E+00
    -11.262 -0.3529E-06  0.7800E+00
    -11.151 -0.1100E-04  0.7800E+00
    -11.040 -0.1792E-03  0.7800E+00
    -10.929 -0.1463E-02  0.7798E+00
    -10.819 -0.5178E-02  0.7792E+00
    -10.708 -0.1106E-02  0.7791E+00
    -10.597  0.4351E-01  0.7839E+00
    -10.486  0.1291E+00  0.7982E+00
    -10.375  0.1728E+00  0.8174E+00
    -10.265  0.1176E+00  0.8304E+00
    -10.154  0.2708E-01  0.8334E+00
    -10.043 -0.1674E-01  0.8316E+00
     -9.932  0.2231E-01  0.8340E+00
     -9.821  0.1853E+00  0.8546E+00
     -9.711  0.4200E+00  0.9011E+00
     -9.600  0.4969E+00  0.9562E+00
     -9.489  0.3006E+00  0.9895E+00
     -9.378  0.6498E-01  0.9967E+00
     -9.267 -0.1662E-01  0.9949E+00
     -9.156 -0.1128E-01  0.9936E+00
     -9.046 -0.2225E-02  0.9934E+00
     -8.935 -0.2071E-03  0.9933E+00
     -8.824 -0.9942E-05  0.9933E+00
     -8.713 -0.2539E-06  0.9933E+00
     -8.602 -0.3491E-08  0.9933E+00
     -8.492 -0.2598E-10  0.9933E+00
     -8.381 -0.1049E-12  0.9933E+00
     -8.270 -0.2271E-15  0.9933E+00
     -8.159  0.0000E+00  0.9933E+00
     -8.048  0.0000E+00  0.9933E+00
     -7.937  0.0000E+00  0.9933E+00
     -7.827  0.0000E+00  0.9933E+00
     -7.716  0.0000E+00  0.9933E+00
     -7.605  0.0000E+00  0.9933E+00
     -7.494  0.0000E+00  0.9933E+00
     -7.383  0.0000E+00  0.9933E+00
     -7.273  0.0000E+00  0.9933E+00
     -7.162  0.0000E+00  0.9933E+00
     -7.051  0.0000E+00  0.9933E+00
     -6.940  0.0000E+00  0.9933E+00
     -6.829  0.0000E+00  0.9933E+00
     -6.718  0.0000E+00  0.9933E+00
     -6.608  0.0000E+00  0.9933E+00
     -6.497  0.0000E+00  0.9933E+00
     -6.386  0.0000E+00  0.9933E+00
     -6.275  0.0000E+00  0.9933E+00
     -6.164  0.0000E+00  0.9933E+00
     -6.054  0.0000E+00  0.9933E+00
     -5.943  0.0000E+00  0.9933E+00
     -5.832  0.0000E+00  0.9933E+00
     -5.721  0.0000E+00  0.9933E+00
     -5.610  0.0000E+00  0.9933E+00
     -5.500  0.0000E+00  0.9933E+00
     -5.389  0.0000E+00  0.9933E+00
     -5.278  0.0000E+00  0.9933E+00
     -5.167  0.0000E+00  0.9933E+00
     -5.056  0.0000E+00  0.9933E+00
     -4.945 -0.7312E-31  0.9933E+00
     -4.835 -0.5263E-27  0.9933E+00
     -4.724 -0.2037E-23  0.9933E+00
     -4.613 -0.4245E-20  0.9933E+00
     -4.502 -0.4761E-17  0.9933E+00
     -4.391 -0.2783E-14  0.9933E+00
     -4.281 -0.8959E-12  0.9933E+00
     -4.170 -0.1546E-09  0.9933E+00
     -4.059 -0.1426E-07  0.9933E+00
     -3.948 -0.7015E-06  0.9933E+00
     -3.837 -0.1828E-04  0.9933E+00
     -3.726 -0.2486E-03  0.9933E+00
     -3.616 -0.1692E-02  0.9931E+00
     -3.505 -0.4842E-02  0.9926E+00
     -3.394  0.1901E-02  0.9928E+00
     -3.283  0.4742E-01  0.9980E+00
     -3.172  0.1269E+00  0.1012E+01
     -3.062  0.1645E+00  0.1030E+01
     -2.951  0.1147E+00  0.1043E+01
     -2.840  0.3838E-01  0.1047E+01
     -2.729  0.2440E-03  0.1047E+01
     -2.618 -0.4301E-02  0.1047E+01
     -2.508 -0.1417E-02  0.1047E+01
     -2.397 -0.2036E-03  0.1047E+01
     -2.286 -0.3672E-04  0.1047E+01
     -2.175 -0.3337E-03  0.1047E+01
     -2.064 -0.2554E-02  0.1046E+01
     -1.953 -0.8622E-02  0.1045E+01
     -1.843 -0.1472E-02  0.1045E+01
     -1.732  0.7114E-01  0.1053E+01
     -1.621  0.2109E+00  0.1076E+01
     -1.510  0.3056E+00  0.1110E+01
     -1.399  0.2988E+00  0.1143E+01
     -1.289  0.2577E+00  0.1172E+01
     -1.178  0.2015E+00  0.1194E+01
     -1.067  0.1023E+00  0.1206E+01
     -0.956  0.1139E-01  0.1207E+01
     -0.845 -0.1262E-01  0.1206E+01
     -0.734  0.5324E-01  0.1211E+01
     -0.624  0.1837E+00  0.1232E+01
     -0.513  0.2536E+00  0.1260E+01
     -0.402  0.2329E+00  0.1286E+01
     -0.291  0.2147E+00  0.1310E+01
     -0.180  0.2326E+00  0.1335E+01
     -0.070  0.2621E+00  0.1364E+01
      0.041  0.2563E+00  0.1393E+01
      0.152  0.2403E+00  0.1419E+01
      0.263  0.2679E+00  0.1449E+01
      0.374  0.3186E+00  0.1484E+01
      0.485  0.3710E+00  0.1525E+01
      0.595  0.3801E+00  0.1568E+01
      0.706  0.3095E+00  0.1602E+01
      0.817  0.1949E+00  0.1623E+01
      0.928  0.8423E-01  0.1633E+01
      1.039  0.1479E-01  0.1634E+01
      1.149 -0.5587E-02  0.1634E+01
      1.260 -0.3681E-02  0.1633E+01
      1.371 -0.8065E-03  0.1633E+01
      1.482 -0.8498E-04  0.1633E+01
      1.593 -0.4609E-05  0.1633E+01
      1.703 -0.1316E-06  0.1633E+01
      1.814 -0.1995E-08  0.1633E+01
      1.925 -0.1616E-10  0.1633E+01
      2.036 -0.7008E-13  0.1633E+01
      2.147 -0.1603E-15  0.1633E+01
      2.258 -0.6882E-19  0.1633E+01
      2.368 -0.5706E-16  0.1633E+01
      2.479 -0.2746E-13  0.1633E+01
      2.590 -0.6853E-11  0.1633E+01
      2.701 -0.9087E-09  0.1633E+01
      2.812 -0.6353E-07  0.1633E+01
      2.922 -0.2311E-05  0.1633E+01
      3.033 -0.4261E-04  0.1633E+01
      3.144 -0.3747E-03  0.1633E+01
      3.255 -0.1277E-02  0.1633E+01
      3.366  0.6894E-03  0.1633E+01
      3.477  0.1323E-01  0.1635E+01
      3.587  0.2661E-01  0.1638E+01
      3.698  0.1950E-01  0.1640E+01
      3.809  0.3902E-02  0.1640E+01
      3.920 -0.1688E-02  0.1640E+01
      4.031 -0.2463E-02  0.1640E+01
      4.141 -0.1729E-02  0.1640E+01
      4.252  0.1400E-01  0.1641E+01
      4.363  0.4475E-01  0.1646E+01
      4.474  0.4891E-01  0.1652E+01
      4.585  0.1926E-01  0.1654E+01
      4.696 -0.2145E-02  0.1653E+01
      4.806 -0.5539E-02  0.1653E+01
      4.917  0.8329E-02  0.1654E+01
      5.028  0.4584E-01  0.1659E+01
      5.139  0.7281E-01  0.1667E+01
      5.250  0.7524E-01  0.1675E+01
      5.360  0.9673E-01  0.1686E+01
      5.471  0.1336E+00  0.1701E+01
      5.582  0.1644E+00  0.1719E+01
      5.693  0.1945E+00  0.1741E+01
      5.804  0.2082E+00  0.1764E+01
      5.914  0.1762E+00  0.1783E+01
      6.025  0.1286E+00  0.1797E+01
      6.136  0.1277E+00  0.1812E+01
      6.247  0.1470E+00  0.1828E+01
      6.358  0.1426E+00  0.1844E+01
      6.469  0.1483E+00  0.1860E+01
      6.579  0.1810E+00  0.1880E+01
      6.690  0.1927E+00  0.1901E+01
      6.801  0.1793E+00  0.1921E+01
      6.912  0.1950E+00  0.1943E+01
      7.023  0.2215E+00  0.1967E+01
      7.133  0.2107E+00  0.1991E+01
      7.244  0.1705E+00  0.2010E+01
      7.355  0.1122E+00  0.2022E+01
      7.466  0.4467E-01  0.2027E+01
      7.577  0.2903E-02  0.2027E+01
      7.688 -0.4710E-02  0.2027E+01
      7.798 -0.1765E-02  0.2027E+01
      7.909 -0.2670E-03  0.2027E+01
      8.020 -0.1996E-04  0.2027E+01
      8.131 -0.7761E-06  0.2027E+01
      8.242 -0.1597E-07  0.2027E+01
      8.352 -0.1751E-09  0.2027E+01
      8.463 -0.1028E-11  0.2027E+01
      8.574 -0.3233E-14  0.2027E+01
      8.685  0.0000E+00  0.2027E+01
      8.796  0.0000E+00  0.2027E+01
      8.906  0.0000E+00  0.2027E+01
      9.017  0.0000E+00  0.2027E+01
      9.128  0.0000E+00  0.2027E+01
      9.239  0.0000E+00  0.2027E+01
      9.350  0.0000E+00  0.2027E+01
