       N       E                     dE             d eps       ncg     rms          rms(c)
DAV:   1     0.459584765308E+04    0.45958E+04   -0.19991E+05   672   0.136E+03
DAV:   2     0.320972951748E+03   -0.42749E+04   -0.40942E+04   656   0.387E+02
DAV:   3    -0.284563636578E+03   -0.60554E+03   -0.59795E+03   704   0.160E+02
DAV:   4    -0.321495105994E+03   -0.36931E+02   -0.36612E+02   704   0.369E+01
DAV:   5    -0.323098401360E+03   -0.16033E+01   -0.15998E+01   832   0.789E+00    0.267E+01
RMM:   6    -0.305399085198E+03    0.17699E+02   -0.29133E+01   645   0.557E+00    0.179E+01
RMM:   7    -0.304422123389E+03    0.97696E+00   -0.33369E+01   629   0.510E+00    0.108E+01
RMM:   8    -0.304179746624E+03    0.24238E+00   -0.26531E+00   743   0.273E+00    0.598E+00
RMM:   9    -0.304094683435E+03    0.85063E-01   -0.16510E+00   665   0.159E+00    0.259E+00
RMM:  10    -0.303947753827E+03    0.14693E+00   -0.37649E-01   779   0.941E-01    0.184E+00
RMM:  11    -0.303889502534E+03    0.58251E-01   -0.79871E-02   763   0.389E-01    0.125E+00
RMM:  12    -0.303888613901E+03    0.88863E-03   -0.37878E-02   732   0.224E-01    0.838E-01
RMM:  13    -0.303894007208E+03   -0.53933E-02   -0.51106E-02   694   0.233E-01    0.968E-01
RMM:  14    -0.303890587611E+03    0.34196E-02   -0.16378E-02   674   0.171E-01    0.417E-01
RMM:  15    -0.303887383035E+03    0.32046E-02   -0.62675E-03   711   0.102E-01    0.282E-01
RMM:  16    -0.303888063877E+03   -0.68084E-03   -0.24630E-03   669   0.699E-02    0.175E-01
RMM:  17    -0.303888409554E+03   -0.34568E-03   -0.15687E-03   618   0.593E-02    0.145E-01
RMM:  18    -0.303888150015E+03    0.25954E-03   -0.27727E-04   689   0.291E-02    0.333E-02
RMM:  19    -0.303888159908E+03   -0.98933E-05   -0.86896E-05   547   0.160E-02
   1 F= -.30388816E+03 E0= -.30393004E+03  d E =-.303888E+03
       N       E                     dE             d eps       ncg     rms          rms(c)
DAV:   1    -0.303917157312E+03   -0.29007E-01   -0.46478E+00   704   0.311E+00    0.106E+00
RMM:   2    -0.303930235077E+03   -0.13078E-01   -0.14342E-01   754   0.721E-01    0.188E-01
RMM:   3    -0.303932815127E+03   -0.25801E-02   -0.30144E-02   711   0.332E-01    0.346E-01
RMM:   4    -0.303932218383E+03    0.59674E-03   -0.56213E-03   844   0.145E-01    0.262E-01
RMM:   5    -0.303932055468E+03    0.16291E-03   -0.60873E-04   641   0.366E-02    0.237E-01
RMM:   6    -0.303931979262E+03    0.76207E-04   -0.94481E-05   589   0.158E-02    0.225E-01
RMM:   7    -0.303931911626E+03    0.67636E-04   -0.54387E-05   499   0.995E-03    0.195E-01
RMM:   8    -0.303931739832E+03    0.17179E-03   -0.12558E-03   726   0.295E-02    0.738E-02
RMM:   9    -0.303931692103E+03    0.47729E-04   -0.27277E-04   675   0.176E-02    0.551E-02
RMM:  10    -0.303931682820E+03    0.92834E-05   -0.12547E-05   393   0.669E-03
   2 F= -.30393168E+03 E0= -.30397414E+03  d E =-.435229E-01
       N       E                     dE             d eps       ncg     rms          rms(c)
DAV:   1    -0.303923496667E+03    0.81954E-02   -0.10967E+01   640   0.480E+00    0.167E+00
RMM:   2    -0.303951428289E+03   -0.27932E-01   -0.31422E-01   735   0.111E+00    0.283E-01
RMM:   3    -0.303959102711E+03   -0.76744E-02   -0.83723E-02   741   0.559E-01    0.583E-01
RMM:   4    -0.303957793460E+03    0.13093E-02   -0.10567E-02   802   0.212E-01    0.451E-01
RMM:   5    -0.303957594458E+03    0.19900E-03   -0.14242E-03   719   0.577E-02    0.431E-01
RMM:   6    -0.303957762515E+03   -0.16806E-03   -0.19802E-04   622   0.221E-02    0.459E-01
RMM:   7    -0.303956863145E+03    0.89937E-03   -0.25351E-03   706   0.448E-02    0.220E-01
RMM:   8    -0.303956597698E+03    0.26545E-03   -0.24454E-03   754   0.468E-02    0.713E-02
RMM:   9    -0.303956564549E+03    0.33149E-04   -0.78611E-05   579   0.181E-02    0.623E-02
RMM:  10    -0.303956506471E+03    0.58078E-04   -0.16581E-04   587   0.142E-02    0.287E-02
RMM:  11    -0.303956500975E+03    0.54953E-05   -0.96322E-05   609   0.105E-02
   3 F= -.30395650E+03 E0= -.30399949E+03  d E =-.683411E-01
       N       E                     dE             d eps       ncg     rms          rms(c)
DAV:   1    -0.303975412597E+03   -0.18906E-01   -0.63038E+00   688   0.349E+00    0.634E-01
RMM:   2    -0.303987278224E+03   -0.11866E-01   -0.12772E-01   773   0.718E-01    0.166E-01
RMM:   3    -0.303990034207E+03   -0.27560E-02   -0.28876E-02   734   0.330E-01    0.223E-01
RMM:   4    -0.303990083184E+03   -0.48976E-04   -0.43225E-03   847   0.138E-01    0.186E-01
RMM:   5    -0.303989971246E+03    0.11194E-03   -0.39756E-04   625   0.327E-02    0.163E-01
RMM:   6    -0.303989825776E+03    0.14547E-03   -0.25015E-04   514   0.207E-02    0.113E-01
RMM:   7    -0.303989819963E+03    0.58126E-05   -0.78868E-04   672   0.277E-02    0.362E-02
RMM:   8    -0.303989815668E+03    0.42954E-05   -0.34697E-05   544   0.127E-02
   4 F= -.30398982E+03 E0= -.30403273E+03  d E =-.333147E-01
       N       E                     dE             d eps       ncg     rms          rms(c)
DAV:   1    -0.303903674137E+03    0.86146E-01   -0.57317E+01   656   0.106E+01    0.216E+00
RMM:   2    -0.304020260326E+03   -0.11659E+00   -0.12685E+00   768   0.219E+00    0.463E-01
RMM:   3    -0.304048773184E+03   -0.28513E-01   -0.31293E-01   753   0.110E+00    0.670E-01
RMM:   4    -0.304050658218E+03   -0.18850E-02   -0.36747E-02   820   0.416E-01    0.578E-01
RMM:   5    -0.304049205717E+03    0.14525E-02   -0.42302E-03   666   0.111E-01    0.428E-01
RMM:   6    -0.304048715135E+03    0.49058E-03   -0.39235E-03   648   0.780E-02    0.238E-01
RMM:   7    -0.304048904287E+03   -0.18915E-03   -0.20223E-03   759   0.592E-02    0.141E-01
RMM:   8    -0.304048790121E+03    0.11417E-03   -0.24253E-04   576   0.272E-02    0.741E-02
RMM:   9    -0.304048709517E+03    0.80604E-04   -0.36505E-04   547   0.249E-02    0.403E-02
RMM:  10    -0.304048691884E+03    0.17633E-04   -0.16733E-04   671   0.170E-02    0.242E-02
RMM:  11    -0.304048686942E+03    0.49417E-05   -0.13465E-05   375   0.697E-03
   5 F= -.30404869E+03 E0= -.30409122E+03  d E =-.921860E-01
       N       E                     dE             d eps       ncg     rms          rms(c)
DAV:   1    -0.304029822640E+03    0.18869E-01   -0.10552E+01   688   0.452E+00    0.823E-01
RMM:   2    -0.304049800635E+03   -0.19978E-01   -0.21683E-01   769   0.925E-01    0.200E-01
RMM:   3    -0.304054406225E+03   -0.46056E-02   -0.49509E-02   746   0.433E-01    0.266E-01
RMM:   4    -0.304054741262E+03   -0.33504E-03   -0.61486E-03   828   0.171E-01    0.229E-01
RMM:   5    -0.304054530480E+03    0.21078E-03   -0.64233E-04   634   0.431E-02    0.187E-01
RMM:   6    -0.304054335397E+03    0.19508E-03   -0.56334E-04   534   0.303E-02    0.116E-01
RMM:   7    -0.304054353079E+03   -0.17682E-04   -0.73164E-04   649   0.302E-02    0.461E-02
RMM:   8    -0.304054356792E+03   -0.37124E-05   -0.74167E-05   621   0.153E-02
   6 F= -.30405436E+03 E0= -.30409671E+03  d E =-.978558E-01
       N       E                     dE             d eps       ncg     rms          rms(c)
DAV:   1    -0.304053799439E+03    0.55364E-03   -0.11270E+01   672   0.446E+00    0.101E+00
RMM:   2    -0.304075293815E+03   -0.21494E-01   -0.23288E-01   767   0.941E-01    0.185E-01
RMM:   3    -0.304080286915E+03   -0.49931E-02   -0.54833E-02   708   0.445E-01    0.266E-01
RMM:   4    -0.304080517502E+03   -0.23059E-03   -0.67252E-03   849   0.176E-01    0.233E-01
RMM:   5    -0.304080322566E+03    0.19494E-03   -0.60842E-04   654   0.422E-02    0.212E-01
RMM:   6    -0.304080161014E+03    0.16155E-03   -0.18210E-04   517   0.220E-02    0.175E-01
RMM:   7    -0.304080033235E+03    0.12778E-03   -0.11180E-03   686   0.341E-02    0.724E-02
RMM:   8    -0.304080040622E+03   -0.73873E-05   -0.32429E-04   659   0.224E-02    0.504E-02
RMM:   9    -0.304080008712E+03    0.31911E-04   -0.38380E-05   486   0.983E-03    0.294E-02
RMM:  10    -0.304079996091E+03    0.12621E-04   -0.17847E-04   613   0.131E-02    0.184E-02
RMM:  11    -0.304079993425E+03    0.26656E-05   -0.78404E-06   358   0.597E-03
   7 F= -.30407999E+03 E0= -.30412266E+03  d E =-.256366E-01
       N       E                     dE             d eps       ncg     rms          rms(c)
DAV:   1    -0.304067413727E+03    0.12582E-01   -0.88523E+00   672   0.396E+00    0.891E-01
RMM:   2    -0.304084204123E+03   -0.16790E-01   -0.18117E-01   769   0.834E-01    0.171E-01
RMM:   3    -0.304087999075E+03   -0.37950E-02   -0.41436E-02   701   0.384E-01    0.231E-01
RMM:   4    -0.304088120809E+03   -0.12173E-03   -0.53424E-03   857   0.158E-01    0.202E-01
RMM:   5    -0.304087971375E+03    0.14943E-03   -0.45080E-04   634   0.365E-02    0.186E-01
RMM:   6    -0.304087862321E+03    0.10905E-03   -0.12606E-04   531   0.188E-02    0.157E-01
RMM:   7    -0.304087728036E+03    0.13428E-03   -0.79714E-04   676   0.288E-02    0.651E-02
RMM:   8    -0.304087741158E+03   -0.13122E-04   -0.28170E-04   653   0.204E-02    0.428E-02
RMM:   9    -0.304087714619E+03    0.26539E-04   -0.41567E-05   480   0.966E-03    0.193E-02
RMM:  10    -0.304087710597E+03    0.40223E-05   -0.98308E-05   580   0.997E-03
   8 F= -.30408771E+03 E0= -.30413063E+03  d E =-.333538E-01
       N       E                     dE             d eps       ncg     rms          rms(c)
DAV:   1    -0.304085565144E+03    0.21495E-02   -0.12744E+01   656   0.467E+00    0.796E-01
RMM:   2    -0.304108430002E+03   -0.22865E-01   -0.24111E-01   784   0.957E-01    0.267E-01
RMM:   3    -0.304113939722E+03   -0.55097E-02   -0.56101E-02   703   0.436E-01    0.268E-01
RMM:   4    -0.304113712125E+03    0.22760E-03   -0.74717E-03   867   0.188E-01    0.214E-01
RMM:   5    -0.304113494480E+03    0.21764E-03   -0.54048E-04   657   0.427E-02    0.183E-01
RMM:   6    -0.304113333108E+03    0.16137E-03   -0.30561E-04   531   0.265E-02    0.136E-01
RMM:   7    -0.304113301044E+03    0.32065E-04   -0.94513E-04   679   0.325E-02    0.488E-02
RMM:   8    -0.304113305415E+03   -0.43714E-05   -0.71784E-05   668   0.163E-02
   9 F= -.30411331E+03 E0= -.30415682E+03  d E =-.255948E-01
       N       E                     dE             d eps       ncg     rms          rms(c)
DAV:   1    -0.304041934666E+03    0.71366E-01   -0.40542E+01   672   0.836E+00    0.144E+00
RMM:   2    -0.304119247381E+03   -0.77313E-01   -0.82346E-01   791   0.168E+00    0.510E-01
RMM:   3    -0.304136687741E+03   -0.17440E-01   -0.18844E-01   709   0.769E-01    0.427E-01
RMM:   4    -0.304137209141E+03   -0.52140E-03   -0.22626E-02   875   0.317E-01    0.373E-01
RMM:   5    -0.304136451907E+03    0.75723E-03   -0.17955E-03   668   0.760E-02    0.317E-01
RMM:   6    -0.304135981740E+03    0.47017E-03   -0.99681E-04   596   0.476E-02    0.233E-01
RMM:   7    -0.304135911210E+03    0.70530E-04   -0.24700E-03   724   0.546E-02    0.918E-02
RMM:   8    -0.304135932025E+03   -0.20815E-04   -0.24142E-04   713   0.284E-02    0.613E-02
RMM:   9    -0.304135873753E+03    0.58272E-04   -0.80982E-05   504   0.136E-02    0.302E-02
RMM:  10    -0.304135868297E+03    0.54561E-05   -0.12912E-04   560   0.141E-02    0.106E-02
RMM:  11    -0.304135867416E+03    0.88146E-06   -0.10909E-05   361   0.686E-03
  10 F= -.30413587E+03 E0= -.30418031E+03  d E =-.481568E-01
       N       E                     dE             d eps       ncg     rms          rms(c)
DAV:   1    -0.304131579129E+03    0.42892E-02   -0.25430E+00   672   0.208E+00    0.355E-01
RMM:   2    -0.304135992997E+03   -0.44139E-02   -0.46858E-02   790   0.422E-01    0.122E-01
RMM:   3    -0.304136958309E+03   -0.96531E-03   -0.10090E-02   697   0.186E-01    0.103E-01
RMM:   4    -0.304136988549E+03   -0.30240E-04   -0.14081E-03   877   0.825E-02    0.902E-02
RMM:   5    -0.304136941684E+03    0.46865E-04   -0.10925E-04   546   0.187E-02    0.755E-02
RMM:   6    -0.304136912148E+03    0.29536E-04   -0.64280E-05   495   0.119E-02    0.547E-02
RMM:   7    -0.304136910622E+03    0.15262E-05   -0.15374E-04   604   0.137E-02    0.205E-02
RMM:   8    -0.304136910964E+03   -0.34258E-06   -0.12652E-05   387   0.702E-03
  11 F= -.30413691E+03 E0= -.30418162E+03  d E =-.492004E-01
       N       E                     dE             d eps       ncg     rms          rms(c)
DAV:   1    -0.304127316609E+03    0.95940E-02   -0.10530E+01   672   0.447E+00    0.889E-01
RMM:   2    -0.304144513286E+03   -0.17197E-01   -0.18911E-01   776   0.886E-01    0.221E-01
RMM:   3    -0.304148007020E+03   -0.34937E-02   -0.41126E-02   693   0.391E-01    0.228E-01
RMM:   4    -0.304148195783E+03   -0.18876E-03   -0.56474E-03   869   0.170E-01    0.196E-01
RMM:   5    -0.304148000791E+03    0.19499E-03   -0.49478E-04   625   0.396E-02    0.158E-01
RMM:   6    -0.304147931662E+03    0.69130E-04   -0.31749E-04   549   0.257E-02    0.117E-01
RMM:   7    -0.304147876259E+03    0.55403E-04   -0.58191E-04   669   0.279E-02    0.442E-02
RMM:   8    -0.304147875117E+03    0.11418E-05   -0.75122E-05   641   0.150E-02
  12 F= -.30414788E+03 E0= -.30419389E+03  d E =-.109642E-01
       N       E                     dE             d eps       ncg     rms          rms(c)
DAV:   1    -0.304146194464E+03    0.16818E-02   -0.10199E+00   688   0.138E+00    0.284E-01
RMM:   2    -0.304148069816E+03   -0.18754E-02   -0.20724E-02   787   0.288E-01    0.830E-02
RMM:   3    -0.304148421104E+03   -0.35129E-03   -0.40638E-03   680   0.125E-01    0.659E-02
RMM:   4    -0.304148447712E+03   -0.26607E-04   -0.60670E-04   865   0.556E-02    0.575E-02
RMM:   5    -0.304148427781E+03    0.19931E-04   -0.61217E-05   524   0.139E-02    0.441E-02
RMM:   6    -0.304148422499E+03    0.52819E-05   -0.32797E-05   487   0.864E-03
  13 F= -.30414842E+03 E0= -.30419482E+03  d E =-.115115E-01
       N       E                     dE             d eps       ncg     rms          rms(c)
DAV:   1    -0.304135127771E+03    0.13300E-01   -0.10217E+01   656   0.453E+00    0.795E-01
RMM:   2    -0.304154322481E+03   -0.19195E-01   -0.20498E-01   784   0.930E-01    0.236E-01
RMM:   3    -0.304158328808E+03   -0.40063E-02   -0.43407E-02   685   0.417E-01    0.227E-01
RMM:   4    -0.304158735834E+03   -0.40703E-03   -0.69008E-03   881   0.185E-01    0.200E-01
RMM:   5    -0.304158545004E+03    0.19083E-03   -0.46915E-04   625   0.388E-02    0.174E-01
RMM:   6    -0.304158419291E+03    0.12571E-03   -0.21020E-04   546   0.232E-02    0.139E-01
RMM:   7    -0.304158346307E+03    0.72985E-04   -0.73868E-04   705   0.300E-02    0.590E-02
RMM:   8    -0.304158362391E+03   -0.16085E-04   -0.11047E-04   670   0.170E-02    0.346E-02
RMM:   9    -0.304158347352E+03    0.15039E-04   -0.23475E-05   433   0.757E-03    0.174E-02
RMM:  10    -0.304158342386E+03    0.49658E-05   -0.55182E-05   530   0.808E-03
  14 F= -.30415834E+03 E0= -.30420455E+03  d E =-.991989E-02
       N       E                     dE             d eps       ncg     rms          rms(c)
DAV:   1    -0.304151530097E+03    0.68173E-02   -0.42596E+00   672   0.291E+00    0.517E-01
RMM:   2    -0.304159432703E+03   -0.79026E-02   -0.84029E-02   783   0.597E-01    0.147E-01
RMM:   3    -0.304161040664E+03   -0.16080E-02   -0.17457E-02   683   0.266E-01    0.146E-01
RMM:   4    -0.304161209665E+03   -0.16900E-03   -0.28650E-03   881   0.119E-01    0.129E-01
RMM:   5    -0.304161138852E+03    0.70813E-04   -0.18592E-04   583   0.245E-02    0.114E-01
RMM:   6    -0.304161087630E+03    0.51222E-04   -0.75926E-05   505   0.142E-02    0.938E-02
RMM:   7    -0.304161048044E+03    0.39587E-04   -0.31646E-04   658   0.193E-02    0.398E-02
RMM:   8    -0.304161055929E+03   -0.78854E-05   -0.61829E-05   603   0.116E-02
  15 F= -.30416106E+03 E0= -.30420714E+03  d E =-.126334E-01
       N       E                     dE             d eps       ncg     rms          rms(c)
DAV:   1    -0.304118170987E+03    0.42877E-01   -0.17079E+01   656   0.587E+00    0.104E+00
RMM:   2    -0.304150875716E+03   -0.32705E-01   -0.34993E-01   783   0.121E+00    0.303E-01
RMM:   3    -0.304157798478E+03   -0.69228E-02   -0.75715E-02   686   0.550E-01    0.295E-01
RMM:   4    -0.304158474635E+03   -0.67616E-03   -0.11581E-02   880   0.240E-01    0.259E-01
RMM:   5    -0.304158172312E+03    0.30232E-03   -0.80108E-04   651   0.511E-02    0.227E-01
RMM:   6    -0.304157962118E+03    0.21019E-03   -0.32557E-04   562   0.295E-02    0.184E-01
RMM:   7    -0.304157821477E+03    0.14064E-03   -0.11470E-03   718   0.381E-02    0.797E-02
RMM:   8    -0.304157852756E+03   -0.31279E-04   -0.23418E-04   708   0.236E-02    0.450E-02
RMM:   9    -0.304157822418E+03    0.30338E-04   -0.58659E-05   483   0.112E-02    0.180E-02
RMM:  10    -0.304157818442E+03    0.39760E-05   -0.75274E-05   541   0.101E-02
  16 F= -.30415782E+03 E0= -.30420364E+03  d E =-.939594E-02
       N       E                     dE             d eps       ncg     rms          rms(c)
DAV:   1    -0.304143055793E+03    0.14767E-01   -0.10207E+01   688   0.450E+00    0.796E-01
RMM:   2    -0.304158604641E+03   -0.15549E-01   -0.16844E-01   784   0.864E-01    0.231E-01
RMM:   3    -0.304161414984E+03   -0.28103E-02   -0.31833E-02   699   0.368E-01    0.222E-01
RMM:   4    -0.304161700812E+03   -0.28583E-03   -0.55274E-03   872   0.163E-01    0.195E-01
RMM:   5    -0.304161513288E+03    0.18752E-03   -0.43928E-04   616   0.369E-02    0.167E-01
RMM:   6    -0.304161391909E+03    0.12138E-03   -0.21527E-04   533   0.225E-02    0.132E-01
RMM:   7    -0.304161326673E+03    0.65237E-04   -0.61154E-04   685   0.274E-02    0.574E-02
RMM:   8    -0.304161339284E+03   -0.12611E-04   -0.94088E-05   651   0.153E-02    0.294E-02
RMM:   9    -0.304161327876E+03    0.11407E-04   -0.19313E-05   412   0.697E-03    0.142E-02
RMM:  10    -0.304161324244E+03    0.36324E-05   -0.37315E-05   488   0.673E-03
  17 F= -.30416132E+03 E0= -.30420733E+03  d E =-.129017E-01
       N       E                     dE             d eps       ncg     rms          rms(c)
DAV:   1    -0.304147844978E+03    0.13483E-01   -0.11256E+01   688   0.499E+00    0.905E-01
RMM:   2    -0.304165267254E+03   -0.17422E-01   -0.19128E-01   786   0.947E-01    0.247E-01
RMM:   3    -0.304168096803E+03   -0.28295E-02   -0.32561E-02   684   0.399E-01    0.235E-01
RMM:   4    -0.304168444545E+03   -0.34774E-03   -0.72415E-03   877   0.183E-01    0.211E-01
RMM:   5    -0.304168178231E+03    0.26631E-03   -0.51454E-04   620   0.415E-02    0.176E-01
RMM:   6    -0.304168039599E+03    0.13863E-03   -0.42428E-04   551   0.292E-02    0.121E-01
RMM:   7    -0.304168017200E+03    0.22399E-04   -0.72073E-04   678   0.311E-02    0.454E-02
RMM:   8    -0.304168015328E+03    0.18715E-05   -0.55534E-05   584   0.153E-02
  18 F= -.30416802E+03 E0= -.30421359E+03  d E =-.669108E-02
       N       E                     dE             d eps       ncg     rms          rms(c)
DAV:   1    -0.304167947648E+03    0.69552E-04   -0.26229E-02   736   0.244E-01    0.511E-02
RMM:   2    -0.304168005660E+03   -0.58013E-04   -0.63449E-04   782   0.523E-02    0.169E-02
RMM:   3    -0.304168013769E+03   -0.81083E-05   -0.10126E-04   535   0.224E-02    0.135E-02
RMM:   4    -0.304168014383E+03   -0.61488E-06   -0.23012E-05   394   0.111E-02
  19 F= -.30416801E+03 E0= -.30421357E+03  d E =-.669014E-02
       N       E                     dE             d eps       ncg     rms          rms(c)
DAV:   1    -0.304160551909E+03    0.74619E-02   -0.55835E+00   656   0.368E+00    0.587E-01
RMM:   2    -0.304171026166E+03   -0.10474E-01   -0.11174E-01   792   0.737E-01    0.186E-01
RMM:   3    -0.304172848357E+03   -0.18222E-02   -0.19820E-02   671   0.324E-01    0.152E-01
RMM:   4    -0.304173210629E+03   -0.36227E-03   -0.50676E-03   891   0.156E-01    0.143E-01
RMM:   5    -0.304173052726E+03    0.15790E-03   -0.25957E-04   600   0.309E-02    0.115E-01
RMM:   6    -0.304172983077E+03    0.69650E-04   -0.27572E-04   548   0.239E-02    0.733E-02
RMM:   7    -0.304172983601E+03   -0.52452E-06   -0.30247E-04   642   0.221E-02    0.318E-02
RMM:   8    -0.304172979537E+03    0.40642E-05   -0.29037E-05   502   0.113E-02
  20 F= -.30417298E+03 E0= -.30421890E+03  d E =-.496515E-02
       N       E                     dE             d eps       ncg     rms          rms(c)
DAV:   1    -0.304170626294E+03    0.23573E-02   -0.14446E+00   656   0.187E+00    0.304E-01
RMM:   2    -0.304173344312E+03   -0.27180E-02   -0.28957E-02   788   0.376E-01    0.896E-02
RMM:   3    -0.304173827837E+03   -0.48353E-03   -0.52446E-03   675   0.166E-01    0.822E-02
RMM:   4    -0.304173914672E+03   -0.86835E-04   -0.12665E-03   883   0.787E-02    0.760E-02
RMM:   5    -0.304173877032E+03    0.37640E-04   -0.64632E-05   512   0.156E-02    0.631E-02
RMM:   6    -0.304173854991E+03    0.22041E-04   -0.73280E-05   492   0.120E-02    0.403E-02
RMM:   7    -0.304173854738E+03    0.25301E-06   -0.10036E-04   582   0.120E-02    0.163E-02
RMM:   8    -0.304173853760E+03    0.97867E-06   -0.92345E-06   361   0.626E-03
  21 F= -.30417385E+03 E0= -.30421998E+03  d E =-.583938E-02
       N       E                     dE             d eps       ncg     rms          rms(c)
DAV:   1    -0.304164095543E+03    0.97592E-02   -0.56103E+00   656   0.376E+00    0.712E-01
RMM:   2    -0.304175319382E+03   -0.11224E-01   -0.12137E-01   772   0.779E-01    0.158E-01
RMM:   3    -0.304177574603E+03   -0.22552E-02   -0.24198E-02   686   0.357E-01    0.211E-01
RMM:   4    -0.304177839177E+03   -0.26457E-03   -0.54286E-03   856   0.164E-01    0.184E-01
RMM:   5    -0.304177725826E+03    0.11335E-03   -0.29598E-04   640   0.325E-02    0.166E-01
RMM:   6    -0.304177624161E+03    0.10166E-03   -0.12910E-04   529   0.191E-02    0.137E-01
RMM:   7    -0.304177541119E+03    0.83042E-04   -0.69434E-04   700   0.283E-02    0.533E-02
RMM:   8    -0.304177562433E+03   -0.21313E-04   -0.14348E-04   667   0.174E-02    0.369E-02
RMM:   9    -0.304177544790E+03    0.17642E-04   -0.20853E-05   437   0.762E-03    0.228E-02
RMM:  10    -0.304177536309E+03    0.84813E-05   -0.96427E-05   577   0.986E-03
  22 F= -.30417754E+03 E0= -.30422332E+03  d E =-.368255E-02
       N       E                     dE             d eps       ncg     rms          rms(c)
DAV:   1    -0.304177537781E+03    0.70095E-05   -0.29148E-03   736   0.852E-02    0.205E-02
RMM:   2    -0.304177542861E+03   -0.50802E-05   -0.56382E-05   624   0.177E-02
  23 F= -.30417754E+03 E0= -.30422330E+03  d E =-.368910E-02
       N       E                     dE             d eps       ncg     rms          rms(c)
DAV:   1    -0.304174432321E+03    0.31055E-02   -0.24564E+00   656   0.253E+00    0.404E-01
RMM:   2    -0.304179229575E+03   -0.47973E-02   -0.51042E-02   793   0.506E-01    0.143E-01
RMM:   3    -0.304180011335E+03   -0.78176E-03   -0.81697E-03   689   0.220E-01    0.114E-01
RMM:   4    -0.304180153922E+03   -0.14259E-03   -0.24646E-03   881   0.110E-01    0.103E-01
RMM:   5    -0.304180069438E+03    0.84484E-04   -0.13238E-04   575   0.220E-02    0.797E-02
RMM:   6    -0.304180038632E+03    0.30806E-04   -0.20197E-04   517   0.191E-02    0.408E-02
RMM:   7    -0.304180048335E+03   -0.97034E-05   -0.10025E-04   591   0.143E-02    0.228E-02
RMM:   8    -0.304180044931E+03    0.34040E-05   -0.95307E-06   366   0.687E-03
  24 F= -.30418004E+03 E0= -.30422633E+03  d E =-.250207E-02
       N       E                     dE             d eps       ncg     rms          rms(c)
DAV:   1    -0.304178562073E+03    0.14863E-02   -0.10018E+00   656   0.162E+00    0.262E-01
RMM:   2    -0.304180544721E+03   -0.19826E-02   -0.21091E-02   793   0.325E-01    0.919E-02
RMM:   3    -0.304180851644E+03   -0.30692E-03   -0.33051E-03   682   0.140E-01    0.706E-02
RMM:   4    -0.304180922047E+03   -0.70403E-04   -0.99092E-04   880   0.704E-02    0.658E-02
RMM:   5    -0.304180886450E+03    0.35597E-04   -0.53701E-05   504   0.140E-02    0.511E-02
RMM:   6    -0.304180873828E+03    0.12622E-04   -0.67693E-05   485   0.116E-02    0.278E-02
RMM:   7    -0.304180877281E+03   -0.34531E-05   -0.43408E-05   538   0.911E-03
  25 F= -.30418088E+03 E0= -.30422752E+03  d E =-.333442E-02
       N       E                     dE             d eps       ncg     rms          rms(c)
DAV:   1    -0.304171625897E+03    0.92479E-02   -0.39972E+00   656   0.324E+00    0.514E-01
RMM:   2    -0.304179428840E+03   -0.78029E-02   -0.83806E-02   793   0.647E-01    0.184E-01
RMM:   3    -0.304180674143E+03   -0.12453E-02   -0.13271E-02   690   0.282E-01    0.138E-01
RMM:   4    -0.304180981103E+03   -0.30696E-03   -0.40592E-03   881   0.142E-01    0.128E-01
RMM:   5    -0.304180832716E+03    0.14839E-03   -0.22081E-04   601   0.283E-02    0.964E-02
RMM:   6    -0.304180793004E+03    0.39711E-04   -0.24080E-04   543   0.226E-02    0.551E-02
RMM:   7    -0.304180805955E+03   -0.12950E-04   -0.15209E-04   647   0.177E-02    0.292E-02
RMM:   8    -0.304180801709E+03    0.42453E-05   -0.14583E-05   389   0.801E-03
  26 F= -.30418080E+03 E0= -.30422810E+03  d E =-.325885E-02
       N       E                     dE             d eps       ncg     rms          rms(c)
DAV:   1    -0.304178543488E+03    0.22625E-02   -0.11477E+00   656   0.173E+00    0.272E-01
RMM:   2    -0.304180740925E+03   -0.21974E-02   -0.23608E-02   794   0.346E-01    0.944E-02
RMM:   3    -0.304181098732E+03   -0.35781E-03   -0.37800E-03   691   0.150E-01    0.706E-02
RMM:   4    -0.304181181847E+03   -0.83115E-04   -0.11372E-03   877   0.751E-02    0.655E-02
RMM:   5    -0.304181140556E+03    0.41291E-04   -0.59710E-05   528   0.149E-02    0.488E-02
RMM:   6    -0.304181129462E+03    0.11094E-04   -0.72357E-05   491   0.120E-02    0.264E-02
RMM:   7    -0.304181133130E+03   -0.36680E-05   -0.38228E-05   522   0.895E-03
  27 F= -.30418113E+03 E0= -.30422811E+03  d E =-.359027E-02
       N       E                     dE             d eps       ncg     rms          rms(c)
DAV:   1    -0.304179392954E+03    0.17365E-02   -0.13952E+00   656   0.193E+00    0.350E-01
RMM:   2    -0.304182236784E+03   -0.28438E-02   -0.30170E-02   779   0.395E-01    0.902E-02
RMM:   3    -0.304182773494E+03   -0.53671E-03   -0.53722E-03   678   0.176E-01    0.105E-01
RMM:   4    -0.304182802450E+03   -0.28955E-04   -0.14700E-03   870   0.861E-02    0.874E-02
RMM:   5    -0.304182762817E+03    0.39633E-04   -0.68957E-05   526   0.163E-02    0.750E-02
RMM:   6    -0.304182730481E+03    0.32336E-04   -0.72525E-05   484   0.122E-02    0.497E-02
RMM:   7    -0.304182726151E+03    0.43304E-05   -0.13471E-04   609   0.132E-02    0.209E-02
RMM:   8    -0.304182726286E+03   -0.13487E-06   -0.13931E-05   383   0.689E-03
  28 F= -.30418273E+03 E0= -.30422970E+03  d E =-.159316E-02
       N       E                     dE             d eps       ncg     rms          rms(c)
DAV:   1    -0.304178304667E+03    0.44215E-02   -0.20584E+00   656   0.235E+00    0.424E-01
RMM:   2    -0.304182574066E+03   -0.42694E-02   -0.45680E-02   784   0.482E-01    0.125E-01
RMM:   3    -0.304183325224E+03   -0.75116E-03   -0.76412E-03   673   0.213E-01    0.125E-01
RMM:   4    -0.304183385180E+03   -0.59956E-04   -0.22017E-03   882   0.106E-01    0.106E-01
RMM:   5    -0.304183317915E+03    0.67265E-04   -0.11129E-04   581   0.203E-02    0.874E-02
RMM:   6    -0.304183276351E+03    0.41564E-04   -0.13033E-04   502   0.159E-02    0.554E-02
RMM:   7    -0.304183276756E+03   -0.40517E-06   -0.16663E-04   591   0.155E-02    0.242E-02
RMM:   8    -0.304183275913E+03    0.84331E-06   -0.17496E-05   448   0.827E-03
  29 F= -.30418328E+03 E0= -.30423025E+03  d E =-.214278E-02
       N       E                     dE             d eps       ncg     rms          rms(c)
DAV:   1    -0.304182416289E+03    0.86047E-03   -0.74273E-01   672   0.143E+00    0.249E-01
RMM:   2    -0.304183993651E+03   -0.15774E-02   -0.16892E-02   789   0.293E-01    0.819E-02
RMM:   3    -0.304184254395E+03   -0.26074E-03   -0.26589E-03   673   0.127E-01    0.742E-02
RMM:   4    -0.304184277654E+03   -0.23259E-04   -0.80794E-04   874   0.642E-02    0.637E-02
RMM:   5    -0.304184252264E+03    0.25390E-04   -0.42452E-05   473   0.125E-02    0.522E-02
RMM:   6    -0.304184237007E+03    0.15258E-04   -0.54636E-05   482   0.102E-02    0.299E-02
RMM:   7    -0.304184238931E+03   -0.19245E-05   -0.47587E-05   535   0.882E-03
  30 F= -.30418424E+03 E0= -.30423116E+03  d E =-.963018E-03
       N       E                     dE             d eps       ncg     rms          rms(c)
DAV:   1    -0.304174377149E+03    0.98599E-02   -0.42855E+00   656   0.343E+00    0.593E-01
RMM:   2    -0.304183409744E+03   -0.90326E-02   -0.96780E-02   789   0.702E-01    0.195E-01
RMM:   3    -0.304184906844E+03   -0.14971E-02   -0.15318E-02   674   0.306E-01    0.176E-01
RMM:   4    -0.304185058844E+03   -0.15200E-03   -0.47510E-03   884   0.155E-01    0.151E-01
RMM:   5    -0.304184912438E+03    0.14641E-03   -0.23834E-04   615   0.297E-02    0.123E-01
RMM:   6    -0.304184821297E+03    0.91141E-04   -0.35652E-04   552   0.256E-02    0.683E-02
RMM:   7    -0.304184837716E+03   -0.16418E-04   -0.28163E-04   578   0.220E-02    0.321E-02
RMM:   8    -0.304184835729E+03    0.19863E-05   -0.41254E-05   600   0.130E-02
  31 F= -.30418484E+03 E0= -.30423164E+03  d E =-.155982E-02
       N       E                     dE             d eps       ncg     rms          rms(c)
DAV:   1    -0.304183966106E+03    0.87161E-03   -0.65616E-01   672   0.133E+00    0.227E-01
RMM:   2    -0.304185338302E+03   -0.13722E-02   -0.14771E-02   796   0.272E-01    0.794E-02
RMM:   3    -0.304185528565E+03   -0.19026E-03   -0.21864E-03   661   0.116E-01    0.580E-02
RMM:   4    -0.304185578187E+03   -0.49622E-04   -0.65876E-04   889   0.584E-02    0.521E-02
RMM:   5    -0.304185559897E+03    0.18291E-04   -0.34978E-05   430   0.113E-02    0.427E-02
RMM:   6    -0.304185552422E+03    0.74744E-05   -0.21255E-05   407   0.752E-03
  32 F= -.30418555E+03 E0= -.30423241E+03  d E =-.716693E-03
       N       E                     dE             d eps       ncg     rms          rms(c)
DAV:   1    -0.304180565588E+03    0.49943E-02   -0.22834E+00   656   0.247E+00    0.405E-01
RMM:   2    -0.304185228097E+03   -0.46625E-02   -0.50292E-02   799   0.502E-01    0.156E-01
RMM:   3    -0.304185872375E+03   -0.64428E-03   -0.73299E-03   668   0.213E-01    0.105E-01
RMM:   4    -0.304186054752E+03   -0.18238E-03   -0.22955E-03   901   0.108E-01    0.966E-02
RMM:   5    -0.304185979372E+03    0.75380E-04   -0.12349E-04   574   0.209E-02    0.766E-02
RMM:   6    -0.304185957175E+03    0.22197E-04   -0.78785E-05   508   0.142E-02    0.549E-02
RMM:   7    -0.304185955778E+03    0.13969E-05   -0.10359E-04   601   0.135E-02    0.244E-02
RMM:   8    -0.304185957489E+03   -0.17109E-05   -0.14512E-05   413   0.733E-03
  33 F= -.30418596E+03 E0= -.30423297E+03  d E =-.112176E-02
       N       E                     dE             d eps       ncg     rms          rms(c)
DAV:   1    -0.304185832285E+03    0.12349E-03   -0.63546E-02   672   0.411E-01    0.710E-02
RMM:   2    -0.304185956159E+03   -0.12387E-03   -0.13083E-03   781   0.831E-02    0.159E-02
RMM:   3    -0.304185977150E+03   -0.20991E-04   -0.23186E-04   655   0.367E-02    0.183E-02
RMM:   4    -0.304185981092E+03   -0.39420E-05   -0.61287E-05   472   0.180E-02
  34 F= -.30418598E+03 E0= -.30423298E+03  d E =-.114536E-02
       N       E                     dE             d eps       ncg     rms          rms(c)
DAV:   1    -0.304185919053E+03    0.58097E-04   -0.21592E-02   672   0.239E-01    0.515E-02
RMM:   2    -0.304185961692E+03   -0.42639E-04   -0.50159E-04   792   0.485E-02    0.941E-03
RMM:   3    -0.304185968312E+03   -0.66194E-05   -0.71435E-05   500   0.206E-02
  35 F= -.30418597E+03 E0= -.30423295E+03  d E =-.113258E-02
       N       E                     dE             d eps       ncg     rms          rms(c)
DAV:   1    -0.304185951066E+03    0.10626E-04   -0.11238E-02   672   0.174E-01    0.316E-02
RMM:   2    -0.304185973958E+03   -0.22892E-04   -0.25975E-04   788   0.348E-02    0.983E-03
RMM:   3    -0.304185977916E+03   -0.39582E-05   -0.36324E-05   423   0.144E-02
  36 F= -.30418598E+03 E0= -.30423300E+03  d E =-.114219E-02
       N       E                     dE             d eps       ncg     rms          rms(c)
DAV:   1    -0.304185967511E+03    0.64471E-05   -0.27656E-03   672   0.865E-02    0.178E-02
RMM:   2    -0.304185973013E+03   -0.55025E-05   -0.69541E-05   692   0.174E-02
  37 F= -.30418597E+03 E0= -.30423298E+03  d E =-.113728E-02
       N       E                     dE             d eps       ncg     rms          rms(c)
DAV:   1    -0.304185974277E+03   -0.67659E-05   -0.77156E-04   672   0.446E-02    0.803E-03
RMM:   2    -0.304185976986E+03   -0.27094E-05   -0.17477E-05   331   0.931E-03
  38 F= -.30418598E+03 E0= -.30423300E+03  d E =-.114126E-02
       N       E                     dE             d eps       ncg     rms          rms(c)
DAV:   1    -0.304186196536E+03   -0.22226E-03   -0.13847E-01   656   0.594E-01    0.120E-01
RMM:   2    -0.304186493835E+03   -0.29730E-03   -0.32152E-03   774   0.127E-01    0.269E-02
RMM:   3    -0.304186553604E+03   -0.59769E-04   -0.60830E-04   674   0.561E-02    0.366E-02
RMM:   4    -0.304186553951E+03   -0.34682E-06   -0.13189E-04   617   0.260E-02    0.302E-02
RMM:   5    -0.304186550079E+03    0.38715E-05   -0.10810E-05   366   0.870E-03
  39 F= -.30418655E+03 E0= -.30423355E+03  d E =-.573093E-03
