  12  12   0   0
  0.2338974E+02  0.6591768E-09  0.6591768E-09  0.7632574E-09  0.1500000E-16
   1.0000000000000000E-004
  CAR 
 unknown system                          
      9.86413489    -22.76775617  301      1.82173340      1.00000000
    -22.768  0.0000E+00  0.0000E+00
    -22.659  0.0000E+00  0.0000E+00
    -22.550  0.0000E+00  0.0000E+00
    -22.441  0.0000E+00  0.0000E+00
    -22.333  0.0000E+00  0.0000E+00
    -22.224  0.0000E+00  0.0000E+00
    -22.115  0.0000E+00  0.0000E+00
    -22.006  0.0000E+00  0.0000E+00
    -21.898  0.0000E+00  0.0000E+00
    -21.789  0.0000E+00  0.0000E+00
    -21.680  0.0000E+00  0.0000E+00
    -21.571  0.2005E-16  0.2181E-17
    -21.462  0.2555E-07  0.2779E-08
    -21.354  0.4540E-02  0.4938E-03
    -21.245  0.4005E+00  0.4406E-01
    -21.136  0.2042E+00  0.6627E-01
    -21.027  0.2918E-03  0.6630E-01
    -20.919  0.7899E-04  0.6631E-01
    -20.810  0.1621E+00  0.8394E-01
    -20.701  0.4425E+00  0.1321E+00
    -20.592  0.4848E-02  0.1326E+00
    -20.484  0.1481E-07  0.1326E+00
    -20.375  0.0000E+00  0.1326E+00
    -20.266  0.0000E+00  0.1326E+00
    -20.157  0.0000E+00  0.1326E+00
    -20.048  0.0000E+00  0.1326E+00
    -19.940  0.0000E+00  0.1326E+00
    -19.831  0.0000E+00  0.1326E+00
    -19.722  0.0000E+00  0.1326E+00
    -19.613  0.0000E+00  0.1326E+00
    -19.505  0.0000E+00  0.1326E+00
    -19.396  0.0000E+00  0.1326E+00
    -19.287  0.0000E+00  0.1326E+00
    -19.178  0.0000E+00  0.1326E+00
    -19.069  0.0000E+00  0.1326E+00
    -18.961  0.0000E+00  0.1326E+00
    -18.852  0.0000E+00  0.1326E+00
    -18.743  0.0000E+00  0.1326E+00
    -18.634  0.0000E+00  0.1326E+00
    -18.526  0.0000E+00  0.1326E+00
    -18.417  0.0000E+00  0.1326E+00
    -18.308  0.0000E+00  0.1326E+00
    -18.199  0.0000E+00  0.1326E+00
    -18.091  0.0000E+00  0.1326E+00
    -17.982  0.0000E+00  0.1326E+00
    -17.873  0.0000E+00  0.1326E+00
    -17.764  0.0000E+00  0.1326E+00
    -17.655  0.0000E+00  0.1326E+00
    -17.547  0.0000E+00  0.1326E+00
    -17.438  0.0000E+00  0.1326E+00
    -17.329  0.0000E+00  0.1326E+00
    -17.220  0.0000E+00  0.1326E+00
    -17.112  0.0000E+00  0.1326E+00
    -17.003  0.0000E+00  0.1326E+00
    -16.894  0.0000E+00  0.1326E+00
    -16.785  0.0000E+00  0.1326E+00
    -16.676  0.0000E+00  0.1326E+00
    -16.568  0.0000E+00  0.1326E+00
    -16.459  0.0000E+00  0.1326E+00
    -16.350  0.0000E+00  0.1326E+00
    -16.241  0.0000E+00  0.1326E+00
    -16.133  0.0000E+00  0.1326E+00
    -16.024  0.0000E+00  0.1326E+00
    -15.915  0.0000E+00  0.1326E+00
    -15.806  0.0000E+00  0.1326E+00
    -15.698  0.0000E+00  0.1326E+00
    -15.589  0.0000E+00  0.1326E+00
    -15.480  0.0000E+00  0.1326E+00
    -15.371  0.0000E+00  0.1326E+00
    -15.262  0.0000E+00  0.1326E+00
    -15.154  0.0000E+00  0.1326E+00
    -15.045  0.0000E+00  0.1326E+00
    -14.936  0.0000E+00  0.1326E+00
    -14.827  0.0000E+00  0.1326E+00
    -14.719  0.0000E+00  0.1326E+00
    -14.610  0.0000E+00  0.1326E+00
    -14.501  0.0000E+00  0.1326E+00
    -14.392  0.0000E+00  0.1326E+00
    -14.283  0.0000E+00  0.1326E+00
    -14.175  0.0000E+00  0.1326E+00
    -14.066  0.0000E+00  0.1326E+00
    -13.957  0.0000E+00  0.1326E+00
    -13.848  0.0000E+00  0.1326E+00
    -13.740  0.0000E+00  0.1326E+00
    -13.631  0.4177E-18  0.1326E+00
    -13.522  0.5544E-09  0.1326E+00
    -13.413  0.1396E-03  0.1326E+00
    -13.305  0.3961E-01  0.1369E+00
    -13.196  0.6136E-01  0.1436E+00
    -13.087  0.4736E-03  0.1436E+00
    -12.978  0.1398E-08  0.1436E+00
    -12.869  0.0000E+00  0.1436E+00
    -12.761  0.0000E+00  0.1436E+00
    -12.652  0.4294E-11  0.1436E+00
    -12.543  0.1197E-04  0.1436E+00
    -12.434  0.1579E-01  0.1454E+00
    -12.326  0.8117E-01  0.1542E+00
    -12.217  0.4609E-02  0.1547E+00
    -12.108  0.3192E-06  0.1547E+00
    -11.999  0.4429E-14  0.1547E+00
    -11.890  0.0000E+00  0.1547E+00
    -11.782  0.0000E+00  0.1547E+00
    -11.673  0.0000E+00  0.1547E+00
    -11.564  0.0000E+00  0.1547E+00
    -11.455  0.0000E+00  0.1547E+00
    -11.347  0.0000E+00  0.1547E+00
    -11.238  0.0000E+00  0.1547E+00
    -11.129  0.0000E+00  0.1547E+00
    -11.020  0.0000E+00  0.1547E+00
    -10.912  0.0000E+00  0.1547E+00
    -10.803  0.0000E+00  0.1547E+00
    -10.694  0.3420E-14  0.1547E+00
    -10.585  0.2626E-06  0.1547E+00
    -10.476  0.4278E-02  0.1552E+00
    -10.368  0.9963E-01  0.1660E+00
    -10.259  0.9585E-01  0.1764E+00
    -10.150  0.1186E+00  0.1893E+00
    -10.041  0.8721E-01  0.1988E+00
     -9.933  0.7925E-03  0.1989E+00
     -9.824  0.6606E-08  0.1989E+00
     -9.715  0.9190E-17  0.1989E+00
     -9.606  0.0000E+00  0.1989E+00
     -9.497  0.0000E+00  0.1989E+00
     -9.389  0.0000E+00  0.1989E+00
     -9.280  0.0000E+00  0.1989E+00
     -9.171  0.0000E+00  0.1989E+00
     -9.062  0.0000E+00  0.1989E+00
     -8.954  0.0000E+00  0.1989E+00
     -8.845  0.0000E+00  0.1989E+00
     -8.736  0.0000E+00  0.1989E+00
     -8.627  0.0000E+00  0.1989E+00
     -8.518  0.0000E+00  0.1989E+00
     -8.410  0.0000E+00  0.1989E+00
     -8.301  0.0000E+00  0.1989E+00
     -8.192  0.0000E+00  0.1989E+00
     -8.083  0.0000E+00  0.1989E+00
     -7.975  0.0000E+00  0.1989E+00
     -7.866  0.0000E+00  0.1989E+00
     -7.757  0.0000E+00  0.1989E+00
     -7.648  0.0000E+00  0.1989E+00
     -7.540  0.3480E-15  0.1989E+00
     -7.431  0.3474E-07  0.1989E+00
     -7.322  0.4288E-03  0.1989E+00
     -7.213  0.4757E-02  0.1995E+00
     -7.104  0.1764E-01  0.2014E+00
     -6.996  0.5439E-01  0.2073E+00
     -6.887  0.2404E-01  0.2099E+00
     -6.778  0.3373E-03  0.2099E+00
     -6.669  0.3360E-08  0.2099E+00
     -6.561  0.4177E-17  0.2099E+00
     -6.452  0.0000E+00  0.2099E+00
     -6.343  0.0000E+00  0.2099E+00
     -6.234  0.0000E+00  0.2099E+00
     -6.125  0.0000E+00  0.2099E+00
     -6.017  0.5848E-17  0.2099E+00
     -5.908  0.3680E-08  0.2099E+00
     -5.799  0.2592E-03  0.2100E+00
     -5.690  0.7337E-02  0.2108E+00
     -5.582  0.2341E-01  0.2133E+00
     -5.473  0.5646E-01  0.2195E+00
     -5.364  0.1407E-01  0.2210E+00
     -5.255  0.4760E-04  0.2210E+00
     -5.147  0.4840E-10  0.2210E+00
     -5.038  0.0000E+00  0.2210E+00
     -4.929  0.0000E+00  0.2210E+00
     -4.820  0.0000E+00  0.2210E+00
     -4.711  0.0000E+00  0.2210E+00
     -4.603  0.0000E+00  0.2210E+00
     -4.494  0.0000E+00  0.2210E+00
     -4.385  0.0000E+00  0.2210E+00
     -4.276  0.0000E+00  0.2210E+00
     -4.168  0.0000E+00  0.2210E+00
     -4.059  0.0000E+00  0.2210E+00
     -3.950  0.0000E+00  0.2210E+00
     -3.841  0.5256E-14  0.2210E+00
     -3.732  0.2033E-06  0.2210E+00
     -3.624  0.1410E-02  0.2211E+00
     -3.515  0.1148E-01  0.2224E+00
     -3.406  0.5630E-01  0.2285E+00
     -3.297  0.2824E-01  0.2316E+00
     -3.189  0.4277E-02  0.2321E+00
     -3.080  0.2717E-01  0.2350E+00
     -2.971  0.8421E-01  0.2442E+00
     -2.862  0.8526E-01  0.2534E+00
     -2.754  0.6604E-02  0.2542E+00
     -2.645  0.1678E-01  0.2560E+00
     -2.536  0.4708E-01  0.2611E+00
     -2.427  0.6309E-01  0.2680E+00
     -2.318  0.6271E-01  0.2748E+00
     -2.210  0.1331E-01  0.2762E+00
     -2.101  0.1423E-04  0.2762E+00
     -1.992  0.3814E-11  0.2762E+00
     -1.883  0.0000E+00  0.2762E+00
     -1.775  0.0000E+00  0.2762E+00
     -1.666  0.0000E+00  0.2762E+00
     -1.557  0.0000E+00  0.2762E+00
     -1.448  0.0000E+00  0.2762E+00
     -1.339  0.0000E+00  0.2762E+00
     -1.231  0.0000E+00  0.2762E+00
     -1.122  0.0000E+00  0.2762E+00
     -1.013  0.2037E-10  0.2762E+00
     -0.904  0.3455E-04  0.2762E+00
     -0.796  0.1868E-01  0.2783E+00
     -0.687  0.5235E-01  0.2840E+00
     -0.578  0.2954E-01  0.2872E+00
     -0.469  0.2900E-01  0.2903E+00
     -0.361  0.5515E-01  0.2963E+00
     -0.252  0.4880E-01  0.3016E+00
     -0.143  0.9773E-01  0.3123E+00
     -0.034  0.9376E-01  0.3225E+00
      0.075  0.6492E-01  0.3295E+00
      0.183  0.6483E-01  0.3366E+00
      0.292  0.6764E-01  0.3439E+00
      0.401  0.4978E-01  0.3494E+00
      0.510  0.3515E-01  0.3532E+00
      0.618  0.2556E-01  0.3560E+00
      0.727  0.4997E-01  0.3614E+00
      0.836  0.6562E-01  0.3685E+00
      0.945  0.9442E-01  0.3788E+00
      1.054  0.8137E-01  0.3877E+00
      1.162  0.6730E-01  0.3950E+00
      1.271  0.5959E-01  0.4015E+00
      1.380  0.3779E-01  0.4056E+00
      1.489  0.1451E-01  0.4071E+00
      1.597  0.1531E-01  0.4088E+00
      1.706  0.2338E-03  0.4088E+00
      1.815  0.1894E-08  0.4088E+00
      1.924  0.1671E-17  0.4088E+00
      2.032  0.0000E+00  0.4088E+00
      2.141  0.0000E+00  0.4088E+00
      2.250  0.0000E+00  0.4088E+00
      2.359  0.0000E+00  0.4088E+00
      2.468  0.0000E+00  0.4088E+00
      2.576  0.0000E+00  0.4088E+00
      2.685  0.0000E+00  0.4088E+00
      2.794  0.0000E+00  0.4088E+00
      2.903  0.0000E+00  0.4088E+00
      3.011  0.0000E+00  0.4088E+00
      3.120  0.0000E+00  0.4088E+00
      3.229  0.0000E+00  0.4088E+00
      3.338  0.0000E+00  0.4088E+00
      3.447  0.0000E+00  0.4088E+00
      3.555  0.0000E+00  0.4088E+00
      3.664  0.0000E+00  0.4088E+00
      3.773  0.0000E+00  0.4088E+00
      3.882  0.0000E+00  0.4088E+00
      3.990  0.6683E-17  0.4088E+00
      4.099  0.4029E-08  0.4088E+00
      4.208  0.2694E-03  0.4089E+00
      4.317  0.6497E-02  0.4096E+00
      4.425  0.3728E-02  0.4100E+00
      4.534  0.1349E-01  0.4114E+00
      4.643  0.1769E-01  0.4134E+00
      4.752  0.4306E-01  0.4181E+00
      4.861  0.2252E-01  0.4205E+00
      4.969  0.1942E-01  0.4226E+00
      5.078  0.1616E-01  0.4244E+00
      5.187  0.3093E-01  0.4277E+00
      5.296  0.6943E-01  0.4353E+00
      5.404  0.3647E-01  0.4393E+00
      5.513  0.2996E-01  0.4425E+00
      5.622  0.6761E-01  0.4499E+00
      5.731  0.6409E-01  0.4568E+00
      5.840  0.2479E-01  0.4595E+00
      5.948  0.2380E-01  0.4621E+00
      6.057  0.2020E-01  0.4643E+00
      6.166  0.4429E-01  0.4691E+00
      6.275  0.1318E-01  0.4706E+00
      6.383  0.2887E-01  0.4737E+00
      6.492  0.2652E-01  0.4766E+00
      6.601  0.1240E-01  0.4779E+00
      6.710  0.7931E-02  0.4788E+00
      6.818  0.7608E-03  0.4789E+00
      6.927  0.2235E-01  0.4813E+00
      7.036  0.4658E-01  0.4864E+00
      7.145  0.4439E-01  0.4912E+00
      7.254  0.2445E-01  0.4939E+00
      7.362  0.1408E-01  0.4954E+00
      7.471  0.4039E-01  0.4998E+00
      7.580  0.1796E-01  0.5018E+00
      7.689  0.9311E-02  0.5028E+00
      7.797  0.4293E-01  0.5074E+00
      7.906  0.5166E-01  0.5131E+00
      8.015  0.4439E-01  0.5179E+00
      8.124  0.3358E-01  0.5215E+00
      8.233  0.4472E-01  0.5264E+00
      8.341  0.1943E-01  0.5285E+00
      8.450  0.1678E-01  0.5303E+00
      8.559  0.3842E-03  0.5304E+00
      8.668  0.3609E-08  0.5304E+00
      8.776  0.3342E-17  0.5304E+00
      8.885  0.0000E+00  0.5304E+00
      8.994  0.0000E+00  0.5304E+00
      9.103  0.0000E+00  0.5304E+00
      9.211  0.0000E+00  0.5304E+00
      9.320  0.0000E+00  0.5304E+00
      9.429  0.0000E+00  0.5304E+00
      9.538  0.0000E+00  0.5304E+00
      9.647  0.0000E+00  0.5304E+00
      9.755  0.0000E+00  0.5304E+00
      9.864  0.0000E+00  0.5304E+00
