 vasp.6.3.2 27Jun22 (build Jun 14 2024 17:29:11) complex                         
 executed on             LinuxGNU date 2026.03.30  08:35:19
 running on    8 total cores
 distrk:  each k-point on    8 cores,    1 groups
 distr:  one band on NCORE=   1 cores,    8 groups


--------------------------------------------------------------------------------------------------------


 INCAR:
   EDIFF = 1e-06
   ENCUT = 400.0
   IBRION = 6
   ISIF = 3
   ISMEAR = 0
   LCHARG = False
   LREAL = Auto
   LWAVE = False
   NFREE = 4
   NSW = 1
   POTIM = 0.015
   SIGMA = 0.05

 POTCAR:    PAW_PBE Na_pv 19Sep2006               
 POTCAR:    PAW_PBE P 06Sep2000                   
 POTCAR:    PAW_PBE S 06Sep2000                   
 -----------------------------------------------------------------------------
|                                                                             |
|           W    W    AA    RRRRR   N    N  II  N    N   GGGG   !!!           |
|           W    W   A  A   R    R  NN   N  II  NN   N  G    G  !!!           |
|           W    W  A    A  R    R  N N  N  II  N N  N  G       !!!           |
|           W WW W  AAAAAA  RRRRR   N  N N  II  N  N N  G  GGG   !            |
|           WW  WW  A    A  R   R   N   NN  II  N   NN  G    G                |
|           W    W  A    A  R    R  N    N  II  N    N   GGGG   !!!           |
|                                                                             |
|     For optimal performance we recommend to set                             |
|       NCORE = 2 up to number-of-cores-per-socket                            |
|     NCORE specifies how many cores store one orbital (NPAR=cpu/NCORE).      |
|     This setting can greatly improve the performance of VASP for DFT.       |
|     The default, NCORE=1 might be grossly inefficient on modern             |
|     multi-core architectures or massively parallel machines. Do your        |
|     own testing! More info at https://www.vasp.at/wiki/index.php/NCORE      |
|     Unfortunately you need to use the default for GW and RPA                |
|     calculations (for HF NCORE is supported but not extensively tested      |
|     yet).                                                                   |
|                                                                             |
 -----------------------------------------------------------------------------

 POTCAR:    PAW_PBE Na_pv 19Sep2006               
   SHA256 =  6a2f546d9e11350984debacf3dc457d8cffc0868e817d445faca461816a32b94 Na_pv/POTCAR          
   COPYR  = (c) Copyright 19Sep2006 Georg Kresse                                                    
   COPYR  = This file is part of the software VASP. Any use, copying, and all other rights are regul
   COPYR  = If you do not have a valid VASP license, you may not use, copy or distribute this file. 
   VRHFIN =Na: p6s1                                                                                 
   LEXCH  = PE                                                                                      
   EATOM  =   766.0439 eV,   56.3026 Ry                                                             
                                                                                                    
   TITEL  = PAW_PBE Na_pv 19Sep2006                                                                 
   LULTRA =        F    use ultrasoft PP ?                                                          
   IUNSCR =        1    unscreen: 0-lin 1-nonlin 2-no                                               
   RPACOR =    1.800    partial core radius                                                         
   POMASS =   22.990; ZVAL   =    7.000    mass and valenz                                          
   RCORE  =    2.200    outmost cutoff radius                                                       
   RWIGS  =    2.200; RWIGS  =    1.164    wigner-seitz radius (au A)                               
   ENMAX  =  259.561; ENMIN  =  194.671 eV                                                          
   ICORE  =        2    local potential                                                             
   LCOR   =        T    correct aug charges                                                         
   LPAW   =        T    paw PP                                                                      
   EAUG   =  368.056                                                                                
   DEXC   =    0.000                                                                                
   RMAX   =    2.245    core radius for proj-oper                                                   
   RAUG   =    1.300    factor for augmentation sphere                                              
   RDEP   =    2.259    radius for radial grids                                                     
   RDEPT  =    1.738    core radius for aug-charge                                                  
                                                                                                    
   Atomic configuration                                                                             
    5 entries                                                                                       
     n  l   j            E        occ.                                                              
     1  0  0.50     -1033.6933   2.0000                                                             
     2  0  0.50       -56.7526   2.0000                                                             
     2  1  1.50       -28.6721   6.0000                                                             
     3  0  0.50        -2.7440   1.0000                                                             
     3  2  1.50        -1.3606   0.0000                                                             
   Description                                                                                      
     l       E           TYP  RCUT    TYP  RCUT                                                     
     1    -28.6720912     23  2.000                                                                 
     1      6.8029130     23  2.000                                                                 
     0     -2.7439560     23  2.200                                                                 
     0     34.0145650     23  2.200                                                                 
     2     -1.3605826     23  2.200                                                                 
  local pseudopotential read in
  partial core-charges read in
  partial kinetic energy density read in
  atomic valenz-charges read in
  non local Contribution for L=           1  read in
    real space projection operators read in
  non local Contribution for L=           1  read in
    real space projection operators read in
  non local Contribution for L=           0  read in
    real space projection operators read in
  non local Contribution for L=           0  read in
    real space projection operators read in
    PAW grid and wavefunctions read in

   number of l-projection  operators is LMAX  =           4
   number of lm-projection operators is LMMAX =           8

 POTCAR:    PAW_PBE P 06Sep2000                   
   SHA256 =  df60c54a93efe35c9e85ae94c010c75e9f6960a95d5595d7cdba4096d109af88 P/POTCAR              
   COPYR  = (c) Copyright 06Sep2000 Georg Kresse                                                    
   COPYR  = This file is part of the software VASP. Any use, copying, and all other rights are regul
   COPYR  = If you do not have a valid VASP license, you may not use, copy or distribute this file. 
   VRHFIN =P : s2p3                                                                                 
   LEXCH  = PE                                                                                      
   EATOM  =   176.0430 eV,   12.9388 Ry                                                             
                                                                                                    
   TITEL  = PAW_PBE P 06Sep2000                                                                     
   LULTRA =        F    use ultrasoft PP ?                                                          
   IUNSCR =        1    unscreen: 0-lin 1-nonlin 2-no                                               
   RPACOR =    1.500    partial core radius                                                         
   POMASS =   30.974; ZVAL   =    5.000    mass and valenz                                          
   RCORE  =    1.900    outmost cutoff radius                                                       
   RWIGS  =    2.330; RWIGS  =    1.233    wigner-seitz radius (au A)                               
   ENMAX  =  255.040; ENMIN  =  191.280 eV                                                          
   ICORE  =        2    local potential                                                             
   LCOR   =        T    correct aug charges                                                         
   LPAW   =        T    paw PP                                                                      
   EAUG   =  342.924                                                                                
   DEXC   =    0.000                                                                                
   RMAX   =    1.935    core radius for proj-oper                                                   
   RAUG   =    1.300    factor for augmentation sphere                                              
   RDEP   =    1.931    radius for radial grids                                                     
   RDEPT  =    1.794    core radius for aug-charge                                                  
                                                                                                    
   Atomic configuration                                                                             
    6 entries                                                                                       
     n  l   j            E        occ.                                                              
     1  0  0.50     -2084.0982   2.0000                                                             
     2  0  0.50      -173.9859   2.0000                                                             
     2  1  1.50      -124.4865   6.0000                                                             
     3  0  0.50       -13.9692   2.0000                                                             
     3  1  0.50        -5.5067   3.0000                                                             
     3  2  1.50        -5.4423   0.0000                                                             
   Description                                                                                      
     l       E           TYP  RCUT    TYP  RCUT                                                     
     0    -13.9691527     23  1.900                                                                 
     0    -11.7794650     23  1.900                                                                 
     1     -5.5066937     23  1.900                                                                 
     1     -0.2556953     23  1.900                                                                 
     2     -5.4423304     23  1.900                                                                 
  local pseudopotential read in
  partial core-charges read in
  partial kinetic energy density read in
  atomic valenz-charges read in
  non local Contribution for L=           0  read in
    real space projection operators read in
  non local Contribution for L=           0  read in
    real space projection operators read in
  non local Contribution for L=           1  read in
    real space projection operators read in
  non local Contribution for L=           1  read in
    real space projection operators read in
    PAW grid and wavefunctions read in

   number of l-projection  operators is LMAX  =           4
   number of lm-projection operators is LMMAX =           8

 POTCAR:    PAW_PBE S 06Sep2000                   
   SHA256 =  0fc7481fb0695f01bdc6462160264c5c84044ae9ec85a907d398b887a2bc3132 S/POTCAR              
   COPYR  = (c) Copyright 06Sep2000 Georg Kresse                                                    
   COPYR  = This file is part of the software VASP. Any use, copying, and all other rights are regul
   COPYR  = If you do not have a valid VASP license, you may not use, copy or distribute this file. 
   VRHFIN =S : s2p4                                                                                 
   LEXCH  = PE                                                                                      
   EATOM  =   276.8230 eV,   20.3459 Ry                                                             
                                                                                                    
   TITEL  = PAW_PBE S 06Sep2000                                                                     
   LULTRA =        F    use ultrasoft PP ?                                                          
   IUNSCR =        1    unscreen: 0-lin 1-nonlin 2-no                                               
   RPACOR =    1.500    partial core radius                                                         
   POMASS =   32.066; ZVAL   =    6.000    mass and valenz                                          
   RCORE  =    1.900    outmost cutoff radius                                                       
   RWIGS  =    2.200; RWIGS  =    1.164    wigner-seitz radius (au A)                               
   ENMAX  =  258.689; ENMIN  =  194.016 eV                                                          
   ICORE  =        2    local potential                                                             
   LCOR   =        T    correct aug charges                                                         
   LPAW   =        T    paw PP                                                                      
   EAUG   =  335.092                                                                                
   DEXC   =    0.000                                                                                
   RMAX   =    1.942    core radius for proj-oper                                                   
   RAUG   =    1.300    factor for augmentation sphere                                              
   RDEP   =    1.954    radius for radial grids                                                     
   RDEPT  =    1.744    core radius for aug-charge                                                  
                                                                                                    
   Atomic configuration                                                                             
    6 entries                                                                                       
     n  l   j            E        occ.                                                              
     1  0  0.50     -2405.8406   2.0000                                                             
     2  0  0.50      -211.7007   2.0000                                                             
     2  1  1.50      -156.4958   6.0000                                                             
     3  0  0.50       -17.2562   2.0000                                                             
     3  1  0.50        -7.0085   4.0000                                                             
     3  2  1.50        -6.8029   0.0000                                                             
   Description                                                                                      
     l       E           TYP  RCUT    TYP  RCUT                                                     
     0    -17.2561641     23  1.900                                                                 
     0    -15.8743224     23  1.900                                                                 
     1     -7.0085400     23  1.900                                                                 
     1     -2.7779785     23  1.900                                                                 
     2     -6.8029130     23  1.900                                                                 
  local pseudopotential read in
  partial core-charges read in
  partial kinetic energy density read in
  atomic valenz-charges read in
  non local Contribution for L=           0  read in
    real space projection operators read in
  non local Contribution for L=           0  read in
    real space projection operators read in
  non local Contribution for L=           1  read in
    real space projection operators read in
  non local Contribution for L=           1  read in
    real space projection operators read in
    PAW grid and wavefunctions read in

   number of l-projection  operators is LMAX  =           4
   number of lm-projection operators is LMMAX =           8

 Optimization of the real space projectors (new method)

 maximal supplied QI-value         = 17.01
 optimisation between [QCUT,QGAM] = [ 10.20, 20.41] = [ 29.16,116.64] Ry 
 Optimized for a Real-space Cutoff    1.30 Angstroem

   l    n(q)    QCUT    max X(q) W(low)/X(q) W(high)/X(q)  e(spline) 
   1      7    10.205     4.940    0.23E-03    0.84E-03    0.11E-06
   1      7    10.205     6.253    0.40E-03    0.13E-02    0.18E-06
   0      8    10.205    37.438    0.23E-03    0.37E-03    0.42E-07
   0      8    10.205     9.606    0.16E-03    0.26E-03    0.31E-07
 Optimization of the real space projectors (new method)

 maximal supplied QI-value         = 19.84
 optimisation between [QCUT,QGAM] = [ 10.12, 20.44] = [ 28.68,116.96] Ry 
 Optimized for a Real-space Cutoff    1.23 Angstroem

   l    n(q)    QCUT    max X(q) W(low)/X(q) W(high)/X(q)  e(spline) 
   0      7    10.119   160.924    0.70E-04    0.27E-03    0.49E-07
   0      7    10.119   130.086    0.69E-04    0.27E-03    0.48E-07
   1      7    10.119    74.434    0.43E-03    0.59E-03    0.12E-06
   1      7    10.119    49.120    0.42E-03    0.58E-03    0.12E-06
 Optimization of the real space projectors (new method)

 maximal supplied QI-value         = 19.84
 optimisation between [QCUT,QGAM] = [ 10.12, 20.44] = [ 28.68,116.96] Ry 
 Optimized for a Real-space Cutoff    1.23 Angstroem

   l    n(q)    QCUT    max X(q) W(low)/X(q) W(high)/X(q)  e(spline) 
   0      7    10.119   187.594    0.62E-04    0.28E-03    0.52E-07
   0      7    10.119   164.243    0.61E-04    0.28E-03    0.52E-07
   1      7    10.119    67.533    0.45E-03    0.63E-03    0.13E-06
   1      7    10.119    50.729    0.44E-03    0.62E-03    0.12E-06
  PAW_PBE Na_pv 19Sep2006               :
 energy of atom  1       EATOM= -766.0439
 kinetic energy error for atom=    0.0103 (will be added to EATOM!!)
  PAW_PBE P 06Sep2000                   :
 energy of atom  2       EATOM= -176.0430
 kinetic energy error for atom=    0.0023 (will be added to EATOM!!)
  PAW_PBE S 06Sep2000                   :
 energy of atom  3       EATOM= -276.8230
 kinetic energy error for atom=    0.0046 (will be added to EATOM!!)


 POSCAR: Na4 P2 S6
  positions in direct lattice
  velocities in cartesian coordinates
 exchange correlation table for  LEXCH =        8
   RHO(1)=    0.500       N(1)  =     2000
   RHO(2)=  100.500       N(2)  =     4000



--------------------------------------------------------------------------------------------------------


 ion  position               nearest neighbor table
   1  0.338  0.662  0.000-
   2  0.662  0.338  0.000-
   3  0.184  0.816  0.500-
   4  0.816  0.184  0.500-
   5  0.054  0.054  0.842-   9 2.04  10 2.04   7 2.04   6 2.31
   6  0.946  0.946  0.158-  11 2.04  12 2.04   8 2.04   5 2.31
   7  0.796  0.796  0.757-   5 2.04
   8  0.204  0.204  0.243-   6 2.04
   9  0.373  0.071  0.769-   5 2.04
  10  0.071  0.373  0.769-   5 2.04
  11  0.627  0.929  0.231-   6 2.04
  12  0.929  0.627  0.231-   6 2.04

  LATTYP: Found a base centered monoclinic cell.
 ALAT       =     6.8020374344
 B/A-ratio  =     1.6602772271
 C/A-ratio  =     1.1221011468
 COS(beta)  =    -0.2886659181
  
  Lattice vectors:
  
 A1 = (  -6.5173205584,  -0.0016885374,  -0.9878931566)
 A2 = (   3.2686745529,  -5.6383718199,  -0.9878931566)
 A3 = (  -0.0071795065,  -0.0124645313,   7.6325604511)


Analysis of symmetry for initial positions (statically):
=====================================================================
 Subroutine PRICEL returns:
 Original cell was already a primitive cell.
 

 Routine SETGRP: Setting up the symmetry group for a 
 base centered monoclinic supercell.


 Subroutine GETGRP returns: Found  4 space group operations
 (whereof  4 operations were pure point group operations)
 out of a pool of  4 trial point group operations.


The static configuration has the point symmetry C_2h.


Analysis of symmetry for dynamics (positions and initial velocities):
=====================================================================
 Subroutine PRICEL returns:
 Original cell was already a primitive cell.
 

 Routine SETGRP: Setting up the symmetry group for a 
 base centered monoclinic supercell.


 Subroutine GETGRP returns: Found  4 space group operations
 (whereof  4 operations were pure point group operations)
 out of a pool of  4 trial point group operations.


The dynamic configuration has the point symmetry C_2h.


 Subroutine INISYM returns: Found  4 space group operations
 (whereof  4 operations are pure point group operations),
 and found     1 'primitive' translations


----------------------------------------------------------------------------------------

                                     Primitive cell                                     

  volume of cell :     280.6769

  direct lattice vectors                    reciprocal lattice vectors
     6.517320558  0.001688537  0.987893157     0.153370402  0.088861123  0.000289383
    -3.268674553  5.638371820  0.987893157    -0.000089788  0.177253410  0.000289383
    -0.007179506 -0.012464531  7.632560451    -0.019839328 -0.034443583  0.130942722

  length of vectors
     6.591767821  6.591767821  7.632574006     0.177253669  0.177253669  0.136842814

  position of ions in fractional coordinates (direct lattice)
     0.337648781  0.662351219  1.000000000
     0.662351219  0.337648781  1.000000000
     0.183832350  0.816167650  0.500000000
     0.816167650  0.183832350  0.500000000
     0.053936298  0.053936298  0.842305670
     0.946063702  0.946063702  0.157694330
     0.795640433  0.795640433  0.756931636
     0.204359567  0.204359567  0.243068364
     0.372984591  0.071316362  0.769065025
     0.071316362  0.372984591  0.769065025
     0.627015409  0.928683638  0.230934975
     0.928683638  0.627015409  0.230934975

  ion indices of the primitive-cell ions
   primitive index   ion index
                 1           1
                 2           2
                 3           3
                 4           4
                 5           5
                 6           6
                 7           7
                 8           8
                 9           9
                10          10
                11          11
                12          12

----------------------------------------------------------------------------------------



 KPOINTS: pymatgen with grid density = 600 / numbe

Automatic generation of k-mesh.
 Grid dimensions read from file:
 generate k-points for:    3    3    3

 Generating k-lattice:

  Cartesian coordinates                     Fractional coordinates (reciprocal lattice)
     0.051123467  0.029620374  0.000096461     0.333333333 -0.000000000  0.000000000
    -0.000029929  0.059084470  0.000096461    -0.000000000  0.333333333 -0.000000000
    -0.006613109 -0.011481194  0.043647574    -0.000000000 -0.000000000  0.333333333

  Length of vectors
     0.059084556  0.059084556  0.045614271

  Shift w.r.t. Gamma in fractional coordinates (k-lattice)
     0.000000000  0.000000000  0.000000000

 
 Subroutine IBZKPT returns following result:
 ===========================================
 
 Found     10 irreducible k-points:
 
 Following reciprocal coordinates:
            Coordinates               Weight
  0.000000  0.000000  0.000000      1.000000
  0.333333  0.000000  0.000000      4.000000
  0.333333  0.333333  0.000000      2.000000
 -0.333333  0.333333  0.000000      2.000000
  0.000000  0.000000  0.333333      2.000000
  0.333333  0.000000  0.333333      4.000000
 -0.333333  0.000000  0.333333      4.000000
  0.333333  0.333333  0.333333      2.000000
 -0.333333  0.333333  0.333333      4.000000
 -0.333333 -0.333333  0.333333      2.000000
 
 Following cartesian coordinates:
            Coordinates               Weight
  0.000000  0.000000  0.000000      1.000000
  0.051123  0.029620  0.000096      4.000000
  0.051094  0.088705  0.000193      2.000000
 -0.051153  0.029464  0.000000      2.000000
 -0.006613 -0.011481  0.043648      2.000000
  0.044510  0.018139  0.043744      4.000000
 -0.057737 -0.041102  0.043551      4.000000
  0.044480  0.077224  0.043840      2.000000
 -0.057767  0.017983  0.043648      4.000000
 -0.057707 -0.100186  0.043455      2.000000
 
 
 Subroutine IBZKPT_HF returns following result:
 ==============================================
 
 Found     27 k-points in 1st BZ
 the following     27 k-points will be used (e.g. in the exchange kernel)
 Following reciprocal coordinates:   # in IRBZ
  0.000000  0.000000  0.000000    0.03703704   1 t-inv F
  0.333333  0.000000  0.000000    0.03703704   2 t-inv F
  0.333333  0.333333  0.000000    0.03703704   3 t-inv F
 -0.333333  0.333333  0.000000    0.03703704   4 t-inv F
  0.000000  0.000000  0.333333    0.03703704   5 t-inv F
  0.333333  0.000000  0.333333    0.03703704   6 t-inv F
 -0.333333  0.000000  0.333333    0.03703704   7 t-inv F
  0.333333  0.333333  0.333333    0.03703704   8 t-inv F
 -0.333333  0.333333  0.333333    0.03703704   9 t-inv F
 -0.333333 -0.333333  0.333333    0.03703704  10 t-inv F
 -0.333333 -0.000000 -0.000000    0.03703704   2 t-inv F
 -0.000000 -0.333333 -0.000000    0.03703704   2 t-inv F
  0.000000  0.333333  0.000000    0.03703704   2 t-inv F
 -0.333333 -0.333333 -0.000000    0.03703704   3 t-inv F
  0.333333 -0.333333 -0.000000    0.03703704   4 t-inv F
 -0.000000 -0.000000 -0.333333    0.03703704   5 t-inv F
 -0.333333 -0.000000 -0.333333    0.03703704   6 t-inv F
 -0.000000 -0.333333 -0.333333    0.03703704   6 t-inv F
  0.000000  0.333333  0.333333    0.03703704   6 t-inv F
  0.333333 -0.000000 -0.333333    0.03703704   7 t-inv F
 -0.000000  0.333333 -0.333333    0.03703704   7 t-inv F
  0.000000 -0.333333  0.333333    0.03703704   7 t-inv F
 -0.333333 -0.333333 -0.333333    0.03703704   8 t-inv F
  0.333333 -0.333333 -0.333333    0.03703704   9 t-inv F
 -0.333333  0.333333 -0.333333    0.03703704   9 t-inv F
  0.333333 -0.333333  0.333333    0.03703704   9 t-inv F
  0.333333  0.333333 -0.333333    0.03703704  10 t-inv F


--------------------------------------------------------------------------------------------------------




 Dimension of arrays:
   k-points           NKPTS =     10   k-points in BZ     NKDIM =     10   number of bands    NBANDS=     48
   number of dos      NEDOS =    301   number of ions     NIONS =     12
   non local maximal  LDIM  =      4   non local SUM 2l+1 LMDIM =      8
   total plane-waves  NPLWV =  40960
   max r-space proj   IRMAX =   1396   max aug-charges    IRDMAX=   4797
   dimension x,y,z NGX =    32 NGY =   32 NGZ =   40
   dimension x,y,z NGXF=    64 NGYF=   64 NGZF=   80
   support grid    NGXF=    64 NGYF=   64 NGZF=   80
   ions per type =               4   2   6
   NGX,Y,Z   is equivalent  to a cutoff of   8.07,  8.07,  8.71 a.u.
   NGXF,Y,Z  is equivalent  to a cutoff of  16.14, 16.14, 17.42 a.u.

 SYSTEM =  unknown system                          
 POSCAR =  Na4 P2 S6                               

 Startparameter for this run:
   NWRITE =      2    write-flag & timer
   PREC   = normal    normal or accurate (medium, high low for compatibility)
   ISTART =      0    job   : 0-new  1-cont  2-samecut
   ICHARG =      2    charge: 1-file 2-atom 10-const
   ISPIN  =      1    spin polarized calculation?
   LNONCOLLINEAR =      F non collinear calculations
   LSORBIT =      F    spin-orbit coupling
   INIWAV =      1    electr: 0-lowe 1-rand  2-diag
   LASPH  =      F    aspherical Exc in radial PAW
 Electronic Relaxation 1
   ENCUT  =  400.0 eV  29.40 Ry    5.42 a.u.  10.75 10.75 12.45*2*pi/ulx,y,z
   ENINI  =  400.0     initial cutoff
   ENAUG  =  368.1 eV  augmentation charge cutoff
   NELM   =     60;   NELMIN=  2; NELMDL= -5     # of ELM steps 
   EDIFF  = 0.1E-05   stopping-criterion for ELM
   LREAL  =      T    real-space projection
   NLSPLINE    = F    spline interpolate recip. space projectors
   LCOMPAT=      F    compatible to vasp.4.4
   GGA_COMPAT  = T    GGA compatible to vasp.4.4-vasp.4.6
   LMAXPAW     = -100 max onsite density
   LMAXMIX     =    2 max onsite mixed and CHGCAR
   VOSKOWN=      0    Vosko Wilk Nusair interpolation
   ROPT   =   -0.00050  -0.00050  -0.00050
 Ionic relaxation
   EDIFFG = 0.1E-04   stopping-criterion for IOM
   NSW    =    181    number of steps for IOM
   NBLOCK =      1;   KBLOCK =    181    inner block; outer block 
   IBRION =      6    ionic relax: 0-MD 1-quasi-New 2-CG
   NFREE  =      4    steps in history (QN), initial steepest desc. (CG)
   ISIF   =      3    stress and relaxation
   IWAVPR =     11    prediction:  0-non 1-charg 2-wave 3-comb
   ISYM   =      2    0-nonsym 1-usesym 2-fastsym
   LCORR  =      T    Harris-Foulkes like correction to forces

   POTIM  = 0.0150    time-step for ionic-motion
   TEIN   =    0.0    initial temperature
   TEBEG  =    0.0;   TEEND  =   0.0 temperature during run
   SMASS  =  -3.00    Nose mass-parameter (am)
   estimated Nose-frequenzy (Omega)   =  0.10E-29 period in steps = 0.42E+48 mass=  -0.993E-27a.u.
   SCALEE = 1.0000    scale energy and forces
   NPACO  =    256;   APACO  = 10.0  distance and # of slots for P.C.
   PSTRESS=    0.0 pullay stress

  Mass of Ions in am
   POMASS =  22.99 30.97 32.07
  Ionic Valenz
   ZVAL   =   7.00  5.00  6.00
  Atomic Wigner-Seitz radii
   RWIGS  =  -1.00 -1.00 -1.00
  virtual crystal weights 
   VCA    =   1.00  1.00  1.00
   NELECT =      74.0000    total number of electrons
   NUPDOWN=      -1.0000    fix difference up-down

 DOS related values:
   EMIN   =  10.00;   EMAX   =-10.00  energy-range for DOS
   EFERMI =   0.00
   ISMEAR =     0;   SIGMA  =   0.05  broadening in eV -4-tet -1-fermi 0-gaus

 Electronic relaxation 2 (details)
   IALGO  =     38    algorithm
   LDIAG  =      T    sub-space diagonalisation (order eigenvalues)
   LSUBROT=      F    optimize rotation matrix (better conditioning)
   TURBO    =      0    0=normal 1=particle mesh
   IRESTART =      0    0=no restart 2=restart with 2 vectors
   NREBOOT  =      0    no. of reboots
   NMIN     =      0    reboot dimension
   EREF     =   0.00    reference energy to select bands
   IMIX   =      4    mixing-type and parameters
     AMIX     =   0.40;   BMIX     =  1.00
     AMIX_MAG =   1.60;   BMIX_MAG =  1.00
     AMIN     =   0.10
     WC   =   100.;   INIMIX=   1;  MIXPRE=   1;  MAXMIX= -45

 Intra band minimization:
   WEIMIN = 0.0010     energy-eigenvalue tresh-hold
   EBREAK =  0.52E-08  absolut break condition
   DEPER  =   0.30     relativ break condition  

   TIME   =   0.40     timestep for ELM

  volume/ion in A,a.u.               =      23.39       157.84
  Fermi-wavevector in a.u.,A,eV,Ry     =   1.049743  1.983728 14.993095  1.101961
  Thomas-Fermi vector in A             =   2.184719

 Write flags
   LWAVE        =      F    write WAVECAR
   LDOWNSAMPLE  =      F    k-point downsampling of WAVECAR
   LCHARG       =      F    write CHGCAR
   LVTOT        =      F    write LOCPOT, total local potential
   LVHAR        =      F    write LOCPOT, Hartree potential only
   LELF         =      F    write electronic localiz. function (ELF)
   LORBIT       =      0    0 simple, 1 ext, 2 COOP (PROOUT), +10 PAW based schemes


 Dipole corrections
   LMONO  =      F    monopole corrections only (constant potential shift)
   LDIPOL =      F    correct potential (dipole corrections)
   IDIPOL =      0    1-x, 2-y, 3-z, 4-all directions 
   EPSILON=  1.0000000 bulk dielectric constant

 Exchange correlation treatment:
   GGA     =    --    GGA type
   LEXCH   =     8    internal setting for exchange type
   LIBXC   =     F    Libxc                    
   VOSKOWN =     0    Vosko Wilk Nusair interpolation
   LHFCALC =     F    Hartree Fock is set to
   LHFONE  =     F    Hartree Fock one center treatment
   AEXX    =    0.0000 exact exchange contribution

 Linear response parameters
   LEPSILON=     F    determine dielectric tensor
   LRPA    =     F    only Hartree local field effects (RPA)
   LNABLA  =     F    use nabla operator in PAW spheres
   LVEL    =     F    velocity operator in full k-point grid
   CSHIFT  =0.1000    complex shift for real part using Kramers Kronig
   OMEGAMAX=  -1.0    maximum frequency
   DEG_THRESHOLD= 0.2000000E-02 threshold for treating states as degnerate
   RTIME   =   -0.100 relaxation time in fs
  (WPLASMAI=    0.000 imaginary part of plasma frequency in eV, 0.658/RTIME)
   DFIELD  = 0.0000000 0.0000000 0.0000000 field for delta impulse in time

  Optional k-point grid parameters
   LKPOINTS_OPT  =     F    use optional k-point grid
   KPOINTS_OPT_MODE=     1    mode for optional k-point grid

 Orbital magnetization related:
   ORBITALMAG=     F  switch on orbital magnetization
   LCHIMAG   =     F  perturbation theory with respect to B field
   DQ        =  0.001000  dq finite difference perturbation B field
   LLRAUG    =     F  two centre corrections for induced B field



--------------------------------------------------------------------------------------------------------


 finite differences with symmetry
 charge density and potential will be updated during run
 non-spin polarized calculation
 Variant of blocked Davidson
 Davidson routine will perform the subspace rotation
 perform sub-space diagonalisation
    after iterative eigenvector-optimisation
 modified Broyden-mixing scheme, WC =      100.0
 initial mixing is a Kerker type mixing with AMIX =  0.4000 and BMIX =      1.0000
 Hartree-type preconditioning will be used
 using additional bands           11
 real space projection scheme for non local part
 use partial core corrections
 calculate Harris-corrections to forces   (improved forces if not selfconsistent)
 use gradient corrections 
 use of overlap-Matrix (Vanderbilt PP)
 Gauss-broadening in eV      SIGMA  =   0.05


--------------------------------------------------------------------------------------------------------


  energy-cutoff  :      400.00
  volume of cell :      280.68
      direct lattice vectors                 reciprocal lattice vectors
     6.517320558  0.001688537  0.987893157     0.153370402  0.088861123  0.000289383
    -3.268674553  5.638371820  0.987893157    -0.000089788  0.177253410  0.000289383
    -0.007179506 -0.012464531  7.632560451    -0.019839328 -0.034443583  0.130942722

  length of vectors
     6.591767821  6.591767821  7.632574006     0.177253669  0.177253669  0.136842814



 k-points in units of 2pi/SCALE and weight: pymatgen with grid density = 600 / numbe
   0.00000000  0.00000000  0.00000000       0.037
   0.05112347  0.02962037  0.00009646       0.148
   0.05109354  0.08870484  0.00019292       0.074
  -0.05115340  0.02946410  0.00000000       0.074
  -0.00661311 -0.01148119  0.04364757       0.074
   0.04451036  0.01813918  0.04374404       0.148
  -0.05773658 -0.04110157  0.04355111       0.148
   0.04448043  0.07722365  0.04384050       0.074
  -0.05776651  0.01798290  0.04364757       0.148
  -0.05770665 -0.10018604  0.04345465       0.074

 k-points in reciprocal lattice and weights: pymatgen with grid density = 600 / numbe
   0.00000000  0.00000000  0.00000000       0.037
   0.33333333  0.00000000  0.00000000       0.148
   0.33333333  0.33333333  0.00000000       0.074
  -0.33333333  0.33333333  0.00000000       0.074
   0.00000000  0.00000000  0.33333333       0.074
   0.33333333  0.00000000  0.33333333       0.148
  -0.33333333  0.00000000  0.33333333       0.148
   0.33333333  0.33333333  0.33333333       0.074
  -0.33333333  0.33333333  0.33333333       0.148
  -0.33333333 -0.33333333  0.33333333       0.074

 position of ions in fractional coordinates (direct lattice) 
   0.33764878  0.66235122  0.00000000
   0.66235122  0.33764878  0.00000000
   0.18383235  0.81616765  0.50000000
   0.81616765  0.18383235  0.50000000
   0.05393630  0.05393630  0.84230567
   0.94606370  0.94606370  0.15769433
   0.79564043  0.79564043  0.75693164
   0.20435957  0.20435957  0.24306836
   0.37298459  0.07131636  0.76906502
   0.07131636  0.37298459  0.76906502
   0.62701541  0.92868364  0.23093498
   0.92868364  0.62701541  0.23093498

 position of ions in cartesian coordinates  (Angst):
   0.03555477  3.73515258  0.98789316
   3.21309124  1.90490778  0.98789316
  -1.47328183  4.59593482  4.80417338
   4.71474833  1.03166101  4.80417338
   0.16917260  0.29370503  6.53551555
   3.07229390  5.33389080  3.07283122
   2.57931972  4.47802527  7.34934195
   0.66214678  1.14957056  2.25900482
   2.19222866  0.39315193  6.30885716
  -0.75989516  2.09356019  6.30885716
   1.04923784  5.23444390  3.29948960
   4.00136166  3.53403564  3.29948960



--------------------------------------------------------------------------------------------------------


 k-point   1 :   0.0000 0.0000 0.0000  plane waves:    5097
 k-point   2 :   0.3333 0.0000 0.0000  plane waves:    5123
 k-point   3 :   0.3333 0.3333 0.0000  plane waves:    5098
 k-point   4 :  -0.3333 0.3333 0.0000  plane waves:    5088
 k-point   5 :   0.0000 0.0000 0.3333  plane waves:    5092
 k-point   6 :   0.3333 0.0000 0.3333  plane waves:    5098
 k-point   7 :  -0.3333 0.0000 0.3333  plane waves:    5095
 k-point   8 :   0.3333 0.3333 0.3333  plane waves:    5089
 k-point   9 :  -0.3333 0.3333 0.3333  plane waves:    5096
 k-point  10 :  -0.3333-0.3333 0.3333  plane waves:    5105

 maximum and minimum number of plane-waves per node :      5123     5088

 maximum number of plane-waves:      5123
 maximum index in each direction: 
   IXMAX=   11   IYMAX=   11   IZMAX=   12
   IXMIN=  -11   IYMIN=  -11   IZMIN=  -12


 serial   3D FFT for wavefunctions
 parallel 3D FFT for charge:
    minimum data exchange during FFTs selected (reduces bandwidth)


 total amount of memory used by VASP MPI-rank0    42212. kBytes
=======================================================================

   base      :      30000. kBytes
   nonlr-proj:       1257. kBytes
   fftplans  :       1579. kBytes
   grid      :       4325. kBytes
   one-center:         36. kBytes
   wavefun   :       5015. kBytes

     INWAV:  cpu time      0.0000: real time      0.0002
 Broyden mixing: mesh for mixing (old mesh)
   NGX = 21   NGY = 21   NGZ = 25
  (NGX  = 64   NGY  = 64   NGZ  = 80)
  gives a total of  11025 points

 initial charge density was supplied:
 charge density of overlapping atoms calculated
 number of electron      74.0000000 magnetization 
 keeping initial charge density in first step


--------------------------------------------------------------------------------------------------------


 Maximum index for non-local projection operator         1305
 Maximum index for augmentation-charges          588 (set IRDMAX)


--------------------------------------------------------------------------------------------------------


 First call to EWALD:  gamma=   0.271
 Maximum number of real-space cells 3x 3x 3
 Maximum number of reciprocal cells 3x 3x 3

    FEWALD:  cpu time      0.0006: real time      0.0006


--------------------------------------- Iteration      1(   1)  ---------------------------------------


    POTLOK:  cpu time      0.0171: real time      0.0172
    SETDIJ:  cpu time      0.0022: real time      0.0022
     EDDAV:  cpu time      0.4599: real time      0.4600
       DOS:  cpu time      0.0003: real time      0.0004
    --------------------------------------------
      LOOP:  cpu time      0.4796: real time      0.4798

 eigenvalue-minimisations  :   976
 total energy-change (2. order) : 0.5956814E+03  (-0.2952712E+04)
 number of electron      74.0000000 magnetization 
 augmentation part       74.0000000 magnetization 

 Free energy of the ion-electron system (eV)
  ---------------------------------------------------
  alpha Z        PSCENC =        96.30511603
  Ewald energy   TEWEN  =     -3055.98155875
  -Hartree energ DENC   =     -1325.15438714
  -exchange      EXHF   =         0.00000000
  -V(xc)+E(xc)   XCENC  =       179.21437743
  PAW double counting   =      3593.81628629    -3912.64282779
  entropy T*S    EENTRO =        -0.00685983
  eigenvalues    EBANDS =       -56.99495862
  atomic energy  EATOM  =      5077.12616745
  Solvation  Ediel_sol  =         0.00000000
  ---------------------------------------------------
  free energy    TOTEN  =       595.68135507 eV

  energy without entropy =      595.68821490  energy(sigma->0) =      595.68478498


--------------------------------------------------------------------------------------------------------




--------------------------------------- Iteration      1(   2)  ---------------------------------------


     EDDAV:  cpu time      0.4871: real time      0.4891
       DOS:  cpu time      0.0002: real time      0.0002
    --------------------------------------------
      LOOP:  cpu time      0.4872: real time      0.4894

 eigenvalue-minimisations  :  1056
 total energy-change (2. order) :-0.5803479E+03  (-0.5594106E+03)
 number of electron      74.0000000 magnetization 
 augmentation part       74.0000000 magnetization 

 Free energy of the ion-electron system (eV)
  ---------------------------------------------------
  alpha Z        PSCENC =        96.30511603
  Ewald energy   TEWEN  =     -3055.98155875
  -Hartree energ DENC   =     -1325.15438714
  -exchange      EXHF   =         0.00000000
  -V(xc)+E(xc)   XCENC  =       179.21437743
  PAW double counting   =      3593.81628629    -3912.64282779
  entropy T*S    EENTRO =        -0.00000000
  eigenvalues    EBANDS =      -637.34968620
  atomic energy  EATOM  =      5077.12616745
  Solvation  Ediel_sol  =         0.00000000
  ---------------------------------------------------
  free energy    TOTEN  =        15.33348733 eV

  energy without entropy =       15.33348733  energy(sigma->0) =       15.33348733


--------------------------------------------------------------------------------------------------------




--------------------------------------- Iteration      1(   3)  ---------------------------------------


     EDDAV:  cpu time      0.5268: real time      0.5270
       DOS:  cpu time      0.0003: real time      0.0003
    --------------------------------------------
      LOOP:  cpu time      0.5271: real time      0.5273

 eigenvalue-minimisations  :  1168
 total energy-change (2. order) :-0.6563159E+02  (-0.6502457E+02)
 number of electron      74.0000000 magnetization 
 augmentation part       74.0000000 magnetization 

 Free energy of the ion-electron system (eV)
  ---------------------------------------------------
  alpha Z        PSCENC =        96.30511603
  Ewald energy   TEWEN  =     -3055.98155875
  -Hartree energ DENC   =     -1325.15438714
  -exchange      EXHF   =         0.00000000
  -V(xc)+E(xc)   XCENC  =       179.21437743
  PAW double counting   =      3593.81628629    -3912.64282779
  entropy T*S    EENTRO =        -0.00000000
  eigenvalues    EBANDS =      -702.98127572
  atomic energy  EATOM  =      5077.12616745
  Solvation  Ediel_sol  =         0.00000000
  ---------------------------------------------------
  free energy    TOTEN  =       -50.29810220 eV

  energy without entropy =      -50.29810220  energy(sigma->0) =      -50.29810220


--------------------------------------------------------------------------------------------------------




--------------------------------------- Iteration      1(   4)  ---------------------------------------


     EDDAV:  cpu time      0.5168: real time      0.5170
       DOS:  cpu time      0.0002: real time      0.0003
    --------------------------------------------
      LOOP:  cpu time      0.5170: real time      0.5173

 eigenvalue-minimisations  :  1192
 total energy-change (2. order) :-0.2394177E+01  (-0.2375438E+01)
 number of electron      74.0000000 magnetization 
 augmentation part       74.0000000 magnetization 

 Free energy of the ion-electron system (eV)
  ---------------------------------------------------
  alpha Z        PSCENC =        96.30511603
  Ewald energy   TEWEN  =     -3055.98155875
  -Hartree energ DENC   =     -1325.15438714
  -exchange      EXHF   =         0.00000000
  -V(xc)+E(xc)   XCENC  =       179.21437743
  PAW double counting   =      3593.81628629    -3912.64282779
  entropy T*S    EENTRO =        -0.00000000
  eigenvalues    EBANDS =      -705.37545263
  atomic energy  EATOM  =      5077.12616745
  Solvation  Ediel_sol  =         0.00000000
  ---------------------------------------------------
  free energy    TOTEN  =       -52.69227910 eV

  energy without entropy =      -52.69227910  energy(sigma->0) =      -52.69227910


--------------------------------------------------------------------------------------------------------




--------------------------------------- Iteration      1(   5)  ---------------------------------------


     EDDAV:  cpu time      0.5533: real time      0.5534
       DOS:  cpu time      0.0002: real time      0.0002
    CHARGE:  cpu time      0.0288: real time      0.0288
    MIXING:  cpu time      0.0008: real time      0.0008
    --------------------------------------------
      LOOP:  cpu time      0.5830: real time      0.5832

 eigenvalue-minimisations  :  1304
 total energy-change (2. order) :-0.9038778E-01  (-0.9031297E-01)
 number of electron      74.0000114 magnetization 
 augmentation part       11.7719465 magnetization 

 Broyden mixing:
  rms(total) = 0.19982E+01    rms(broyden)= 0.19981E+01
  rms(prec ) = 0.22186E+01
  weight for this iteration     100.00

 Free energy of the ion-electron system (eV)
  ---------------------------------------------------
  alpha Z        PSCENC =        96.30511603
  Ewald energy   TEWEN  =     -3055.98155875
  -Hartree energ DENC   =     -1325.15438714
  -exchange      EXHF   =         0.00000000
  -V(xc)+E(xc)   XCENC  =       179.21437743
  PAW double counting   =      3593.81628629    -3912.64282779
  entropy T*S    EENTRO =        -0.00000000
  eigenvalues    EBANDS =      -705.46584041
  atomic energy  EATOM  =      5077.12616745
  Solvation  Ediel_sol  =         0.00000000
  ---------------------------------------------------
  free energy    TOTEN  =       -52.78266689 eV

  energy without entropy =      -52.78266689  energy(sigma->0) =      -52.78266689


--------------------------------------------------------------------------------------------------------




--------------------------------------- Iteration      1(   6)  ---------------------------------------


    POTLOK:  cpu time      0.0168: real time      0.0170
    SETDIJ:  cpu time      0.0020: real time      0.0020
     EDDAV:  cpu time      0.5002: real time      0.5003
       DOS:  cpu time      0.0002: real time      0.0003
    CHARGE:  cpu time      0.0274: real time      0.0274
    MIXING:  cpu time      0.0008: real time      0.0008
    --------------------------------------------
      LOOP:  cpu time      0.5474: real time      0.5478

 eigenvalue-minimisations  :  1152
 total energy-change (2. order) : 0.1641073E+01  (-0.3022466E+00)
 number of electron      74.0000115 magnetization 
 augmentation part       11.8822993 magnetization 

 Broyden mixing:
  rms(total) = 0.13526E+01    rms(broyden)= 0.13526E+01
  rms(prec ) = 0.14121E+01
  weight for this iteration     100.00

 eigenvalues of (default mixing * dielectric matrix)
  average eigenvalue GAMMA=   2.6534
  2.6534

 Free energy of the ion-electron system (eV)
  ---------------------------------------------------
  alpha Z        PSCENC =        96.30511603
  Ewald energy   TEWEN  =     -3055.98155875
  -Hartree energ DENC   =     -1337.92503848
  -exchange      EXHF   =         0.00000000
  -V(xc)+E(xc)   XCENC  =       180.95520612
  PAW double counting   =      4660.02186517    -4978.94214857
  entropy T*S    EENTRO =        -0.00000000
  eigenvalues    EBANDS =      -692.70120336
  atomic energy  EATOM  =      5077.12616745
  Solvation  Ediel_sol  =         0.00000000
  ---------------------------------------------------
  free energy    TOTEN  =       -51.14159438 eV

  energy without entropy =      -51.14159438  energy(sigma->0) =      -51.14159438


--------------------------------------------------------------------------------------------------------




--------------------------------------- Iteration      1(   7)  ---------------------------------------


    POTLOK:  cpu time      0.0156: real time      0.0158
    SETDIJ:  cpu time      0.0020: real time      0.0020
     EDDAV:  cpu time      0.5184: real time      0.5184
       DOS:  cpu time      0.0002: real time      0.0003
    CHARGE:  cpu time      0.0273: real time      0.0273
    MIXING:  cpu time      0.0008: real time      0.0008
    --------------------------------------------
      LOOP:  cpu time      0.5643: real time      0.5645

 eigenvalue-minimisations  :  1216
 total energy-change (2. order) : 0.1210548E+00  (-0.1924540E+00)
 number of electron      74.0000115 magnetization 
 augmentation part       11.9940424 magnetization 

 Broyden mixing:
  rms(total) = 0.29055E+00    rms(broyden)= 0.29055E+00
  rms(prec ) = 0.32126E+00
  weight for this iteration     100.00

 eigenvalues of (default mixing * dielectric matrix)
  average eigenvalue GAMMA=   1.6566
  1.3390  1.9743

 Free energy of the ion-electron system (eV)
  ---------------------------------------------------
  alpha Z        PSCENC =        96.30511603
  Ewald energy   TEWEN  =     -3055.98155875
  -Hartree energ DENC   =     -1349.11573893
  -exchange      EXHF   =         0.00000000
  -V(xc)+E(xc)   XCENC  =       182.66756644
  PAW double counting   =      6788.82253881    -7108.35039388
  entropy T*S    EENTRO =        -0.00000000
  eigenvalues    EBANDS =      -682.49423679
  atomic energy  EATOM  =      5077.12616745
  Solvation  Ediel_sol  =         0.00000000
  ---------------------------------------------------
  free energy    TOTEN  =       -51.02053962 eV

  energy without entropy =      -51.02053962  energy(sigma->0) =      -51.02053962


--------------------------------------------------------------------------------------------------------




--------------------------------------- Iteration      1(   8)  ---------------------------------------


    POTLOK:  cpu time      0.0159: real time      0.0161
    SETDIJ:  cpu time      0.0020: real time      0.0020
     EDDAV:  cpu time      0.5148: real time      0.5149
       DOS:  cpu time      0.0003: real time      0.0003
    CHARGE:  cpu time      0.0288: real time      0.0288
    MIXING:  cpu time      0.0009: real time      0.0009
    --------------------------------------------
      LOOP:  cpu time      0.5626: real time      0.5630

 eigenvalue-minimisations  :  1160
 total energy-change (2. order) : 0.1555002E-01  (-0.1392235E-01)
 number of electron      74.0000115 magnetization 
 augmentation part       11.9703009 magnetization 

 Broyden mixing:
  rms(total) = 0.16895E+00    rms(broyden)= 0.16895E+00
  rms(prec ) = 0.17752E+00
  weight for this iteration     100.00

 eigenvalues of (default mixing * dielectric matrix)
  average eigenvalue GAMMA=   1.6709
  2.4610  0.9670  1.5847

 Free energy of the ion-electron system (eV)
  ---------------------------------------------------
  alpha Z        PSCENC =        96.30511603
  Ewald energy   TEWEN  =     -3055.98155875
  -Hartree energ DENC   =     -1347.06211151
  -exchange      EXHF   =         0.00000000
  -V(xc)+E(xc)   XCENC  =       182.64128980
  PAW double counting   =      6997.32326945    -7317.32748107
  entropy T*S    EENTRO =        -0.00000000
  eigenvalues    EBANDS =      -684.02968100
  atomic energy  EATOM  =      5077.12616745
  Solvation  Ediel_sol  =         0.00000000
  ---------------------------------------------------
  free energy    TOTEN  =       -51.00498960 eV

  energy without entropy =      -51.00498960  energy(sigma->0) =      -51.00498960


--------------------------------------------------------------------------------------------------------




--------------------------------------- Iteration      1(   9)  ---------------------------------------


    POTLOK:  cpu time      0.0168: real time      0.0170
    SETDIJ:  cpu time      0.0021: real time      0.0021
     EDDAV:  cpu time      0.5005: real time      0.5005
       DOS:  cpu time      0.0002: real time      0.0003
    CHARGE:  cpu time      0.0272: real time      0.0272
    MIXING:  cpu time      0.0008: real time      0.0008
    --------------------------------------------
      LOOP:  cpu time      0.5476: real time      0.5479

 eigenvalue-minimisations  :  1152
 total energy-change (2. order) :-0.4459153E-02  (-0.2498833E-02)
 number of electron      74.0000115 magnetization 
 augmentation part       11.9617518 magnetization 

 Broyden mixing:
  rms(total) = 0.51023E-01    rms(broyden)= 0.51022E-01
  rms(prec ) = 0.52844E-01
  weight for this iteration     100.00

 eigenvalues of (default mixing * dielectric matrix)
  average eigenvalue GAMMA=   1.4865
  2.0198  1.1835  1.3714  1.3714

 Free energy of the ion-electron system (eV)
  ---------------------------------------------------
  alpha Z        PSCENC =        96.30511603
  Ewald energy   TEWEN  =     -3055.98155875
  -Hartree energ DENC   =     -1346.86288527
  -exchange      EXHF   =         0.00000000
  -V(xc)+E(xc)   XCENC  =       182.79560917
  PAW double counting   =      7246.95613472    -7567.21599495
  entropy T*S    EENTRO =        -0.00000000
  eigenvalues    EBANDS =      -684.13203716
  atomic energy  EATOM  =      5077.12616745
  Solvation  Ediel_sol  =         0.00000000
  ---------------------------------------------------
  free energy    TOTEN  =       -51.00944875 eV

  energy without entropy =      -51.00944875  energy(sigma->0) =      -51.00944875


--------------------------------------------------------------------------------------------------------




--------------------------------------- Iteration      1(  10)  ---------------------------------------


    POTLOK:  cpu time      0.0159: real time      0.0162
    SETDIJ:  cpu time      0.0020: real time      0.0020
     EDDAV:  cpu time      0.5568: real time      0.5569
       DOS:  cpu time      0.0002: real time      0.0002
    CHARGE:  cpu time      0.0273: real time      0.0273
    MIXING:  cpu time      0.0008: real time      0.0008
    --------------------------------------------
      LOOP:  cpu time      0.6030: real time      0.6034

 eigenvalue-minimisations  :  1320
 total energy-change (2. order) :-0.1277292E-03  (-0.1474860E-03)
 number of electron      74.0000115 magnetization 
 augmentation part       11.9630254 magnetization 

 Broyden mixing:
  rms(total) = 0.22680E-01    rms(broyden)= 0.22680E-01
  rms(prec ) = 0.26092E-01
  weight for this iteration     100.00

 eigenvalues of (default mixing * dielectric matrix)
  average eigenvalue GAMMA=   1.7978
  2.7635  2.7635  1.2227  1.2227  1.0165

 Free energy of the ion-electron system (eV)
  ---------------------------------------------------
  alpha Z        PSCENC =        96.30511603
  Ewald energy   TEWEN  =     -3055.98155875
  -Hartree energ DENC   =     -1346.91649101
  -exchange      EXHF   =         0.00000000
  -V(xc)+E(xc)   XCENC  =       182.77257736
  PAW double counting   =      7134.89250782    -7455.09049369
  entropy T*S    EENTRO =        -0.00000000
  eigenvalues    EBANDS =      -684.11740170
  atomic energy  EATOM  =      5077.12616745
  Solvation  Ediel_sol  =         0.00000000
  ---------------------------------------------------
  free energy    TOTEN  =       -51.00957648 eV

  energy without entropy =      -51.00957648  energy(sigma->0) =      -51.00957648


--------------------------------------------------------------------------------------------------------




--------------------------------------- Iteration      1(  11)  ---------------------------------------


    POTLOK:  cpu time      0.0159: real time      0.0162
    SETDIJ:  cpu time      0.0020: real time      0.0020
     EDDAV:  cpu time      0.4699: real time      0.4699
       DOS:  cpu time      0.0002: real time      0.0003
    CHARGE:  cpu time      0.0273: real time      0.0273
    MIXING:  cpu time      0.0008: real time      0.0008
    --------------------------------------------
      LOOP:  cpu time      0.5163: real time      0.5166

 eigenvalue-minimisations  :  1080
 total energy-change (2. order) :-0.8493724E-03  (-0.1370748E-03)
 number of electron      74.0000115 magnetization 
 augmentation part       11.9634770 magnetization 

 Broyden mixing:
  rms(total) = 0.64358E-02    rms(broyden)= 0.64358E-02
  rms(prec ) = 0.68748E-02
  weight for this iteration     100.00

 eigenvalues of (default mixing * dielectric matrix)
  average eigenvalue GAMMA=   1.5820
  2.5665  2.5665  1.2230  1.2230  1.0922  0.8208

 Free energy of the ion-electron system (eV)
  ---------------------------------------------------
  alpha Z        PSCENC =        96.30511603
  Ewald energy   TEWEN  =     -3055.98155875
  -Hartree energ DENC   =     -1347.01166547
  -exchange      EXHF   =         0.00000000
  -V(xc)+E(xc)   XCENC  =       182.81236099
  PAW double counting   =      7113.46032478    -7433.71200541
  entropy T*S    EENTRO =        -0.00000000
  eigenvalues    EBANDS =      -684.00916548
  atomic energy  EATOM  =      5077.12616745
  Solvation  Ediel_sol  =         0.00000000
  ---------------------------------------------------
  free energy    TOTEN  =       -51.01042586 eV

  energy without entropy =      -51.01042586  energy(sigma->0) =      -51.01042586


--------------------------------------------------------------------------------------------------------




--------------------------------------- Iteration      1(  12)  ---------------------------------------


    POTLOK:  cpu time      0.0159: real time      0.0161
    SETDIJ:  cpu time      0.0020: real time      0.0020
     EDDAV:  cpu time      0.5562: real time      0.5563
       DOS:  cpu time      0.0002: real time      0.0003
    CHARGE:  cpu time      0.0273: real time      0.0273
    MIXING:  cpu time      0.0009: real time      0.0009
    --------------------------------------------
      LOOP:  cpu time      0.6024: real time      0.6028

 eigenvalue-minimisations  :  1312
 total energy-change (2. order) :-0.3065035E-05  (-0.3277826E-05)
 number of electron      74.0000115 magnetization 
 augmentation part       11.9633863 magnetization 

 Broyden mixing:
  rms(total) = 0.44094E-02    rms(broyden)= 0.44094E-02
  rms(prec ) = 0.46551E-02
  weight for this iteration     100.00

 eigenvalues of (default mixing * dielectric matrix)
  average eigenvalue GAMMA=   1.4376
  2.5805  2.5805  1.2192  1.2192  1.1114  0.6760  0.6760

 Free energy of the ion-electron system (eV)
  ---------------------------------------------------
  alpha Z        PSCENC =        96.30511603
  Ewald energy   TEWEN  =     -3055.98155875
  -Hartree energ DENC   =     -1347.04888978
  -exchange      EXHF   =         0.00000000
  -V(xc)+E(xc)   XCENC  =       182.81830315
  PAW double counting   =      7128.06799570    -7448.32763051
  entropy T*S    EENTRO =        -0.00000000
  eigenvalues    EBANDS =      -683.96993222
  atomic energy  EATOM  =      5077.12616745
  Solvation  Ediel_sol  =         0.00000000
  ---------------------------------------------------
  free energy    TOTEN  =       -51.01042892 eV

  energy without entropy =      -51.01042892  energy(sigma->0) =      -51.01042892


--------------------------------------------------------------------------------------------------------




--------------------------------------- Iteration      1(  13)  ---------------------------------------


    POTLOK:  cpu time      0.0159: real time      0.0161
    SETDIJ:  cpu time      0.0020: real time      0.0020
     EDDAV:  cpu time      0.4550: real time      0.4550
       DOS:  cpu time      0.0002: real time      0.0003
    CHARGE:  cpu time      0.0273: real time      0.0273
    MIXING:  cpu time      0.0009: real time      0.0009
    --------------------------------------------
      LOOP:  cpu time      0.5011: real time      0.5015

 eigenvalue-minimisations  :  1032
 total energy-change (2. order) :-0.1146238E-04  (-0.1308927E-05)
 number of electron      74.0000115 magnetization 
 augmentation part       11.9634755 magnetization 

 Broyden mixing:
  rms(total) = 0.23635E-02    rms(broyden)= 0.23635E-02
  rms(prec ) = 0.24721E-02
  weight for this iteration     100.00

 eigenvalues of (default mixing * dielectric matrix)
  average eigenvalue GAMMA=   1.5753
  2.8833  2.4338  1.5203  1.5203  1.1637  1.1637  1.0438  0.8732

 Free energy of the ion-electron system (eV)
  ---------------------------------------------------
  alpha Z        PSCENC =        96.30511603
  Ewald energy   TEWEN  =     -3055.98155875
  -Hartree energ DENC   =     -1347.07960728
  -exchange      EXHF   =         0.00000000
  -V(xc)+E(xc)   XCENC  =       182.82018743
  PAW double counting   =      7124.72820191    -7444.98985988
  entropy T*S    EENTRO =        -0.00000000
  eigenvalues    EBANDS =      -683.93908730
  atomic energy  EATOM  =      5077.12616745
  Solvation  Ediel_sol  =         0.00000000
  ---------------------------------------------------
  free energy    TOTEN  =       -51.01044038 eV

  energy without entropy =      -51.01044038  energy(sigma->0) =      -51.01044038


--------------------------------------------------------------------------------------------------------




--------------------------------------- Iteration      1(  14)  ---------------------------------------


    POTLOK:  cpu time      0.0159: real time      0.0161
    SETDIJ:  cpu time      0.0020: real time      0.0020
     EDDAV:  cpu time      0.4792: real time      0.4793
       DOS:  cpu time      0.0002: real time      0.0003
    CHARGE:  cpu time      0.0273: real time      0.0273
    MIXING:  cpu time      0.0009: real time      0.0009
    --------------------------------------------
      LOOP:  cpu time      0.5256: real time      0.5260

 eigenvalue-minimisations  :  1096
 total energy-change (2. order) :-0.5177380E-05  (-0.4474714E-06)
 number of electron      74.0000115 magnetization 
 augmentation part       11.9635157 magnetization 

 Broyden mixing:
  rms(total) = 0.77421E-03    rms(broyden)= 0.77421E-03
  rms(prec ) = 0.83341E-03
  weight for this iteration     100.00

 eigenvalues of (default mixing * dielectric matrix)
  average eigenvalue GAMMA=   1.5045
  2.9698  2.3620  1.8751  1.3114  1.1043  1.1043  1.1302  0.8415  0.8415

 Free energy of the ion-electron system (eV)
  ---------------------------------------------------
  alpha Z        PSCENC =        96.30511603
  Ewald energy   TEWEN  =     -3055.98155875
  -Hartree energ DENC   =     -1347.09662652
  -exchange      EXHF   =         0.00000000
  -V(xc)+E(xc)   XCENC  =       182.82111807
  PAW double counting   =      7122.54612749    -7442.80857299
  entropy T*S    EENTRO =        -0.00000000
  eigenvalues    EBANDS =      -683.92221635
  atomic energy  EATOM  =      5077.12616745
  Solvation  Ediel_sol  =         0.00000000
  ---------------------------------------------------
  free energy    TOTEN  =       -51.01044556 eV

  energy without entropy =      -51.01044556  energy(sigma->0) =      -51.01044556


--------------------------------------------------------------------------------------------------------




--------------------------------------- Iteration      1(  15)  ---------------------------------------


    POTLOK:  cpu time      0.0158: real time      0.0161
    SETDIJ:  cpu time      0.0020: real time      0.0020
     EDDAV:  cpu time      0.3821: real time      0.3821
       DOS:  cpu time      0.0002: real time      0.0003
    --------------------------------------------
      LOOP:  cpu time      0.4002: real time      0.4005

 eigenvalue-minimisations  :   800
 total energy-change (2. order) :-0.9499327E-06  (-0.5809736E-07)
 number of electron      74.0000115 magnetization 
 augmentation part       11.9635157 magnetization 

 Free energy of the ion-electron system (eV)
  ---------------------------------------------------
  alpha Z        PSCENC =        96.30511603
  Ewald energy   TEWEN  =     -3055.98155875
  -Hartree energ DENC   =     -1347.10596508
  -exchange      EXHF   =         0.00000000
  -V(xc)+E(xc)   XCENC  =       182.82147297
  PAW double counting   =      7122.38552556    -7442.64799242
  entropy T*S    EENTRO =        -0.00000000
  eigenvalues    EBANDS =      -683.91321227
  atomic energy  EATOM  =      5077.12616745
  Solvation  Ediel_sol  =         0.00000000
  ---------------------------------------------------
  free energy    TOTEN  =       -51.01044651 eV

  energy without entropy =      -51.01044651  energy(sigma->0) =      -51.01044651


--------------------------------------------------------------------------------------------------------




 average (electrostatic) potential at core
  the test charge radii are     0.9254  0.9587  0.9698
  (the norm of the test charge is              1.0000)
       1 -46.5869       2 -46.5869       3 -47.0755       4 -47.0755       5 -88.0314
       6 -88.0314       7 -88.7505       8 -88.7505       9 -88.7047      10 -88.7047
      11 -88.7047      12 -88.7047



 E-fermi :   1.8286     XC(G=0):  -8.1885     alpha+bet : -8.4346

 Fermi energy:         1.8285576075

 k-point     1 :       0.0000    0.0000    0.0000
  band No.  band energies     occupation 
      1     -21.2874      2.00000
      2     -21.2767      2.00000
      3     -21.2715      2.00000
      4     -21.2658      2.00000
      5     -21.2548      2.00000
      6     -21.2525      2.00000
      7     -20.7927      2.00000
      8     -20.7831      2.00000
      9     -20.7827      2.00000
     10     -20.7783      2.00000
     11     -20.7782      2.00000
     12     -20.7749      2.00000
     13     -13.3427      2.00000
     14     -12.3965      2.00000
     15     -10.3080      2.00000
     16     -10.2908      2.00000
     17     -10.1183      2.00000
     18     -10.1160      2.00000
     19      -7.2708      2.00000
     20      -5.6602      2.00000
     21      -3.5936      2.00000
     22      -3.0978      2.00000
     23      -2.9327      2.00000
     24      -2.6456      2.00000
     25      -2.4628      2.00000
     26      -0.1378      2.00000
     27      -0.0986      2.00000
     28      -0.0546      2.00000
     29       0.0302      2.00000
     30       0.1406      2.00000
     31       0.2617      2.00000
     32       0.3516      2.00000
     33       0.6626      2.00000
     34       0.7230      2.00000
     35       0.8051      2.00000
     36       0.9420      2.00000
     37       1.1559      2.00000
     38       4.6923      0.00000
     39       4.9246      0.00000
     40       5.3533      0.00000
     41       5.7472      0.00000
     42       6.0280      0.00000
     43       6.3231      0.00000
     44       6.6449      0.00000
     45       6.8735      0.00000
     46       7.7426      0.00000
     47       8.1864      0.00000
     48       8.2903      0.00000

 k-point     2 :       0.3333    0.0000    0.0000
  band No.  band energies     occupation 
      1     -21.2848      2.00000
      2     -21.2796      2.00000
      3     -21.2705      2.00000
      4     -21.2662      2.00000
      5     -21.2545      2.00000
      6     -21.2534      2.00000
      7     -20.7926      2.00000
      8     -20.7834      2.00000
      9     -20.7818      2.00000
     10     -20.7794      2.00000
     11     -20.7772      2.00000
     12     -20.7759      2.00000
     13     -13.3113      2.00000
     14     -12.3751      2.00000
     15     -10.4094      2.00000
     16     -10.3189      2.00000
     17     -10.1765      2.00000
     18     -10.1375      2.00000
     19      -7.0972      2.00000
     20      -5.5576      2.00000
     21      -3.4582      2.00000
     22      -3.0237      2.00000
     23      -2.9419      2.00000
     24      -2.6302      2.00000
     25      -2.3234      2.00000
     26      -0.4313      2.00000
     27      -0.2547      2.00000
     28      -0.2149      2.00000
     29      -0.1522      2.00000
     30      -0.0603      2.00000
     31       0.1784      2.00000
     32       0.4793      2.00000
     33       0.5437      2.00000
     34       0.7218      2.00000
     35       0.8724      2.00000
     36       1.0620      2.00000
     37       1.2373      2.00000
     38       4.6801      0.00000
     39       5.2184      0.00000
     40       5.5222      0.00000
     41       5.6084      0.00000
     42       5.6456      0.00000
     43       6.1136      0.00000
     44       6.9655      0.00000
     45       7.1123      0.00000
     46       7.8572      0.00000
     47       8.0172      0.00000
     48       8.1665      0.00000

 k-point     3 :       0.3333    0.3333    0.0000
  band No.  band energies     occupation 
      1     -21.2853      2.00000
      2     -21.2788      2.00000
      3     -21.2701      2.00000
      4     -21.2667      2.00000
      5     -21.2551      2.00000
      6     -21.2528      2.00000
      7     -20.7922      2.00000
      8     -20.7819      2.00000
      9     -20.7818      2.00000
     10     -20.7805      2.00000
     11     -20.7798      2.00000
     12     -20.7741      2.00000
     13     -13.2914      2.00000
     14     -12.3602      2.00000
     15     -10.4334      2.00000
     16     -10.3874      2.00000
     17     -10.1768      2.00000
     18     -10.1759      2.00000
     19      -6.9863      2.00000
     20      -5.4735      2.00000
     21      -3.3356      2.00000
     22      -3.0135      2.00000
     23      -2.9946      2.00000
     24      -2.4959      2.00000
     25      -2.4003      2.00000
     26      -0.6295      2.00000
     27      -0.4639      2.00000
     28      -0.2654      2.00000
     29      -0.2045      2.00000
     30       0.0018      2.00000
     31       0.0510      2.00000
     32       0.1653      2.00000
     33       0.6035      2.00000
     34       0.8797      2.00000
     35       0.9687      2.00000
     36       1.2791      2.00000
     37       1.5054      2.00000
     38       4.4489      0.00000
     39       4.9213      0.00000
     40       5.2426      0.00000
     41       5.3747      0.00000
     42       5.7344      0.00000
     43       6.3673      0.00000
     44       6.4172      0.00000
     45       7.4684      0.00000
     46       7.7254      0.00000
     47       7.9397      0.00000
     48       8.3048      0.00000

 k-point     4 :      -0.3333    0.3333    0.0000
  band No.  band energies     occupation 
      1     -21.2879      2.00000
      2     -21.2761      2.00000
      3     -21.2706      2.00000
      4     -21.2668      2.00000
      5     -21.2554      2.00000
      6     -21.2520      2.00000
      7     -20.7914      2.00000
      8     -20.7844      2.00000
      9     -20.7817      2.00000
     10     -20.7797      2.00000
     11     -20.7795      2.00000
     12     -20.7735      2.00000
     13     -13.3038      2.00000
     14     -12.3672      2.00000
     15     -10.4428      2.00000
     16     -10.3332      2.00000
     17     -10.1662      2.00000
     18     -10.1538      2.00000
     19      -7.0570      2.00000
     20      -5.5144      2.00000
     21      -3.4380      2.00000
     22      -3.0171      2.00000
     23      -3.0085      2.00000
     24      -2.5041      2.00000
     25      -2.3656      2.00000
     26      -0.4336      2.00000
     27      -0.4159      2.00000
     28      -0.2957      2.00000
     29      -0.1419      2.00000
     30      -0.1279      2.00000
     31       0.2381      2.00000
     32       0.3218      2.00000
     33       0.5037      2.00000
     34       0.9186      2.00000
     35       0.9554      2.00000
     36       1.0773      2.00000
     37       1.4080      2.00000
     38       4.8166      0.00000
     39       5.0090      0.00000
     40       5.2940      0.00000
     41       5.5751      0.00000
     42       5.6130      0.00000
     43       6.0572      0.00000
     44       6.6202      0.00000
     45       7.1762      0.00000
     46       7.4931      0.00000
     47       8.0154      0.00000
     48       8.2008      0.00000

 k-point     5 :       0.0000    0.0000    0.3333
  band No.  band energies     occupation 
      1     -21.2875      2.00000
      2     -21.2768      2.00000
      3     -21.2715      2.00000
      4     -21.2658      2.00000
      5     -21.2547      2.00000
      6     -21.2525      2.00000
      7     -20.7927      2.00000
      8     -20.7831      2.00000
      9     -20.7827      2.00000
     10     -20.7783      2.00000
     11     -20.7782      2.00000
     12     -20.7750      2.00000
     13     -13.3196      2.00000
     14     -12.4357      2.00000
     15     -10.3079      2.00000
     16     -10.2975      2.00000
     17     -10.1181      2.00000
     18     -10.1077      2.00000
     19      -7.1765      2.00000
     20      -5.7314      2.00000
     21      -3.5748      2.00000
     22      -3.0853      2.00000
     23      -2.9379      2.00000
     24      -2.6863      2.00000
     25      -2.4358      2.00000
     26      -0.7996      2.00000
     27      -0.1333      2.00000
     28       0.0612      2.00000
     29       0.1033      2.00000
     30       0.2657      2.00000
     31       0.3254      2.00000
     32       0.6579      2.00000
     33       0.6721      2.00000
     34       0.7320      2.00000
     35       0.7865      2.00000
     36       1.0541      2.00000
     37       1.1503      2.00000
     38       4.2889      0.00000
     39       5.0199      0.00000
     40       5.5021      0.00000
     41       5.6109      0.00000
     42       6.0416      0.00000
     43       6.3998      0.00000
     44       6.9327      0.00000
     45       7.0942      0.00000
     46       7.7423      0.00000
     47       8.0135      0.00000
     48       8.3425      0.00000

 k-point     6 :       0.3333    0.0000    0.3333
  band No.  band energies     occupation 
      1     -21.2848      2.00000
      2     -21.2796      2.00000
      3     -21.2705      2.00000
      4     -21.2662      2.00000
      5     -21.2545      2.00000
      6     -21.2533      2.00000
      7     -20.7926      2.00000
      8     -20.7834      2.00000
      9     -20.7817      2.00000
     10     -20.7794      2.00000
     11     -20.7772      2.00000
     12     -20.7759      2.00000
     13     -13.2948      2.00000
     14     -12.4028      2.00000
     15     -10.4048      2.00000
     16     -10.3235      2.00000
     17     -10.1805      2.00000
     18     -10.1312      2.00000
     19      -7.0575      2.00000
     20      -5.5544      2.00000
     21      -3.4444      2.00000
     22      -3.0959      2.00000
     23      -2.8865      2.00000
     24      -2.5824      2.00000
     25      -2.3645      2.00000
     26      -0.7680      2.00000
     27      -0.5052      2.00000
     28      -0.2372      2.00000
     29      -0.1521      2.00000
     30       0.0749      2.00000
     31       0.3110      2.00000
     32       0.4013      2.00000
     33       0.7238      2.00000
     34       0.9099      2.00000
     35       0.9328      2.00000
     36       1.0950      2.00000
     37       1.2701      2.00000
     38       4.7634      0.00000
     39       5.1570      0.00000
     40       5.2489      0.00000
     41       5.6780      0.00000
     42       5.8979      0.00000
     43       6.1405      0.00000
     44       6.9941      0.00000
     45       7.1642      0.00000
     46       7.3841      0.00000
     47       7.8055      0.00000
     48       7.9601      0.00000

 k-point     7 :      -0.3333    0.0000    0.3333
  band No.  band energies     occupation 
      1     -21.2848      2.00000
      2     -21.2796      2.00000
      3     -21.2705      2.00000
      4     -21.2662      2.00000
      5     -21.2545      2.00000
      6     -21.2533      2.00000
      7     -20.7926      2.00000
      8     -20.7834      2.00000
      9     -20.7817      2.00000
     10     -20.7794      2.00000
     11     -20.7772      2.00000
     12     -20.7759      2.00000
     13     -13.2912      2.00000
     14     -12.4090      2.00000
     15     -10.4086      2.00000
     16     -10.3228      2.00000
     17     -10.1760      2.00000
     18     -10.1322      2.00000
     19      -7.0264      2.00000
     20      -5.5951      2.00000
     21      -3.4488      2.00000
     22      -3.0591      2.00000
     23      -2.9114      2.00000
     24      -2.6146      2.00000
     25      -2.3427      2.00000
     26      -0.7589      2.00000
     27      -0.3956      2.00000
     28      -0.2679      2.00000
     29      -0.1365      2.00000
     30      -0.0144      2.00000
     31       0.2539      2.00000
     32       0.3994      2.00000
     33       0.7404      2.00000
     34       0.9213      2.00000
     35       0.9670      2.00000
     36       1.1730      2.00000
     37       1.2001      2.00000
     38       4.5424      0.00000
     39       5.2401      0.00000
     40       5.3433      0.00000
     41       5.6542      0.00000
     42       5.8100      0.00000
     43       6.1218      0.00000
     44       7.0749      0.00000
     45       7.2599      0.00000
     46       7.6914      0.00000
     47       7.8191      0.00000
     48       8.2063      0.00000

 k-point     8 :       0.3333    0.3333    0.3333
  band No.  band energies     occupation 
      1     -21.2853      2.00000
      2     -21.2788      2.00000
      3     -21.2701      2.00000
      4     -21.2667      2.00000
      5     -21.2551      2.00000
      6     -21.2527      2.00000
      7     -20.7922      2.00000
      8     -20.7818      2.00000
      9     -20.7818      2.00000
     10     -20.7805      2.00000
     11     -20.7798      2.00000
     12     -20.7741      2.00000
     13     -13.2769      2.00000
     14     -12.3844      2.00000
     15     -10.4079      2.00000
     16     -10.3910      2.00000
     17     -10.2038      2.00000
     18     -10.1720      2.00000
     19      -6.9577      2.00000
     20      -5.4557      2.00000
     21      -3.3169      2.00000
     22      -2.9767      2.00000
     23      -2.9271      2.00000
     24      -2.5283      2.00000
     25      -2.4456      2.00000
     26      -0.7841      2.00000
     27      -0.6854      2.00000
     28      -0.4699      2.00000
     29      -0.0815      2.00000
     30      -0.0406      2.00000
     31       0.1495      2.00000
     32       0.1869      2.00000
     33       0.7640      2.00000
     34       0.8664      2.00000
     35       1.0166      2.00000
     36       1.2877      2.00000
     37       1.4885      2.00000
[...]
      4.001362  3.534036  3.299490     0.183558    0.103454   -0.121557  

  24 f  =    4.239170 THz    26.635492 2PiTHz  141.403498 cm-1    17.531791 meV
             X         Y         Z           dx          dy          dz
      0.035555  3.735153  0.987893     0.209153    0.363116    0.337343  
      3.213091  1.904908  0.987893     0.209153    0.363116    0.337343  
     -1.473282  4.595935  4.804173    -0.065951   -0.114500    0.010950  
      4.714748  1.031661  4.804173    -0.065951   -0.114500    0.010950  
      0.169173  0.293705  6.535516    -0.051818   -0.089962   -0.125658  
      3.072294  5.333891  3.072831    -0.051818   -0.089962   -0.125658  
      2.579320  4.478025  7.349342     0.012051    0.020922   -0.356092  
      0.662147  1.149571  2.259005     0.012051    0.020922   -0.356092  
      2.192229  0.393152  6.308857    -0.040892   -0.085935    0.102362  
     -0.759895  2.093560  6.308857    -0.053817   -0.078490    0.102362  
      1.049238  5.234444  3.299490    -0.040892   -0.085935    0.102362  
      4.001362  3.534036  3.299490    -0.053817   -0.078490    0.102362  

  25 f  =    4.100453 THz    25.763908 2PiTHz  136.776398 cm-1    16.958104 meV
             X         Y         Z           dx          dy          dz
      0.035555  3.735153  0.987893    -0.182134   -0.316207    0.192255  
      3.213091  1.904908  0.987893     0.182134    0.316207   -0.192255  
     -1.473282  4.595935  4.804173     0.129886    0.225499    0.291774  
      4.714748  1.031661  4.804173    -0.129886   -0.225499   -0.291774  
      0.169173  0.293705  6.535516    -0.124846    0.071910    0.000000  
      3.072294  5.333891  3.072831     0.124846   -0.071910    0.000000  
      2.579320  4.478025  7.349342    -0.245809    0.141585   -0.000000  
      0.662147  1.149571  2.259005     0.245809   -0.141585   -0.000000  
      2.192229  0.393152  6.308857    -0.118703    0.091224    0.124452  
     -0.759895  2.093560  6.308857    -0.138470    0.056906   -0.124452  
      1.049238  5.234444  3.299490     0.118703   -0.091224   -0.124452  
      4.001362  3.534036  3.299490     0.138470   -0.056906    0.124452  

  26 f  =    4.059885 THz    25.509008 2PiTHz  135.423175 cm-1    16.790326 meV
             X         Y         Z           dx          dy          dz
      0.035555  3.735153  0.987893     0.092287    0.160221    0.252268  
      3.213091  1.904908  0.987893    -0.092287   -0.160221   -0.252268  
     -1.473282  4.595935  4.804173     0.232128    0.403003   -0.373051  
      4.714748  1.031661  4.804173    -0.232128   -0.403003    0.373051  
      0.169173  0.293705  6.535516    -0.083556    0.048128    0.000000  
      3.072294  5.333891  3.072831     0.083556   -0.048128    0.000000  
      2.579320  4.478025  7.349342     0.002472   -0.001424    0.000000  
      0.662147  1.149571  2.259005    -0.002472    0.001424    0.000000  
      2.192229  0.393152  6.308857    -0.082535    0.006606   -0.108844  
     -0.759895  2.093560  6.308857    -0.047127    0.068079    0.108844  
      1.049238  5.234444  3.299490     0.082535   -0.006606    0.108844  
      4.001362  3.534036  3.299490     0.047127   -0.068079   -0.108844  

  27 f  =    3.859342 THz    24.248958 2PiTHz  128.733777 cm-1    15.960947 meV
             X         Y         Z           dx          dy          dz
      0.035555  3.735153  0.987893    -0.254081    0.146349   -0.000000  
      3.213091  1.904908  0.987893    -0.254081    0.146349    0.000000  
     -1.473282  4.595935  4.804173     0.278499   -0.160414   -0.000000  
      4.714748  1.031661  4.804173     0.278499   -0.160414   -0.000000  
      0.169173  0.293705  6.535516    -0.003688    0.002124   -0.000000  
      3.072294  5.333891  3.072831    -0.003688    0.002124    0.000000  
      2.579320  4.478025  7.349342    -0.246623    0.142054   -0.000000  
      0.662147  1.149571  2.259005    -0.246623    0.142054   -0.000000  
      2.192229  0.393152  6.308857    -0.011622   -0.236500   -0.242461  
     -0.759895  2.093560  6.308857     0.198743    0.128720    0.242461  
      1.049238  5.234444  3.299490    -0.011622   -0.236500   -0.242461  
      4.001362  3.534036  3.299490     0.198743    0.128720    0.242461  

  28 f  =    3.359744 THz    21.109894 2PiTHz  112.068997 cm-1    13.894779 meV
             X         Y         Z           dx          dy          dz
      0.035555  3.735153  0.987893    -0.004920    0.002834   -0.000000  
      3.213091  1.904908  0.987893     0.004920   -0.002834    0.000000  
     -1.473282  4.595935  4.804173     0.229191   -0.132013   -0.000000  
      4.714748  1.031661  4.804173    -0.229191    0.132013    0.000000  
      0.169173  0.293705  6.535516    -0.118046   -0.204943   -0.082851  
      3.072294  5.333891  3.072831     0.118046    0.204943    0.082851  
      2.579320  4.478025  7.349342    -0.152329   -0.264463    0.029336  
      0.662147  1.149571  2.259005     0.152329    0.264463   -0.029336  
      2.192229  0.393152  6.308857    -0.122413   -0.294819   -0.186278  
     -0.759895  2.093560  6.308857    -0.193599   -0.253817   -0.186278  
      1.049238  5.234444  3.299490     0.122413    0.294819    0.186278  
      4.001362  3.534036  3.299490     0.193599    0.253817    0.186278  

  29 f  =    3.188824 THz    20.035971 2PiTHz  106.367713 cm-1    13.187910 meV
             X         Y         Z           dx          dy          dz
      0.035555  3.735153  0.987893    -0.043880   -0.076181   -0.064754  
      3.213091  1.904908  0.987893    -0.043880   -0.076181   -0.064754  
     -1.473282  4.595935  4.804173     0.297989    0.517346    0.048324  
      4.714748  1.031661  4.804173     0.297989    0.517346    0.048324  
      0.169173  0.293705  6.535516    -0.082937   -0.143989    0.004332  
      3.072294  5.333891  3.072831    -0.082937   -0.143989    0.004332  
      2.579320  4.478025  7.349342    -0.003078   -0.005343   -0.203028  
      0.662147  1.149571  2.259005    -0.003078   -0.005343   -0.203028  
      2.192229  0.393152  6.308857    -0.058838   -0.119833    0.111280  
     -0.759895  2.093560  6.308857    -0.074134   -0.111022    0.111280  
      1.049238  5.234444  3.299490    -0.058838   -0.119833    0.111280  
      4.001362  3.534036  3.299490    -0.074134   -0.111022    0.111280  

  30 f  =    2.957959 THz    18.585406 2PiTHz   98.666902 cm-1    12.233131 meV
             X         Y         Z           dx          dy          dz
      0.035555  3.735153  0.987893     0.157559   -0.090753    0.000000  
      3.213091  1.904908  0.987893    -0.157559    0.090753   -0.000000  
     -1.473282  4.595935  4.804173     0.497978   -0.286833    0.000000  
      4.714748  1.031661  4.804173    -0.497978    0.286833   -0.000000  
      0.169173  0.293705  6.535516     0.022034    0.038254   -0.015817  
      3.072294  5.333891  3.072831    -0.022034   -0.038254    0.015817  
      2.579320  4.478025  7.349342     0.102918    0.178678   -0.225627  
      0.662147  1.149571  2.259005    -0.102918   -0.178678    0.225627  
      2.192229  0.393152  6.308857     0.048394    0.018055    0.133647  
     -0.759895  2.093560  6.308857    -0.008665    0.050920    0.133647  
      1.049238  5.234444  3.299490    -0.048394   -0.018055   -0.133647  
      4.001362  3.534036  3.299490     0.008665   -0.050920   -0.133647  

  31 f  =    2.827148 THz    17.763497 2PiTHz   94.303521 cm-1    11.692141 meV
             X         Y         Z           dx          dy          dz
      0.035555  3.735153  0.987893    -0.089112   -0.154710   -0.158995  
      3.213091  1.904908  0.987893     0.089112    0.154710    0.158995  
     -1.473282  4.595935  4.804173     0.156921    0.272435   -0.064328  
      4.714748  1.031661  4.804173    -0.156921   -0.272435    0.064328  
      0.169173  0.293705  6.535516     0.119147   -0.068628   -0.000000  
      3.072294  5.333891  3.072831    -0.119147    0.068628    0.000000  
      2.579320  4.478025  7.349342     0.306380   -0.176473   -0.000000  
      0.662147  1.149571  2.259005    -0.306380    0.176473    0.000000  
      2.192229  0.393152  6.308857     0.158007   -0.036443    0.267727  
     -0.759895  2.093560  6.308857     0.110805   -0.118391   -0.267727  
      1.049238  5.234444  3.299490    -0.158007    0.036443   -0.267727  
      4.001362  3.534036  3.299490    -0.110805    0.118391    0.267727  

  32 f  =    2.534928 THz    15.927425 2PiTHz   84.556111 cm-1    10.483617 meV
             X         Y         Z           dx          dy          dz
      0.035555  3.735153  0.987893     0.154177   -0.088805   -0.000000  
      3.213091  1.904908  0.987893     0.154177   -0.088805    0.000000  
     -1.473282  4.595935  4.804173    -0.394879    0.227449    0.000000  
      4.714748  1.031661  4.804173    -0.394879    0.227449    0.000000  
      0.169173  0.293705  6.535516    -0.016071    0.009257   -0.000000  
      3.072294  5.333891  3.072831    -0.016071    0.009257    0.000000  
      2.579320  4.478025  7.349342    -0.197682    0.113864   -0.000000  
      0.662147  1.149571  2.259005    -0.197682    0.113864    0.000000  
      2.192229  0.393152  6.308857     0.022832   -0.319953    0.035436  
     -0.759895  2.093560  6.308857     0.288217    0.140790   -0.035436  
      1.049238  5.234444  3.299490     0.022832   -0.319953    0.035436  
      4.001362  3.534036  3.299490     0.288217    0.140790   -0.035436  

  33 f  =    0.907973 THz     5.704966 2PiTHz   30.286735 cm-1     3.755075 meV
             X         Y         Z           dx          dy          dz
      0.035555  3.735153  0.987893     0.068252    0.118494   -0.271392  
      3.213091  1.904908  0.987893    -0.068252   -0.118494    0.271392  
     -1.473282  4.595935  4.804173     0.031606    0.054872    0.058652  
      4.714748  1.031661  4.804173    -0.031606   -0.054872   -0.058652  
      0.169173  0.293705  6.535516    -0.075204    0.043317    0.000000  
      3.072294  5.333891  3.072831     0.075204   -0.043317    0.000000  
      2.579320  4.478025  7.349342     0.123842   -0.071332    0.000000  
      0.662147  1.149571  2.259005    -0.123842    0.071332    0.000000  
      2.192229  0.393152  6.308857    -0.104662    0.418118   -0.018525  
     -0.759895  2.093560  6.308857    -0.414190   -0.119262    0.018525  
      1.049238  5.234444  3.299490     0.104662   -0.418118    0.018525  
      4.001362  3.534036  3.299490     0.414190    0.119262   -0.018525  

  34 f/i=    0.141518 THz     0.889183 2PiTHz    4.720528 cm-1     0.585271 meV
             X         Y         Z           dx          dy          dz
      0.035555  3.735153  0.987893    -0.000949   -0.001647    0.264662  
      3.213091  1.904908  0.987893    -0.000949   -0.001647    0.264662  
     -1.473282  4.595935  4.804173     0.004051    0.007033    0.247463  
      4.714748  1.031661  4.804173     0.004051    0.007033    0.247463  
      0.169173  0.293705  6.535516     0.005409    0.009390    0.295932  
      3.072294  5.333891  3.072831     0.005409    0.009390    0.295932  
      2.579320  4.478025  7.349342     0.001559    0.002706    0.313664  
      0.662147  1.149571  2.259005     0.001559    0.002706    0.313664  
      2.192229  0.393152  6.308857     0.003888    0.009828    0.301939  
     -0.759895  2.093560  6.308857     0.006550    0.008295    0.301939  
      1.049238  5.234444  3.299490     0.003888    0.009828    0.301939  
      4.001362  3.534036  3.299490     0.006550    0.008295    0.301939  

  35 f/i=    0.202782 THz     1.274114 2PiTHz    6.764066 cm-1     0.838637 meV
             X         Y         Z           dx          dy          dz
      0.035555  3.735153  0.987893     0.132524    0.230078   -0.001001  
      3.213091  1.904908  0.987893     0.132524    0.230078   -0.001001  
     -1.473282  4.595935  4.804173     0.129204    0.224315    0.001799  
      4.714748  1.031661  4.804173     0.129204    0.224315    0.001799  
      0.169173  0.293705  6.535516     0.145280    0.252225   -0.011503  
      3.072294  5.333891  3.072831     0.145280    0.252225   -0.011503  
      2.579320  4.478025  7.349342     0.146494    0.254332   -0.014608  
      0.662147  1.149571  2.259005     0.146494    0.254332   -0.014608  
      2.192229  0.393152  6.308857     0.145986    0.272529   -0.007208  
     -0.759895  2.093560  6.308857     0.162489    0.263023   -0.007208  
      1.049238  5.234444  3.299490     0.145986    0.272529   -0.007208  
      4.001362  3.534036  3.299490     0.162489    0.263023   -0.007208  

  36 f/i=    0.225423 THz     1.416377 2PiTHz    7.519315 cm-1     0.932276 meV
             X         Y         Z           dx          dy          dz
      0.035555  3.735153  0.987893     0.230879   -0.132985   -0.000000  
      3.213091  1.904908  0.987893     0.230879   -0.132985   -0.000000  
     -1.473282  4.595935  4.804173     0.205394   -0.118306   -0.000000  
      4.714748  1.031661  4.804173     0.205394   -0.118306   -0.000000  
      0.169173  0.293705  6.535516     0.257157   -0.148121   -0.000000  
      3.072294  5.333891  3.072831     0.257157   -0.148121   -0.000000  
      2.579320  4.478025  7.349342     0.240556   -0.138559   -0.000000  
      0.662147  1.149571  2.259005     0.240556   -0.138559   -0.000000  
      2.192229  0.393152  6.308857     0.264728   -0.183728   -0.003025  
     -0.759895  2.093560  6.308857     0.291756   -0.136804    0.003025  
      1.049238  5.234444  3.299490     0.264728   -0.183728   -0.003025  
      4.001362  3.534036  3.299490     0.291756   -0.136804    0.003025  



--------------------------------------------------------------------------------------------------------



 ELASTIC MODULI CONTR FROM IONIC RELAXATION (kBar)
 Direction    XX          YY          ZZ          XY          YZ          ZX
 --------------------------------------------------------------------------------
 XX        -892.5368    -26.9520    -64.3047    -84.6772    -98.7880    142.3829
 YY         -26.9520   -815.7608   -107.0153    150.8559    -10.6844   -205.4383
 ZZ         -64.3047   -107.0153   -265.1456    -36.8153    -75.1437    -43.2822
 XY         -84.6772    150.8559    -36.8153   -278.8890   -122.6421     44.9570
 YZ         -98.7880    -10.6844    -75.1437   -122.6421   -237.1960     -8.2432
 ZX         142.3829   -205.4383    -43.2822     44.9570     -8.2432   -227.6330
 --------------------------------------------------------------------------------


 TOTAL ELASTIC MODULI (kBar)
 Direction    XX          YY          ZZ          XY          YZ          ZX
 --------------------------------------------------------------------------------
 XX         358.6334    272.0697     91.1693    -77.6165    -59.3039     98.8214
 YY         272.0697    288.4841    125.3257     17.1498     90.2656    -80.9875
 ZZ          91.1693    125.3257    409.1366     29.4419      1.0677      0.6151
 XY         -77.6165     17.1498     29.4419     79.9440     -3.5888     75.0703
 YZ         -59.3039     90.2656      1.0677     -3.5888     97.2179     64.7764
 ZX          98.8214    -80.9875      0.6151     75.0703     64.7764     22.0686
 --------------------------------------------------------------------------------



--------------------------------------------------------------------------------------------------------


  LATTYP: Found a base centered monoclinic cell.
 ALAT       =     6.8020374344
 B/A-ratio  =     1.6602772271
 C/A-ratio  =     1.1221011468
 COS(beta)  =    -0.2886659181
  
  Lattice vectors:
  
 A1 = (  -6.5173205584,  -0.0016885374,  -0.9878931566)
 A2 = (   3.2686745529,  -5.6383718199,  -0.9878931566)
 A3 = (  -0.0071795065,  -0.0124645313,   7.6325604511)


Analysis of symmetry for initial positions (statically):
=====================================================================
 Subroutine PRICEL returns:
 Original cell was already a primitive cell.
 

 Routine SETGRP: Setting up the symmetry group for a 
 base centered monoclinic supercell.


 Subroutine GETGRP returns: Found  4 space group operations
 (whereof  4 operations were pure point group operations)
 out of a pool of  4 trial point group operations.


The static configuration has the point symmetry C_2h.


Analysis of symmetry for dynamics (positions and initial velocities):
=====================================================================
 Subroutine PRICEL returns:
 Original cell was already a primitive cell.
 

 Routine SETGRP: Setting up the symmetry group for a 
 base centered monoclinic supercell.


 Subroutine GETGRP returns: Found  4 space group operations
 (whereof  4 operations were pure point group operations)
 out of a pool of  4 trial point group operations.


The dynamic configuration has the point symmetry C_2h.


 Subroutine INISYM returns: Found  4 space group operations
 (whereof  4 operations are pure point group operations),
 and found     1 'primitive' translations


 KPOINTS: pymatgen with grid density = 600 / numbe

Automatic generation of k-mesh.
 Grid dimensions read from file:
 generate k-points for:    3    3    3

 Generating k-lattice:

  Cartesian coordinates                     Fractional coordinates (reciprocal lattice)
     0.051123467  0.029620374  0.000096461     0.333333333 -0.000000000  0.000000000
    -0.000029929  0.059084470  0.000096461    -0.000000000  0.333333333 -0.000000000
    -0.006613109 -0.011481194  0.043647574    -0.000000000 -0.000000000  0.333333333

  Length of vectors
     0.059084556  0.059084556  0.045614271

  Shift w.r.t. Gamma in fractional coordinates (k-lattice)
     0.000000000  0.000000000  0.000000000

 
 Subroutine IBZKPT returns following result:
 ===========================================
 
 Found     10 irreducible k-points:
 
 Following reciprocal coordinates:
            Coordinates               Weight
  0.000000  0.000000  0.000000      1.000000
  0.333333  0.000000  0.000000      4.000000
  0.333333  0.333333  0.000000      2.000000
 -0.333333  0.333333  0.000000      2.000000
  0.000000  0.000000  0.333333      2.000000
  0.333333  0.000000  0.333333      4.000000
 -0.333333  0.000000  0.333333      4.000000
  0.333333  0.333333  0.333333      2.000000
 -0.333333  0.333333  0.333333      4.000000
 -0.333333 -0.333333  0.333333      2.000000
 
 Following cartesian coordinates:
            Coordinates               Weight
  0.000000  0.000000  0.000000      1.000000
  0.051123  0.029620  0.000096      4.000000
  0.051094  0.088705  0.000193      2.000000
 -0.051153  0.029464  0.000000      2.000000
 -0.006613 -0.011481  0.043648      2.000000
  0.044510  0.018139  0.043744      4.000000
 -0.057737 -0.041102  0.043551      4.000000
  0.044480  0.077224  0.043840      2.000000
 -0.057767  0.017983  0.043648      4.000000
 -0.057707 -0.100186  0.043455      2.000000
 
     LOOP+:  cpu time      5.1301: real time      5.1470
    4ORBIT:  cpu time      0.0000: real time      0.0000

 total amount of memory used by VASP MPI-rank0    42212. kBytes
=======================================================================

   base      :      30000. kBytes
   nonlr-proj:       1257. kBytes
   fftplans  :       1579. kBytes
   grid      :       4325. kBytes
   one-center:         36. kBytes
   wavefun   :       5015. kBytes

  
  
 General timing and accounting informations for this job:
 ========================================================
  
                  Total CPU time used (sec):      421.145
                            User time (sec):      403.742
                          System time (sec):       17.402
                         Elapsed time (sec):      432.613
  
                   Maximum memory used (kb):      132232.
                   Average memory used (kb):          N/A
  
                          Minor page faults:        44040
                          Major page faults:          217
                 Voluntary context switches:         1411
