   4   4   0   0
  0.1824331E+02  0.6952718E-09  0.6952718E-09  0.6952718E-09  0.5000000E-15
   1.0000000000000000E-004
  CAR 
 unknown system                          
     26.44778866    -20.65350236  301      6.29702564      1.00000000
    -20.654  0.0000E+00  0.0000E+00
    -20.496  0.0000E+00  0.0000E+00
    -20.339  0.0000E+00  0.0000E+00
    -20.182  0.0000E+00  0.0000E+00
    -20.025  0.0000E+00  0.0000E+00
    -19.868  0.0000E+00  0.0000E+00
    -19.711  0.0000E+00  0.0000E+00
    -19.554  0.0000E+00  0.0000E+00
    -19.397  0.0000E+00  0.0000E+00
    -19.240  0.0000E+00  0.0000E+00
    -19.083  0.0000E+00  0.0000E+00
    -18.926  0.0000E+00  0.0000E+00
    -18.769  0.3774E-14  0.5926E-15
    -18.612  0.1095E-03  0.1719E-04
    -18.455  0.2313E+00  0.3634E-01
    -18.298  0.1507E+00  0.6000E-01
    -18.141  0.6880E-05  0.6000E-01
    -17.984  0.0000E+00  0.6000E-01
    -17.827  0.0000E+00  0.6000E-01
    -17.670  0.0000E+00  0.6000E-01
    -17.513  0.0000E+00  0.6000E-01
    -17.356  0.0000E+00  0.6000E-01
    -17.199  0.0000E+00  0.6000E-01
    -17.042  0.0000E+00  0.6000E-01
    -16.885  0.0000E+00  0.6000E-01
    -16.728  0.0000E+00  0.6000E-01
    -16.571  0.0000E+00  0.6000E-01
    -16.414  0.0000E+00  0.6000E-01
    -16.257  0.0000E+00  0.6000E-01
    -16.100  0.0000E+00  0.6000E-01
    -15.943  0.0000E+00  0.6000E-01
    -15.786  0.0000E+00  0.6000E-01
    -15.629  0.0000E+00  0.6000E-01
    -15.472  0.0000E+00  0.6000E-01
    -15.315  0.0000E+00  0.6000E-01
    -15.158  0.0000E+00  0.6000E-01
    -15.001  0.0000E+00  0.6000E-01
    -14.844  0.0000E+00  0.6000E-01
    -14.687  0.0000E+00  0.6000E-01
    -14.530  0.0000E+00  0.6000E-01
    -14.373  0.0000E+00  0.6000E-01
    -14.216  0.0000E+00  0.6000E-01
    -14.059  0.0000E+00  0.6000E-01
    -13.902  0.0000E+00  0.6000E-01
    -13.745  0.0000E+00  0.6000E-01
    -13.588  0.0000E+00  0.6000E-01
    -13.431  0.0000E+00  0.6000E-01
    -13.274  0.0000E+00  0.6000E-01
    -13.117  0.0000E+00  0.6000E-01
    -12.960  0.0000E+00  0.6000E-01
    -12.803  0.0000E+00  0.6000E-01
    -12.646  0.0000E+00  0.6000E-01
    -12.489  0.0000E+00  0.6000E-01
    -12.332  0.0000E+00  0.6000E-01
    -12.175  0.0000E+00  0.6000E-01
    -12.018  0.0000E+00  0.6000E-01
    -11.861  0.0000E+00  0.6000E-01
    -11.704  0.0000E+00  0.6000E-01
    -11.547  0.0000E+00  0.6000E-01
    -11.390  0.0000E+00  0.6000E-01
    -11.233  0.0000E+00  0.6000E-01
    -11.076  0.0000E+00  0.6000E-01
    -10.919  0.0000E+00  0.6000E-01
    -10.762  0.0000E+00  0.6000E-01
    -10.605  0.0000E+00  0.6000E-01
    -10.448  0.0000E+00  0.6000E-01
    -10.291  0.0000E+00  0.6000E-01
    -10.134  0.0000E+00  0.6000E-01
     -9.977  0.2044E-10  0.6000E-01
     -9.820  0.1884E-03  0.6003E-01
     -9.663  0.3701E-02  0.6061E-01
     -9.506  0.2961E-02  0.6108E-01
     -9.349  0.9439E-02  0.6256E-01
     -9.192  0.9467E-02  0.6404E-01
     -9.035  0.5825E-02  0.6496E-01
     -8.878  0.5303E-02  0.6579E-01
     -8.721  0.5281E-02  0.6662E-01
     -8.564  0.2620E-02  0.6703E-01
     -8.407  0.1566E-01  0.6949E-01
     -8.250  0.9814E-02  0.7103E-01
     -8.093  0.1241E-01  0.7298E-01
     -7.936  0.7494E-02  0.7416E-01
     -7.779  0.1745E-01  0.7690E-01
     -7.622  0.2092E-01  0.8018E-01
     -7.465  0.3128E-01  0.8509E-01
     -7.308  0.2564E-01  0.8912E-01
     -7.151  0.6767E-01  0.9974E-01
     -6.994  0.1651E-02  0.1000E+00
     -6.837  0.2024E-09  0.1000E+00
     -6.680  0.0000E+00  0.1000E+00
     -6.523  0.0000E+00  0.1000E+00
     -6.366  0.0000E+00  0.1000E+00
     -6.209  0.0000E+00  0.1000E+00
     -6.052  0.0000E+00  0.1000E+00
     -5.895  0.0000E+00  0.1000E+00
     -5.738  0.0000E+00  0.1000E+00
     -5.581  0.0000E+00  0.1000E+00
     -5.424  0.0000E+00  0.1000E+00
     -5.267  0.0000E+00  0.1000E+00
     -5.110  0.0000E+00  0.1000E+00
     -4.953  0.0000E+00  0.1000E+00
     -4.796  0.0000E+00  0.1000E+00
     -4.639  0.0000E+00  0.1000E+00
     -4.482  0.0000E+00  0.1000E+00
     -4.325  0.0000E+00  0.1000E+00
     -4.168  0.0000E+00  0.1000E+00
     -4.011  0.0000E+00  0.1000E+00
     -3.854  0.0000E+00  0.1000E+00
     -3.697  0.0000E+00  0.1000E+00
     -3.540  0.0000E+00  0.1000E+00
     -3.383  0.0000E+00  0.1000E+00
     -3.226  0.2875E-08  0.1000E+00
     -3.069  0.2405E-02  0.1004E+00
     -2.912  0.2513E-01  0.1043E+00
     -2.755  0.9381E-02  0.1058E+00
     -2.598  0.1190E-01  0.1077E+00
     -2.441  0.6886E-02  0.1087E+00
     -2.284  0.8745E-02  0.1101E+00
     -2.127  0.6576E-02  0.1112E+00
     -1.970  0.1160E-01  0.1130E+00
     -1.813  0.1906E-02  0.1133E+00
     -1.656  0.5835E-02  0.1142E+00
     -1.499  0.4626E-02  0.1149E+00
     -1.342  0.1887E-01  0.1179E+00
     -1.185  0.5829E-02  0.1188E+00
     -1.028  0.6182E-02  0.1198E+00
     -0.871  0.1509E-02  0.1200E+00
     -0.714  0.5453E-02  0.1209E+00
     -0.557  0.1687E-01  0.1235E+00
     -0.400  0.2070E-01  0.1268E+00
     -0.243  0.2573E-01  0.1308E+00
     -0.086  0.8596E-02  0.1321E+00
      0.071  0.1139E-01  0.1339E+00
      0.228  0.1226E-01  0.1359E+00
      0.385  0.2385E-01  0.1396E+00
      0.542  0.1613E-01  0.1421E+00
      0.699  0.7421E-02  0.1433E+00
      0.856  0.1781E-01  0.1461E+00
      1.013  0.1030E-01  0.1477E+00
      1.170  0.1215E-01  0.1496E+00
      1.327  0.2896E-01  0.1542E+00
      1.484  0.2947E-01  0.1588E+00
      1.641  0.2917E-01  0.1634E+00
      1.798  0.2205E-01  0.1668E+00
      1.955  0.1257E-01  0.1688E+00
      2.112  0.1441E-01  0.1711E+00
      2.269  0.1096E-01  0.1728E+00
      2.426  0.3081E-01  0.1776E+00
      2.583  0.1230E-01  0.1796E+00
      2.740  0.4475E-01  0.1866E+00
      2.897  0.3725E-01  0.1924E+00
      3.054  0.3747E-01  0.1983E+00
      3.211  0.3301E-01  0.2035E+00
      3.368  0.3535E-01  0.2090E+00
      3.525  0.3239E-01  0.2141E+00
      3.682  0.1742E-01  0.2169E+00
      3.839  0.1709E-01  0.2196E+00
      3.996  0.2843E-02  0.2200E+00
      4.153  0.6711E-07  0.2200E+00
      4.310  0.0000E+00  0.2200E+00
      4.467  0.0000E+00  0.2200E+00
      4.624  0.0000E+00  0.2200E+00
      4.781  0.2220E-15  0.2200E+00
      4.938  0.5730E-05  0.2200E+00
      5.095  0.5046E-02  0.2208E+00
      5.252  0.5910E-02  0.2217E+00
      5.409  0.1352E-01  0.2238E+00
      5.566  0.4815E-02  0.2246E+00
      5.723  0.5628E-02  0.2255E+00
      5.880  0.8984E-02  0.2269E+00
      6.037  0.4130E-02  0.2275E+00
      6.194  0.5550E-02  0.2284E+00
      6.351  0.1869E-01  0.2313E+00
      6.508  0.1305E-01  0.2334E+00
      6.665  0.2556E-01  0.2374E+00
      6.822  0.6310E-02  0.2384E+00
      6.979  0.9130E-02  0.2398E+00
      7.136  0.1062E-02  0.2400E+00
      7.293  0.5448E-09  0.2400E+00
      7.450  0.3019E-16  0.2400E+00
      7.607  0.1240E-05  0.2400E+00
      7.764  0.1425E-02  0.2402E+00
      7.921  0.4452E-02  0.2409E+00
      8.078  0.1030E-01  0.2425E+00
      8.235  0.5866E-02  0.2435E+00
      8.392  0.8316E-02  0.2448E+00
      8.549  0.2599E-01  0.2488E+00
      8.706  0.3468E-01  0.2543E+00
      8.863  0.1787E-01  0.2571E+00
      9.020  0.2029E-01  0.2603E+00
      9.177  0.2205E-01  0.2637E+00
      9.334  0.2462E-01  0.2676E+00
      9.491  0.4817E-01  0.2752E+00
      9.648  0.3866E-01  0.2812E+00
      9.805  0.4263E-01  0.2879E+00
      9.962  0.2557E-01  0.2920E+00
     10.119  0.3238E-01  0.2970E+00
     10.276  0.3559E-01  0.3026E+00
     10.433  0.2518E-01  0.3066E+00
     10.590  0.1752E-01  0.3093E+00
     10.747  0.2255E-01  0.3129E+00
     10.904  0.1789E-01  0.3157E+00
     11.061  0.1518E-01  0.3181E+00
     11.218  0.9783E-02  0.3196E+00
     11.375  0.2654E-01  0.3238E+00
     11.532  0.1117E-01  0.3255E+00
     11.689  0.2711E-01  0.3298E+00
     11.846  0.2771E-01  0.3341E+00
     12.003  0.1015E-01  0.3357E+00
     12.160  0.9773E-02  0.3372E+00
     12.317  0.1827E-01  0.3401E+00
     12.474  0.2485E-01  0.3440E+00
     12.631  0.3571E-01  0.3496E+00
     12.788  0.1658E-01  0.3522E+00
     12.945  0.1780E-01  0.3550E+00
     13.102  0.1447E-01  0.3573E+00
     13.259  0.2253E-01  0.3608E+00
     13.416  0.2959E-01  0.3655E+00
     13.573  0.3649E-01  0.3712E+00
     13.730  0.2636E-01  0.3753E+00
     13.887  0.1133E-01  0.3771E+00
     14.044  0.8397E-02  0.3784E+00
     14.201  0.1710E-01  0.3811E+00
     14.358  0.9944E-02  0.3827E+00
     14.515  0.2061E-01  0.3859E+00
     14.672  0.2949E-01  0.3906E+00
     14.829  0.2513E-01  0.3945E+00
     14.986  0.1733E-01  0.3972E+00
     15.143  0.9249E-02  0.3987E+00
     15.300  0.2630E-01  0.4028E+00
     15.457  0.3998E-01  0.4091E+00
     15.614  0.1834E-01  0.4120E+00
     15.771  0.2052E-01  0.4152E+00
     15.929  0.3401E-01  0.4205E+00
     16.086  0.3175E-01  0.4255E+00
     16.243  0.2622E-01  0.4296E+00
     16.400  0.1664E-01  0.4322E+00
     16.557  0.2414E-01  0.4360E+00
     16.714  0.1861E-01  0.4389E+00
     16.871  0.2541E-01  0.4429E+00
     17.028  0.3527E-01  0.4485E+00
     17.185  0.2893E-01  0.4530E+00
     17.342  0.2679E-01  0.4572E+00
     17.499  0.2710E-01  0.4615E+00
     17.656  0.2136E-01  0.4648E+00
     17.813  0.2242E-01  0.4683E+00
     17.970  0.1031E-01  0.4700E+00
     18.127  0.2883E-01  0.4745E+00
     18.284  0.2847E-01  0.4790E+00
     18.441  0.2336E-01  0.4826E+00
     18.598  0.2943E-01  0.4873E+00
     18.755  0.2570E-01  0.4913E+00
     18.912  0.3141E-01  0.4962E+00
     19.069  0.3773E-01  0.5021E+00
     19.226  0.2183E-01  0.5056E+00
     19.383  0.1292E-01  0.5076E+00
     19.540  0.2697E-01  0.5118E+00
     19.697  0.3012E-01  0.5166E+00
     19.854  0.3065E-01  0.5214E+00
     20.011  0.1984E-01  0.5245E+00
     20.168  0.3245E-01  0.5296E+00
     20.325  0.5409E-01  0.5381E+00
     20.482  0.1724E-01  0.5408E+00
     20.639  0.1819E-01  0.5436E+00
     20.796  0.3468E-01  0.5491E+00
     20.953  0.3087E-01  0.5539E+00
     21.110  0.2384E-01  0.5577E+00
     21.267  0.2781E-01  0.5620E+00
     21.424  0.3488E-01  0.5675E+00
     21.581  0.1507E-01  0.5699E+00
     21.738  0.3877E-01  0.5760E+00
     21.895  0.2447E-01  0.5798E+00
     22.052  0.3604E-01  0.5855E+00
     22.209  0.3144E-01  0.5904E+00
     22.366  0.2175E-01  0.5938E+00
     22.523  0.7706E-02  0.5950E+00
     22.680  0.4052E-01  0.6014E+00
     22.837  0.2561E-01  0.6054E+00
     22.994  0.2045E-01  0.6086E+00
     23.151  0.2727E-01  0.6129E+00
     23.308  0.3699E-01  0.6187E+00
     23.465  0.3083E-01  0.6236E+00
     23.622  0.2895E-01  0.6281E+00
     23.779  0.3287E-01  0.6333E+00
     23.936  0.2101E-01  0.6366E+00
     24.093  0.1463E-01  0.6389E+00
     24.250  0.5923E-02  0.6398E+00
     24.407  0.1343E-02  0.6400E+00
     24.564  0.3003E-05  0.6400E+00
     24.721  0.0000E+00  0.6400E+00
     24.878  0.0000E+00  0.6400E+00
     25.035  0.0000E+00  0.6400E+00
     25.192  0.0000E+00  0.6400E+00
     25.349  0.0000E+00  0.6400E+00
     25.506  0.0000E+00  0.6400E+00
     25.663  0.0000E+00  0.6400E+00
     25.820  0.0000E+00  0.6400E+00
     25.977  0.0000E+00  0.6400E+00
     26.134  0.0000E+00  0.6400E+00
     26.291  0.0000E+00  0.6400E+00
     26.448  0.0000E+00  0.6400E+00
