       N       E                     dE             d eps       ncg     rms          rms(c)
DAV:   1     0.315835312542E+02    0.31584E+02   -0.10624E+04  2112   0.554E+02
DAV:   2    -0.171726627336E+02   -0.48756E+02   -0.48593E+02  3168   0.740E+01
DAV:   3    -0.176966526602E+02   -0.52399E+00   -0.52392E+00  2240   0.101E+01
DAV:   4    -0.176982091032E+02   -0.15564E-02   -0.15564E-02  4064   0.626E-01
DAV:   5    -0.176982092610E+02   -0.15782E-06   -0.15821E-06  2240   0.455E-03    0.847E+00
DAV:   6    -0.173897826071E+02    0.30843E+00   -0.11891E+00  3072   0.218E+00    0.594E+00
DAV:   7    -0.173712913081E+02    0.18491E-01   -0.20298E-01  3616   0.121E+00    0.180E+00
DAV:   8    -0.173719985265E+02   -0.70722E-03   -0.13135E-02  3200   0.353E-01    0.224E-01
DAV:   9    -0.173723270269E+02   -0.32850E-03   -0.18139E-03  3136   0.124E-01    0.104E-01
DAV:  10    -0.173724448132E+02   -0.11779E-03   -0.10720E-04  3040   0.389E-02    0.353E-02
DAV:  11    -0.173724855191E+02   -0.40706E-04   -0.60746E-05  3264   0.301E-02    0.122E-02
DAV:  12    -0.173724867605E+02   -0.12414E-05   -0.15797E-06  2592   0.427E-03
   1 F= -.17372487E+02 E0= -.17370972E+02  d E =-.173725E+02
       N       E                     dE             d eps       ncg     rms          rms(c)
DAV:   1    -0.173829490242E+02   -0.10464E-01   -0.53593E-01  2176   0.295E+00    0.607E-01
DAV:   2    -0.173795011564E+02    0.34479E-02   -0.32318E-02  3872   0.750E-01    0.281E-01
DAV:   3    -0.173784222359E+02    0.10789E-02   -0.20703E-03  2304   0.224E-01    0.982E-02
DAV:   4    -0.173783035975E+02    0.11864E-03   -0.11110E-04  3584   0.398E-02    0.618E-02
DAV:   5    -0.173782718558E+02    0.31742E-04   -0.29092E-05  2880   0.187E-02    0.198E-02
DAV:   6    -0.173782725224E+02   -0.66661E-06   -0.15822E-06  1344   0.663E-03
   2 F= -.17378273E+02 E0= -.17376768E+02  d E =-.578576E-02
       N       E                     dE             d eps       ncg     rms          rms(c)
DAV:   1    -0.173813792840E+02   -0.31074E-02   -0.23038E-01  2176   0.194E+00    0.398E-01
DAV:   2    -0.173798889069E+02    0.14904E-02   -0.13815E-02  3904   0.492E-01    0.184E-01
DAV:   3    -0.173794240020E+02    0.46490E-03   -0.90619E-04  2368   0.148E-01    0.647E-02
DAV:   4    -0.173793750886E+02    0.48913E-04   -0.47073E-05  3520   0.259E-02    0.412E-02
DAV:   5    -0.173793622686E+02    0.12820E-04   -0.12698E-05  2272   0.125E-02    0.130E-02
DAV:   6    -0.173793627655E+02   -0.49683E-06   -0.79078E-07  1056   0.470E-03
   3 F= -.17379363E+02 E0= -.17377938E+02  d E =-.687600E-02
       N       E                     dE             d eps       ncg     rms          rms(c)
DAV:   1    -0.173864959936E+02   -0.71337E-02   -0.30901E-01  2432   0.225E+00    0.444E-01
DAV:   2    -0.173828116535E+02    0.36843E-02   -0.14044E-02  3328   0.478E-01    0.239E-01
DAV:   3    -0.173816531060E+02    0.11585E-02   -0.34426E-03  3264   0.196E-01    0.920E-02
DAV:   4    -0.173815909188E+02    0.62187E-04   -0.71751E-05  2208   0.328E-02    0.598E-02
DAV:   5    -0.173815659891E+02    0.24930E-04   -0.30621E-05  3808   0.167E-02    0.150E-02
DAV:   6    -0.173815649649E+02    0.10242E-05   -0.21290E-06  1376   0.594E-03
   4 F= -.17381565E+02 E0= -.17380146E+02  d E =-.220220E-02
