 vasp.6.3.2 27Jun22 (build Mar 25 2024 10:42:18) complex                         
 executed on             LinuxGNU date 2024.03.31  11:56:02
 running on   32 total cores
 distrk:  each k-point on   32 cores,    1 groups
 distr:  one band on NCORE=   1 cores,   32 groups


--------------------------------------------------------------------------------------------------------


 INCAR:
   ISTART = 0
   ICHARG = 2
   PREC = Accurate
   IBRION = -1
   EDIFF = 0.000000001
   EDIFFG = -0.0005
   NSW = 0
   NELM = 100
   ENCUT = 520
   ISMEAR = -5
   SIGMA = 0.05
   ISPIN = 2
   ISYM = 0
   LWAVE = False
   LCHARG = False
   LASPH = True
   LORBIT = 11
   ADDGRID = TRUE

 POTCAR:    PAW_PBE S 06Sep2000                   
 -----------------------------------------------------------------------------
|                                                                             |
|           W    W    AA    RRRRR   N    N  II  N    N   GGGG   !!!           |
|           W    W   A  A   R    R  NN   N  II  NN   N  G    G  !!!           |
|           W    W  A    A  R    R  N N  N  II  N N  N  G       !!!           |
|           W WW W  AAAAAA  RRRRR   N  N N  II  N  N N  G  GGG   !            |
|           WW  WW  A    A  R   R   N   NN  II  N   NN  G    G                |
|           W    W  A    A  R    R  N    N  II  N    N   GGGG   !!!           |
|                                                                             |
|     You use a magnetic or noncollinear calculation, but did not specify     |
|     the initial magnetic moment with the MAGMOM tag. Note that a            |
|     default of 1 will be used for all atoms. This ferromagnetic setup       |
|     may break the symmetry of the crystal, in particular it may rule        |
|     out finding an antiferromagnetic solution. Thence, we recommend         |
|     setting the initial magnetic moment manually or verifying carefully     |
|     that this magnetic setup is desired.                                    |
|                                                                             |
 -----------------------------------------------------------------------------

 -----------------------------------------------------------------------------
|                                                                             |
|           W    W    AA    RRRRR   N    N  II  N    N   GGGG   !!!           |
|           W    W   A  A   R    R  NN   N  II  NN   N  G    G  !!!           |
|           W    W  A    A  R    R  N N  N  II  N N  N  G       !!!           |
|           W WW W  AAAAAA  RRRRR   N  N N  II  N  N N  G  GGG   !            |
|           WW  WW  A    A  R   R   N   NN  II  N   NN  G    G                |
|           W    W  A    A  R    R  N    N  II  N    N   GGGG   !!!           |
|                                                                             |
|     For optimal performance we recommend to set                             |
|       NCORE = 2 up to number-of-cores-per-socket                            |
|     NCORE specifies how many cores store one orbital (NPAR=cpu/NCORE).      |
|     This setting can greatly improve the performance of VASP for DFT.       |
|     The default, NCORE=1 might be grossly inefficient on modern             |
|     multi-core architectures or massively parallel machines. Do your        |
|     own testing! More info at https://www.vasp.at/wiki/index.php/NCORE      |
|     Unfortunately you need to use the default for GW and RPA                |
|     calculations (for HF NCORE is supported but not extensively tested      |
|     yet).                                                                   |
|                                                                             |
 -----------------------------------------------------------------------------

 POTCAR:    PAW_PBE S 06Sep2000                   
   SHA256 =  0fc7481fb0695f01bdc6462160264c5c84044ae9ec85a907d398b887a2bc3132 S/POTCAR              
   COPYR  = (c) Copyright 06Sep2000 Georg Kresse                                                    
   COPYR  = This file is part of the software VASP. Any use, copying, and all other rights are regul
   COPYR  = If you do not have a valid VASP license, you may not use, copy or distribute this file. 
   VRHFIN =S : s2p4                                                                                 
   LEXCH  = PE                                                                                      
   EATOM  =   276.8230 eV,   20.3459 Ry                                                             
                                                                                                    
   TITEL  = PAW_PBE S 06Sep2000                                                                     
   LULTRA =        F    use ultrasoft PP ?                                                          
   IUNSCR =        1    unscreen: 0-lin 1-nonlin 2-no                                               
   RPACOR =    1.500    partial core radius                                                         
   POMASS =   32.066; ZVAL   =    6.000    mass and valenz                                          
   RCORE  =    1.900    outmost cutoff radius                                                       
   RWIGS  =    2.200; RWIGS  =    1.164    wigner-seitz radius (au A)                               
   ENMAX  =  258.689; ENMIN  =  194.016 eV                                                          
   ICORE  =        2    local potential                                                             
   LCOR   =        T    correct aug charges                                                         
   LPAW   =        T    paw PP                                                                      
   EAUG   =  335.092                                                                                
   DEXC   =    0.000                                                                                
   RMAX   =    1.942    core radius for proj-oper                                                   
   RAUG   =    1.300    factor for augmentation sphere                                              
   RDEP   =    1.954    radius for radial grids                                                     
   RDEPT  =    1.744    core radius for aug-charge                                                  
                                                                                                    
   Atomic configuration                                                                             
    6 entries                                                                                       
     n  l   j            E        occ.                                                              
     1  0  0.50     -2405.8406   2.0000                                                             
     2  0  0.50      -211.7007   2.0000                                                             
     2  1  1.50      -156.4958   6.0000                                                             
     3  0  0.50       -17.2562   2.0000                                                             
     3  1  0.50        -7.0085   4.0000                                                             
     3  2  1.50        -6.8029   0.0000                                                             
   Description                                                                                      
     l       E           TYP  RCUT    TYP  RCUT                                                     
     0    -17.2561641     23  1.900                                                                 
     0    -15.8743224     23  1.900                                                                 
     1     -7.0085400     23  1.900                                                                 
     1     -2.7779785     23  1.900                                                                 
     2     -6.8029130     23  1.900                                                                 
  local pseudopotential read in
  partial core-charges read in
  partial kinetic energy density read in
  atomic valenz-charges read in
  non local Contribution for L=           0  read in
    real space projection operators read in
  non local Contribution for L=           0  read in
    real space projection operators read in
  non local Contribution for L=           1  read in
    real space projection operators read in
  non local Contribution for L=           1  read in
    real space projection operators read in
    PAW grid and wavefunctions read in

   number of l-projection  operators is LMAX  =           4
   number of lm-projection operators is LMMAX =           8

 -----------------------------------------------------------------------------
|                                                                             |
|               ----> ADVICE to this user running VASP <----                  |
|                                                                             |
|     You have a (more or less) 'large supercell' and for larger cells it     |
|     might be more efficient to use real-space projection operators.         |
|     Therefore, try LREAL= Auto in the INCAR file.                           |
|     Mind: For very accurate calculation, you might also keep the            |
|     reciprocal projection scheme (i.e. LREAL=.FALSE.).                      |
|                                                                             |
 -----------------------------------------------------------------------------

  PAW_PBE S 06Sep2000                   :
 energy of atom  1       EATOM= -276.8230
 kinetic energy error for atom=    0.0016 (will be added to EATOM!!)


 POSCAR: generated by phonopy
  positions in direct lattice
  No initial velocities read in
 exchange correlation table for  LEXCH =        8
   RHO(1)=    0.500       N(1)  =     2000
   RHO(2)=  100.500       N(2)  =     4000



--------------------------------------------------------------------------------------------------------


 ion  position               nearest neighbor table
   1  0.886  0.467  0.678-  45 1.98  24 2.13
   2  0.886  0.967  0.678-  46 1.98  23 2.13
   3  0.330  0.188  0.551-  41 2.04  19 2.14
   4  0.330  0.689  0.551-  42 2.05  20 2.13
   5  0.913  0.105  0.912-  51 1.98  11 2.13
   6  0.913  0.605  0.912-  52 1.98  12 2.13
   7  0.240  0.301  0.777-  19 1.98  37 2.23
   8  0.240  0.801  0.777-  20 1.98  38 2.23
   9  0.144  0.306  0.224-  31 2.05  39 2.13
  10  0.144  0.806  0.224-  32 2.05  40 2.13
  11  0.856  0.194  0.776-  47 2.05   5 2.13
  12  0.856  0.694  0.776-  48 2.05   6 2.13
  13  0.760  0.199  0.223-  27 1.98  33 2.23
  14  0.760  0.699  0.223-  28 1.98  34 2.23
  15  0.170  0.439  0.449-  31 2.05  30 2.13
  16  0.170  0.939  0.449-  32 2.05  29 2.13
  17  0.413  0.145  0.912-  37 1.98  43 2.13
  18  0.413  0.645  0.912-  38 1.98  44 2.13
  19  0.386  0.283  0.678-   7 1.98   3 2.14
  20  0.386  0.783  0.678-   8 1.98   4 2.13
  21  0.644  0.444  0.224-  53 2.05  35 2.13
  22  0.644  0.944  0.224-  54 2.05  36 2.13
  23  0.830  0.061  0.551-  47 2.05   2 2.13
  24  0.830  0.561  0.551-  48 2.05   1 2.13
  25  0.260  0.051  0.223-  29 1.98  50 2.23
  26  0.260  0.551  0.223-  30 1.98  49 2.23
  27  0.614  0.217  0.322-  13 1.98  55 2.13
  28  0.614  0.717  0.322-  14 1.98  56 2.13
  29  0.114  0.033  0.322-  25 1.98  16 2.13
  30  0.114  0.533  0.322-  26 1.98  15 2.13
  31  0.060  0.345  0.374-   9 2.05  15 2.05
  32  0.060  0.845  0.374-  10 2.05  16 2.05
  33  0.743  0.289  0.071-  35 1.98  13 2.23
  34  0.743  0.789  0.071-  36 1.98  14 2.23
  35  0.587  0.355  0.088-  33 1.98  21 2.13
  36  0.587  0.855  0.088-  34 1.98  22 2.13
  37  0.257  0.211  0.929-  17 1.98   7 2.23
  38  0.257  0.711  0.929-  18 1.98   8 2.23
  39  0.087  0.395  0.088-  49 1.98   9 2.13
  40  0.087  0.895  0.088-  50 1.98  10 2.13
  41  0.440  0.095  0.626-   3 2.04  43 2.05
  42  0.440  0.595  0.626-  44 2.05   4 2.05
  43  0.356  0.056  0.776-  41 2.05  17 2.13
  44  0.356  0.556  0.776-  42 2.05  18 2.13
  45  0.740  0.449  0.777-   1 1.98  52 2.23
  46  0.740  0.949  0.777-   2 1.98  51 2.23
  47  0.940  0.155  0.626-  11 2.05  23 2.05
  48  0.940  0.655  0.626-  12 2.05  24 2.05
  49  0.243  0.461  0.071-  39 1.98  26 2.23
  50  0.243  0.961  0.071-  40 1.98  25 2.23
  51  0.757  0.039  0.929-   5 1.98  46 2.23
  52  0.757  0.539  0.929-   6 1.98  45 2.23
  53  0.560  0.405  0.374-  21 2.05  55 2.05
  54  0.560  0.905  0.374-  22 2.05  56 2.05
  55  0.670  0.311  0.449-  53 2.05  27 2.13
  56  0.670  0.811  0.449-  54 2.05  28 2.13


IMPORTANT INFORMATION: All symmetrisations will be switched off!
NOSYMM: (Re-)initialisation of all symmetry stuff for point group C_1.


----------------------------------------------------------------------------------------

                                     Primitive cell                                     

  volume of cell :    1863.6770

  direct lattice vectors                    reciprocal lattice vectors
     0.000000000 10.307367086 -0.372855731     0.000000000  0.096453423 -0.015606996
    16.788494411  0.000000000  0.000000000     0.059564603  0.000000000  0.000000000
     0.000000000 -1.732519801-10.707215182     0.000000000 -0.003358783 -0.092851486

  length of vectors
    10.314108670 16.788494411 10.846477853     0.097707938  0.059564603  0.092912216

  position of ions in fractional coordinates (direct lattice)
     0.886423141  0.467004751  0.678126386
     0.886423141  0.967004751  0.678126386
     0.329563264  0.188148177  0.550707721
     0.329563264  0.688743823  0.550707721
     0.912671285  0.105241885  0.911960471
     0.912671285  0.605241885  0.911960471
     0.239736405  0.300831047  0.776574189
     0.239736405  0.800831047  0.776574189
     0.144417516  0.305688762  0.224396680
     0.144417516  0.805688762  0.224396680
     0.855582484  0.194311238  0.775603320
     0.855582484  0.694311238  0.775603320
     0.760263595  0.199168953  0.223425811
     0.760263595  0.699168953  0.223425811
     0.170436736  0.438743823  0.449292279
     0.170436736  0.938743823  0.449292279
     0.412671285  0.144758115  0.911960471
     0.412671285  0.644758115  0.911960471
     0.386423141  0.282995249  0.678126386
     0.386423141  0.782995249  0.678126386
     0.644417516  0.444311238  0.224396680
     0.644417516  0.944311238  0.224396680
     0.829563264  0.061256177  0.550707721
     0.829563264  0.561256177  0.550707721
     0.260263595  0.050831047  0.223425811
     0.260263595  0.550831047  0.223425811
     0.613576859  0.217004751  0.321873614
     0.613576859  0.717004751  0.321873614
     0.113576859  0.032995249  0.321873614
     0.113576859  0.532995249  0.321873614
     0.059895700  0.345087734  0.374484367
     0.059895700  0.845087734  0.374484367
     0.743425210  0.289344343  0.071165234
     0.743425210  0.789344343  0.071165234
     0.587328715  0.355241885  0.088039529
     0.587328715  0.855241885  0.088039529
     0.256574790  0.210655657  0.928834766
     0.256574790  0.710655657  0.928834766
     0.087328715  0.394758115  0.088039529
     0.087328715  0.894758115  0.088039529
     0.440104300  0.095087734  0.625515633
     0.440104300  0.595087734  0.625515633
     0.355582484  0.055688762  0.775603320
     0.355582484  0.555688762  0.775603320
     0.739736405  0.449168953  0.776574189
     0.739736405  0.949168953  0.776574189
     0.940104300  0.154912266  0.625515633
     0.940104300  0.654912266  0.625515633
     0.243425210  0.460655657  0.071165234
     0.243425210  0.960655657  0.071165234
     0.756574790  0.039344343  0.928834766
     0.756574790  0.539344343  0.928834766
     0.559895700  0.404912266  0.374484367
     0.559895700  0.904912266  0.374484367
     0.670436736  0.311256177  0.449292279
     0.670436736  0.811256177  0.449292279

  ion indices of the primitive-cell ions
   primitive index   ion index
                 1           1
                 2           2
                 3           3
                 4           4
                 5           5
                 6           6
                 7           7
                 8           8
                 9           9
                10          10
                11          11
                12          12
                13          13
                14          14
                15          15
                16          16
                17          17
                18          18
                19          19
                20          20
                21          21
                22          22
                23          23
                24          24
                25          25
                26          26
                27          27
                28          28
                29          29
                30          30
                31          31
                32          32
                33          33
                34          34
                35          35
                36          36
                37          37
                38          38
                39          39
                40          40
                41          41
                42          42
                43          43
                44          44
                45          45
                46          46
                47          47
                48          48
                49          49
                50          50
                51          51
                52          52
                53          53
                54          54
                55          55
                56          56

----------------------------------------------------------------------------------------



 KPOINTS: pymatgen with grid density = 595 / numbe

Automatic generation of k-mesh.
 Grid dimensions read from file:
 generate k-points for:    2    2    2

 Generating k-lattice:

  Cartesian coordinates                     Fractional coordinates (reciprocal lattice)
     0.000000000  0.048226712 -0.007803498     0.500000000  0.000000000 -0.000000000
     0.029782301  0.000000000  0.000000000     0.000000000  0.500000000  0.000000000
     0.000000000 -0.001679391 -0.046425743    -0.000000000  0.000000000  0.500000000

  Length of vectors
     0.048853969  0.029782301  0.046456108

  Shift w.r.t. Gamma in fractional coordinates (k-lattice)
     0.000000000  0.000000000  0.000000000

 TETIRR: Found     24 inequivalent tetrahedra from       48
 
 Subroutine IBZKPT returns following result:
 ===========================================
 
 Found      8 irreducible k-points:
 
 Following reciprocal coordinates:
            Coordinates               Weight
  0.000000  0.000000  0.000000      1.000000
  0.500000  0.000000  0.000000      1.000000
  0.000000  0.500000  0.000000      1.000000
  0.500000  0.500000  0.000000      1.000000
  0.000000  0.000000  0.500000      1.000000
  0.500000  0.000000  0.500000      1.000000
  0.000000  0.500000  0.500000      1.000000
  0.500000  0.500000  0.500000      1.000000
 
 Following cartesian coordinates:
            Coordinates               Weight
  0.000000  0.000000 -0.000000      1.000000
  0.000000  0.048227 -0.007803      1.000000
  0.029782  0.000000 -0.000000      1.000000
  0.029782  0.048227 -0.007803      1.000000
  0.000000 -0.001679 -0.046426      1.000000
  0.000000  0.046547 -0.054229      1.000000
  0.029782 -0.001679 -0.046426      1.000000
  0.029782  0.046547 -0.054229      1.000000
 


--------------------------------------------------------------------------------------------------------




 Dimension of arrays:
   k-points           NKPTS =      8   k-points in BZ     NKDIM =      8   number of bands    NBANDS=    256
   number of dos      NEDOS =    301   number of ions     NIONS =     56
   non local maximal  LDIM  =      4   non local SUM 2l+1 LMDIM =      8
   total plane-waves  NPLWV = 846720
   max r-space proj   IRMAX =      1   max aug-charges    IRDMAX= 114695
   dimension x,y,z NGX =    80 NGY =  126 NGZ =   84
   dimension x,y,z NGXF=   160 NGYF=  252 NGZF=  168
   support grid    NGXF=   320 NGYF=  504 NGZF=  336
   ions per type =              56
   NGX,Y,Z   is equivalent  to a cutoff of  12.89, 12.48, 12.87 a.u.
   NGXF,Y,Z  is equivalent  to a cutoff of  25.79, 24.95, 25.75 a.u.

 SYSTEM =  unknown system                          
 POSCAR =  generated by phonopy                    

 Startparameter for this run:
   NWRITE =      2    write-flag & timer
   PREC   = accura    normal or accurate (medium, high low for compatibility)
   ISTART =      0    job   : 0-new  1-cont  2-samecut
   ICHARG =      2    charge: 1-file 2-atom 10-const
   ISPIN  =      2    spin polarized calculation?
   LNONCOLLINEAR =      F non collinear calculations
   LSORBIT =      F    spin-orbit coupling
   INIWAV =      1    electr: 0-lowe 1-rand  2-diag
   LASPH  =      T    aspherical Exc in radial PAW
 Electronic Relaxation 1
   ENCUT  =  520.0 eV  38.22 Ry    6.18 a.u.  19.18 31.22 20.17*2*pi/ulx,y,z
   ENINI  =  520.0     initial cutoff
   ENAUG  =  335.1 eV  augmentation charge cutoff
   NELM   =    100;   NELMIN=  2; NELMDL= -5     # of ELM steps 
   EDIFF  = 0.1E-08   stopping-criterion for ELM
   LREAL  =      F    real-space projection
   NLSPLINE    = F    spline interpolate recip. space projectors
   LCOMPAT=      F    compatible to vasp.4.4
   GGA_COMPAT  = T    GGA compatible to vasp.4.4-vasp.4.6
   LMAXPAW     = -100 max onsite density
   LMAXMIX     =    2 max onsite mixed and CHGCAR
   VOSKOWN=      0    Vosko Wilk Nusair interpolation
   ROPT   =    0.00000
 Ionic relaxation
   EDIFFG = -.5E-03   stopping-criterion for IOM
   NSW    =      0    number of steps for IOM
   NBLOCK =      1;   KBLOCK =      1    inner block; outer block 
   IBRION =     -1    ionic relax: 0-MD 1-quasi-New 2-CG
   NFREE  =      0    steps in history (QN), initial steepest desc. (CG)
   ISIF   =      2    stress and relaxation
   IWAVPR =     10    prediction:  0-non 1-charg 2-wave 3-comb
   ISYM   =      0    0-nonsym 1-usesym 2-fastsym
   LCORR  =      T    Harris-Foulkes like correction to forces

   POTIM  = 0.5000    time-step for ionic-motion
   TEIN   =    0.0    initial temperature
   TEBEG  =    0.0;   TEEND  =   0.0 temperature during run
   SMASS  =  -3.00    Nose mass-parameter (am)
   estimated Nose-frequenzy (Omega)   =  0.10E-29 period in steps = 0.13E+47 mass=  -0.243E-26a.u.
   SCALEE = 1.0000    scale energy and forces
   NPACO  =    256;   APACO  = 10.0  distance and # of slots for P.C.
   PSTRESS=    0.0 pullay stress

  Mass of Ions in am
   POMASS =  32.07
  Ionic Valenz
   ZVAL   =   6.00
  Atomic Wigner-Seitz radii
   RWIGS  =  -1.00
  virtual crystal weights 
   VCA    =   1.00
   NELECT =     336.0000    total number of electrons
   NUPDOWN=      -1.0000    fix difference up-down

 DOS related values:
   EMIN   =  10.00;   EMAX   =-10.00  energy-range for DOS
   EFERMI =   0.00
   ISMEAR =    -5;   SIGMA  =   0.05  broadening in eV -4-tet -1-fermi 0-gaus

 Electronic relaxation 2 (details)
   IALGO  =     38    algorithm
   LDIAG  =      T    sub-space diagonalisation (order eigenvalues)
   LSUBROT=      F    optimize rotation matrix (better conditioning)
   TURBO    =      0    0=normal 1=particle mesh
   IRESTART =      0    0=no restart 2=restart with 2 vectors
   NREBOOT  =      0    no. of reboots
   NMIN     =      0    reboot dimension
   EREF     =   0.00    reference energy to select bands
   IMIX   =      4    mixing-type and parameters
     AMIX     =   0.40;   BMIX     =  1.00
     AMIX_MAG =   1.60;   BMIX_MAG =  1.00
     AMIN     =   0.10
     WC   =   100.;   INIMIX=   1;  MIXPRE=   1;  MAXMIX= -45

 Intra band minimization:
   WEIMIN = 0.0000     energy-eigenvalue tresh-hold
   EBREAK =  0.98E-12  absolut break condition
   DEPER  =   0.30     relativ break condition  

   TIME   =   0.40     timestep for ELM

  volume/ion in A,a.u.               =      33.28       224.58
  Fermi-wavevector in a.u.,A,eV,Ry     =   0.924835  1.747685 11.637339  0.855320
  Thomas-Fermi vector in A             =   2.050624

 Write flags
   LWAVE        =      F    write WAVECAR
   LDOWNSAMPLE  =      F    k-point downsampling of WAVECAR
   LCHARG       =      F    write CHGCAR
   LVTOT        =      F    write LOCPOT, total local potential
   LVHAR        =      F    write LOCPOT, Hartree potential only
   LELF         =      F    write electronic localiz. function (ELF)
   LORBIT       =     11    0 simple, 1 ext, 2 COOP (PROOUT), +10 PAW based schemes


 Dipole corrections
   LMONO  =      F    monopole corrections only (constant potential shift)
   LDIPOL =      F    correct potential (dipole corrections)
   IDIPOL =      0    1-x, 2-y, 3-z, 4-all directions 
   EPSILON=  1.0000000 bulk dielectric constant

 Exchange correlation treatment:
   GGA     =    --    GGA type
   LEXCH   =     8    internal setting for exchange type
   LIBXC   =     F    Libxc                    
   VOSKOWN =     0    Vosko Wilk Nusair interpolation
   LHFCALC =     F    Hartree Fock is set to
   LHFONE  =     F    Hartree Fock one center treatment
   AEXX    =    0.0000 exact exchange contribution

 Linear response parameters
   LEPSILON=     F    determine dielectric tensor
   LRPA    =     F    only Hartree local field effects (RPA)
   LNABLA  =     F    use nabla operator in PAW spheres
   LVEL    =     F    velocity operator in full k-point grid
   CSHIFT  =0.1000    complex shift for real part using Kramers Kronig
   OMEGAMAX=  -1.0    maximum frequency
   DEG_THRESHOLD= 0.2000000E-02 threshold for treating states as degnerate
   RTIME   =   -0.100 relaxation time in fs
  (WPLASMAI=    0.000 imaginary part of plasma frequency in eV, 0.658/RTIME)
   DFIELD  = 0.0000000 0.0000000 0.0000000 field for delta impulse in time

  Optional k-point grid parameters
   LKPOINTS_OPT  =     F    use optional k-point grid
   KPOINTS_OPT_MODE=     1    mode for optional k-point grid

 Orbital magnetization related:
   ORBITALMAG=     F  switch on orbital magnetization
   LCHIMAG   =     F  perturbation theory with respect to B field
   DQ        =  0.001000  dq finite difference perturbation B field
   LLRAUG    =     F  two centre corrections for induced B field



--------------------------------------------------------------------------------------------------------


 Static calculation
 charge density and potential will be updated during run
 spin polarized calculation
 Variant of blocked Davidson
 Davidson routine will perform the subspace rotation
 perform sub-space diagonalisation
    after iterative eigenvector-optimisation
 modified Broyden-mixing scheme, WC =      100.0
 initial mixing is a Kerker type mixing with AMIX =  0.4000 and BMIX =      1.0000
 Hartree-type preconditioning will be used
 using additional bands           88
 reciprocal scheme for non local part
 use partial core corrections
 calculate Harris-corrections to forces   (improved forces if not selfconsistent)
 use gradient corrections 
 use of overlap-Matrix (Vanderbilt PP)
 Fermi weights with tetrahedron method with Bloechl corrections


--------------------------------------------------------------------------------------------------------


  energy-cutoff  :      520.00
  volume of cell :     1863.68
      direct lattice vectors                 reciprocal lattice vectors
     0.000000000 10.307367086 -0.372855731     0.000000000  0.096453423 -0.015606996
    16.788494411  0.000000000  0.000000000     0.059564603  0.000000000  0.000000000
     0.000000000 -1.732519801-10.707215182     0.000000000 -0.003358783 -0.092851486

  length of vectors
    10.314108670 16.788494411 10.846477853     0.097707938  0.059564603  0.092912216



 k-points in units of 2pi/SCALE and weight: pymatgen with grid density = 595 / numbe
   0.00000000  0.00000000 -0.00000000       0.125
   0.00000000  0.04822671 -0.00780350       0.125
   0.02978230  0.00000000 -0.00000000       0.125
   0.02978230  0.04822671 -0.00780350       0.125
   0.00000000 -0.00167939 -0.04642574       0.125
   0.00000000  0.04654732 -0.05422924       0.125
   0.02978230 -0.00167939 -0.04642574       0.125
   0.02978230  0.04654732 -0.05422924       0.125

 k-points in reciprocal lattice and weights: pymatgen with grid density = 595 / numbe
   0.00000000  0.00000000  0.00000000       0.125
   0.50000000  0.00000000  0.00000000       0.125
   0.00000000  0.50000000  0.00000000       0.125
   0.50000000  0.50000000  0.00000000       0.125
   0.00000000  0.00000000  0.50000000       0.125
   0.50000000  0.00000000  0.50000000       0.125
   0.00000000  0.50000000  0.50000000       0.125
   0.50000000  0.50000000  0.50000000       0.125

 position of ions in fractional coordinates (direct lattice) 
   0.88642314  0.46700475  0.67812639
   0.88642314  0.96700475  0.67812639
   0.32956326  0.18814818  0.55070772
   0.32956326  0.68874382  0.55070772
   0.91267129  0.10524188  0.91196047
   0.91267129  0.60524188  0.91196047
   0.23973640  0.30083105  0.77657419
   0.23973640  0.80083105  0.77657419
   0.14441752  0.30568876  0.22439668
   0.14441752  0.80568876  0.22439668
   0.85558248  0.19431124  0.77560332
   0.85558248  0.69431124  0.77560332
   0.76026360  0.19916895  0.22342581
   0.76026360  0.69916895  0.22342581
   0.17043674  0.43874382  0.44929228
   0.17043674  0.93874382  0.44929228
   0.41267129  0.14475812  0.91196047
   0.41267129  0.64475812  0.91196047
   0.38642314  0.28299525  0.67812639
   0.38642314  0.78299525  0.67812639
   0.64441752  0.44431124  0.22439668
   0.64441752  0.94431124  0.22439668
   0.82956326  0.06125618  0.55070772
   0.82956326  0.56125618  0.55070772
   0.26026360  0.05083105  0.22342581
   0.26026360  0.55083105  0.22342581
   0.61357686  0.21700475  0.32187361
   0.61357686  0.71700475  0.32187361
   0.11357686  0.03299525  0.32187361
   0.11357686  0.53299525  0.32187361
   0.05989570  0.34508773  0.37448437
   0.05989570  0.84508773  0.37448437
   0.74342521  0.28934434  0.07116523
   0.74342521  0.78934434  0.07116523
   0.58732871  0.35524188  0.08803953
   0.58732871  0.85524188  0.08803953
   0.25657479  0.21065566  0.92883477
   0.25657479  0.71065566  0.92883477
   0.08732871  0.39475812  0.08803953
   0.08732871  0.89475812  0.08803953
   0.44010430  0.09508773  0.62551563
   0.44010430  0.59508773  0.62551563
   0.35558248  0.05568876  0.77560332
   0.35558248  0.55568876  0.77560332
   0.73973640  0.44916895  0.77657419
   0.73973640  0.94916895  0.77657419
   0.94010430  0.15491227  0.62551563
   0.94010430  0.65491227  0.62551563
   0.24342521  0.46065566  0.07116523
   0.24342521  0.96065566  0.07116523
   0.75657479  0.03934434  0.92883477
   0.75657479  0.53934434  0.92883477
   0.55989570  0.40491227  0.37448437
   0.55989570  0.90491227  0.37448437
   0.67043674  0.31125618  0.44929228
   0.67043674  0.81125618  0.44929228

 position of ions in cartesian coordinates  (Angst):
   7.84030666  7.96182132 -7.59135308
  16.23455387  7.96182132 -7.59135308
   3.15872461  2.44281751 -6.01942562
  11.56297182  2.44281751 -6.01942562
   1.76685280  7.82724839-10.10485172
  10.16110000  7.82724839-10.10485172
   5.05050035  1.12562097 -8.40433404
  13.44474755  1.12562097 -8.40433404
   5.13205407  1.09979266 -2.45651044
  13.52630128  1.09979266 -2.45651044
   3.26219313  7.47505463 -8.62356047
  11.65644034  7.47505463 -8.62356047
   3.34374686  7.44922632 -2.67573688
  11.73799406  7.44922632 -2.67573688
   7.36584822  0.97834624 -4.87421742
  15.76009542  0.97834624 -4.87421742
   2.43027081  2.67356485 -9.91842386
  10.82451801  2.67356485 -9.91842386
   4.75106415  2.80813777 -7.40492521
  13.14531135  2.80813777 -7.40492521
   7.45931673  6.25347620 -2.64293831
  15.85356394  6.25347620 -2.64293831
   1.02839899  7.59650105 -6.20585349
   9.42264619  7.59650105 -6.20585349
   0.85337674  2.29554277 -2.48930901
   9.24762395  2.29554277 -2.48930901
   3.64318306  5.76670951 -3.67514570
  12.03743026  5.76670951 -3.67514570
   0.55394055  0.61302597 -3.48871783
   8.94818775  0.61302597 -3.48871783
   5.79350349 -0.03143461 -4.03201715
  14.18775070 -0.03143461 -4.03201715
   4.85765589  7.53946136 -1.03917182
  13.25190310  7.53946136 -1.03917182
   5.96397640  5.90128244 -1.16164705
  14.35822361  5.90128244 -1.16164705
   3.53659131  1.03538593-10.04089909
  11.93083852  1.03538593-10.04089909
   6.62739441  0.74759889 -0.97521919
  15.02164161  0.74759889 -0.97521919
   1.59637989  3.45259836 -6.86162589
   9.99062710  3.45259836 -6.86162589
   0.93493047  2.32137108 -8.43713261
   9.32917768  2.32137108 -8.43713261
   7.54087046  6.27930451 -8.59076190
  15.93511767  6.27930451 -8.59076190
   2.60074371  8.60628190 -7.04805376
  10.99499092  8.60628190 -7.04805376
   7.73371492  2.38577782 -0.85274396
  16.12796212  2.38577782 -0.85274396
   0.66053229  6.18906947-10.22732695
   9.05477950  6.18906947-10.22732695
   6.79786731  5.12224893 -4.21844502
  15.19211452  5.12224893 -4.21844502
   5.22552259  6.13202978 -5.06064529
  13.61976980  6.13202978 -5.06064529



--------------------------------------------------------------------------------------------------------


 k-point   1 :   0.0000 0.0000 0.0000  plane waves:   50179
 k-point   2 :   0.5000 0.0000 0.0000  plane waves:   50160
 k-point   3 :   0.0000 0.5000 0.0000  plane waves:   50162
 k-point   4 :   0.5000 0.5000 0.0000  plane waves:   50192
 k-point   5 :   0.0000 0.0000 0.5000  plane waves:   50190
 k-point   6 :   0.5000 0.0000 0.5000  plane waves:   50190
 k-point   7 :   0.0000 0.5000 0.5000  plane waves:   50172
 k-point   8 :   0.5000 0.5000 0.5000  plane waves:   50200

 maximum and minimum number of plane-waves per node :     50200    50160

 maximum number of plane-waves:     50200
 maximum index in each direction: 
   IXMAX=   19   IYMAX=   31   IZMAX=   20
   IXMIN=  -19   IYMIN=  -31   IZMIN=  -20


 serial   3D FFT for wavefunctions
 parallel 3D FFT for charge:
    minimum data exchange during FFTs selected (reduces bandwidth)


 total amount of memory used by VASP MPI-rank0   322725. kBytes
=======================================================================

   base      :      30000. kBytes
   nonl-proj :      70692. kBytes
   fftplans  :      34504. kBytes
   grid      :      83442. kBytes
   one-center:        344. kBytes
   wavefun   :     103743. kBytes

     INWAV:  cpu time      0.0000: real time      0.0002
 Broyden mixing: mesh for mixing (old mesh)
   NGX = 39   NGY = 63   NGZ = 41
  (NGX  =160   NGY  =252   NGZ  =168)
  gives a total of 100737 points

 initial charge density was supplied:
 charge density of overlapping atoms calculated
 number of electron     336.0000000 magnetization      56.0000000
 keeping initial charge density in first step


--------------------------------------------------------------------------------------------------------


 Maximum index for augmentation-charges         3947 (set IRDMAX)


--------------------------------------------------------------------------------------------------------


 First call to EWALD:  gamma=   0.144
 Maximum number of real-space cells 3x 2x 3
 Maximum number of reciprocal cells 2x 4x 2

    FEWALD:  cpu time      0.0022: real time      0.0022


--------------------------------------- Iteration      1(   1)  ---------------------------------------


    POTLOK:  cpu time      0.4846: real time      0.4937
    SETDIJ:  cpu time     26.1829: real time     26.1855
     EDDAV:  cpu time     53.6415: real time     53.6522
 BZINTS: Fermi energy:   10.166331;  336.000000 electrons
         Band energy: 0.225119E+03;  BLOECHL correction:   -0.008979
       DOS:  cpu time      0.0483: real time      0.0495
    --------------------------------------------
      LOOP:  cpu time     80.3573: real time     80.3810

 eigenvalue-minimisations  :  8192
 total energy-change (2. order) : 0.2106202E+04  (-0.1333796E+05)
 number of electron     336.0000000 magnetization      56.0000000
 augmentation part      336.0000000 magnetization      56.0000000

 Free energy of the ion-electron system (eV)
  ---------------------------------------------------
  alpha Z        PSCENC =       253.99581917
  Ewald energy   TEWEN  =     -9970.80303963
  -Hartree energ DENC   =     -4765.87089235
  -exchange      EXHF   =         0.00000000
  -V(xc)+E(xc)   XCENC  =       682.51450551
  PAW double counting   =     12174.71095765   -11995.46358648
  entropy T*S    EENTRO =         0.00000000
  eigenvalues    EBANDS =       225.11912681
  atomic energy  EATOM  =     15501.99929693
  Solvation  Ediel_sol  =         0.00000000
  ---------------------------------------------------
  free energy    TOTEN  =      2106.20218762 eV

  energy without entropy =     2106.20218762  energy(sigma->0) =     2106.20218762


--------------------------------------------------------------------------------------------------------




--------------------------------------- Iteration      1(   2)  ---------------------------------------


     EDDAV:  cpu time     59.3038: real time     59.3161
 BZINTS: Fermi energy:    1.452083;  336.000000 electrons
         Band energy:-0.187481E+04;  BLOECHL correction:   -0.000000
       DOS:  cpu time      0.0313: real time      0.0313
    --------------------------------------------
      LOOP:  cpu time     59.3351: real time     59.3474

 eigenvalue-minimisations  : 10272
 total energy-change (2. order) :-0.2099931E+04  (-0.2021745E+04)
 number of electron     336.0000000 magnetization      56.0000000
 augmentation part      336.0000000 magnetization      56.0000000

 Free energy of the ion-electron system (eV)
  ---------------------------------------------------
  alpha Z        PSCENC =       253.99581917
  Ewald energy   TEWEN  =     -9970.80303963
  -Hartree energ DENC   =     -4765.87089235
  -exchange      EXHF   =         0.00000000
  -V(xc)+E(xc)   XCENC  =       682.51450551
  PAW double counting   =     12174.71095765   -11995.46358648
  entropy T*S    EENTRO =         0.00000000
  eigenvalues    EBANDS =     -1874.81179065
  atomic energy  EATOM  =     15501.99929693
  Solvation  Ediel_sol  =         0.00000000
  ---------------------------------------------------
  free energy    TOTEN  =         6.27127016 eV

  energy without entropy =        6.27127016  energy(sigma->0) =        6.27127016


--------------------------------------------------------------------------------------------------------




--------------------------------------- Iteration      1(   3)  ---------------------------------------


     EDDAV:  cpu time     61.7455: real time     61.7578
 BZINTS: Fermi energy:    0.219763;  336.000000 electrons
         Band energy:-0.209466E+04;  BLOECHL correction:    0.000000
       DOS:  cpu time      0.0271: real time      0.0271
    --------------------------------------------
      LOOP:  cpu time     61.7726: real time     61.7849

 eigenvalue-minimisations  : 10240
 total energy-change (2. order) :-0.2198499E+03  (-0.2171638E+03)
 number of electron     336.0000000 magnetization      56.0000000
 augmentation part      336.0000000 magnetization      56.0000000

 Free energy of the ion-electron system (eV)
  ---------------------------------------------------
  alpha Z        PSCENC =       253.99581917
  Ewald energy   TEWEN  =     -9970.80303963
  -Hartree energ DENC   =     -4765.87089235
  -exchange      EXHF   =         0.00000000
  -V(xc)+E(xc)   XCENC  =       682.51450551
  PAW double counting   =     12174.71095765   -11995.46358648
  entropy T*S    EENTRO =         0.00000000
  eigenvalues    EBANDS =     -2094.66169556
  atomic energy  EATOM  =     15501.99929693
  Solvation  Ediel_sol  =         0.00000000
  ---------------------------------------------------
  free energy    TOTEN  =      -213.57863475 eV

  energy without entropy =     -213.57863475  energy(sigma->0) =     -213.57863475


--------------------------------------------------------------------------------------------------------




--------------------------------------- Iteration      1(   4)  ---------------------------------------


     EDDAV:  cpu time     59.0295: real time     59.0432
 BZINTS: Fermi energy:    0.191682;  336.000000 electrons
         Band energy:-0.209956E+04;  BLOECHL correction:    0.000000
       DOS:  cpu time      0.0262: real time      0.0263
    --------------------------------------------
      LOOP:  cpu time     59.0558: real time     59.0695

 eigenvalue-minimisations  : 10304
 total energy-change (2. order) :-0.4896193E+01  (-0.4877841E+01)
 number of electron     336.0000000 magnetization      56.0000000
 augmentation part      336.0000000 magnetization      56.0000000

 Free energy of the ion-electron system (eV)
  ---------------------------------------------------
  alpha Z        PSCENC =       253.99581917
  Ewald energy   TEWEN  =     -9970.80303963
  -Hartree energ DENC   =     -4765.87089235
  -exchange      EXHF   =         0.00000000
  -V(xc)+E(xc)   XCENC  =       682.51450551
  PAW double counting   =     12174.71095765   -11995.46358648
  entropy T*S    EENTRO =         0.00000000
  eigenvalues    EBANDS =     -2099.55788859
  atomic energy  EATOM  =     15501.99929693
  Solvation  Ediel_sol  =         0.00000000
  ---------------------------------------------------
  free energy    TOTEN  =      -218.47482778 eV

  energy without entropy =     -218.47482778  energy(sigma->0) =     -218.47482778


--------------------------------------------------------------------------------------------------------




--------------------------------------- Iteration      1(   5)  ---------------------------------------


     EDDAV:  cpu time     55.4840: real time     55.4929
 BZINTS: Fermi energy:    0.191515;  336.000000 electrons
         Band energy:-0.209970E+04;  BLOECHL correction:    0.000000
       DOS:  cpu time      0.0260: real time      0.0261
    CHARGE:  cpu time     15.6706: real time     15.6741
    MIXING:  cpu time      0.0187: real time      0.0187
    --------------------------------------------
      LOOP:  cpu time     71.1993: real time     71.2117

 eigenvalue-minimisations  : 10144
 total energy-change (2. order) :-0.1371824E+00  (-0.1371163E+00)
 number of electron     335.9999997 magnetization      44.9918631
 augmentation part      -47.3222755 magnetization      44.8836861

 Broyden mixing:
  rms(total) = 0.82945E+01    rms(broyden)= 0.82944E+01
  rms(prec ) = 0.83144E+01
  weight for this iteration     100.00

 Free energy of the ion-electron system (eV)
  ---------------------------------------------------
  alpha Z        PSCENC =       253.99581917
  Ewald energy   TEWEN  =     -9970.80303963
  -Hartree energ DENC   =     -4765.87089235
  -exchange      EXHF   =         0.00000000
  -V(xc)+E(xc)   XCENC  =       682.51450551
  PAW double counting   =     12174.71095765   -11995.46358648
  entropy T*S    EENTRO =         0.00000000
  eigenvalues    EBANDS =     -2099.69507096
  atomic energy  EATOM  =     15501.99929693
  Solvation  Ediel_sol  =         0.00000000
  ---------------------------------------------------
  free energy    TOTEN  =      -218.61201015 eV

  energy without entropy =     -218.61201015  energy(sigma->0) =     -218.61201015


--------------------------------------------------------------------------------------------------------




--------------------------------------- Iteration      1(   6)  ---------------------------------------


    POTLOK:  cpu time      0.4523: real time      0.4543
    SETDIJ:  cpu time     24.5466: real time     24.5494
     EDDAV:  cpu time     56.5916: real time     56.6034
 BZINTS: Fermi energy:    0.408720;  336.000000 electrons
         Band energy:-0.201418E+04;  BLOECHL correction:    0.000000
       DOS:  cpu time      0.0266: real time      0.0267
    CHARGE:  cpu time     23.5713: real time     23.5743
    MIXING:  cpu time      0.0186: real time      0.0186
    --------------------------------------------
      LOOP:  cpu time    105.2070: real time    105.2265

 eigenvalue-minimisations  :  9632
 total energy-change (2. order) : 0.1022850E+03  (-0.2667731E+02)
 number of electron     335.9999997 magnetization      26.4974046
 augmentation part      -47.6484607 magnetization      27.5558945

 Broyden mixing:
  rms(total) = 0.49369E+01    rms(broyden)= 0.49369E+01
  rms(prec ) = 0.49592E+01
  weight for this iteration     100.00

 eigenvalues of (default mixing * dielectric matrix)
  average eigenvalue GAMMA=   1.6662
  1.6662

 Free energy of the ion-electron system (eV)
  ---------------------------------------------------
  alpha Z        PSCENC =       253.99581917
  Ewald energy   TEWEN  =     -9970.80303963
  -Hartree energ DENC   =     -4810.21815941
  -exchange      EXHF   =         0.00000000
  -V(xc)+E(xc)   XCENC  =       746.10154971
  PAW double counting   =     20736.59228850   -20559.81442577
  entropy T*S    EENTRO =         0.00000000
  eigenvalues    EBANDS =     -2014.18035281
  atomic energy  EATOM  =     15501.99929693
  Solvation  Ediel_sol  =         0.00000000
  ---------------------------------------------------
  free energy    TOTEN  =      -116.32702330 eV

  energy without entropy =     -116.32702330  energy(sigma->0) =     -116.32702330


--------------------------------------------------------------------------------------------------------




--------------------------------------- Iteration      1(   7)  ---------------------------------------


    POTLOK:  cpu time      0.4487: real time      0.4518
    SETDIJ:  cpu time     23.9964: real time     23.9998
     EDDAV:  cpu time     59.9772: real time     59.9886
 BZINTS: Fermi energy:    0.737525;  336.000000 electrons
         Band energy:-0.186784E+04;  BLOECHL correction:    0.000000
       DOS:  cpu time      0.0259: real time      0.0259
    CHARGE:  cpu time     23.7005: real time     23.7029
    MIXING:  cpu time      0.0191: real time      0.0191
    --------------------------------------------
      LOOP:  cpu time    108.1678: real time    108.1880

 eigenvalue-minimisations  : 10144
 total energy-change (2. order) :-0.1114373E+02  (-0.2696052E+01)
 number of electron     335.9999997 magnetization      19.7223050
 augmentation part      -47.3165856 magnetization      20.9279736

 Broyden mixing:
  rms(total) = 0.13985E+01    rms(broyden)= 0.13985E+01
  rms(prec ) = 0.14022E+01
  weight for this iteration     100.00

 eigenvalues of (default mixing * dielectric matrix)
  average eigenvalue GAMMA=   1.4855
  0.7903  2.1808

 Free energy of the ion-electron system (eV)
  ---------------------------------------------------
  alpha Z        PSCENC =       253.99581917
  Ewald energy   TEWEN  =     -9970.80303963
  -Hartree energ DENC   =     -4969.62483631
  -exchange      EXHF   =         0.00000000
  -V(xc)+E(xc)   XCENC  =       751.43416609
  PAW double counting   =     37037.00130089   -36863.63543838
  entropy T*S    EENTRO =         0.00000000
  eigenvalues    EBANDS =     -1867.83802222
  atomic energy  EATOM  =     15501.99929693
  Solvation  Ediel_sol  =         0.00000000
  ---------------------------------------------------
  free energy    TOTEN  =      -127.47075346 eV

  energy without entropy =     -127.47075346  energy(sigma->0) =     -127.47075346


--------------------------------------------------------------------------------------------------------




--------------------------------------- Iteration      1(   8)  ---------------------------------------


    POTLOK:  cpu time      0.4336: real time      0.4343
    SETDIJ:  cpu time     26.5634: real time     26.5684
     EDDAV:  cpu time     57.7119: real time     57.7235
 BZINTS: Fermi energy:    0.705583;  336.000000 electrons
         Band energy:-0.185528E+04;  BLOECHL correction:    0.000000
       DOS:  cpu time      0.0281: real time      0.0282
    CHARGE:  cpu time     23.0012: real time     23.0037
    MIXING:  cpu time      0.0192: real time      0.0193
    --------------------------------------------
      LOOP:  cpu time    107.7575: real time    107.7774

 eigenvalue-minimisations  :  9312
 total energy-change (2. order) :-0.4274130E+02  (-0.1978924E+01)
 number of electron     335.9999997 magnetization      16.0632975
 augmentation part      -47.0117986 magnetization      17.1078582

 Broyden mixing:
  rms(total) = 0.78208E+00    rms(broyden)= 0.78207E+00
  rms(prec ) = 0.78723E+00
  weight for this iteration     100.00

 eigenvalues of (default mixing * dielectric matrix)
  average eigenvalue GAMMA=   1.3384
  2.4898  0.9420  0.5835

 Free energy of the ion-electron system (eV)
  ---------------------------------------------------
  alpha Z        PSCENC =       253.99581917
  Ewald energy   TEWEN  =     -9970.80303963
  -Hartree energ DENC   =     -4999.26732640
  -exchange      EXHF   =         0.00000000
  -V(xc)+E(xc)   XCENC  =       726.54737489
  PAW double counting   =     40185.80561294   -40013.20679123
  entropy T*S    EENTRO =         0.00000000
  eigenvalues    EBANDS =     -1855.28299705
  atomic energy  EATOM  =     15501.99929693
  Solvation  Ediel_sol  =         0.00000000
  ---------------------------------------------------
  free energy    TOTEN  =      -170.21205038 eV

  energy without entropy =     -170.21205038  energy(sigma->0) =     -170.21205038


--------------------------------------------------------------------------------------------------------




--------------------------------------- Iteration      1(   9)  ---------------------------------------


    POTLOK:  cpu time      0.4243: real time      0.4251
    SETDIJ:  cpu time     23.8593: real time     23.8666
     EDDAV:  cpu time     57.3215: real time     57.3323
 BZINTS: Fermi energy:    0.627954;  336.000000 electrons
         Band energy:-0.186653E+04;  BLOECHL correction:    0.000000
       DOS:  cpu time      0.0269: real time      0.0269
    CHARGE:  cpu time     20.1902: real time     20.1925
    MIXING:  cpu time      0.0191: real time      0.0191
    --------------------------------------------
      LOOP:  cpu time    101.8412: real time    101.8625

 eigenvalue-minimisations  : 10240
 total energy-change (2. order) :-0.1673848E+02  (-0.6403756E+00)
 number of electron     335.9999997 magnetization      11.5334959
 augmentation part      -46.9155305 magnetization      12.3712596

 Broyden mixing:
  rms(total) = 0.43628E+00    rms(broyden)= 0.43628E+00
  rms(prec ) = 0.44833E+00
  weight for this iteration     100.00

 eigenvalues of (default mixing * dielectric matrix)
  average eigenvalue GAMMA=   1.3244
  2.5743  1.3008  0.7113  0.7113

 Free energy of the ion-electron system (eV)
  ---------------------------------------------------
  alpha Z        PSCENC =       253.99581917
  Ewald energy   TEWEN  =     -9970.80303963
  -Hartree energ DENC   =     -4995.45996233
  -exchange      EXHF   =         0.00000000
  -V(xc)+E(xc)   XCENC  =       717.23050228
  PAW double counting   =     40964.72545410   -40792.10824100
  entropy T*S    EENTRO =         0.00000000
  eigenvalues    EBANDS =     -1866.53036009
  atomic energy  EATOM  =     15501.99929693
  Solvation  Ediel_sol  =         0.00000000
  ---------------------------------------------------
  free energy    TOTEN  =      -186.95053057 eV

  energy without entropy =     -186.95053057  energy(sigma->0) =     -186.95053057


--------------------------------------------------------------------------------------------------------




--------------------------------------- Iteration      1(  10)  ---------------------------------------


    POTLOK:  cpu time      0.4278: real time      0.4287
    SETDIJ:  cpu time     19.8560: real time     19.8582
     EDDAV:  cpu time     61.2784: real time     61.2954
 BZINTS: Fermi energy:    0.475006;  336.000000 electrons
         Band energy:-0.190102E+04;  BLOECHL correction:    0.000000
       DOS:  cpu time      0.0257: real time      0.0257
    CHARGE:  cpu time     27.5009: real time     27.5043
    MIXING:  cpu time      0.0194: real time      0.0194
    --------------------------------------------
      LOOP:  cpu time    109.1082: real time    109.1318

 eigenvalue-minimisations  :  9984
 total energy-change (2. order) :-0.2007058E+02  (-0.1302644E+01)
 number of electron     335.9999997 magnetization       5.3086567
 augmentation part      -46.8736004 magnetization       5.8433743

 Broyden mixing:
  rms(total) = 0.32431E+00    rms(broyden)= 0.32431E+00
  rms(prec ) = 0.33727E+00
  weight for this iteration     100.00

 eigenvalues of (default mixing * dielectric matrix)
  average eigenvalue GAMMA=   1.4488
  2.4862  2.4862  0.9416  0.7282  0.6020

 Free energy of the ion-electron system (eV)
  ---------------------------------------------------
  alpha Z        PSCENC =       253.99581917
  Ewald energy   TEWEN  =     -9970.80303963
  -Hartree energ DENC   =     -4970.11400487
  -exchange      EXHF   =         0.00000000
  -V(xc)+E(xc)   XCENC  =       705.65013011
  PAW double counting   =     40975.07418388   -40801.80280301
  entropy T*S    EENTRO =         0.00000000
  eigenvalues    EBANDS =     -1901.02069295
  atomic energy  EATOM  =     15501.99929693
  Solvation  Ediel_sol  =         0.00000000
  ---------------------------------------------------
  free energy    TOTEN  =      -207.02111037 eV

  energy without entropy =     -207.02111037  energy(sigma->0) =     -207.02111037


--------------------------------------------------------------------------------------------------------




--------------------------------------- Iteration      1(  11)  ---------------------------------------


    POTLOK:  cpu time      0.4570: real time      0.4578
    SETDIJ:  cpu time     23.5956: real time     23.5984
     EDDAV:  cpu time     56.3929: real time     56.4045
 BZINTS: Fermi energy:    0.257060;  336.000000 electrons
         Band energy:-0.195839E+04;  BLOECHL correction:    0.000000
       DOS:  cpu time      0.0258: real time      0.0258
    CHARGE:  cpu time     16.5206: real time     16.5223
    MIXING:  cpu time      0.0164: real time      0.0164
    --------------------------------------------
      LOOP:  cpu time     97.0083: real time     97.0252

 eigenvalue-minimisations  :  9952
 total energy-change (2. order) :-0.1785062E+02  (-0.2164912E+01)
 number of electron     335.9999997 magnetization       3.5763104
 augmentation part      -46.9052580 magnetization       3.7596575

 Broyden mixing:
  rms(total) = 0.18666E+00    rms(broyden)= 0.18666E+00
  rms(prec ) = 0.20035E+00
  weight for this iteration     100.00

 eigenvalues of (default mixing * dielectric matrix)
  average eigenvalue GAMMA=   1.4663
  2.7965  2.7965  1.0266  0.8892  0.6992  0.5899

 Free energy of the ion-electron system (eV)
  ---------------------------------------------------
  alpha Z        PSCENC =       253.99581917
  Ewald energy   TEWEN  =     -9970.80303963
  -Hartree energ DENC   =     -4920.54007225
  -exchange      EXHF   =         0.00000000
  -V(xc)+E(xc)   XCENC  =       694.53962962
  PAW double counting   =     40402.52781514   -40228.19688424
  entropy T*S    EENTRO =         0.00000000
  eigenvalues    EBANDS =     -1958.39429379
  atomic energy  EATOM  =     15501.99929693
  Solvation  Ediel_sol  =         0.00000000
  ---------------------------------------------------
  free energy    TOTEN  =      -224.87172904 eV

  energy without entropy =     -224.87172904  energy(sigma->0) =     -224.87172904


--------------------------------------------------------------------------------------------------------




--------------------------------------- Iteration      1(  12)  ---------------------------------------


    POTLOK:  cpu time      0.4521: real time      0.4530
    SETDIJ:  cpu time     20.0761: real time     20.0788
     EDDAV:  cpu time     61.7441: real time     61.7613
 BZINTS: Fermi energy:    0.183904;  336.000000 electrons
         Band energy:-0.197902E+04;  BLOECHL correction:    0.000000
       DOS:  cpu time      0.0257: real time      0.0257
    CHARGE:  cpu time     21.8188: real time     21.8210
    MIXING:  cpu time      0.0186: real time      0.0186
    --------------------------------------------
      LOOP:  cpu time    104.1354: real time    104.1584

 eigenvalue-minimisations  : 10048
 total energy-change (2. order) :-0.3387513E+01  (-0.3876394E+00)
 number of electron     335.9999997 magnetization       2.3938512
 augmentation part      -46.9152596 magnetization       2.4770934

 Broyden mixing:
  rms(total) = 0.15984E+00    rms(broyden)= 0.15984E+00
  rms(prec ) = 0.17239E+00
  weight for this iteration     100.00

 eigenvalues of (default mixing * dielectric matrix)
  average eigenvalue GAMMA=   1.4912
  3.0999  3.0999  1.0545  1.0545  0.7809  0.7809  0.5677

 Free energy of the ion-electron system (eV)
  ---------------------------------------------------
  alpha Z        PSCENC =       253.99581917
  Ewald energy   TEWEN  =     -9970.80303963
  -Hartree energ DENC   =     -4901.08527424
  -exchange      EXHF   =         0.00000000
  -V(xc)+E(xc)   XCENC  =       692.08794430
  PAW double counting   =     39970.83299739   -39796.26563971
  entropy T*S    EENTRO =         0.00000000
  eigenvalues    EBANDS =     -1979.02134617
  atomic energy  EATOM  =     15501.99929693
  Solvation  Ediel_sol  =         0.00000000
  ---------------------------------------------------
  free energy    TOTEN  =      -228.25924196 eV

  energy without entropy =     -228.25924196  energy(sigma->0) =     -228.25924196


--------------------------------------------------------------------------------------------------------




--------------------------------------- Iteration      1(  13)  ---------------------------------------


    POTLOK:  cpu time      0.4374: real time      0.4383
    SETDIJ:  cpu time     25.0988: real time     25.1020
     EDDAV:  cpu time     54.2163: real time     54.2264
 BZINTS: Fermi energy:    0.115966;  336.000000 electrons
         Band energy:-0.200148E+04;  BLOECHL correction:    0.000000
       DOS:  cpu time      0.0272: real time      0.0272
    CHARGE:  cpu time     24.3366: real time     24.3395
    MIXING:  cpu time      0.0204: real time      0.0204
    --------------------------------------------
      LOOP:  cpu time    104.1367: real time    104.1539

 eigenvalue-minimisations  :  9568
 total energy-change (2. order) :-0.1055246E+01  (-0.1338645E+00)
 number of electron     335.9999997 magnetization       0.8899603
 augmentation part      -46.9735300 magnetization       0.9160127

 Broyden mixing:
  rms(total) = 0.93103E-01    rms(broyden)= 0.93103E-01
  rms(prec ) = 0.99930E-01
  weight for this iteration     100.00

 eigenvalues of (default mixing * dielectric matrix)
  average eigenvalue GAMMA=   1.5510
  3.3216  3.3216  1.5813  1.2861  0.9268  0.6995  0.6995  0.5721

 Free energy of the ion-electron system (eV)
  ---------------------------------------------------
  alpha Z        PSCENC =       253.99581917
  Ewald energy   TEWEN  =     -9970.80303963
  -Hartree energ DENC   =     -4877.93763264
  -exchange      EXHF   =         0.00000000
  -V(xc)+E(xc)   XCENC  =       690.10353311
  PAW double counting   =     39150.20738084   -38975.40014306
  entropy T*S    EENTRO =         0.00000000
  eigenvalues    EBANDS =     -2001.47970312
  atomic energy  EATOM  =     15501.99929693
  Solvation  Ediel_sol  =         0.00000000
  ---------------------------------------------------
  free energy    TOTEN  =      -229.31448839 eV

  energy without entropy =     -229.31448839  energy(sigma->0) =     -229.31448839


--------------------------------------------------------------------------------------------------------




--------------------------------------- Iteration      1(  14)  ---------------------------------------


    POTLOK:  cpu time      0.4266: real time      0.4272
    SETDIJ:  cpu time     18.7233: real time     18.7253
     EDDAV:  cpu time     53.6404: real time     53.6545
 BZINTS: Fermi energy:    0.080174;  336.000000 electrons
         Band energy:-0.201198E+04;  BLOECHL correction:    0.000000
       DOS:  cpu time      0.0257: real time      0.0257
    CHARGE:  cpu time     20.9909: real time     20.9934
    MIXING:  cpu time      1.4113: real time      1.4114
    --------------------------------------------
      LOOP:  cpu time     95.2181: real time     95.2377

 eigenvalue-minimisations  :  8992
 total energy-change (2. order) :-0.6538746E-01  (-0.1630482E-01)
 number of electron     335.9999997 magnetization       0.4181750
 augmentation part      -47.0007080 magnetization       0.4251820

 Broyden mixing:
  rms(total) = 0.43824E-01    rms(broyden)= 0.43824E-01
  rms(prec ) = 0.46529E-01
  weight for this iteration     100.00

 eigenvalues of (default mixing * dielectric matrix)
  average eigenvalue GAMMA=   1.5782
  4.1290  2.5566  2.5566  1.0965  1.0965  0.7711  0.7711  0.5746  0.6517

 Free energy of the ion-electron system (eV)
  ---------------------------------------------------
  alpha Z        PSCENC =       253.99581917
  Ewald energy   TEWEN  =     -9970.80303963
  -Hartree energ DENC   =     -4866.54605594
  -exchange      EXHF   =         0.00000000
  -V(xc)+E(xc)   XCENC  =       689.18870996
  PAW double counting   =     39087.95525542   -38913.19279357
  entropy T*S    EENTRO =         0.00000000
  eigenvalues    EBANDS =     -2011.97706818
  atomic energy  EATOM  =     15501.99929693
  Solvation  Ediel_sol  =         0.00000000
  ---------------------------------------------------
  free energy    TOTEN  =      -229.37987585 eV

  energy without entropy =     -229.37987585  energy(sigma->0) =     -229.37987585


--------------------------------------------------------------------------------------------------------




--------------------------------------- Iteration      1(  15)  ---------------------------------------


    POTLOK:  cpu time      0.4298: real time      0.4307
    SETDIJ:  cpu time     23.3303: real time     23.3328
     EDDAV:  cpu time     58.9778: real time     58.9889
 BZINTS: Fermi energy:    0.078392;  336.000000 electrons
         Band energy:-0.201168E+04;  BLOECHL correction:    0.000000
       DOS:  cpu time      0.0266: real time      0.0267
    CHARGE:  cpu time     24.5115: real time     24.5142
    MIXING:  cpu time      0.0217: real time      0.0217
    --------------------------------------------
      LOOP:  cpu time    107.2978: real time    107.3150

 eigenvalue-minimisations  :  9600
 total energy-change (2. order) : 0.1264155E-02  (-0.2078196E-02)
 number of electron     335.9999997 magnetization       0.1722188
 augmentation part      -46.9945681 magnetization       0.1765095

 Broyden mixing:
  rms(total) = 0.20229E-01    rms(broyden)= 0.20229E-01
  rms(prec ) = 0.21808E-01
  weight for this iteration     100.00

 eigenvalues of (default mixing * dielectric matrix)
  average eigenvalue GAMMA=   1.5645
  4.5532  2.5269  2.5269  1.3342  0.9966  0.9966  0.7585  0.7585  0.6240  0.5691

 Free energy of the ion-electron system (eV)
  ---------------------------------------------------
  alpha Z        PSCENC =       253.99581917
  Ewald energy   TEWEN  =     -9970.80303963
  -Hartree energ DENC   =     -4866.72126050
  -exchange      EXHF   =         0.00000000
  -V(xc)+E(xc)   XCENC  =       689.15067533
  PAW double counting   =     39173.91756162   -38999.24239995
  entropy T*S    EENTRO =         0.00000000
  eigenvalues    EBANDS =     -2011.67526467
  atomic energy  EATOM  =     15501.99929693
  Solvation  Ediel_sol  =         0.00000000
  ---------------------------------------------------
  free energy    TOTEN  =      -229.37861169 eV

  energy without entropy =     -229.37861169  energy(sigma->0) =     -229.37861169


--------------------------------------------------------------------------------------------------------




--------------------------------------- Iteration      1(  16)  ---------------------------------------


    POTLOK:  cpu time      0.4266: real time      0.4274
    SETDIJ:  cpu time     31.1552: real time     31.1613
     EDDAV:  cpu time     52.9419: real time     52.9531
 BZINTS: Fermi energy:    0.076825;  336.000000 electrons
         Band energy:-0.201214E+04;  BLOECHL correction:    0.000000
       DOS:  cpu time      0.0258: real time      0.0259
    CHARGE:  cpu time     17.1545: real time     17.1561
    MIXING:  cpu time      0.0199: real time      0.0199
    --------------------------------------------
      LOOP:  cpu time    101.7240: real time    101.7436

 eigenvalue-minimisations  :  9152
 total energy-change (2. order) : 0.3107718E-02  (-0.5520711E-03)
 number of electron     335.9999997 magnetization       0.0698037
 augmentation part      -46.9934322 magnetization       0.0705966

 Broyden mixing:
  rms(total) = 0.12355E-01    rms(broyden)= 0.12355E-01
  rms(prec ) = 0.13369E-01
  weight for this iteration     100.00

 eigenvalues of (default mixing * dielectric matrix)
  average eigenvalue GAMMA=   1.5463
  4.7577  2.4271  2.4271  1.8400  0.9956  0.9956  0.9228  0.7279  0.7279  0.5805
  0.6068

 Free energy of the ion-electron system (eV)
  ---------------------------------------------------
  alpha Z        PSCENC =       253.99581917
  Ewald energy   TEWEN  =     -9970.80303963
  -Hartree energ DENC   =     -4866.15800548
  -exchange      EXHF   =         0.00000000
  -V(xc)+E(xc)   XCENC  =       689.08223762
  PAW double counting   =     39143.90352627   -38969.25220891
  entropy T*S    EENTRO =         0.00000000
  eigenvalues    EBANDS =     -2012.14312995
  atomic energy  EATOM  =     15501.99929693
  Solvation  Ediel_sol  =         0.00000000
  ---------------------------------------------------
  free energy    TOTEN  =      -229.37550397 eV

  energy without entropy =     -229.37550397  energy(sigma->0) =     -229.37550397


--------------------------------------------------------------------------------------------------------




--------------------------------------- Iteration      1(  17)  ---------------------------------------


    POTLOK:  cpu time      0.4237: real time      0.4245
    SETDIJ:  cpu time     17.6414: real time     17.6434
     EDDAV:  cpu time     54.3275: real time     54.3378
 BZINTS: Fermi energy:    0.078329;  336.000000 electrons
         Band energy:-0.201122E+04;  BLOECHL correction:    0.000000
       DOS:  cpu time      0.0258: real time      0.0258
    CHARGE:  cpu time     25.9042: real time     25.9076
    MIXING:  cpu time      0.0231: real time      0.0231
    --------------------------------------------
      LOOP:  cpu time     98.3457: real time     98.3622

 eigenvalue-minimisations  :  9472
 total energy-change (2. order) :-0.5017971E-03  (-0.1194557E-03)
 number of electron     335.9999997 magnetization       0.0177755
 augmentation part      -46.9883592 magnetization       0.0181722

 Broyden mixing:
  rms(total) = 0.49318E-02    rms(broyden)= 0.49318E-02
  rms(prec ) = 0.55346E-02
  weight for this iteration     100.00

 eigenvalues of (default mixing * dielectric matrix)
  average eigenvalue GAMMA=   1.5758
  4.9483  2.6009  2.6009  2.2010  1.1771  0.9961  0.9961  0.7616  0.7616  0.6813
  0.5869  0.5979

 Free energy of the ion-electron system (eV)
  ---------------------------------------------------
  alpha Z        PSCENC =       253.99581917
  Ewald energy   TEWEN  =     -9970.80303963
  -Hartree energ DENC   =     -4867.12053073
  -exchange      EXHF   =         0.00000000
  -V(xc)+E(xc)   XCENC  =       689.14213287
  PAW double counting   =     39184.73217271   -39010.10516687
  entropy T*S    EENTRO =         0.00000000
  eigenvalues    EBANDS =     -2011.21669022
  atomic energy  EATOM  =     15501.99929693
  Solvation  Ediel_sol  =         0.00000000
  ---------------------------------------------------
  free energy    TOTEN  =      -229.37600577 eV

  energy without entropy =     -229.37600577  energy(sigma->0) =     -229.37600577


--------------------------------------------------------------------------------------------------------




--------------------------------------- Iteration      1(  18)  ---------------------------------------


    POTLOK:  cpu time      0.4497: real time      0.4586
    SETDIJ:  cpu time     20.5582: real time     20.5603
     EDDAV:  cpu time     54.8774: real time     54.8882
 BZINTS: Fermi energy:    0.079450;  336.000000 electrons
         Band energy:-0.201069E+04;  BLOECHL correction:   -0.000000
       DOS:  cpu time      0.0290: real time      0.0290
    CHARGE:  cpu time     26.0443: real time     26.0479
    MIXING:  cpu time      0.0128: real time      0.0128
    --------------------------------------------
      LOOP:  cpu time    101.9715: real time    101.9970

 eigenvalue-minimisations  :  9536
 total energy-change (2. order) :-0.1154660E-03  (-0.3976456E-04)
 number of electron     335.9999997 magnetization       0.0051352
 augmentation part      -46.9850119 magnetization       0.0056760

 Broyden mixing:
  rms(total) = 0.44581E-02    rms(broyden)= 0.44580E-02
  rms(prec ) = 0.47114E-02
  weight for this iteration     100.00

 eigenvalues of (default mixing * dielectric matrix)
  average eigenvalue GAMMA=   1.5442
  5.0023  2.6445  2.6445  2.2629  1.1300  1.1300  0.9905  0.9905  0.7251  0.7251
  0.5782  0.6444  0.6066

 Free energy of the ion-electron system (eV)
  ---------------------------------------------------
  alpha Z        PSCENC =       253.99581917
  Ewald energy   TEWEN  =     -9970.80303963
  -Hartree energ DENC   =     -4867.66630519
  -exchange      EXHF   =         0.00000000
  -V(xc)+E(xc)   XCENC  =       689.17755517
  PAW double counting   =     39213.59366024   -39038.98155709
  entropy T*S    EENTRO =         0.00000000
  eigenvalues    EBANDS =     -2010.69155084
  atomic energy  EATOM  =     15501.99929693
  Solvation  Ediel_sol  =         0.00000000
  ---------------------------------------------------
  free energy    TOTEN  =      -229.37612124 eV

  energy without entropy =     -229.37612124  energy(sigma->0) =     -229.37612124


--------------------------------------------------------------------------------------------------------




--------------------------------------- Iteration      1(  19)  ---------------------------------------


    POTLOK:  cpu time      0.4174: real time      0.4181
    SETDIJ:  cpu time     20.8798: real time     20.8823
     EDDAV:  cpu time     57.4300: real time     57.4409
 BZINTS: Fermi energy:    0.078801;  336.000000 electrons
         Band energy:-0.201095E+04;  BLOECHL correction:    0.000000
       DOS:  cpu time      0.0265: real time      0.0266
    CHARGE:  cpu time     18.5414: real time     18.5434
    MIXING:  cpu time      0.0219: real time      0.0219
    --------------------------------------------
      LOOP:  cpu time     97.3170: real time     97.3332

 eigenvalue-minimisations  :  9760
 total energy-change (2. order) :-0.6085411E-05  (-0.6232630E-05)
 number of electron     335.9999997 magnetization      -0.0005392
 augmentation part      -46.9858467 magnetization      -0.0002975

 Broyden mixing:
  rms(total) = 0.20246E-02    rms(broyden)= 0.20245E-02
  rms(prec ) = 0.22001E-02
  weight for this iteration     100.00

 eigenvalues of (default mixing * dielectric matrix)
  average eigenvalue GAMMA=   1.5452
  5.0453  2.7063  2.7063  2.1077  1.4086  1.4086  1.0322  1.0322  0.8587  0.7537
  0.7537  0.5796  0.6094  0.6309

 Free energy of the ion-electron system (eV)
  ---------------------------------------------------
  alpha Z        PSCENC =       253.99581917
  Ewald energy   TEWEN  =     -9970.80303963
  -Hartree energ DENC   =     -4867.39160863
  -exchange      EXHF   =         0.00000000
  -V(xc)+E(xc)   XCENC  =       689.16061645
  PAW double counting   =     39212.22468689   -39037.60944079
  entropy T*S    EENTRO =         0.00000000
  eigenvalues    EBANDS =     -2010.95245772
  atomic energy  EATOM  =     15501.99929693
  Solvation  Ediel_sol  =         0.00000000
  ---------------------------------------------------
  free energy    TOTEN  =      -229.37612732 eV

  energy without entropy =     -229.37612732  energy(sigma->0) =     -229.37612732


--------------------------------------------------------------------------------------------------------




--------------------------------------- Iteration      1(  20)  ---------------------------------------


    POTLOK:  cpu time      0.4188: real time      0.4223
    SETDIJ:  cpu time     20.6027: real time     20.6055
     EDDAV:  cpu time     56.0077: real time     56.0192
 BZINTS: Fermi energy:    0.078445;  336.000000 electrons
         Band energy:-0.201109E+04;  BLOECHL correction:    0.000000
       DOS:  cpu time      0.0271: real time      0.0272
    CHARGE:  cpu time     24.2179: real time     24.2206
    MIXING:  cpu time      0.0160: real time      0.0160
    --------------------------------------------
      LOOP:  cpu time    101.2902: real time    101.3107

 eigenvalue-minimisations  :  9216
 total energy-change (2. order) :-0.1059362E-04  (-0.3477407E-05)
 number of electron     335.9999997 magnetization      -0.0016417
 augmentation part      -46.9863766 magnetization      -0.0015631

 Broyden mixing:
  rms(total) = 0.95320E-03    rms(broyden)= 0.95308E-03
  rms(prec ) = 0.10127E-02
  weight for this iteration     100.00

 eigenvalues of (default mixing * dielectric matrix)
  average eigenvalue GAMMA=   1.5469
  5.0952  2.7074  2.7074  2.0990  2.0990  1.2300  1.2300  0.9900  0.9900  0.7800
  0.7329  0.7329  0.5776  0.6158  0.6158

 Free energy of the ion-electron system (eV)
  ---------------------------------------------------
  alpha Z        PSCENC =       253.99581917
  Ewald energy   TEWEN  =     -9970.80303963
  -Hartree energ DENC   =     -4867.24846751
  -exchange      EXHF   =         0.00000000
  -V(xc)+E(xc)   XCENC  =       689.15358620
  PAW double counting   =     39217.41762265   -39042.80046469
  entropy T*S    EENTRO =         0.00000000
  eigenvalues    EBANDS =     -2011.09049103
  atomic energy  EATOM  =     15501.99929693
  Solvation  Ediel_sol  =         0.00000000
  ---------------------------------------------------
  free energy    TOTEN  =      -229.37613792 eV

  energy without entropy =     -229.37613792  energy(sigma->0) =     -229.37613792


--------------------------------------------------------------------------------------------------------




--------------------------------------- Iteration      1(  21)  ---------------------------------------


    POTLOK:  cpu time      0.4222: real time      0.4229
    SETDIJ:  cpu time     22.6845: real time     22.6867
     EDDAV:  cpu time     56.9704: real time     56.9819
 BZINTS: Fermi energy:    0.078391;  336.000000 electrons
         Band energy:-0.201115E+04;  BLOECHL correction:    0.000000
       DOS:  cpu time      0.0257: real time      0.0258
    CHARGE:  cpu time     26.1692: real time     26.1727
    MIXING:  cpu time      0.0175: real time      0.0175
    --------------------------------------------
      LOOP:  cpu time    106.2896: real time    106.3076

 eigenvalue-minimisations  :  9280
 total energy-change (2. order) : 0.1139710E-05  (-0.8898040E-06)
 number of electron     335.9999997 magnetization      -0.0013519
 augmentation part      -46.9865724 magnetization      -0.0013559

 Broyden mixing:
  rms(total) = 0.42566E-03    rms(broyden)= 0.42538E-03
  rms(prec ) = 0.44778E-03
  weight for this iteration     100.00

 eigenvalues of (default mixing * dielectric matrix)
  average eigenvalue GAMMA=   1.5117
  5.0970  2.6673  2.6673  2.5704  1.6145  1.3987  1.1557  1.1557  0.9275  0.9275
  0.7392  0.7392  0.7250  0.5773  0.6126  0.6126

 Free energy of the ion-electron system (eV)
  ---------------------------------------------------
  alpha Z        PSCENC =       253.99581917
  Ewald energy   TEWEN  =     -9970.80303963
  -Hartree energ DENC   =     -4867.18886799
  -exchange      EXHF   =         0.00000000
  -V(xc)+E(xc)   XCENC  =       689.14992879
  PAW double counting   =     39216.84824185   -39042.23026832
  entropy T*S    EENTRO =         0.00000000
  eigenvalues    EBANDS =     -2011.14724757
  atomic energy  EATOM  =     15501.99929693
  Solvation  Ediel_sol  =         0.00000000
  ---------------------------------------------------
  free energy    TOTEN  =      -229.37613678 eV

  energy without entropy =     -229.37613678  energy(sigma->0) =     -229.37613678


--------------------------------------------------------------------------------------------------------




--------------------------------------- Iteration      1(  22)  ---------------------------------------


    POTLOK:  cpu time      0.4128: real time      0.4240
    SETDIJ:  cpu time     25.2670: real time     25.2702
     EDDAV:  cpu time     55.8340: real time     55.8446
 BZINTS: Fermi energy:    0.078213;  336.000000 electrons
         Band energy:-0.201117E+04;  BLOECHL correction:    0.000000
       DOS:  cpu time      0.0259: real time      0.0259
    CHARGE:  cpu time     17.9143: real time     17.9165
    MIXING:  cpu time      0.0174: real time      0.0174
    --------------------------------------------
      LOOP:  cpu time     99.4715: real time     99.4986

 eigenvalue-minimisations  :  9792
 total energy-change (2. order) : 0.4522262E-06  (-0.1415503E-06)
 number of electron     335.9999997 magnetization      -0.0004758
 augmentation part      -46.9866414 magnetization      -0.0004974

 Broyden mixing:
  rms(total) = 0.23168E-03    rms(broyden)= 0.23118E-03
  rms(prec ) = 0.24584E-03
  weight for this iteration     100.00

 eigenvalues of (default mixing * dielectric matrix)
  average eigenvalue GAMMA=   1.5004
  5.0913  2.6559  2.6559  2.6244  1.6723  1.4404  1.4404  1.0824  1.0824  0.9005
  0.9005  0.7422  0.7422  0.6730  0.5784  0.6126  0.6126

 Free energy of the ion-electron system (eV)
  ---------------------------------------------------
  alpha Z        PSCENC =       253.99581917
  Ewald energy   TEWEN  =     -9970.80303963
  -Hartree energ DENC   =     -4867.16718193
  -exchange      EXHF   =         0.00000000
  -V(xc)+E(xc)   XCENC  =       689.14834361
  PAW double counting   =     39215.43400826   -39040.81572901
  entropy T*S    EENTRO =         0.00000000
  eigenvalues    EBANDS =     -2011.16765373
  atomic energy  EATOM  =     15501.99929693
  Solvation  Ediel_sol  =         0.00000000
  ---------------------------------------------------
  free energy    TOTEN  =      -229.37613632 eV

  energy without entropy =     -229.37613632  energy(sigma->0) =     -229.37613632


--------------------------------------------------------------------------------------------------------




--------------------------------------- Iteration      1(  23)  ---------------------------------------


    POTLOK:  cpu time      0.4314: real time      0.4323
    SETDIJ:  cpu time     17.8801: real time     17.8822
     EDDAV:  cpu time     56.2231: real time     56.2339
 BZINTS: Fermi energy:    0.078251;  336.000000 electrons
         Band energy:-0.201116E+04;  BLOECHL correction:    0.000000
       DOS:  cpu time      0.0257: real time      0.0257
    CHARGE:  cpu time     26.3351: real time     26.3385
    MIXING:  cpu time      0.0301: real time      0.0301
    --------------------------------------------
      LOOP:  cpu time    100.9255: real time    100.9427

 eigenvalue-minimisations  :  9216
 total energy-change (2. order) :-0.2261804E-06  (-0.5737927E-07)
 number of electron     335.9999997 magnetization      -0.0002610
 augmentation part      -46.9866146 magnetization      -0.0002572

 Broyden mixing:
[...]

  length of vectors
    10.314108670 16.788494411 10.846477853     0.097707938  0.059564603  0.092912216


 FORCES acting on ions
    electron-ion (+dipol)            ewald-force                    non-local-force                 convergence-correction
 -----------------------------------------------------------------------------------------------
   0.987E+02 -.105E+03 -.125E+02   -.104E+03 0.113E+03 0.112E+02   0.495E+01 -.888E+01 0.132E+01   0.177E-05 -.302E-06 0.763E-06
   0.987E+02 -.105E+03 -.125E+02   -.104E+03 0.113E+03 0.112E+02   0.495E+01 -.888E+01 0.132E+01   0.159E-05 -.267E-06 0.845E-06
   -.137E+02 0.425E+02 -.127E+03   0.140E+02 -.477E+02 0.134E+03   -.142E+00 0.518E+01 -.701E+01   0.969E-07 0.762E-08 -.115E-05
   -.123E+02 0.420E+02 -.127E+03   0.126E+02 -.472E+02 0.134E+03   -.246E+00 0.519E+01 -.705E+01   0.141E-06 0.343E-07 -.125E-05
   -.212E+02 -.902E+02 0.981E+02   0.198E+02 0.989E+02 -.103E+03   0.134E+01 -.874E+01 0.530E+01   -.876E-07 -.553E-07 0.177E-05
   -.211E+02 -.902E+02 0.981E+02   0.198E+02 0.989E+02 -.103E+03   0.134E+01 -.874E+01 0.530E+01   -.259E-07 -.775E-07 0.189E-05
   -.108E+03 0.949E+02 0.608E+01   0.114E+03 -.101E+03 -.397E+01   -.534E+01 0.595E+01 -.210E+01   -.161E-05 -.333E-07 0.680E-06
   -.108E+03 0.950E+02 0.626E+01   0.114E+03 -.101E+03 -.415E+01   -.534E+01 0.592E+01 -.212E+01   -.178E-05 0.225E-08 0.667E-06
   0.136E+03 -.540E+02 -.186E+02   -.143E+03 0.595E+02 0.192E+02   0.680E+01 -.552E+01 -.558E+00   0.158E-05 -.953E-08 -.101E-05
   0.136E+03 -.539E+02 -.187E+02   -.143E+03 0.595E+02 0.193E+02   0.680E+01 -.552E+01 -.558E+00   0.162E-05 0.877E-08 -.100E-05
   -.136E+03 0.540E+02 0.187E+02   0.143E+03 -.595E+02 -.193E+02   -.680E+01 0.552E+01 0.558E+00   -.153E-05 -.279E-07 0.101E-05
   -.136E+03 0.540E+02 0.187E+02   0.143E+03 -.595E+02 -.193E+02   -.680E+01 0.552E+01 0.558E+00   -.165E-05 -.411E-07 0.101E-05
   0.108E+03 -.950E+02 -.625E+01   -.114E+03 0.101E+03 0.414E+01   0.534E+01 -.592E+01 0.212E+01   0.165E-05 0.249E-07 -.687E-06
   0.108E+03 -.950E+02 -.625E+01   -.114E+03 0.101E+03 0.414E+01   0.534E+01 -.592E+01 0.212E+01   0.174E-05 0.924E-08 -.669E-06
   -.123E+02 -.420E+02 0.127E+03   0.125E+02 0.472E+02 -.134E+03   -.246E+00 -.519E+01 0.705E+01   0.165E-06 -.930E-08 0.115E-05
   -.123E+02 -.420E+02 0.127E+03   0.125E+02 0.471E+02 -.134E+03   -.247E+00 -.519E+01 0.705E+01   0.333E-07 0.543E-07 0.127E-05
   0.210E+02 -.902E+02 0.981E+02   -.197E+02 0.989E+02 -.103E+03   -.133E+01 -.873E+01 0.531E+01   0.463E-07 -.262E-07 0.176E-05
   0.212E+02 -.902E+02 0.981E+02   -.198E+02 0.989E+02 -.103E+03   -.134E+01 -.874E+01 0.530E+01   0.105E-06 0.188E-07 0.187E-05
   -.983E+02 -.104E+03 -.133E+02   0.103E+03 0.113E+03 0.120E+02   -.493E+01 -.887E+01 0.130E+01   -.161E-05 -.206E-06 0.785E-06
   -.986E+02 -.105E+03 -.125E+02   0.104E+03 0.113E+03 0.112E+02   -.495E+01 -.888E+01 0.132E+01   -.174E-05 -.216E-06 0.782E-06
   -.136E+03 -.539E+02 -.187E+02   0.143E+03 0.595E+02 0.192E+02   -.680E+01 -.552E+01 -.558E+00   -.153E-05 0.124E-07 -.100E-05
   -.136E+03 -.540E+02 -.187E+02   0.143E+03 0.595E+02 0.193E+02   -.680E+01 -.552E+01 -.558E+00   -.167E-05 -.237E-07 -.103E-05
   0.123E+02 0.420E+02 -.127E+03   -.126E+02 -.472E+02 0.134E+03   0.246E+00 0.519E+01 -.705E+01   -.158E-06 -.266E-07 -.109E-05
   0.124E+02 0.420E+02 -.127E+03   -.126E+02 -.472E+02 0.134E+03   0.246E+00 0.519E+01 -.705E+01   -.518E-07 -.685E-07 -.125E-05
   -.108E+03 -.950E+02 -.634E+01   0.114E+03 0.101E+03 0.422E+01   -.534E+01 -.592E+01 0.212E+01   -.177E-05 0.941E-07 -.708E-06
   -.108E+03 -.950E+02 -.624E+01   0.114E+03 0.101E+03 0.413E+01   -.534E+01 -.592E+01 0.212E+01   -.160E-05 0.895E-07 -.669E-06
   0.986E+02 0.105E+03 0.126E+02   -.104E+03 -.113E+03 -.112E+02   0.495E+01 0.888E+01 -.132E+01   0.165E-05 0.250E-06 -.770E-06
   0.987E+02 0.105E+03 0.125E+02   -.104E+03 -.113E+03 -.112E+02   0.495E+01 0.888E+01 -.132E+01   0.173E-05 0.263E-06 -.791E-06
   -.986E+02 0.105E+03 0.125E+02   0.104E+03 -.114E+03 -.111E+02   -.495E+01 0.888E+01 -.132E+01   -.176E-05 0.257E-06 -.743E-06
   -.986E+02 0.105E+03 0.126E+02   0.104E+03 -.113E+03 -.112E+02   -.495E+01 0.888E+01 -.132E+01   -.161E-05 0.209E-06 -.818E-06
   0.728E+02 0.961E+02 0.633E+02   -.755E+02 -.106E+03 -.654E+02   0.274E+01 0.971E+01 0.207E+01   0.884E-06 0.378E-06 0.536E-06
   0.728E+02 0.962E+02 0.632E+02   -.756E+02 -.106E+03 -.653E+02   0.274E+01 0.971E+01 0.207E+01   0.834E-06 0.387E-06 0.579E-06
   0.218E+02 -.938E+02 -.889E+02   -.205E+02 0.100E+03 0.940E+02   -.133E+01 -.628E+01 -.509E+01   0.325E-06 0.779E-07 -.146E-05
   0.218E+02 -.938E+02 -.889E+02   -.205E+02 0.100E+03 0.940E+02   -.133E+01 -.628E+01 -.509E+01   0.260E-06 0.576E-07 -.150E-05
   -.211E+02 0.902E+02 -.981E+02   0.198E+02 -.989E+02 0.103E+03   0.134E+01 0.874E+01 -.530E+01   -.244E-07 0.701E-07 -.182E-05
   -.211E+02 0.902E+02 -.981E+02   0.198E+02 -.989E+02 0.103E+03   0.134E+01 0.874E+01 -.530E+01   -.133E-06 0.344E-07 -.190E-05
   -.219E+02 0.938E+02 0.889E+02   0.206E+02 -.100E+03 -.940E+02   0.133E+01 0.628E+01 0.508E+01   -.291E-06 -.779E-07 0.141E-05
   -.218E+02 0.938E+02 0.889E+02   0.205E+02 -.100E+03 -.940E+02   0.133E+01 0.628E+01 0.509E+01   -.283E-06 -.685E-07 0.148E-05
   0.211E+02 0.902E+02 -.981E+02   -.198E+02 -.989E+02 0.103E+03   -.134E+01 0.874E+01 -.530E+01   0.114E-06 0.935E-08 -.180E-05
   0.211E+02 0.902E+02 -.981E+02   -.198E+02 -.989E+02 0.103E+03   -.134E+01 0.874E+01 -.530E+01   0.507E-08 0.363E-07 -.190E-05
   0.732E+02 -.968E+02 -.627E+02   -.760E+02 0.107E+03 0.648E+02   0.269E+01 -.968E+01 -.209E+01   0.814E-06 -.407E-06 -.464E-06
   0.728E+02 -.961E+02 -.633E+02   -.756E+02 0.106E+03 0.653E+02   0.274E+01 -.971E+01 -.207E+01   0.920E-06 -.358E-06 -.599E-06
   0.136E+03 0.540E+02 0.189E+02   -.143E+03 -.595E+02 -.195E+02   0.678E+01 0.551E+01 0.529E+00   0.153E-05 0.176E-07 0.997E-06
   0.136E+03 0.540E+02 0.187E+02   -.143E+03 -.595E+02 -.192E+02   0.680E+01 0.552E+01 0.558E+00   0.168E-05 0.389E-07 0.100E-05
   0.108E+03 0.950E+02 0.624E+01   -.114E+03 -.101E+03 -.412E+01   0.534E+01 0.592E+01 -.212E+01   0.178E-05 -.613E-07 0.692E-06
   0.108E+03 0.950E+02 0.627E+01   -.114E+03 -.101E+03 -.415E+01   0.534E+01 0.592E+01 -.212E+01   0.157E-05 -.822E-07 0.679E-06
   -.729E+02 -.961E+02 -.632E+02   0.756E+02 0.106E+03 0.653E+02   -.274E+01 -.971E+01 -.207E+01   -.854E-06 -.437E-06 -.483E-06
   -.727E+02 -.961E+02 -.633E+02   0.755E+02 0.106E+03 0.653E+02   -.274E+01 -.971E+01 -.207E+01   -.864E-06 -.446E-06 -.561E-06
   -.218E+02 -.938E+02 -.889E+02   0.205E+02 0.100E+03 0.940E+02   0.133E+01 -.628E+01 -.509E+01   -.234E-06 0.118E-06 -.140E-05
   -.218E+02 -.938E+02 -.889E+02   0.205E+02 0.100E+03 0.940E+02   0.133E+01 -.628E+01 -.509E+01   -.375E-06 0.146E-06 -.155E-05
   0.218E+02 0.938E+02 0.889E+02   -.205E+02 -.100E+03 -.940E+02   -.133E+01 0.628E+01 0.509E+01   0.228E-06 -.131E-06 0.136E-05
   0.218E+02 0.938E+02 0.889E+02   -.205E+02 -.100E+03 -.940E+02   -.133E+01 0.628E+01 0.509E+01   0.356E-06 -.131E-06 0.152E-05
   -.727E+02 0.962E+02 0.633E+02   0.755E+02 -.106E+03 -.654E+02   -.274E+01 0.971E+01 0.207E+01   -.816E-06 0.461E-06 0.495E-06
   -.727E+02 0.961E+02 0.632E+02   0.755E+02 -.106E+03 -.653E+02   -.274E+01 0.971E+01 0.207E+01   -.929E-06 0.409E-06 0.603E-06
   0.123E+02 -.419E+02 0.127E+03   -.126E+02 0.471E+02 -.134E+03   0.246E+00 -.519E+01 0.705E+01   -.565E-07 0.143E-07 0.120E-05
   0.124E+02 -.420E+02 0.127E+03   -.126E+02 0.472E+02 -.134E+03   0.246E+00 -.519E+01 0.705E+01   -.159E-06 -.146E-07 0.126E-05
 -----------------------------------------------------------------------------------------------
   -.546E-01 -.402E-01 0.854E-02   0.348E-12 -.121E-12 0.853E-13   0.546E-01 0.402E-01 -.854E-02   0.393E-08 -.133E-07 0.101E-07


 POSITION                                       TOTAL-FORCE (eV/Angst)
 -----------------------------------------------------------------------------------
      7.84031      7.96182     -7.59135         0.002495     -0.001275      0.000942
     16.23455      7.96182     -7.59135         0.002452     -0.001227      0.000842
      3.15872      2.44282     -6.01943         0.091796     -0.029760      0.007193
     11.56297      2.44282     -6.01943         0.002107     -0.000867     -0.002514
      1.76685      7.82725    -10.10485        -0.000202      0.000064     -0.000569
     10.16110      7.82725    -10.10485        -0.000063      0.000013     -0.000470
      5.05050      1.12562     -8.40433        -0.003774      0.018489      0.012486
     13.44475      1.12562     -8.40433         0.001530     -0.000623     -0.000690
      5.13205      1.09979     -2.45651        -0.000085      0.000424     -0.000414
     13.52630      1.09979     -2.45651        -0.000130      0.000367     -0.000362
      3.26219      7.47505     -8.62356         0.000197     -0.000616      0.000353
     11.65644      7.47505     -8.62356         0.000095     -0.000453      0.000283
      3.34375      7.44923     -2.67574        -0.001525      0.000612      0.000737
     11.73799      7.44923     -2.67574        -0.001595      0.000650      0.000664
      7.36585      0.97835     -4.87422         0.002001      0.001143      0.002513
     15.76010      0.97835     -4.87422         0.002001      0.000563      0.002594
      2.43027      2.67356     -9.91842         0.002114     -0.001933      0.002354
     10.82452      2.67356     -9.91842         0.000037     -0.000005     -0.000460
      4.75106      2.80814     -7.40493        -0.026031     -0.024201      0.011666
     13.14531      2.80814     -7.40493        -0.002419     -0.001328      0.000877
      7.45932      6.25348     -2.64294         0.000039      0.000483     -0.000369
     15.85356      6.25348     -2.64294         0.000111      0.000439     -0.000250
      1.02840      7.59650     -6.20585        -0.002106     -0.000863     -0.002419
      9.42265      7.59650     -6.20585        -0.002134     -0.000876     -0.002511
      0.85338      2.29554     -2.48931         0.001542      0.000758      0.000896
      9.24762      2.29554     -2.48931         0.001607      0.000734      0.000627
      3.64318      5.76671     -3.67515         0.002297      0.001391     -0.000797
     12.03743      5.76671     -3.67515         0.002484      0.001266     -0.000938
      0.55394      0.61303     -3.48872        -0.002551      0.001153     -0.000908
      8.94819      0.61303     -3.48872        -0.002595      0.001047     -0.000945
      5.79350     -0.03143     -4.03202        -0.001258      0.001797      0.000294
     14.18775     -0.03143     -4.03202        -0.001371      0.001944      0.000231
      4.85766      7.53946     -1.03917        -0.003890      0.002065     -0.000283
     13.25190      7.53946     -1.03917        -0.003903      0.001995     -0.000304
      5.96398      5.90128     -1.16165        -0.000121      0.000033      0.000471
     14.35822      5.90128     -1.16165        -0.000051      0.000022      0.000494
      3.53659      1.03539    -10.04090         0.005157     -0.001775     -0.000114
     11.93084      1.03539    -10.04090         0.003968     -0.002047      0.000305
      6.62739      0.74760     -0.97522         0.000046     -0.000092      0.000495
     15.02164      0.74760     -0.97522         0.000125      0.000038      0.000434
      1.59638      3.45260     -6.86163        -0.048716      0.039602     -0.016404
      9.99063      3.45260     -6.86163        -0.001235     -0.001796     -0.000217
      0.93493      2.32137     -8.43713        -0.015661     -0.006837     -0.019760
      9.32918      2.32137     -8.43713        -0.000060     -0.000416      0.000286
      7.54087      6.27930     -8.59076        -0.001615     -0.000655     -0.000692
     15.93512      6.27930     -8.59076        -0.001657     -0.000632     -0.000672
      2.60074      8.60628     -7.04805         0.001105     -0.001913     -0.000244
     10.99499      8.60628     -7.04805         0.001202     -0.001777     -0.000229
      7.73371      2.38578     -0.85274         0.003981      0.002100     -0.000263
     16.12796      2.38578     -0.85274         0.004008      0.001978     -0.000274
      0.66053      6.18907    -10.22733        -0.003778     -0.002067      0.000330
      9.05478      6.18907    -10.22733        -0.003935     -0.002044      0.000280
      6.79787      5.12225     -4.21845         0.001381      0.001575      0.000309
     15.19211      5.12225     -4.21845         0.001160      0.001819      0.000283
      5.22552      6.13203     -5.06065        -0.002406      0.000634      0.002364
     13.61977      6.13203     -5.06065        -0.002170      0.000884      0.002468
 -----------------------------------------------------------------------------------
    total drift:                               -0.000012      0.000000      0.000001


--------------------------------------------------------------------------------------------------------



  FREE ENERGIE OF THE ION-ELECTRON SYSTEM (eV)
  ---------------------------------------------------
  free  energy   TOTEN  =      -229.37613635 eV

  energy  without entropy=     -229.37613635  energy(sigma->0) =     -229.37613635



--------------------------------------------------------------------------------------------------------


    POTLOK:  cpu time     18.9450: real time     18.9537


--------------------------------------------------------------------------------------------------------


     LOOP+:  cpu time   3644.4689: real time   3645.1721
    4ORBIT:  cpu time      0.0000: real time      0.0000



 total charge

# of ion       s       p       d       tot
------------------------------------------
    1        1.376   2.247   0.000   3.623
    2        1.376   2.247   0.000   3.623
    3        1.376   2.259   0.000   3.636
    4        1.376   2.258   0.000   3.635
    5        1.376   2.247   0.000   3.623
    6        1.376   2.247   0.000   3.623
    7        1.375   2.262   0.000   3.637
    8        1.375   2.262   0.000   3.638
    9        1.377   2.257   0.000   3.634
   10        1.377   2.257   0.000   3.634
   11        1.377   2.257   0.000   3.634
   12        1.377   2.257   0.000   3.634
   13        1.375   2.262   0.000   3.638
   14        1.375   2.262   0.000   3.638
   15        1.376   2.258   0.000   3.635
   16        1.376   2.258   0.000   3.635
   17        1.376   2.246   0.000   3.622
   18        1.376   2.247   0.000   3.623
   19        1.376   2.246   0.000   3.622
   20        1.376   2.247   0.000   3.623
   21        1.377   2.257   0.000   3.634
   22        1.377   2.257   0.000   3.634
   23        1.376   2.258   0.000   3.635
   24        1.376   2.258   0.000   3.635
   25        1.375   2.262   0.000   3.638
   26        1.375   2.262   0.000   3.638
   27        1.376   2.247   0.000   3.623
   28        1.376   2.247   0.000   3.623
   29        1.376   2.247   0.000   3.623
   30        1.376   2.247   0.000   3.623
   31        1.376   2.254   0.000   3.630
   32        1.376   2.254   0.000   3.630
   33        1.375   2.263   0.000   3.638
   34        1.375   2.263   0.000   3.638
   35        1.376   2.247   0.000   3.623
   36        1.376   2.247   0.000   3.622
   37        1.375   2.263   0.000   3.638
   38        1.375   2.263   0.000   3.638
   39        1.376   2.247   0.000   3.623
   40        1.376   2.247   0.000   3.623
   41        1.375   2.257   0.000   3.632
   42        1.376   2.254   0.000   3.630
   43        1.377   2.258   0.000   3.635
   44        1.377   2.257   0.000   3.634
   45        1.375   2.262   0.000   3.638
   46        1.375   2.262   0.000   3.638
   47        1.376   2.254   0.000   3.630
   48        1.376   2.254   0.000   3.630
   49        1.375   2.263   0.000   3.638
   50        1.375   2.263   0.000   3.638
   51        1.375   2.263   0.000   3.638
   52        1.375   2.263   0.000   3.638
   53        1.376   2.254   0.000   3.630
   54        1.376   2.254   0.000   3.630
   55        1.376   2.258   0.000   3.635
   56        1.376   2.258   0.000   3.635
--------------------------------------------------
tot         77.049 126.314   0.000 203.363



 magnetization (x)

# of ion       s       p       d       tot
------------------------------------------
    1        0.000   0.000   0.000   0.000
    2        0.000   0.000   0.000   0.000
    3        0.000   0.000   0.000   0.000
    4        0.000   0.000   0.000   0.000
    5        0.000   0.000   0.000   0.000
    6        0.000   0.000   0.000   0.000
    7        0.000   0.000   0.000   0.000
    8        0.000   0.000   0.000   0.000
    9        0.000   0.000   0.000   0.000
   10        0.000   0.000   0.000   0.000
   11        0.000   0.000   0.000   0.000
   12        0.000   0.000   0.000   0.000
   13        0.000   0.000   0.000   0.000
   14        0.000   0.000   0.000   0.000
   15        0.000   0.000   0.000   0.000
   16        0.000   0.000   0.000   0.000
   17        0.000   0.000   0.000   0.000
   18        0.000   0.000   0.000   0.000
   19        0.000   0.000   0.000   0.000
   20        0.000   0.000   0.000   0.000
   21        0.000   0.000   0.000   0.000
   22        0.000   0.000   0.000   0.000
   23        0.000   0.000   0.000   0.000
   24        0.000   0.000   0.000   0.000
   25        0.000   0.000   0.000   0.000
   26        0.000   0.000   0.000   0.000
   27        0.000   0.000   0.000   0.000
   28        0.000   0.000   0.000   0.000
   29        0.000   0.000   0.000   0.000
   30        0.000   0.000   0.000   0.000
   31        0.000   0.000   0.000   0.000
   32        0.000   0.000   0.000   0.000
   33        0.000   0.000   0.000   0.000
   34        0.000   0.000   0.000   0.000
   35        0.000   0.000   0.000   0.000
   36        0.000   0.000   0.000   0.000
   37        0.000   0.000   0.000   0.000
   38        0.000   0.000   0.000   0.000
   39        0.000  -0.000   0.000   0.000
   40        0.000   0.000   0.000   0.000
   41        0.000   0.000   0.000   0.000
   42        0.000   0.000   0.000   0.000
   43        0.000   0.000   0.000   0.000
   44        0.000   0.000   0.000   0.000
   45        0.000   0.000   0.000   0.000
   46        0.000   0.000   0.000   0.000
   47        0.000   0.000   0.000   0.000
   48        0.000   0.000   0.000   0.000
   49        0.000   0.000   0.000   0.000
   50        0.000   0.000   0.000   0.000
   51        0.000   0.000   0.000   0.000
   52        0.000   0.000   0.000   0.000
   53        0.000   0.000   0.000   0.000
   54        0.000   0.000   0.000   0.000
   55        0.000   0.000   0.000   0.000
   56        0.000   0.000   0.000   0.000
--------------------------------------------------
tot          0.000   0.000   0.000   0.000

 BZINTS: Fermi energy:    0.078103;  336.000000 electrons
         Band energy:-0.201117E+04;  BLOECHL correction:    0.000000

 total amount of memory used by VASP MPI-rank0   322725. kBytes
=======================================================================

   base      :      30000. kBytes
   nonl-proj :      70692. kBytes
   fftplans  :      34504. kBytes
   grid      :      83442. kBytes
   one-center:        344. kBytes
   wavefun   :     103743. kBytes

  
  
 General timing and accounting informations for this job:
 ========================================================
  
                  Total CPU time used (sec):     3696.282
                            User time (sec):     3695.027
                          System time (sec):        1.255
                         Elapsed time (sec):     3697.829
  
                   Maximum memory used (kb):      613384.
                   Average memory used (kb):          N/A
  
                          Minor page faults:       434116
                          Major page faults:           22
                 Voluntary context switches:         7239
