 vasp.6.3.2 27Jun22 (build Mar 25 2024 10:42:18) complex                         
 executed on             LinuxGNU date 2024.03.31  14:11:05
 running on   32 total cores
 distrk:  each k-point on   32 cores,    1 groups
 distr:  one band on NCORE=   1 cores,   32 groups


--------------------------------------------------------------------------------------------------------


 INCAR:
   ISTART = 0
   ICHARG = 2
   PREC = Accurate
   IBRION = -1
   EDIFF = 0.000000001
   EDIFFG = -0.0005
   NSW = 0
   NELM = 100
   ENCUT = 520
   ISMEAR = -5
   SIGMA = 0.05
   ISPIN = 2
   ISYM = 0
   LWAVE = False
   LCHARG = False
   LASPH = True
   LORBIT = 11
   ADDGRID = TRUE

 POTCAR:    PAW_PBE S 06Sep2000                   
 -----------------------------------------------------------------------------
|                                                                             |
|           W    W    AA    RRRRR   N    N  II  N    N   GGGG   !!!           |
|           W    W   A  A   R    R  NN   N  II  NN   N  G    G  !!!           |
|           W    W  A    A  R    R  N N  N  II  N N  N  G       !!!           |
|           W WW W  AAAAAA  RRRRR   N  N N  II  N  N N  G  GGG   !            |
|           WW  WW  A    A  R   R   N   NN  II  N   NN  G    G                |
|           W    W  A    A  R    R  N    N  II  N    N   GGGG   !!!           |
|                                                                             |
|     You use a magnetic or noncollinear calculation, but did not specify     |
|     the initial magnetic moment with the MAGMOM tag. Note that a            |
|     default of 1 will be used for all atoms. This ferromagnetic setup       |
|     may break the symmetry of the crystal, in particular it may rule        |
|     out finding an antiferromagnetic solution. Thence, we recommend         |
|     setting the initial magnetic moment manually or verifying carefully     |
|     that this magnetic setup is desired.                                    |
|                                                                             |
 -----------------------------------------------------------------------------

 -----------------------------------------------------------------------------
|                                                                             |
|           W    W    AA    RRRRR   N    N  II  N    N   GGGG   !!!           |
|           W    W   A  A   R    R  NN   N  II  NN   N  G    G  !!!           |
|           W    W  A    A  R    R  N N  N  II  N N  N  G       !!!           |
|           W WW W  AAAAAA  RRRRR   N  N N  II  N  N N  G  GGG   !            |
|           WW  WW  A    A  R   R   N   NN  II  N   NN  G    G                |
|           W    W  A    A  R    R  N    N  II  N    N   GGGG   !!!           |
|                                                                             |
|     For optimal performance we recommend to set                             |
|       NCORE = 2 up to number-of-cores-per-socket                            |
|     NCORE specifies how many cores store one orbital (NPAR=cpu/NCORE).      |
|     This setting can greatly improve the performance of VASP for DFT.       |
|     The default, NCORE=1 might be grossly inefficient on modern             |
|     multi-core architectures or massively parallel machines. Do your        |
|     own testing! More info at https://www.vasp.at/wiki/index.php/NCORE      |
|     Unfortunately you need to use the default for GW and RPA                |
|     calculations (for HF NCORE is supported but not extensively tested      |
|     yet).                                                                   |
|                                                                             |
 -----------------------------------------------------------------------------

 POTCAR:    PAW_PBE S 06Sep2000                   
   SHA256 =  0fc7481fb0695f01bdc6462160264c5c84044ae9ec85a907d398b887a2bc3132 S/POTCAR              
   COPYR  = (c) Copyright 06Sep2000 Georg Kresse                                                    
   COPYR  = This file is part of the software VASP. Any use, copying, and all other rights are regul
   COPYR  = If you do not have a valid VASP license, you may not use, copy or distribute this file. 
   VRHFIN =S : s2p4                                                                                 
   LEXCH  = PE                                                                                      
   EATOM  =   276.8230 eV,   20.3459 Ry                                                             
                                                                                                    
   TITEL  = PAW_PBE S 06Sep2000                                                                     
   LULTRA =        F    use ultrasoft PP ?                                                          
   IUNSCR =        1    unscreen: 0-lin 1-nonlin 2-no                                               
   RPACOR =    1.500    partial core radius                                                         
   POMASS =   32.066; ZVAL   =    6.000    mass and valenz                                          
   RCORE  =    1.900    outmost cutoff radius                                                       
   RWIGS  =    2.200; RWIGS  =    1.164    wigner-seitz radius (au A)                               
   ENMAX  =  258.689; ENMIN  =  194.016 eV                                                          
   ICORE  =        2    local potential                                                             
   LCOR   =        T    correct aug charges                                                         
   LPAW   =        T    paw PP                                                                      
   EAUG   =  335.092                                                                                
   DEXC   =    0.000                                                                                
   RMAX   =    1.942    core radius for proj-oper                                                   
   RAUG   =    1.300    factor for augmentation sphere                                              
   RDEP   =    1.954    radius for radial grids                                                     
   RDEPT  =    1.744    core radius for aug-charge                                                  
                                                                                                    
   Atomic configuration                                                                             
    6 entries                                                                                       
     n  l   j            E        occ.                                                              
     1  0  0.50     -2405.8406   2.0000                                                             
     2  0  0.50      -211.7007   2.0000                                                             
     2  1  1.50      -156.4958   6.0000                                                             
     3  0  0.50       -17.2562   2.0000                                                             
     3  1  0.50        -7.0085   4.0000                                                             
     3  2  1.50        -6.8029   0.0000                                                             
   Description                                                                                      
     l       E           TYP  RCUT    TYP  RCUT                                                     
     0    -17.2561641     23  1.900                                                                 
     0    -15.8743224     23  1.900                                                                 
     1     -7.0085400     23  1.900                                                                 
     1     -2.7779785     23  1.900                                                                 
     2     -6.8029130     23  1.900                                                                 
  local pseudopotential read in
  partial core-charges read in
  partial kinetic energy density read in
  atomic valenz-charges read in
  non local Contribution for L=           0  read in
    real space projection operators read in
  non local Contribution for L=           0  read in
    real space projection operators read in
  non local Contribution for L=           1  read in
    real space projection operators read in
  non local Contribution for L=           1  read in
    real space projection operators read in
    PAW grid and wavefunctions read in

   number of l-projection  operators is LMAX  =           4
   number of lm-projection operators is LMMAX =           8

 -----------------------------------------------------------------------------
|                                                                             |
|               ----> ADVICE to this user running VASP <----                  |
|                                                                             |
|     You have a (more or less) 'large supercell' and for larger cells it     |
|     might be more efficient to use real-space projection operators.         |
|     Therefore, try LREAL= Auto in the INCAR file.                           |
|     Mind: For very accurate calculation, you might also keep the            |
|     reciprocal projection scheme (i.e. LREAL=.FALSE.).                      |
|                                                                             |
 -----------------------------------------------------------------------------

  PAW_PBE S 06Sep2000                   :
 energy of atom  1       EATOM= -276.8230
 kinetic energy error for atom=    0.0016 (will be added to EATOM!!)


 POSCAR: generated by phonopy
  positions in direct lattice
  No initial velocities read in
 exchange correlation table for  LEXCH =        8
   RHO(1)=    0.500       N(1)  =     2000
   RHO(2)=  100.500       N(2)  =     4000



--------------------------------------------------------------------------------------------------------


 ion  position               nearest neighbor table
   1  0.886  0.467  0.678-  45 1.98  24 2.13
   2  0.886  0.967  0.678-  46 1.98  23 2.13
   3  0.330  0.189  0.551-  41 2.05  19 2.13
   4  0.330  0.689  0.551-  42 2.05  20 2.13
   5  0.913  0.105  0.911-  51 1.98  11 2.13
   6  0.913  0.605  0.912-  52 1.98  12 2.13
   7  0.240  0.301  0.777-  19 1.98  37 2.23
   8  0.240  0.801  0.777-  20 1.98  38 2.23
   9  0.144  0.306  0.224-  31 2.05  39 2.13
  10  0.144  0.806  0.224-  32 2.05  40 2.13
  11  0.856  0.194  0.776-  47 2.05   5 2.13
  12  0.856  0.694  0.776-  48 2.05   6 2.13
  13  0.760  0.199  0.223-  27 1.98  33 2.23
  14  0.760  0.699  0.223-  28 1.98  34 2.23
  15  0.170  0.439  0.449-  31 2.05  30 2.13
  16  0.170  0.939  0.449-  32 2.05  29 2.13
  17  0.413  0.145  0.912-  37 1.98  43 2.13
  18  0.413  0.645  0.912-  38 1.98  44 2.13
  19  0.386  0.283  0.678-   7 1.98   3 2.13
  20  0.386  0.783  0.678-   8 1.98   4 2.13
  21  0.644  0.444  0.224-  53 2.05  35 2.13
  22  0.644  0.944  0.224-  54 2.05  36 2.13
  23  0.830  0.061  0.551-  47 2.05   2 2.13
  24  0.830  0.561  0.551-  48 2.05   1 2.13
  25  0.260  0.051  0.223-  29 1.98  50 2.23
  26  0.260  0.551  0.223-  30 1.98  49 2.23
  27  0.614  0.217  0.322-  13 1.98  55 2.13
  28  0.614  0.717  0.322-  14 1.98  56 2.13
  29  0.114  0.033  0.322-  25 1.98  16 2.13
  30  0.114  0.533  0.322-  26 1.98  15 2.13
  31  0.060  0.345  0.374-   9 2.05  15 2.05
  32  0.060  0.845  0.374-  10 2.05  16 2.05
  33  0.743  0.289  0.071-  35 1.98  13 2.23
  34  0.743  0.789  0.071-  36 1.98  14 2.23
  35  0.587  0.355  0.088-  33 1.98  21 2.13
  36  0.587  0.855  0.088-  34 1.98  22 2.13
  37  0.257  0.211  0.929-  17 1.98   7 2.23
  38  0.257  0.711  0.929-  18 1.98   8 2.23
  39  0.087  0.395  0.088-  49 1.98   9 2.13
  40  0.087  0.895  0.088-  50 1.98  10 2.13
  41  0.440  0.095  0.626-  43 2.05   3 2.05
  42  0.440  0.595  0.626-  44 2.05   4 2.05
  43  0.356  0.056  0.776-  41 2.05  17 2.13
  44  0.356  0.556  0.776-  42 2.05  18 2.13
  45  0.740  0.449  0.777-   1 1.98  52 2.23
  46  0.740  0.949  0.777-   2 1.98  51 2.23
  47  0.940  0.155  0.626-  11 2.05  23 2.05
  48  0.940  0.655  0.626-  12 2.05  24 2.05
  49  0.243  0.461  0.071-  39 1.98  26 2.23
  50  0.243  0.961  0.071-  40 1.98  25 2.23
  51  0.757  0.039  0.929-   5 1.98  46 2.23
  52  0.757  0.539  0.929-   6 1.98  45 2.23
  53  0.560  0.405  0.374-  21 2.05  55 2.05
  54  0.560  0.905  0.374-  22 2.05  56 2.05
  55  0.670  0.311  0.449-  53 2.05  27 2.13
  56  0.670  0.811  0.449-  54 2.05  28 2.13


IMPORTANT INFORMATION: All symmetrisations will be switched off!
NOSYMM: (Re-)initialisation of all symmetry stuff for point group C_1.


----------------------------------------------------------------------------------------

                                     Primitive cell                                     

  volume of cell :    1863.6770

  direct lattice vectors                    reciprocal lattice vectors
     0.000000000 10.307367086 -0.372855731     0.000000000  0.096453423 -0.015606996
    16.788494411  0.000000000  0.000000000     0.059564603  0.000000000  0.000000000
     0.000000000 -1.732519801-10.707215182     0.000000000 -0.003358783 -0.092851486

  length of vectors
    10.314108670 16.788494411 10.846477853     0.097707938  0.059564603  0.092912216

  position of ions in fractional coordinates (direct lattice)
     0.886423141  0.467004751  0.678126386
     0.886423141  0.967004751  0.678126386
     0.329563264  0.188743823  0.550707721
     0.329563264  0.688743823  0.550707721
     0.912671285  0.105241885  0.911038513
     0.912671285  0.605241885  0.911960471
     0.239736405  0.300831047  0.776574189
     0.239736405  0.800831047  0.776574189
     0.144417516  0.305688762  0.224396680
     0.144417516  0.805688762  0.224396680
     0.855582484  0.194311238  0.775603320
     0.855582484  0.694311238  0.775603320
     0.760263595  0.199168953  0.223425811
     0.760263595  0.699168953  0.223425811
     0.170436736  0.438743823  0.449292279
     0.170436736  0.938743823  0.449292279
     0.412671285  0.144758115  0.911960471
     0.412671285  0.644758115  0.911960471
     0.386423141  0.282995249  0.678126386
     0.386423141  0.782995249  0.678126386
     0.644417516  0.444311238  0.224396680
     0.644417516  0.944311238  0.224396680
     0.829563264  0.061256177  0.550707721
     0.829563264  0.561256177  0.550707721
     0.260263595  0.050831047  0.223425811
     0.260263595  0.550831047  0.223425811
     0.613576859  0.217004751  0.321873614
     0.613576859  0.717004751  0.321873614
     0.113576859  0.032995249  0.321873614
     0.113576859  0.532995249  0.321873614
     0.059895700  0.345087734  0.374484367
     0.059895700  0.845087734  0.374484367
     0.743425210  0.289344343  0.071165234
     0.743425210  0.789344343  0.071165234
     0.587328715  0.355241885  0.088039529
     0.587328715  0.855241885  0.088039529
     0.256574790  0.210655657  0.928834766
     0.256574790  0.710655657  0.928834766
     0.087328715  0.394758115  0.088039529
     0.087328715  0.894758115  0.088039529
     0.440104300  0.095087734  0.625515633
     0.440104300  0.595087734  0.625515633
     0.355582484  0.055688762  0.775603320
     0.355582484  0.555688762  0.775603320
     0.739736405  0.449168953  0.776574189
     0.739736405  0.949168953  0.776574189
     0.940104300  0.154912266  0.625515633
     0.940104300  0.654912266  0.625515633
     0.243425210  0.460655657  0.071165234
     0.243425210  0.960655657  0.071165234
     0.756574790  0.039344343  0.928834766
     0.756574790  0.539344343  0.928834766
     0.559895700  0.404912266  0.374484367
     0.559895700  0.904912266  0.374484367
     0.670436736  0.311256177  0.449292279
     0.670436736  0.811256177  0.449292279

  ion indices of the primitive-cell ions
   primitive index   ion index
                 1           1
                 2           2
                 3           3
                 4           4
                 5           5
                 6           6
                 7           7
                 8           8
                 9           9
                10          10
                11          11
                12          12
                13          13
                14          14
                15          15
                16          16
                17          17
                18          18
                19          19
                20          20
                21          21
                22          22
                23          23
                24          24
                25          25
                26          26
                27          27
                28          28
                29          29
                30          30
                31          31
                32          32
                33          33
                34          34
                35          35
                36          36
                37          37
                38          38
                39          39
                40          40
                41          41
                42          42
                43          43
                44          44
                45          45
                46          46
                47          47
                48          48
                49          49
                50          50
                51          51
                52          52
                53          53
                54          54
                55          55
                56          56

----------------------------------------------------------------------------------------



 KPOINTS: pymatgen with grid density = 595 / numbe

Automatic generation of k-mesh.
 Grid dimensions read from file:
 generate k-points for:    2    2    2

 Generating k-lattice:

  Cartesian coordinates                     Fractional coordinates (reciprocal lattice)
     0.000000000  0.048226712 -0.007803498     0.500000000  0.000000000 -0.000000000
     0.029782301  0.000000000  0.000000000     0.000000000  0.500000000  0.000000000
     0.000000000 -0.001679391 -0.046425743    -0.000000000  0.000000000  0.500000000

  Length of vectors
     0.048853969  0.029782301  0.046456108

  Shift w.r.t. Gamma in fractional coordinates (k-lattice)
     0.000000000  0.000000000  0.000000000

 TETIRR: Found     24 inequivalent tetrahedra from       48
 
 Subroutine IBZKPT returns following result:
 ===========================================
 
 Found      8 irreducible k-points:
 
 Following reciprocal coordinates:
            Coordinates               Weight
  0.000000  0.000000  0.000000      1.000000
  0.500000  0.000000  0.000000      1.000000
  0.000000  0.500000  0.000000      1.000000
  0.500000  0.500000  0.000000      1.000000
  0.000000  0.000000  0.500000      1.000000
  0.500000  0.000000  0.500000      1.000000
  0.000000  0.500000  0.500000      1.000000
  0.500000  0.500000  0.500000      1.000000
 
 Following cartesian coordinates:
            Coordinates               Weight
  0.000000  0.000000 -0.000000      1.000000
  0.000000  0.048227 -0.007803      1.000000
  0.029782  0.000000 -0.000000      1.000000
  0.029782  0.048227 -0.007803      1.000000
  0.000000 -0.001679 -0.046426      1.000000
  0.000000  0.046547 -0.054229      1.000000
  0.029782 -0.001679 -0.046426      1.000000
  0.029782  0.046547 -0.054229      1.000000
 


--------------------------------------------------------------------------------------------------------




 Dimension of arrays:
   k-points           NKPTS =      8   k-points in BZ     NKDIM =      8   number of bands    NBANDS=    256
   number of dos      NEDOS =    301   number of ions     NIONS =     56
   non local maximal  LDIM  =      4   non local SUM 2l+1 LMDIM =      8
   total plane-waves  NPLWV = 846720
   max r-space proj   IRMAX =      1   max aug-charges    IRDMAX= 114695
   dimension x,y,z NGX =    80 NGY =  126 NGZ =   84
   dimension x,y,z NGXF=   160 NGYF=  252 NGZF=  168
   support grid    NGXF=   320 NGYF=  504 NGZF=  336
   ions per type =              56
   NGX,Y,Z   is equivalent  to a cutoff of  12.89, 12.48, 12.87 a.u.
   NGXF,Y,Z  is equivalent  to a cutoff of  25.79, 24.95, 25.75 a.u.

 SYSTEM =  unknown system                          
 POSCAR =  generated by phonopy                    

 Startparameter for this run:
   NWRITE =      2    write-flag & timer
   PREC   = accura    normal or accurate (medium, high low for compatibility)
   ISTART =      0    job   : 0-new  1-cont  2-samecut
   ICHARG =      2    charge: 1-file 2-atom 10-const
   ISPIN  =      2    spin polarized calculation?
   LNONCOLLINEAR =      F non collinear calculations
   LSORBIT =      F    spin-orbit coupling
   INIWAV =      1    electr: 0-lowe 1-rand  2-diag
   LASPH  =      T    aspherical Exc in radial PAW
 Electronic Relaxation 1
   ENCUT  =  520.0 eV  38.22 Ry    6.18 a.u.  19.18 31.22 20.17*2*pi/ulx,y,z
   ENINI  =  520.0     initial cutoff
   ENAUG  =  335.1 eV  augmentation charge cutoff
   NELM   =    100;   NELMIN=  2; NELMDL= -5     # of ELM steps 
   EDIFF  = 0.1E-08   stopping-criterion for ELM
   LREAL  =      F    real-space projection
   NLSPLINE    = F    spline interpolate recip. space projectors
   LCOMPAT=      F    compatible to vasp.4.4
   GGA_COMPAT  = T    GGA compatible to vasp.4.4-vasp.4.6
   LMAXPAW     = -100 max onsite density
   LMAXMIX     =    2 max onsite mixed and CHGCAR
   VOSKOWN=      0    Vosko Wilk Nusair interpolation
   ROPT   =    0.00000
 Ionic relaxation
   EDIFFG = -.5E-03   stopping-criterion for IOM
   NSW    =      0    number of steps for IOM
   NBLOCK =      1;   KBLOCK =      1    inner block; outer block 
   IBRION =     -1    ionic relax: 0-MD 1-quasi-New 2-CG
   NFREE  =      0    steps in history (QN), initial steepest desc. (CG)
   ISIF   =      2    stress and relaxation
   IWAVPR =     10    prediction:  0-non 1-charg 2-wave 3-comb
   ISYM   =      0    0-nonsym 1-usesym 2-fastsym
   LCORR  =      T    Harris-Foulkes like correction to forces

   POTIM  = 0.5000    time-step for ionic-motion
   TEIN   =    0.0    initial temperature
   TEBEG  =    0.0;   TEEND  =   0.0 temperature during run
   SMASS  =  -3.00    Nose mass-parameter (am)
   estimated Nose-frequenzy (Omega)   =  0.10E-29 period in steps = 0.13E+47 mass=  -0.243E-26a.u.
   SCALEE = 1.0000    scale energy and forces
   NPACO  =    256;   APACO  = 10.0  distance and # of slots for P.C.
   PSTRESS=    0.0 pullay stress

  Mass of Ions in am
   POMASS =  32.07
  Ionic Valenz
   ZVAL   =   6.00
  Atomic Wigner-Seitz radii
   RWIGS  =  -1.00
  virtual crystal weights 
   VCA    =   1.00
   NELECT =     336.0000    total number of electrons
   NUPDOWN=      -1.0000    fix difference up-down

 DOS related values:
   EMIN   =  10.00;   EMAX   =-10.00  energy-range for DOS
   EFERMI =   0.00
   ISMEAR =    -5;   SIGMA  =   0.05  broadening in eV -4-tet -1-fermi 0-gaus

 Electronic relaxation 2 (details)
   IALGO  =     38    algorithm
   LDIAG  =      T    sub-space diagonalisation (order eigenvalues)
   LSUBROT=      F    optimize rotation matrix (better conditioning)
   TURBO    =      0    0=normal 1=particle mesh
   IRESTART =      0    0=no restart 2=restart with 2 vectors
   NREBOOT  =      0    no. of reboots
   NMIN     =      0    reboot dimension
   EREF     =   0.00    reference energy to select bands
   IMIX   =      4    mixing-type and parameters
     AMIX     =   0.40;   BMIX     =  1.00
     AMIX_MAG =   1.60;   BMIX_MAG =  1.00
     AMIN     =   0.10
     WC   =   100.;   INIMIX=   1;  MIXPRE=   1;  MAXMIX= -45

 Intra band minimization:
   WEIMIN = 0.0000     energy-eigenvalue tresh-hold
   EBREAK =  0.98E-12  absolut break condition
   DEPER  =   0.30     relativ break condition  

   TIME   =   0.40     timestep for ELM

  volume/ion in A,a.u.               =      33.28       224.58
  Fermi-wavevector in a.u.,A,eV,Ry     =   0.924835  1.747685 11.637339  0.855320
  Thomas-Fermi vector in A             =   2.050624

 Write flags
   LWAVE        =      F    write WAVECAR
   LDOWNSAMPLE  =      F    k-point downsampling of WAVECAR
   LCHARG       =      F    write CHGCAR
   LVTOT        =      F    write LOCPOT, total local potential
   LVHAR        =      F    write LOCPOT, Hartree potential only
   LELF         =      F    write electronic localiz. function (ELF)
   LORBIT       =     11    0 simple, 1 ext, 2 COOP (PROOUT), +10 PAW based schemes


 Dipole corrections
   LMONO  =      F    monopole corrections only (constant potential shift)
   LDIPOL =      F    correct potential (dipole corrections)
   IDIPOL =      0    1-x, 2-y, 3-z, 4-all directions 
   EPSILON=  1.0000000 bulk dielectric constant

 Exchange correlation treatment:
   GGA     =    --    GGA type
   LEXCH   =     8    internal setting for exchange type
   LIBXC   =     F    Libxc                    
   VOSKOWN =     0    Vosko Wilk Nusair interpolation
   LHFCALC =     F    Hartree Fock is set to
   LHFONE  =     F    Hartree Fock one center treatment
   AEXX    =    0.0000 exact exchange contribution

 Linear response parameters
   LEPSILON=     F    determine dielectric tensor
   LRPA    =     F    only Hartree local field effects (RPA)
   LNABLA  =     F    use nabla operator in PAW spheres
   LVEL    =     F    velocity operator in full k-point grid
   CSHIFT  =0.1000    complex shift for real part using Kramers Kronig
   OMEGAMAX=  -1.0    maximum frequency
   DEG_THRESHOLD= 0.2000000E-02 threshold for treating states as degnerate
   RTIME   =   -0.100 relaxation time in fs
  (WPLASMAI=    0.000 imaginary part of plasma frequency in eV, 0.658/RTIME)
   DFIELD  = 0.0000000 0.0000000 0.0000000 field for delta impulse in time

  Optional k-point grid parameters
   LKPOINTS_OPT  =     F    use optional k-point grid
   KPOINTS_OPT_MODE=     1    mode for optional k-point grid

 Orbital magnetization related:
   ORBITALMAG=     F  switch on orbital magnetization
   LCHIMAG   =     F  perturbation theory with respect to B field
   DQ        =  0.001000  dq finite difference perturbation B field
   LLRAUG    =     F  two centre corrections for induced B field



--------------------------------------------------------------------------------------------------------


 Static calculation
 charge density and potential will be updated during run
 spin polarized calculation
 Variant of blocked Davidson
 Davidson routine will perform the subspace rotation
 perform sub-space diagonalisation
    after iterative eigenvector-optimisation
 modified Broyden-mixing scheme, WC =      100.0
 initial mixing is a Kerker type mixing with AMIX =  0.4000 and BMIX =      1.0000
 Hartree-type preconditioning will be used
 using additional bands           88
 reciprocal scheme for non local part
 use partial core corrections
 calculate Harris-corrections to forces   (improved forces if not selfconsistent)
 use gradient corrections 
 use of overlap-Matrix (Vanderbilt PP)
 Fermi weights with tetrahedron method with Bloechl corrections


--------------------------------------------------------------------------------------------------------


  energy-cutoff  :      520.00
  volume of cell :     1863.68
      direct lattice vectors                 reciprocal lattice vectors
     0.000000000 10.307367086 -0.372855731     0.000000000  0.096453423 -0.015606996
    16.788494411  0.000000000  0.000000000     0.059564603  0.000000000  0.000000000
     0.000000000 -1.732519801-10.707215182     0.000000000 -0.003358783 -0.092851486

  length of vectors
    10.314108670 16.788494411 10.846477853     0.097707938  0.059564603  0.092912216



 k-points in units of 2pi/SCALE and weight: pymatgen with grid density = 595 / numbe
   0.00000000  0.00000000 -0.00000000       0.125
   0.00000000  0.04822671 -0.00780350       0.125
   0.02978230  0.00000000 -0.00000000       0.125
   0.02978230  0.04822671 -0.00780350       0.125
   0.00000000 -0.00167939 -0.04642574       0.125
   0.00000000  0.04654732 -0.05422924       0.125
   0.02978230 -0.00167939 -0.04642574       0.125
   0.02978230  0.04654732 -0.05422924       0.125

 k-points in reciprocal lattice and weights: pymatgen with grid density = 595 / numbe
   0.00000000  0.00000000  0.00000000       0.125
   0.50000000  0.00000000  0.00000000       0.125
   0.00000000  0.50000000  0.00000000       0.125
   0.50000000  0.50000000  0.00000000       0.125
   0.00000000  0.00000000  0.50000000       0.125
   0.50000000  0.00000000  0.50000000       0.125
   0.00000000  0.50000000  0.50000000       0.125
   0.50000000  0.50000000  0.50000000       0.125

 position of ions in fractional coordinates (direct lattice) 
   0.88642314  0.46700475  0.67812639
   0.88642314  0.96700475  0.67812639
   0.32956326  0.18874382  0.55070772
   0.32956326  0.68874382  0.55070772
   0.91267129  0.10524188  0.91103851
   0.91267129  0.60524188  0.91196047
   0.23973640  0.30083105  0.77657419
   0.23973640  0.80083105  0.77657419
   0.14441752  0.30568876  0.22439668
   0.14441752  0.80568876  0.22439668
   0.85558248  0.19431124  0.77560332
   0.85558248  0.69431124  0.77560332
   0.76026360  0.19916895  0.22342581
   0.76026360  0.69916895  0.22342581
   0.17043674  0.43874382  0.44929228
   0.17043674  0.93874382  0.44929228
   0.41267129  0.14475812  0.91196047
   0.41267129  0.64475812  0.91196047
   0.38642314  0.28299525  0.67812639
   0.38642314  0.78299525  0.67812639
   0.64441752  0.44431124  0.22439668
   0.64441752  0.94431124  0.22439668
   0.82956326  0.06125618  0.55070772
   0.82956326  0.56125618  0.55070772
   0.26026360  0.05083105  0.22342581
   0.26026360  0.55083105  0.22342581
   0.61357686  0.21700475  0.32187361
   0.61357686  0.71700475  0.32187361
   0.11357686  0.03299525  0.32187361
   0.11357686  0.53299525  0.32187361
   0.05989570  0.34508773  0.37448437
   0.05989570  0.84508773  0.37448437
   0.74342521  0.28934434  0.07116523
   0.74342521  0.78934434  0.07116523
   0.58732871  0.35524188  0.08803953
   0.58732871  0.85524188  0.08803953
   0.25657479  0.21065566  0.92883477
   0.25657479  0.71065566  0.92883477
   0.08732871  0.39475812  0.08803953
   0.08732871  0.89475812  0.08803953
   0.44010430  0.09508773  0.62551563
   0.44010430  0.59508773  0.62551563
   0.35558248  0.05568876  0.77560332
   0.35558248  0.55568876  0.77560332
   0.73973640  0.44916895  0.77657419
   0.73973640  0.94916895  0.77657419
   0.94010430  0.15491227  0.62551563
   0.94010430  0.65491227  0.62551563
   0.24342521  0.46065566  0.07116523
   0.24342521  0.96065566  0.07116523
   0.75657479  0.03934434  0.92883477
   0.75657479  0.53934434  0.92883477
   0.55989570  0.40491227  0.37448437
   0.55989570  0.90491227  0.37448437
   0.67043674  0.31125618  0.44929228
   0.67043674  0.81125618  0.44929228

 position of ions in cartesian coordinates  (Angst):
   7.84030666  7.96182132 -7.59135308
  16.23455387  7.96182132 -7.59135308
   3.16872461  2.44281751 -6.01942562
  11.56297182  2.44281751 -6.01942562
   1.76685280  7.82884570-10.09498012
  10.16110000  7.82724839-10.10485172
   5.05050035  1.12562097 -8.40433404
  13.44474755  1.12562097 -8.40433404
   5.13205407  1.09979266 -2.45651044
  13.52630128  1.09979266 -2.45651044
   3.26219313  7.47505463 -8.62356047
  11.65644034  7.47505463 -8.62356047
   3.34374686  7.44922632 -2.67573688
  11.73799406  7.44922632 -2.67573688
   7.36584822  0.97834624 -4.87421742
  15.76009542  0.97834624 -4.87421742
   2.43027081  2.67356485 -9.91842386
  10.82451801  2.67356485 -9.91842386
   4.75106415  2.80813777 -7.40492521
  13.14531135  2.80813777 -7.40492521
   7.45931673  6.25347620 -2.64293831
  15.85356394  6.25347620 -2.64293831
   1.02839899  7.59650105 -6.20585349
   9.42264619  7.59650105 -6.20585349
   0.85337674  2.29554277 -2.48930901
   9.24762395  2.29554277 -2.48930901
   3.64318306  5.76670951 -3.67514570
  12.03743026  5.76670951 -3.67514570
   0.55394055  0.61302597 -3.48871783
   8.94818775  0.61302597 -3.48871783
   5.79350349 -0.03143461 -4.03201715
  14.18775070 -0.03143461 -4.03201715
   4.85765589  7.53946136 -1.03917182
  13.25190310  7.53946136 -1.03917182
   5.96397640  5.90128244 -1.16164705
  14.35822361  5.90128244 -1.16164705
   3.53659131  1.03538593-10.04089909
  11.93083852  1.03538593-10.04089909
   6.62739441  0.74759889 -0.97521919
  15.02164161  0.74759889 -0.97521919
   1.59637989  3.45259836 -6.86162589
   9.99062710  3.45259836 -6.86162589
   0.93493047  2.32137108 -8.43713261
   9.32917768  2.32137108 -8.43713261
   7.54087046  6.27930451 -8.59076190
  15.93511767  6.27930451 -8.59076190
   2.60074371  8.60628190 -7.04805376
  10.99499092  8.60628190 -7.04805376
   7.73371492  2.38577782 -0.85274396
  16.12796212  2.38577782 -0.85274396
   0.66053229  6.18906947-10.22732695
   9.05477950  6.18906947-10.22732695
   6.79786731  5.12224893 -4.21844502
  15.19211452  5.12224893 -4.21844502
   5.22552259  6.13202978 -5.06064529
  13.61976980  6.13202978 -5.06064529



--------------------------------------------------------------------------------------------------------


 k-point   1 :   0.0000 0.0000 0.0000  plane waves:   50179
 k-point   2 :   0.5000 0.0000 0.0000  plane waves:   50160
 k-point   3 :   0.0000 0.5000 0.0000  plane waves:   50162
 k-point   4 :   0.5000 0.5000 0.0000  plane waves:   50192
 k-point   5 :   0.0000 0.0000 0.5000  plane waves:   50190
 k-point   6 :   0.5000 0.0000 0.5000  plane waves:   50190
 k-point   7 :   0.0000 0.5000 0.5000  plane waves:   50172
 k-point   8 :   0.5000 0.5000 0.5000  plane waves:   50200

 maximum and minimum number of plane-waves per node :     50200    50160

 maximum number of plane-waves:     50200
 maximum index in each direction: 
   IXMAX=   19   IYMAX=   31   IZMAX=   20
   IXMIN=  -19   IYMIN=  -31   IZMIN=  -20


 serial   3D FFT for wavefunctions
 parallel 3D FFT for charge:
    minimum data exchange during FFTs selected (reduces bandwidth)


 total amount of memory used by VASP MPI-rank0   322725. kBytes
=======================================================================

   base      :      30000. kBytes
   nonl-proj :      70692. kBytes
   fftplans  :      34504. kBytes
   grid      :      83442. kBytes
   one-center:        344. kBytes
   wavefun   :     103743. kBytes

     INWAV:  cpu time      0.0000: real time      0.0002
 Broyden mixing: mesh for mixing (old mesh)
   NGX = 39   NGY = 63   NGZ = 41
  (NGX  =160   NGY  =252   NGZ  =168)
  gives a total of 100737 points

 initial charge density was supplied:
 charge density of overlapping atoms calculated
 number of electron     336.0000000 magnetization      56.0000000
 keeping initial charge density in first step


--------------------------------------------------------------------------------------------------------


 Maximum index for augmentation-charges         3947 (set IRDMAX)


--------------------------------------------------------------------------------------------------------


 First call to EWALD:  gamma=   0.144
 Maximum number of real-space cells 3x 2x 3
 Maximum number of reciprocal cells 2x 4x 2

    FEWALD:  cpu time      0.0029: real time      0.0029


--------------------------------------- Iteration      1(   1)  ---------------------------------------


    POTLOK:  cpu time      0.5703: real time      0.5706
    SETDIJ:  cpu time      6.2895: real time      6.2928
     EDDAV:  cpu time     50.2705: real time     50.3002
 BZINTS: Fermi energy:   10.166422;  336.000000 electrons
         Band energy: 0.225138E+03;  BLOECHL correction:   -0.008892
       DOS:  cpu time      0.0487: real time      0.0488
    --------------------------------------------
      LOOP:  cpu time     57.1790: real time     57.2124

 eigenvalue-minimisations  :  8192
 total energy-change (2. order) : 0.2106255E+04  (-0.1333797E+05)
 number of electron     336.0000000 magnetization      56.0000000
 augmentation part      336.0000000 magnetization      56.0000000

 Free energy of the ion-electron system (eV)
  ---------------------------------------------------
  alpha Z        PSCENC =       253.99581917
  Ewald energy   TEWEN  =     -9970.07137581
  -Hartree energ DENC   =     -4766.57647299
  -exchange      EXHF   =         0.00000000
  -V(xc)+E(xc)   XCENC  =       682.52173775
  PAW double counting   =     12174.71095765   -11995.46358648
  entropy T*S    EENTRO =         0.00000000
  eigenvalues    EBANDS =       225.13841235
  atomic energy  EATOM  =     15501.99929693
  Solvation  Ediel_sol  =         0.00000000
  ---------------------------------------------------
  free energy    TOTEN  =      2106.25478858 eV

  energy without entropy =     2106.25478858  energy(sigma->0) =     2106.25478858


--------------------------------------------------------------------------------------------------------




--------------------------------------- Iteration      1(   2)  ---------------------------------------


     EDDAV:  cpu time     60.9534: real time     60.9884
 BZINTS: Fermi energy:    1.451869;  336.000000 electrons
         Band energy:-0.187484E+04;  BLOECHL correction:   -0.000000
       DOS:  cpu time      0.0281: real time      0.0283
    --------------------------------------------
      LOOP:  cpu time     60.9815: real time     61.0167

 eigenvalue-minimisations  : 10272
 total energy-change (2. order) :-0.2099977E+04  (-0.2021784E+04)
 number of electron     336.0000000 magnetization      56.0000000
 augmentation part      336.0000000 magnetization      56.0000000

 Free energy of the ion-electron system (eV)
  ---------------------------------------------------
  alpha Z        PSCENC =       253.99581917
  Ewald energy   TEWEN  =     -9970.07137581
  -Hartree energ DENC   =     -4766.57647299
  -exchange      EXHF   =         0.00000000
  -V(xc)+E(xc)   XCENC  =       682.52173775
  PAW double counting   =     12174.71095765   -11995.46358648
  entropy T*S    EENTRO =         0.00000000
  eigenvalues    EBANDS =     -1874.83817366
  atomic energy  EATOM  =     15501.99929693
  Solvation  Ediel_sol  =         0.00000000
  ---------------------------------------------------
  free energy    TOTEN  =         6.27820256 eV

  energy without entropy =        6.27820256  energy(sigma->0) =        6.27820256


--------------------------------------------------------------------------------------------------------




--------------------------------------- Iteration      1(   3)  ---------------------------------------


     EDDAV:  cpu time     64.5528: real time     64.5909
 BZINTS: Fermi energy:    0.220303;  336.000000 electrons
         Band energy:-0.209469E+04;  BLOECHL correction:    0.000000
       DOS:  cpu time      0.0269: real time      0.0269
    --------------------------------------------
      LOOP:  cpu time     64.5796: real time     64.6178

 eigenvalue-minimisations  : 10240
 total energy-change (2. order) :-0.2198565E+03  (-0.2171703E+03)
 number of electron     336.0000000 magnetization      56.0000000
 augmentation part      336.0000000 magnetization      56.0000000

 Free energy of the ion-electron system (eV)
  ---------------------------------------------------
  alpha Z        PSCENC =       253.99581917
  Ewald energy   TEWEN  =     -9970.07137581
  -Hartree energ DENC   =     -4766.57647299
  -exchange      EXHF   =         0.00000000
  -V(xc)+E(xc)   XCENC  =       682.52173775
  PAW double counting   =     12174.71095765   -11995.46358648
  entropy T*S    EENTRO =         0.00000000
  eigenvalues    EBANDS =     -2094.69466855
  atomic energy  EATOM  =     15501.99929693
  Solvation  Ediel_sol  =         0.00000000
  ---------------------------------------------------
  free energy    TOTEN  =      -213.57829232 eV

  energy without entropy =     -213.57829232  energy(sigma->0) =     -213.57829232


--------------------------------------------------------------------------------------------------------




--------------------------------------- Iteration      1(   4)  ---------------------------------------


     EDDAV:  cpu time     59.6384: real time     59.6917
 BZINTS: Fermi energy:    0.191660;  336.000000 electrons
         Band energy:-0.209959E+04;  BLOECHL correction:    0.000000
       DOS:  cpu time      0.0282: real time      0.0282
    --------------------------------------------
      LOOP:  cpu time     59.6666: real time     59.7199

 eigenvalue-minimisations  : 10304
 total energy-change (2. order) :-0.4896538E+01  (-0.4878187E+01)
 number of electron     336.0000000 magnetization      56.0000000
 augmentation part      336.0000000 magnetization      56.0000000

 Free energy of the ion-electron system (eV)
  ---------------------------------------------------
  alpha Z        PSCENC =       253.99581917
  Ewald energy   TEWEN  =     -9970.07137581
  -Hartree energ DENC   =     -4766.57647299
  -exchange      EXHF   =         0.00000000
  -V(xc)+E(xc)   XCENC  =       682.52173775
  PAW double counting   =     12174.71095765   -11995.46358648
  entropy T*S    EENTRO =         0.00000000
  eigenvalues    EBANDS =     -2099.59120653
  atomic energy  EATOM  =     15501.99929693
  Solvation  Ediel_sol  =         0.00000000
  ---------------------------------------------------
  free energy    TOTEN  =      -218.47483031 eV

  energy without entropy =     -218.47483031  energy(sigma->0) =     -218.47483031


--------------------------------------------------------------------------------------------------------




--------------------------------------- Iteration      1(   5)  ---------------------------------------


     EDDAV:  cpu time     56.6634: real time     56.6950
 BZINTS: Fermi energy:    0.191461;  336.000000 electrons
         Band energy:-0.209973E+04;  BLOECHL correction:   -0.000000
       DOS:  cpu time      0.0288: real time      0.0288
    CHARGE:  cpu time     10.3607: real time     10.3664
    MIXING:  cpu time      2.0929: real time      2.0940
    --------------------------------------------
      LOOP:  cpu time     69.1458: real time     69.1842

 eigenvalue-minimisations  : 10112
 total energy-change (2. order) :-0.1371908E+00  (-0.1371246E+00)
 number of electron     335.9999996 magnetization      44.9918631
 augmentation part      -47.3221206 magnetization      44.8836924

 Broyden mixing:
  rms(total) = 0.82946E+01    rms(broyden)= 0.82946E+01
  rms(prec ) = 0.83145E+01
  weight for this iteration     100.00

 Free energy of the ion-electron system (eV)
  ---------------------------------------------------
  alpha Z        PSCENC =       253.99581917
  Ewald energy   TEWEN  =     -9970.07137581
  -Hartree energ DENC   =     -4766.57647299
  -exchange      EXHF   =         0.00000000
  -V(xc)+E(xc)   XCENC  =       682.52173775
  PAW double counting   =     12174.71095765   -11995.46358648
  entropy T*S    EENTRO =         0.00000000
  eigenvalues    EBANDS =     -2099.72839737
  atomic energy  EATOM  =     15501.99929693
  Solvation  Ediel_sol  =         0.00000000
  ---------------------------------------------------
  free energy    TOTEN  =      -218.61202115 eV

  energy without entropy =     -218.61202115  energy(sigma->0) =     -218.61202115


--------------------------------------------------------------------------------------------------------




--------------------------------------- Iteration      1(   6)  ---------------------------------------


    POTLOK:  cpu time      0.5716: real time      0.5769
    SETDIJ:  cpu time      9.1428: real time      9.1476
     EDDAV:  cpu time     61.7663: real time     61.8026
 BZINTS: Fermi energy:    0.409480;  336.000000 electrons
         Band energy:-0.201423E+04;  BLOECHL correction:    0.000000
       DOS:  cpu time      0.0259: real time      0.0260
    CHARGE:  cpu time      8.5584: real time      8.5630
    MIXING:  cpu time      0.0239: real time      0.0239
    --------------------------------------------
      LOOP:  cpu time     80.0889: real time     80.1400

 eigenvalue-minimisations  :  9664
 total energy-change (2. order) : 0.1022857E+03  (-0.2667836E+02)
 number of electron     335.9999996 magnetization      26.4964105
 augmentation part      -47.6484319 magnetization      27.5548978

 Broyden mixing:
  rms(total) = 0.49372E+01    rms(broyden)= 0.49372E+01
  rms(prec ) = 0.49595E+01
  weight for this iteration     100.00

 eigenvalues of (default mixing * dielectric matrix)
  average eigenvalue GAMMA=   1.6663
  1.6663

 Free energy of the ion-electron system (eV)
  ---------------------------------------------------
  alpha Z        PSCENC =       253.99581917
  Ewald energy   TEWEN  =     -9970.07137581
  -Hartree energ DENC   =     -4810.91076084
  -exchange      EXHF   =         0.00000000
  -V(xc)+E(xc)   XCENC  =       746.11172820
  PAW double counting   =     20737.04706603   -20560.26935019
  entropy T*S    EENTRO =         0.00000000
  eigenvalues    EBANDS =     -2014.22873716
  atomic energy  EATOM  =     15501.99929693
  Solvation  Ediel_sol  =         0.00000000
  ---------------------------------------------------
  free energy    TOTEN  =      -116.32631368 eV

  energy without entropy =     -116.32631368  energy(sigma->0) =     -116.32631368


--------------------------------------------------------------------------------------------------------




--------------------------------------- Iteration      1(   7)  ---------------------------------------


    POTLOK:  cpu time      0.4588: real time      0.4659
    SETDIJ:  cpu time      9.5913: real time      9.5963
     EDDAV:  cpu time     60.5897: real time     60.6242
 BZINTS: Fermi energy:    0.738173;  336.000000 electrons
         Band energy:-0.186788E+04;  BLOECHL correction:    0.000000
       DOS:  cpu time      0.0277: real time      0.0277
    CHARGE:  cpu time      9.7776: real time      9.7828
    MIXING:  cpu time      1.4875: real time      1.4883
    --------------------------------------------
      LOOP:  cpu time     81.9324: real time     81.9852

 eigenvalue-minimisations  : 10112
 total energy-change (2. order) :-0.1113635E+02  (-0.2694596E+01)
 number of electron     335.9999996 magnetization      19.7212070
 augmentation part      -47.3165501 magnetization      20.9268489

 Broyden mixing:
  rms(total) = 0.13985E+01    rms(broyden)= 0.13985E+01
  rms(prec ) = 0.14022E+01
  weight for this iteration     100.00

 eigenvalues of (default mixing * dielectric matrix)
  average eigenvalue GAMMA=   1.4856
  0.7903  2.1809

 Free energy of the ion-electron system (eV)
  ---------------------------------------------------
  alpha Z        PSCENC =       253.99581917
  Ewald energy   TEWEN  =     -9970.07137581
  -Hartree energ DENC   =     -4970.31868992
  -exchange      EXHF   =         0.00000000
  -V(xc)+E(xc)   XCENC  =       751.44793045
  PAW double counting   =     37040.23024219   -36866.86451830
  entropy T*S    EENTRO =         0.00000000
  eigenvalues    EBANDS =     -1867.88137153
  atomic energy  EATOM  =     15501.99929693
  Solvation  Ediel_sol  =         0.00000000
  ---------------------------------------------------
  free energy    TOTEN  =      -127.46266683 eV

  energy without entropy =     -127.46266683  energy(sigma->0) =     -127.46266683


--------------------------------------------------------------------------------------------------------




--------------------------------------- Iteration      1(   8)  ---------------------------------------


    POTLOK:  cpu time      0.4452: real time      0.4459
    SETDIJ:  cpu time     13.6174: real time     13.6302
     EDDAV:  cpu time     56.3515: real time     56.3847
 BZINTS: Fermi energy:    0.706279;  336.000000 electrons
         Band energy:-0.185533E+04;  BLOECHL correction:    0.000000
       DOS:  cpu time      0.0275: real time      0.0276
    CHARGE:  cpu time      9.0291: real time      9.0331
    MIXING:  cpu time      0.0102: real time      0.0102
    --------------------------------------------
      LOOP:  cpu time     79.4810: real time     79.5317

 eigenvalue-minimisations  :  9312
 total energy-change (2. order) :-0.4275299E+02  (-0.1979015E+01)
 number of electron     335.9999997 magnetization      16.0637697
 augmentation part      -47.0117158 magnetization      17.1082981

 Broyden mixing:
  rms(total) = 0.78221E+00    rms(broyden)= 0.78221E+00
  rms(prec ) = 0.78736E+00
  weight for this iteration     100.00

 eigenvalues of (default mixing * dielectric matrix)
  average eigenvalue GAMMA=   1.3384
  2.4898  0.9420  0.5834

 Free energy of the ion-electron system (eV)
  ---------------------------------------------------
  alpha Z        PSCENC =       253.99581917
  Ewald energy   TEWEN  =     -9970.07137581
  -Hartree energ DENC   =     -4999.96102275
  -exchange      EXHF   =         0.00000000
  -V(xc)+E(xc)   XCENC  =       726.55308572
  PAW double counting   =     40189.07484247   -40016.47608298
  entropy T*S    EENTRO =         0.00000000
  eigenvalues    EBANDS =     -1855.33022138
  atomic energy  EATOM  =     15501.99929693
  Solvation  Ediel_sol  =         0.00000000
  ---------------------------------------------------
  free energy    TOTEN  =      -170.21565863 eV

  energy without entropy =     -170.21565863  energy(sigma->0) =     -170.21565863


--------------------------------------------------------------------------------------------------------




--------------------------------------- Iteration      1(   9)  ---------------------------------------


    POTLOK:  cpu time      0.4438: real time      0.4449
    SETDIJ:  cpu time      6.0922: real time      6.0950
     EDDAV:  cpu time     60.7957: real time     60.8297
 BZINTS: Fermi energy:    0.628524;  336.000000 electrons
         Band energy:-0.186658E+04;  BLOECHL correction:    0.000000
       DOS:  cpu time      0.0261: real time      0.0262
    CHARGE:  cpu time      7.2757: real time      7.2792
    MIXING:  cpu time      0.0180: real time      0.0180
    --------------------------------------------
      LOOP:  cpu time     74.6516: real time     74.6930

 eigenvalue-minimisations  : 10240
 total energy-change (2. order) :-0.1673450E+02  (-0.6404707E+00)
 number of electron     335.9999997 magnetization      11.5344816
 augmentation part      -46.9154458 magnetization      12.3722403

 Broyden mixing:
  rms(total) = 0.43628E+00    rms(broyden)= 0.43628E+00
  rms(prec ) = 0.44833E+00
  weight for this iteration     100.00

 eigenvalues of (default mixing * dielectric matrix)
  average eigenvalue GAMMA=   1.3244
  2.5742  1.3009  0.7112  0.7112

 Free energy of the ion-electron system (eV)
  ---------------------------------------------------
  alpha Z        PSCENC =       253.99581917
  Ewald energy   TEWEN  =     -9970.07137581
  -Hartree energ DENC   =     -4996.15351514
  -exchange      EXHF   =         0.00000000
  -V(xc)+E(xc)   XCENC  =       717.23965922
  PAW double counting   =     40967.14360474   -40794.52645807
  entropy T*S    EENTRO =         0.00000000
  eigenvalues    EBANDS =     -1866.57719314
  atomic energy  EATOM  =     15501.99929693
  Solvation  Ediel_sol  =         0.00000000
  ---------------------------------------------------
  free energy    TOTEN  =      -186.95016210 eV

  energy without entropy =     -186.95016210  energy(sigma->0) =     -186.95016210


--------------------------------------------------------------------------------------------------------




--------------------------------------- Iteration      1(  10)  ---------------------------------------


    POTLOK:  cpu time      0.4995: real time      0.5005
    SETDIJ:  cpu time      9.4999: real time      9.5043
     EDDAV:  cpu time     61.3958: real time     61.4321
 BZINTS: Fermi energy:    0.475483;  336.000000 electrons
         Band energy:-0.190106E+04;  BLOECHL correction:    0.000000
       DOS:  cpu time      0.0282: real time      0.0283
    CHARGE:  cpu time     10.5948: real time     10.6003
    MIXING:  cpu time      0.0180: real time      0.0180
    --------------------------------------------
      LOOP:  cpu time     82.0363: real time     82.0834

 eigenvalue-minimisations  :  9984
 total energy-change (2. order) :-0.2006733E+02  (-0.1301916E+01)
 number of electron     335.9999997 magnetization       5.3064535
 augmentation part      -46.8735515 magnetization       5.8412264

 Broyden mixing:
  rms(total) = 0.32429E+00    rms(broyden)= 0.32429E+00
  rms(prec ) = 0.33724E+00
  weight for this iteration     100.00

 eigenvalues of (default mixing * dielectric matrix)
  average eigenvalue GAMMA=   1.4490
  2.4864  2.4864  0.9417  0.7282  0.6021

 Free energy of the ion-electron system (eV)
  ---------------------------------------------------
  alpha Z        PSCENC =       253.99581917
  Ewald energy   TEWEN  =     -9970.07137581
  -Hartree energ DENC   =     -4970.80781084
  -exchange      EXHF   =         0.00000000
  -V(xc)+E(xc)   XCENC  =       705.65944603
  PAW double counting   =     40976.81684961   -40803.54555460
  entropy T*S    EENTRO =         0.00000000
  eigenvalues    EBANDS =     -1901.06416569
  atomic energy  EATOM  =     15501.99929693
  Solvation  Ediel_sol  =         0.00000000
  ---------------------------------------------------
  free energy    TOTEN  =      -207.01749519 eV

  energy without entropy =     -207.01749519  energy(sigma->0) =     -207.01749519


--------------------------------------------------------------------------------------------------------




--------------------------------------- Iteration      1(  11)  ---------------------------------------


    POTLOK:  cpu time      0.4676: real time      0.4689
    SETDIJ:  cpu time      8.3357: real time      8.3399
     EDDAV:  cpu time     58.1063: real time     58.1405
 BZINTS: Fermi energy:    0.257596;  336.000000 electrons
         Band energy:-0.195845E+04;  BLOECHL correction:    0.000000
       DOS:  cpu time      0.0261: real time      0.0262
    CHARGE:  cpu time     11.7982: real time     11.8039
    MIXING:  cpu time      0.0289: real time      0.0289
    --------------------------------------------
      LOOP:  cpu time     78.7629: real time     78.8083

 eigenvalue-minimisations  :  9952
 total energy-change (2. order) :-0.1785745E+02  (-0.2166256E+01)
 number of electron     335.9999997 magnetization       3.5754415
 augmentation part      -46.9051702 magnetization       3.7587297

 Broyden mixing:
  rms(total) = 0.18663E+00    rms(broyden)= 0.18663E+00
  rms(prec ) = 0.20033E+00
  weight for this iteration     100.00

 eigenvalues of (default mixing * dielectric matrix)
  average eigenvalue GAMMA=   1.4663
  2.7965  2.7965  1.0265  0.8894  0.6991  0.5899

 Free energy of the ion-electron system (eV)
  ---------------------------------------------------
  alpha Z        PSCENC =       253.99581917
  Ewald energy   TEWEN  =     -9970.07137581
  -Hartree energ DENC   =     -4921.22440391
  -exchange      EXHF   =         0.00000000
  -V(xc)+E(xc)   XCENC  =       694.54533763
  PAW double counting   =     40404.21032517   -40229.87931845
  entropy T*S    EENTRO =         0.00000000
  eigenvalues    EBANDS =     -1958.45062979
  atomic energy  EATOM  =     15501.99929693
  Solvation  Ediel_sol  =         0.00000000
  ---------------------------------------------------
  free energy    TOTEN  =      -224.87494907 eV

  energy without entropy =     -224.87494907  energy(sigma->0) =     -224.87494907


--------------------------------------------------------------------------------------------------------




--------------------------------------- Iteration      1(  12)  ---------------------------------------


    POTLOK:  cpu time      0.4927: real time      0.4938
    SETDIJ:  cpu time     12.5795: real time     12.5859
     EDDAV:  cpu time     58.7374: real time     58.7727
 BZINTS: Fermi energy:    0.184504;  336.000000 electrons
         Band energy:-0.197906E+04;  BLOECHL correction:    0.000000
       DOS:  cpu time      0.0262: real time      0.0262
    CHARGE:  cpu time     13.0949: real time     13.1005
    MIXING:  cpu time      0.0132: real time      0.0132
    --------------------------------------------
      LOOP:  cpu time     84.9439: real time     84.9923

 eigenvalue-minimisations  : 10080
 total energy-change (2. order) :-0.3384847E+01  (-0.3873101E+00)
 number of electron     335.9999997 magnetization       2.3929076
 augmentation part      -46.9151370 magnetization       2.4761404

 Broyden mixing:
  rms(total) = 0.15985E+00    rms(broyden)= 0.15985E+00
  rms(prec ) = 0.17240E+00
  weight for this iteration     100.00

 eigenvalues of (default mixing * dielectric matrix)
  average eigenvalue GAMMA=   1.4913
  3.1003  3.1003  1.0544  1.0544  0.7810  0.7810  0.5678

 Free energy of the ion-electron system (eV)
  ---------------------------------------------------
  alpha Z        PSCENC =       253.99581917
  Ewald energy   TEWEN  =     -9970.07137581
  -Hartree energ DENC   =     -4901.78656742
  -exchange      EXHF   =         0.00000000
  -V(xc)+E(xc)   XCENC  =       692.09592265
  PAW double counting   =     39973.06335326   -39798.49629550
  entropy T*S    EENTRO =         0.00000000
  eigenvalues    EBANDS =     -1979.05994951
  atomic energy  EATOM  =     15501.99929693
  Solvation  Ediel_sol  =         0.00000000
  ---------------------------------------------------
  free energy    TOTEN  =      -228.25979623 eV

  energy without entropy =     -228.25979623  energy(sigma->0) =     -228.25979623


--------------------------------------------------------------------------------------------------------




--------------------------------------- Iteration      1(  13)  ---------------------------------------


    POTLOK:  cpu time      0.4467: real time      0.4475
    SETDIJ:  cpu time     16.6369: real time     16.6447
     EDDAV:  cpu time     57.2788: real time     57.3122
 BZINTS: Fermi energy:    0.116250;  336.000000 electrons
         Band energy:-0.200153E+04;  BLOECHL correction:    0.000000
       DOS:  cpu time      0.0259: real time      0.0259
    CHARGE:  cpu time      7.6852: real time      7.6890
    MIXING:  cpu time      0.0167: real time      0.0167
    --------------------------------------------
      LOOP:  cpu time     82.0902: real time     82.1360

 eigenvalue-minimisations  :  9472
 total energy-change (2. order) :-0.1054875E+01  (-0.1338262E+00)
 number of electron     335.9999997 magnetization       0.8916504
 augmentation part      -46.9735416 magnetization       0.9177753

 Broyden mixing:
  rms(total) = 0.93138E-01    rms(broyden)= 0.93137E-01
  rms(prec ) = 0.99951E-01
  weight for this iteration     100.00

 eigenvalues of (default mixing * dielectric matrix)
  average eigenvalue GAMMA=   1.5510
  3.3211  3.3211  1.5838  1.2837  0.9272  0.6995  0.6995  0.5720

 Free energy of the ion-electron system (eV)
  ---------------------------------------------------
  alpha Z        PSCENC =       253.99581917
  Ewald energy   TEWEN  =     -9970.07137581
  -Hartree energ DENC   =     -4878.63111495
  -exchange      EXHF   =         0.00000000
  -V(xc)+E(xc)   XCENC  =       690.11116138
  PAW double counting   =     39152.23842002   -38977.43133029
  entropy T*S    EENTRO =         0.00000000
  eigenvalues    EBANDS =     -2001.52554813
  atomic energy  EATOM  =     15501.99929693
  Solvation  Ediel_sol  =         0.00000000
  ---------------------------------------------------
  free energy    TOTEN  =      -229.31467168 eV

  energy without entropy =     -229.31467168  energy(sigma->0) =     -229.31467168


--------------------------------------------------------------------------------------------------------




--------------------------------------- Iteration      1(  14)  ---------------------------------------


    POTLOK:  cpu time      0.5655: real time      0.5668
    SETDIJ:  cpu time      4.6709: real time      4.6730
     EDDAV:  cpu time     57.1700: real time     57.2099
 BZINTS: Fermi energy:    0.080918;  336.000000 electrons
         Band energy:-0.201199E+04;  BLOECHL correction:    0.000000
       DOS:  cpu time      0.0262: real time      0.0262
    CHARGE:  cpu time      4.0331: real time      4.0353
    MIXING:  cpu time      0.0162: real time      0.0165
    --------------------------------------------
      LOOP:  cpu time     66.4819: real time     66.5278

 eigenvalue-minimisations  :  9056
 total energy-change (2. order) :-0.6532899E-01  (-0.1626272E-01)
 number of electron     335.9999997 magnetization       0.4165269
 augmentation part      -47.0004733 magnetization       0.4236126

 Broyden mixing:
  rms(total) = 0.43746E-01    rms(broyden)= 0.43746E-01
  rms(prec ) = 0.46447E-01
  weight for this iteration     100.00

 eigenvalues of (default mixing * dielectric matrix)
  average eigenvalue GAMMA=   1.5782
  4.1310  2.5555  2.5555  1.0965  1.0965  0.7711  0.7711  0.5746  0.6522

 Free energy of the ion-electron system (eV)
  ---------------------------------------------------
  alpha Z        PSCENC =       253.99581917
  Ewald energy   TEWEN  =     -9970.07137581
  -Hartree energ DENC   =     -4867.27803098
  -exchange      EXHF   =         0.00000000
  -V(xc)+E(xc)   XCENC  =       689.19872549
  PAW double counting   =     39090.31650941   -38915.55489729
  entropy T*S    EENTRO =         0.00000000
  eigenvalues    EBANDS =     -2011.98604759
  atomic energy  EATOM  =     15501.99929693
  Solvation  Ediel_sol  =         0.00000000
  ---------------------------------------------------
  free energy    TOTEN  =      -229.38000067 eV

  energy without entropy =     -229.38000067  energy(sigma->0) =     -229.38000067


--------------------------------------------------------------------------------------------------------




--------------------------------------- Iteration      1(  15)  ---------------------------------------


    POTLOK:  cpu time      0.4948: real time      0.4958
    SETDIJ:  cpu time      7.9620: real time      7.9660
     EDDAV:  cpu time     59.0553: real time     59.0892
 BZINTS: Fermi energy:    0.078878;  336.000000 electrons
         Band energy:-0.201173E+04;  BLOECHL correction:    0.000000
       DOS:  cpu time      0.0261: real time      0.0262
    CHARGE:  cpu time      8.6887: real time      8.6925
    MIXING:  cpu time      0.0215: real time      0.0215
    --------------------------------------------
      LOOP:  cpu time     76.2484: real time     76.2911

 eigenvalue-minimisations  :  9600
 total energy-change (2. order) : 0.1213589E-02  (-0.2076289E-02)
 number of electron     335.9999997 magnetization       0.1722949
 augmentation part      -46.9944821 magnetization       0.1765706

 Broyden mixing:
  rms(total) = 0.20204E-01    rms(broyden)= 0.20204E-01
  rms(prec ) = 0.21785E-01
  weight for this iteration     100.00

 eigenvalues of (default mixing * dielectric matrix)
  average eigenvalue GAMMA=   1.5645
  4.5535  2.5279  2.5279  1.3310  0.9975  0.9975  0.7581  0.7581  0.6239  0.5690

 Free energy of the ion-electron system (eV)
  ---------------------------------------------------
  alpha Z        PSCENC =       253.99581917
  Ewald energy   TEWEN  =     -9970.07137581
  -Hartree energ DENC   =     -4867.40995776
  -exchange      EXHF   =         0.00000000
  -V(xc)+E(xc)   XCENC  =       689.15786729
  PAW double counting   =     39175.50616156   -39000.83126925
  entropy T*S    EENTRO =         0.00000000
  eigenvalues    EBANDS =     -2011.72532920
  atomic energy  EATOM  =     15501.99929693
  Solvation  Ediel_sol  =         0.00000000
  ---------------------------------------------------
  free energy    TOTEN  =      -229.37878708 eV

  energy without entropy =     -229.37878708  energy(sigma->0) =     -229.37878708


--------------------------------------------------------------------------------------------------------




--------------------------------------- Iteration      1(  16)  ---------------------------------------


    POTLOK:  cpu time      0.4408: real time      0.4415
    SETDIJ:  cpu time      5.7526: real time      5.7600
     EDDAV:  cpu time     56.1604: real time     56.1917
 BZINTS: Fermi energy:    0.076913;  336.000000 electrons
         Band energy:-0.201218E+04;  BLOECHL correction:    0.000000
       DOS:  cpu time      0.0268: real time      0.0269
    CHARGE:  cpu time      7.9024: real time      7.9067
    MIXING:  cpu time      0.0110: real time      0.0110
    --------------------------------------------
      LOOP:  cpu time     70.2941: real time     70.3377

 eigenvalue-minimisations  :  9184
 total energy-change (2. order) : 0.3135789E-02  (-0.5507381E-03)
 number of electron     335.9999997 magnetization       0.0693818
 augmentation part      -46.9932879 magnetization       0.0701958

 Broyden mixing:
  rms(total) = 0.12286E-01    rms(broyden)= 0.12286E-01
  rms(prec ) = 0.13301E-01
  weight for this iteration     100.00

 eigenvalues of (default mixing * dielectric matrix)
  average eigenvalue GAMMA=   1.5465
  4.7588  2.4272  2.4272  1.8409  0.9955  0.9955  0.9235  0.7278  0.7278  0.5802
  0.6074

 Free energy of the ion-electron system (eV)
  ---------------------------------------------------
  alpha Z        PSCENC =       253.99581917
  Ewald energy   TEWEN  =     -9970.07137581
  -Hartree energ DENC   =     -4866.86541488
  -exchange      EXHF   =         0.00000000
  -V(xc)+E(xc)   XCENC  =       689.09084978
  PAW double counting   =     39146.41748473   -38971.76662229
  entropy T*S    EENTRO =         0.00000000
  eigenvalues    EBANDS =     -2012.17568891
  atomic energy  EATOM  =     15501.99929693
  Solvation  Ediel_sol  =         0.00000000
  ---------------------------------------------------
  free energy    TOTEN  =      -229.37565129 eV

  energy without entropy =     -229.37565129  energy(sigma->0) =     -229.37565129


--------------------------------------------------------------------------------------------------------




--------------------------------------- Iteration      1(  17)  ---------------------------------------


    POTLOK:  cpu time      0.5366: real time      0.5379
    SETDIJ:  cpu time     13.3193: real time     13.3254
     EDDAV:  cpu time     57.4907: real time     57.5237
 BZINTS: Fermi energy:    0.078891;  336.000000 electrons
         Band energy:-0.201126E+04;  BLOECHL correction:    0.000000
       DOS:  cpu time      0.0268: real time      0.0269
    CHARGE:  cpu time     13.8664: real time     13.8730
    MIXING:  cpu time      0.0226: real time      0.0226
    --------------------------------------------
      LOOP:  cpu time     85.2623: real time     85.3095

 eigenvalue-minimisations  :  9504
 total energy-change (2. order) :-0.5077052E-03  (-0.1190363E-03)
 number of electron     335.9999997 magnetization       0.0176732
 augmentation part      -46.9882534 magnetization       0.0180638

 Broyden mixing:
  rms(total) = 0.49280E-02    rms(broyden)= 0.49280E-02
  rms(prec ) = 0.55315E-02
  weight for this iteration     100.00

 eigenvalues of (default mixing * dielectric matrix)
  average eigenvalue GAMMA=   1.5759
  4.9485  2.6012  2.6012  2.2018  1.1768  0.9963  0.9963  0.7619  0.7619  0.6803
  0.5862  0.5986

 Free energy of the ion-electron system (eV)
  ---------------------------------------------------
  alpha Z        PSCENC =       253.99581917
  Ewald energy   TEWEN  =     -9970.07137581
  -Hartree energ DENC   =     -4867.81667164
  -exchange      EXHF   =         0.00000000
  -V(xc)+E(xc)   XCENC  =       689.14998782
  PAW double counting   =     39186.96059420   -39012.33385331
  entropy T*S    EENTRO =         0.00000000
  eigenvalues    EBANDS =     -2011.25995635
  atomic energy  EATOM  =     15501.99929693
  Solvation  Ediel_sol  =         0.00000000
  ---------------------------------------------------
  free energy    TOTEN  =      -229.37615899 eV

  energy without entropy =     -229.37615899  energy(sigma->0) =     -229.37615899


--------------------------------------------------------------------------------------------------------




--------------------------------------- Iteration      1(  18)  ---------------------------------------


    POTLOK:  cpu time      0.4927: real time      0.4962
    SETDIJ:  cpu time      9.6170: real time      9.6218
     EDDAV:  cpu time     54.3840: real time     54.4148
 BZINTS: Fermi energy:    0.079910;  336.000000 electrons
         Band energy:-0.201074E+04;  BLOECHL correction:    0.000000
       DOS:  cpu time      0.0276: real time      0.0277
    CHARGE:  cpu time     12.2551: real time     12.2609
    MIXING:  cpu time      0.0169: real time      0.0169
    --------------------------------------------
      LOOP:  cpu time     76.7933: real time     76.8382

 eigenvalue-minimisations  :  9440
 total energy-change (2. order) :-0.1141994E-03  (-0.3965193E-04)
 number of electron     335.9999997 magnetization       0.0050380
 augmentation part      -46.9849167 magnetization       0.0055753

 Broyden mixing:
  rms(total) = 0.44557E-02    rms(broyden)= 0.44557E-02
  rms(prec ) = 0.47091E-02
  weight for this iteration     100.00

 eigenvalues of (default mixing * dielectric matrix)
  average eigenvalue GAMMA=   1.5445
  5.0027  2.6452  2.6452  2.2645  1.1306  1.1306  0.9904  0.9904  0.7251  0.7251
  0.5780  0.6442  0.6067

 Free energy of the ion-electron system (eV)
  ---------------------------------------------------
  alpha Z        PSCENC =       253.99581917
  Ewald energy   TEWEN  =     -9970.07137581
  -Hartree energ DENC   =     -4868.36125729
  -exchange      EXHF   =         0.00000000
  -V(xc)+E(xc)   XCENC  =       689.18531091
  PAW double counting   =     39215.76798101   -39041.15610103
  entropy T*S    EENTRO =         0.00000000
  eigenvalues    EBANDS =     -2010.73594708
  atomic energy  EATOM  =     15501.99929693
  Solvation  Ediel_sol  =         0.00000000
  ---------------------------------------------------
  free energy    TOTEN  =      -229.37627319 eV

  energy without entropy =     -229.37627319  energy(sigma->0) =     -229.37627319


--------------------------------------------------------------------------------------------------------




--------------------------------------- Iteration      1(  19)  ---------------------------------------


    POTLOK:  cpu time      0.5324: real time      0.5340
    SETDIJ:  cpu time     10.1599: real time     10.1646
     EDDAV:  cpu time     62.8905: real time     62.9278
 BZINTS: Fermi energy:    0.079121;  336.000000 electrons
         Band energy:-0.201100E+04;  BLOECHL correction:    0.000000
       DOS:  cpu time      0.0259: real time      0.0260
    CHARGE:  cpu time     10.0768: real time     10.0810
    MIXING:  cpu time      0.0108: real time      0.0108
    --------------------------------------------
      LOOP:  cpu time     83.6964: real time     83.7441

 eigenvalue-minimisations  :  9760
 total energy-change (2. order) :-0.6329316E-05  (-0.6198400E-05)
 number of electron     335.9999997 magnetization      -0.0005741
 augmentation part      -46.9857466 magnetization      -0.0003328

 Broyden mixing:
  rms(total) = 0.20206E-02    rms(broyden)= 0.20206E-02
  rms(prec ) = 0.21962E-02
  weight for this iteration     100.00

 eigenvalues of (default mixing * dielectric matrix)
  average eigenvalue GAMMA=   1.5454
  5.0456  2.7068  2.7068  2.1086  1.4086  1.4086  1.0330  1.0330  0.8580  0.7538
  0.7538  0.5794  0.6094  0.6307

 Free energy of the ion-electron system (eV)
  ---------------------------------------------------
  alpha Z        PSCENC =       253.99581917
  Ewald energy   TEWEN  =     -9970.07137581
  -Hartree energ DENC   =     -4868.08718222
  -exchange      EXHF   =         0.00000000
  -V(xc)+E(xc)   XCENC  =       689.16840096
  PAW double counting   =     39214.38360777   -39039.76860467
  entropy T*S    EENTRO =         0.00000000
  eigenvalues    EBANDS =     -2010.99624164
  atomic energy  EATOM  =     15501.99929693
  Solvation  Ediel_sol  =         0.00000000
  ---------------------------------------------------
  free energy    TOTEN  =      -229.37627952 eV

  energy without entropy =     -229.37627952  energy(sigma->0) =     -229.37627952


--------------------------------------------------------------------------------------------------------




--------------------------------------- Iteration      1(  20)  ---------------------------------------


    POTLOK:  cpu time      0.4515: real time      0.4551
    SETDIJ:  cpu time      1.2616: real time      1.2624
     EDDAV:  cpu time     54.0380: real time     54.0682
 BZINTS: Fermi energy:    0.078740;  336.000000 electrons
         Band energy:-0.201113E+04;  BLOECHL correction:    0.000000
       DOS:  cpu time      0.0259: real time      0.0260
    CHARGE:  cpu time      7.5218: real time      7.5252
    MIXING:  cpu time      0.0216: real time      0.0216
    --------------------------------------------
      LOOP:  cpu time     63.3203: real time     63.3584

 eigenvalue-minimisations  :  9184
 total energy-change (2. order) :-0.1044594E-04  (-0.3446255E-05)
 number of electron     335.9999997 magnetization      -0.0016525
 augmentation part      -46.9862771 magnetization      -0.0015741

 Broyden mixing:
  rms(total) = 0.95189E-03    rms(broyden)= 0.95176E-03
  rms(prec ) = 0.10114E-02
  weight for this iteration     100.00

 eigenvalues of (default mixing * dielectric matrix)
  average eigenvalue GAMMA=   1.5470
  5.0954  2.7081  2.7081  2.0981  2.0981  1.2308  1.2308  0.9901  0.9901  0.7798
  0.7330  0.7330  0.5774  0.6158  0.6158

 Free energy of the ion-electron system (eV)
  ---------------------------------------------------
  alpha Z        PSCENC =       253.99581917
  Ewald energy   TEWEN  =     -9970.07137581
  -Hartree energ DENC   =     -4867.94378595
  -exchange      EXHF   =         0.00000000
  -V(xc)+E(xc)   XCENC  =       689.16134201
  PAW double counting   =     39219.52669754   -39044.90977992
  entropy T*S    EENTRO =         0.00000000
  eigenvalues    EBANDS =     -2011.13450395
  atomic energy  EATOM  =     15501.99929693
  Solvation  Ediel_sol  =         0.00000000
  ---------------------------------------------------
  free energy    TOTEN  =      -229.37628997 eV

  energy without entropy =     -229.37628997  energy(sigma->0) =     -229.37628997


--------------------------------------------------------------------------------------------------------




--------------------------------------- Iteration      1(  21)  ---------------------------------------


    POTLOK:  cpu time      0.4875: real time      0.4890
    SETDIJ:  cpu time     13.8047: real time     13.8109
     EDDAV:  cpu time     57.3213: real time     57.3555
 BZINTS: Fermi energy:    0.078845;  336.000000 electrons
         Band energy:-0.201119E+04;  BLOECHL correction:    0.000000
       DOS:  cpu time      0.0257: real time      0.0258
    CHARGE:  cpu time      7.7524: real time      7.7564
    MIXING:  cpu time      0.0162: real time      0.0162
    --------------------------------------------
      LOOP:  cpu time     79.4079: real time     79.4538

 eigenvalue-minimisations  :  9280
 total energy-change (2. order) : 0.1098226E-05  (-0.8824034E-06)
 number of electron     335.9999997 magnetization      -0.0013566
 augmentation part      -46.9864752 magnetization      -0.0013609

 Broyden mixing:
  rms(total) = 0.42514E-03    rms(broyden)= 0.42487E-03
  rms(prec ) = 0.44739E-03
  weight for this iteration     100.00

 eigenvalues of (default mixing * dielectric matrix)
  average eigenvalue GAMMA=   1.5118
  5.0970  2.6677  2.6677  2.5690  1.6196  1.3940  1.1550  1.1550  0.9286  0.9286
  0.7394  0.7394  0.7249  0.5772  0.6126  0.6126

 Free energy of the ion-electron system (eV)
  ---------------------------------------------------
  alpha Z        PSCENC =       253.99581917
  Ewald energy   TEWEN  =     -9970.07137581
  -Hartree energ DENC   =     -4867.88397900
  -exchange      EXHF   =         0.00000000
  -V(xc)+E(xc)   XCENC  =       689.15767803
  PAW double counting   =     39218.95370341   -39044.33595775
  entropy T*S    EENTRO =         0.00000000
  eigenvalues    EBANDS =     -2011.19147385
  atomic energy  EATOM  =     15501.99929693
  Solvation  Ediel_sol  =         0.00000000
  ---------------------------------------------------
  free energy    TOTEN  =      -229.37628887 eV

  energy without entropy =     -229.37628887  energy(sigma->0) =     -229.37628887


--------------------------------------------------------------------------------------------------------




--------------------------------------- Iteration      1(  22)  ---------------------------------------


    POTLOK:  cpu time      0.5335: real time      0.5402
    SETDIJ:  cpu time      8.6051: real time      8.6094
     EDDAV:  cpu time     56.3007: real time     56.3344
 BZINTS: Fermi energy:    0.078642;  336.000000 electrons
         Band energy:-0.201121E+04;  BLOECHL correction:    0.000000
       DOS:  cpu time      0.0260: real time      0.0261
    CHARGE:  cpu time     11.7754: real time     11.7813
    MIXING:  cpu time      0.0215: real time      0.0215
    --------------------------------------------
      LOOP:  cpu time     77.2621: real time     77.3129

 eigenvalue-minimisations  :  9792
 total energy-change (2. order) : 0.4456524E-06  (-0.1413056E-06)
 number of electron     335.9999997 magnetization      -0.0004746
 augmentation part      -46.9865448 magnetization      -0.0004964

 Broyden mixing:
  rms(total) = 0.23125E-03    rms(broyden)= 0.23076E-03
  rms(prec ) = 0.24554E-03
  weight for this iteration     100.00

 eigenvalues of (default mixing * dielectric matrix)
  average eigenvalue GAMMA=   1.5005
  5.0913  2.6562  2.6562  2.6224  1.6722  1.4399  1.4399  1.0837  1.0837  0.9005
  0.9005  0.7424  0.7424  0.6732  0.5782  0.6126  0.6126

 Free energy of the ion-electron system (eV)
  ---------------------------------------------------
  alpha Z        PSCENC =       253.99581917
  Ewald energy   TEWEN  =     -9970.07137581
  -Hartree energ DENC   =     -4867.86214493
  -exchange      EXHF   =         0.00000000
  -V(xc)+E(xc)   XCENC  =       689.15608403
  PAW double counting   =     39217.53663886   -39042.91858521
  entropy T*S    EENTRO =         0.00000000
  eigenvalues    EBANDS =     -2011.21202146
  atomic energy  EATOM  =     15501.99929693
  Solvation  Ediel_sol  =         0.00000000
  ---------------------------------------------------
  free energy    TOTEN  =      -229.37628842 eV

  energy without entropy =     -229.37628842  energy(sigma->0) =     -229.37628842


--------------------------------------------------------------------------------------------------------




--------------------------------------- Iteration      1(  23)  ---------------------------------------


    POTLOK:  cpu time      0.4730: real time      0.4744
    SETDIJ:  cpu time      9.1481: real time      9.1526
     EDDAV:  cpu time     57.7486: real time     57.7810
 BZINTS: Fermi energy:    0.078661;  336.000000 electrons
         Band energy:-0.201121E+04;  BLOECHL correction:    0.000000
       DOS:  cpu time      0.0258: real time      0.0259
    CHARGE:  cpu time     14.6209: real time     14.6268
    MIXING:  cpu time      0.0178: real time      0.0178
    --------------------------------------------
      LOOP:  cpu time     82.0342: real time     82.0786

 eigenvalue-minimisations  :  9216
 total energy-change (2. order) :-0.2301240E-06  (-0.5775507E-07)
 number of electron     335.9999997 magnetization      -0.0002587
 augmentation part      -46.9865176 magnetization      -0.0002551

 Broyden mixing:
[...]

  length of vectors
    10.314108670 16.788494411 10.846477853     0.097707938  0.059564603  0.092912216


 FORCES acting on ions
    electron-ion (+dipol)            ewald-force                    non-local-force                 convergence-correction
 -----------------------------------------------------------------------------------------------
   0.986E+02 -.105E+03 -.125E+02   -.104E+03 0.113E+03 0.112E+02   0.495E+01 -.888E+01 0.132E+01   0.166E-05 -.212E-06 0.716E-06
   0.988E+02 -.105E+03 -.126E+02   -.104E+03 0.113E+03 0.113E+02   0.495E+01 -.888E+01 0.132E+01   0.168E-05 -.272E-06 0.720E-06
   -.124E+02 0.420E+02 -.127E+03   0.126E+02 -.472E+02 0.134E+03   -.245E+00 0.519E+01 -.705E+01   0.867E-07 0.194E-07 -.141E-05
   -.124E+02 0.420E+02 -.127E+03   0.126E+02 -.472E+02 0.134E+03   -.246E+00 0.519E+01 -.705E+01   0.917E-07 0.398E-07 -.137E-05
   -.204E+02 -.901E+02 0.985E+02   0.190E+02 0.989E+02 -.104E+03   0.133E+01 -.881E+01 0.524E+01   -.544E-07 -.281E-07 0.201E-05
   -.211E+02 -.902E+02 0.981E+02   0.198E+02 0.989E+02 -.103E+03   0.134E+01 -.874E+01 0.530E+01   -.504E-07 -.232E-07 0.195E-05
   -.108E+03 0.950E+02 0.627E+01   0.114E+03 -.101E+03 -.415E+01   -.534E+01 0.592E+01 -.212E+01   -.170E-05 0.294E-07 0.722E-06
   -.108E+03 0.950E+02 0.626E+01   0.114E+03 -.101E+03 -.414E+01   -.534E+01 0.592E+01 -.212E+01   -.167E-05 0.521E-07 0.706E-06
   0.136E+03 -.539E+02 -.187E+02   -.143E+03 0.595E+02 0.193E+02   0.680E+01 -.552E+01 -.558E+00   0.156E-05 0.832E-07 -.102E-05
   0.136E+03 -.539E+02 -.187E+02   -.143E+03 0.595E+02 0.193E+02   0.680E+01 -.552E+01 -.558E+00   0.154E-05 0.471E-07 -.102E-05
   -.137E+03 0.542E+02 0.185E+02   0.144E+03 -.597E+02 -.190E+02   -.680E+01 0.548E+01 0.586E+00   -.157E-05 -.210E-07 0.108E-05
   -.136E+03 0.540E+02 0.187E+02   0.143E+03 -.595E+02 -.193E+02   -.680E+01 0.552E+01 0.558E+00   -.157E-05 -.342E-07 0.105E-05
   0.109E+03 -.951E+02 -.635E+01   -.114E+03 0.101E+03 0.423E+01   0.534E+01 -.592E+01 0.212E+01   0.165E-05 -.342E-07 -.649E-06
   0.108E+03 -.950E+02 -.626E+01   -.114E+03 0.101E+03 0.414E+01   0.534E+01 -.592E+01 0.212E+01   0.167E-05 -.961E-08 -.653E-06
   -.124E+02 -.420E+02 0.127E+03   0.126E+02 0.472E+02 -.134E+03   -.245E+00 -.519E+01 0.705E+01   0.807E-07 0.620E-07 0.971E-06
   -.124E+02 -.420E+02 0.127E+03   0.126E+02 0.472E+02 -.134E+03   -.246E+00 -.519E+01 0.705E+01   0.125E-06 0.968E-07 0.964E-06
   0.211E+02 -.902E+02 0.981E+02   -.198E+02 0.990E+02 -.103E+03   -.134E+01 -.874E+01 0.530E+01   0.697E-07 -.499E-07 0.201E-05
   0.211E+02 -.902E+02 0.981E+02   -.198E+02 0.989E+02 -.103E+03   -.134E+01 -.874E+01 0.530E+01   0.770E-07 -.255E-07 0.196E-05
   -.987E+02 -.105E+03 -.125E+02   0.104E+03 0.113E+03 0.112E+02   -.495E+01 -.888E+01 0.132E+01   -.171E-05 -.262E-06 0.700E-06
   -.986E+02 -.105E+03 -.125E+02   0.104E+03 0.113E+03 0.112E+02   -.495E+01 -.888E+01 0.132E+01   -.164E-05 -.201E-06 0.696E-06
   -.136E+03 -.540E+02 -.187E+02   0.143E+03 0.595E+02 0.193E+02   -.680E+01 -.552E+01 -.558E+00   -.153E-05 -.587E-07 -.996E-06
   -.136E+03 -.540E+02 -.187E+02   0.143E+03 0.595E+02 0.193E+02   -.680E+01 -.552E+01 -.558E+00   -.158E-05 -.863E-07 -.989E-06
   0.124E+02 0.420E+02 -.127E+03   -.126E+02 -.472E+02 0.134E+03   0.254E+00 0.519E+01 -.706E+01   -.826E-07 -.830E-07 -.135E-05
   0.124E+02 0.420E+02 -.127E+03   -.126E+02 -.472E+02 0.134E+03   0.245E+00 0.519E+01 -.705E+01   -.714E-07 -.447E-07 -.132E-05
   -.108E+03 -.950E+02 -.629E+01   0.114E+03 0.101E+03 0.418E+01   -.534E+01 -.592E+01 0.212E+01   -.162E-05 0.159E-06 -.679E-06
   -.108E+03 -.950E+02 -.625E+01   0.114E+03 0.101E+03 0.414E+01   -.534E+01 -.592E+01 0.212E+01   -.163E-05 0.102E-06 -.665E-06
   0.987E+02 0.105E+03 0.125E+02   -.104E+03 -.113E+03 -.112E+02   0.495E+01 0.888E+01 -.132E+01   0.161E-05 0.126E-06 -.884E-06
   0.986E+02 0.105E+03 0.125E+02   -.104E+03 -.113E+03 -.112E+02   0.495E+01 0.888E+01 -.132E+01   0.166E-05 0.187E-06 -.853E-06
   -.987E+02 0.105E+03 0.124E+02   0.104E+03 -.113E+03 -.111E+02   -.495E+01 0.888E+01 -.132E+01   -.164E-05 0.335E-06 -.924E-06
   -.986E+02 0.105E+03 0.125E+02   0.104E+03 -.113E+03 -.112E+02   -.495E+01 0.888E+01 -.132E+01   -.164E-05 0.281E-06 -.885E-06
   0.728E+02 0.961E+02 0.632E+02   -.755E+02 -.106E+03 -.653E+02   0.274E+01 0.971E+01 0.207E+01   0.841E-06 0.487E-06 0.351E-06
   0.728E+02 0.961E+02 0.632E+02   -.755E+02 -.106E+03 -.653E+02   0.274E+01 0.971E+01 0.207E+01   0.823E-06 0.434E-06 0.391E-06
   0.219E+02 -.938E+02 -.889E+02   -.206E+02 0.100E+03 0.940E+02   -.133E+01 -.628E+01 -.508E+01   0.251E-06 0.305E-07 -.126E-05
   0.218E+02 -.938E+02 -.889E+02   -.205E+02 0.100E+03 0.940E+02   -.133E+01 -.628E+01 -.509E+01   0.255E-06 0.222E-07 -.131E-05
   -.211E+02 0.902E+02 -.981E+02   0.198E+02 -.989E+02 0.103E+03   0.134E+01 0.874E+01 -.530E+01   -.977E-07 -.462E-07 -.163E-05
   -.211E+02 0.902E+02 -.981E+02   0.198E+02 -.989E+02 0.103E+03   0.134E+01 0.874E+01 -.530E+01   -.859E-07 0.643E-09 -.166E-05
   -.218E+02 0.938E+02 0.890E+02   0.205E+02 -.100E+03 -.941E+02   0.133E+01 0.628E+01 0.509E+01   -.293E-06 -.133E-08 0.165E-05
   -.218E+02 0.938E+02 0.889E+02   0.205E+02 -.100E+03 -.940E+02   0.133E+01 0.628E+01 0.509E+01   -.303E-06 -.233E-07 0.161E-05
   0.211E+02 0.902E+02 -.981E+02   -.198E+02 -.989E+02 0.103E+03   -.134E+01 0.874E+01 -.530E+01   0.624E-07 0.131E-06 -.167E-05
   0.211E+02 0.902E+02 -.981E+02   -.197E+02 -.990E+02 0.103E+03   -.134E+01 0.874E+01 -.530E+01   0.492E-07 0.103E-06 -.169E-05
   0.728E+02 -.961E+02 -.633E+02   -.755E+02 0.106E+03 0.653E+02   0.274E+01 -.971E+01 -.207E+01   0.873E-06 -.450E-06 -.651E-06
   0.728E+02 -.961E+02 -.633E+02   -.755E+02 0.106E+03 0.653E+02   0.274E+01 -.971E+01 -.207E+01   0.862E-06 -.427E-06 -.637E-06
   0.136E+03 0.539E+02 0.187E+02   -.143E+03 -.594E+02 -.193E+02   0.680E+01 0.552E+01 0.558E+00   0.161E-05 0.566E-07 0.106E-05
   0.136E+03 0.540E+02 0.187E+02   -.143E+03 -.595E+02 -.193E+02   0.680E+01 0.552E+01 0.558E+00   0.155E-05 0.177E-07 0.105E-05
   0.108E+03 0.950E+02 0.626E+01   -.114E+03 -.101E+03 -.415E+01   0.534E+01 0.592E+01 -.212E+01   0.166E-05 -.129E-06 0.737E-06
   0.109E+03 0.951E+02 0.632E+01   -.114E+03 -.101E+03 -.419E+01   0.534E+01 0.592E+01 -.213E+01   0.169E-05 -.190E-06 0.744E-06
   -.729E+02 -.962E+02 -.635E+02   0.756E+02 0.106E+03 0.656E+02   -.273E+01 -.971E+01 -.204E+01   -.827E-06 -.341E-06 -.660E-06
   -.728E+02 -.961E+02 -.633E+02   0.755E+02 0.106E+03 0.653E+02   -.274E+01 -.971E+01 -.207E+01   -.856E-06 -.388E-06 -.622E-06
   -.218E+02 -.938E+02 -.889E+02   0.205E+02 0.100E+03 0.940E+02   0.133E+01 -.628E+01 -.509E+01   -.284E-06 0.155E-06 -.126E-05
   -.218E+02 -.937E+02 -.889E+02   0.205E+02 0.100E+03 0.940E+02   0.133E+01 -.628E+01 -.509E+01   -.243E-06 0.222E-06 -.127E-05
   0.216E+02 0.936E+02 0.895E+02   -.203E+02 -.998E+02 -.946E+02   -.130E+01 0.624E+01 0.511E+01   0.300E-06 -.227E-06 0.165E-05
   0.218E+02 0.938E+02 0.889E+02   -.205E+02 -.100E+03 -.940E+02   -.133E+01 0.628E+01 0.509E+01   0.321E-06 -.165E-06 0.160E-05
   -.728E+02 0.961E+02 0.632E+02   0.755E+02 -.106E+03 -.653E+02   -.274E+01 0.971E+01 0.207E+01   -.850E-06 0.341E-06 0.373E-06
   -.728E+02 0.961E+02 0.632E+02   0.755E+02 -.106E+03 -.653E+02   -.274E+01 0.971E+01 0.207E+01   -.842E-06 0.365E-06 0.378E-06
   0.123E+02 -.420E+02 0.127E+03   -.126E+02 0.472E+02 -.134E+03   0.245E+00 -.519E+01 0.705E+01   -.131E-06 -.939E-07 0.100E-05
   0.124E+02 -.420E+02 0.127E+03   -.126E+02 0.472E+02 -.134E+03   0.246E+00 -.519E+01 0.705E+01   -.118E-06 -.791E-07 0.105E-05
 -----------------------------------------------------------------------------------------------
   -.546E-01 0.153E+00 -.837E-02   0.107E-12 -.256E-12 0.142E-12   0.546E-01 -.153E+00 0.837E-02   0.107E-07 -.210E-07 -.705E-07


 POSITION                                       TOTAL-FORCE (eV/Angst)
 -----------------------------------------------------------------------------------
      7.84031      7.96182     -7.59135         0.002583     -0.001088      0.001047
     16.23455      7.96182     -7.59135         0.003230     -0.004028     -0.001982
      3.16872      2.44282     -6.01943         0.002246     -0.000849     -0.002579
     11.56297      2.44282     -6.01943         0.002156     -0.000917     -0.002513
      1.76685      7.82885    -10.09498        -0.027724     -0.009347     -0.062381
     10.16110      7.82725    -10.10485        -0.000072      0.000063     -0.000375
      5.05050      1.12562     -8.40433         0.001746     -0.000562     -0.000855
     13.44475      1.12562     -8.40433         0.001540     -0.000621     -0.000651
      5.13205      1.09979     -2.45651        -0.000116      0.000342     -0.000304
     13.52630      1.09979     -2.45651        -0.000142      0.000562     -0.000238
      3.26219      7.47505     -8.62356         0.023527     -0.016032      0.020564
     11.65644      7.47505     -8.62356         0.000078     -0.000471      0.000274
      3.34375      7.44923     -2.67574        -0.001513      0.000716      0.000641
     11.73799      7.44923     -2.67574        -0.001537      0.000679      0.000778
      7.36585      0.97835     -4.87422         0.002185      0.000885      0.002501
     15.76010      0.97835     -4.87422         0.002165      0.000925      0.002507
      2.43027      2.67356     -9.91842        -0.000061      0.000222     -0.000357
     10.82452      2.67356     -9.91842         0.000088     -0.000019     -0.000481
      4.75106      2.80814     -7.40493        -0.002460     -0.001325      0.001242
     13.14531      2.80814     -7.40493        -0.002440     -0.001234      0.000925
      7.45932      6.25348     -2.64294         0.000026      0.000512     -0.000332
     15.85356      6.25348     -2.64294         0.000020      0.000468     -0.000407
      1.02840      7.59650     -6.20585         0.000360      0.000046     -0.002881
      9.42265      7.59650     -6.20585        -0.002150     -0.000904     -0.002495
      0.85338      2.29554     -2.48931         0.001558      0.000586      0.000561
      9.24762      2.29554     -2.48931         0.001569      0.000597      0.000686
      3.64318      5.76671     -3.67515         0.002322      0.001372     -0.000737
     12.03743      5.76671     -3.67515         0.002514      0.001193     -0.001034
      0.55394      0.61303     -3.48872        -0.002479      0.001353     -0.000816
      8.94819      0.61303     -3.48872        -0.002453      0.001297     -0.000932
      5.79350     -0.03143     -4.03202        -0.001245      0.001857      0.000280
     14.18775     -0.03143     -4.03202        -0.001202      0.001750      0.000238
      4.85766      7.53946     -1.03917        -0.004023      0.002197     -0.000481
     13.25190      7.53946     -1.03917        -0.003959      0.002136     -0.000210
      5.96398      5.90128     -1.16165        -0.000059     -0.000108      0.000614
     14.35822      5.90128     -1.16165         0.000076      0.000099      0.000580
      3.53659      1.03539    -10.04090         0.003848     -0.002271      0.000207
     11.93084      1.03539    -10.04090         0.003938     -0.002049      0.000240
      6.62739      0.74760     -0.97522         0.000018     -0.000029      0.000393
     15.02164      0.74760     -0.97522         0.000076     -0.000191      0.000384
      1.59638      3.45260     -6.86163        -0.001403     -0.001748     -0.000363
      9.99063      3.45260     -6.86163        -0.001201     -0.001779     -0.000199
      0.93493      2.32137     -8.43713        -0.000027     -0.000350      0.000291
      9.32918      2.32137     -8.43713        -0.000126     -0.000444      0.000273
      7.54087      6.27930     -8.59076        -0.001670     -0.000761     -0.000742
     15.93512      6.27930     -8.59076        -0.007509     -0.009645      0.005138
      2.60074      8.60628     -7.04805        -0.001298      0.006224      0.025148
     10.99499      8.60628     -7.04805         0.001167     -0.001780     -0.000321
      7.73371      2.38578     -0.85274         0.003987      0.002109     -0.000221
     16.12796      2.38578     -0.85274         0.004011      0.001931     -0.000173
      0.66053      6.18907    -10.22733         0.005561      0.025124      0.013734
      9.05478      6.18907    -10.22733        -0.003871     -0.002083      0.000214
      6.79787      5.12225     -4.21845         0.001227      0.001706      0.000317
     15.19211      5.12225     -4.21845         0.001216      0.001766      0.000213
      5.22552      6.13203     -5.06065        -0.002169      0.001085      0.002561
     13.61977      6.13203     -5.06065        -0.002130      0.000832      0.002512
 -----------------------------------------------------------------------------------
    total drift:                               -0.000001     -0.000001     -0.000001


--------------------------------------------------------------------------------------------------------



  FREE ENERGIE OF THE ION-ELECTRON SYSTEM (eV)
  ---------------------------------------------------
  free  energy   TOTEN  =      -229.37628846 eV

  energy  without entropy=     -229.37628846  energy(sigma->0) =     -229.37628846



--------------------------------------------------------------------------------------------------------


    POTLOK:  cpu time      7.4251: real time      7.4327


--------------------------------------------------------------------------------------------------------


     LOOP+:  cpu time   2635.4194: real time   2636.9986
    4ORBIT:  cpu time      0.0000: real time      0.0000



 total charge

# of ion       s       p       d       tot
------------------------------------------
    1        1.376   2.247   0.000   3.623
    2        1.376   2.247   0.000   3.623
    3        1.376   2.258   0.000   3.635
    4        1.376   2.258   0.000   3.635
    5        1.376   2.247   0.000   3.623
    6        1.376   2.247   0.000   3.622
    7        1.375   2.262   0.000   3.638
    8        1.375   2.262   0.000   3.638
    9        1.377   2.257   0.000   3.634
   10        1.377   2.257   0.000   3.634
   11        1.377   2.259   0.000   3.635
   12        1.377   2.257   0.000   3.634
   13        1.375   2.262   0.000   3.638
   14        1.375   2.262   0.000   3.638
   15        1.376   2.258   0.000   3.635
   16        1.376   2.258   0.000   3.635
   17        1.376   2.247   0.000   3.622
   18        1.376   2.247   0.000   3.623
   19        1.376   2.247   0.000   3.623
   20        1.376   2.247   0.000   3.623
   21        1.377   2.257   0.000   3.634
   22        1.377   2.257   0.000   3.634
   23        1.376   2.258   0.000   3.635
   24        1.376   2.258   0.000   3.635
   25        1.375   2.262   0.000   3.638
   26        1.375   2.262   0.000   3.638
   27        1.376   2.247   0.000   3.623
   28        1.376   2.247   0.000   3.623
   29        1.376   2.247   0.000   3.623
   30        1.376   2.247   0.000   3.623
   31        1.376   2.254   0.000   3.630
   32        1.376   2.254   0.000   3.630
   33        1.375   2.263   0.000   3.638
   34        1.375   2.263   0.000   3.638
   35        1.376   2.247   0.000   3.622
   36        1.376   2.247   0.000   3.622
   37        1.375   2.263   0.000   3.638
   38        1.375   2.263   0.000   3.638
   39        1.376   2.247   0.000   3.623
   40        1.376   2.247   0.000   3.622
   41        1.376   2.254   0.000   3.630
   42        1.376   2.254   0.000   3.630
   43        1.377   2.257   0.000   3.634
   44        1.377   2.257   0.000   3.634
   45        1.375   2.262   0.000   3.638
   46        1.375   2.262   0.000   3.638
   47        1.376   2.255   0.000   3.630
   48        1.376   2.254   0.000   3.630
   49        1.375   2.263   0.000   3.638
   50        1.375   2.263   0.000   3.638
   51        1.375   2.263   0.000   3.638
   52        1.375   2.263   0.000   3.638
   53        1.376   2.254   0.000   3.630
   54        1.376   2.254   0.000   3.630
   55        1.376   2.258   0.000   3.635
   56        1.376   2.258   0.000   3.635
--------------------------------------------------
tot         77.049 126.315   0.000 203.364



 magnetization (x)

# of ion       s       p       d       tot
------------------------------------------
    1        0.000   0.000   0.000   0.000
    2        0.000   0.000   0.000   0.000
    3        0.000   0.000   0.000   0.000
    4        0.000   0.000   0.000   0.000
    5        0.000   0.000   0.000   0.000
    6        0.000   0.000   0.000   0.000
    7        0.000   0.000   0.000   0.000
    8        0.000   0.000   0.000   0.000
    9        0.000   0.000   0.000   0.000
   10        0.000   0.000   0.000   0.000
   11        0.000   0.000   0.000   0.000
   12        0.000   0.000   0.000   0.000
   13        0.000   0.000   0.000   0.000
   14        0.000   0.000   0.000   0.000
   15        0.000   0.000   0.000   0.000
   16        0.000   0.000   0.000   0.000
   17        0.000   0.000   0.000   0.000
   18        0.000   0.000   0.000   0.000
   19        0.000   0.000   0.000   0.000
   20        0.000   0.000   0.000   0.000
   21        0.000   0.000   0.000   0.000
   22        0.000   0.000   0.000   0.000
   23        0.000   0.000   0.000   0.000
   24        0.000   0.000   0.000   0.000
   25        0.000   0.000   0.000   0.000
   26        0.000   0.000   0.000   0.000
   27        0.000   0.000   0.000   0.000
   28        0.000   0.000   0.000   0.000
   29        0.000   0.000   0.000   0.000
   30        0.000   0.000   0.000   0.000
   31        0.000   0.000   0.000   0.000
   32        0.000   0.000   0.000   0.000
   33        0.000   0.000   0.000   0.000
   34        0.000   0.000   0.000   0.000
   35        0.000   0.000   0.000   0.000
   36        0.000   0.000   0.000   0.000
   37        0.000   0.000   0.000   0.000
   38        0.000   0.000   0.000   0.000
   39        0.000   0.000   0.000   0.000
   40        0.000   0.000   0.000   0.000
   41        0.000   0.000   0.000   0.000
   42        0.000   0.000   0.000   0.000
   43        0.000   0.000   0.000   0.000
   44        0.000   0.000   0.000   0.000
   45        0.000   0.000   0.000   0.000
   46        0.000   0.000   0.000   0.000
   47        0.000   0.000   0.000   0.000
   48        0.000   0.000   0.000   0.000
   49        0.000   0.000   0.000   0.000
   50        0.000   0.000   0.000   0.000
   51        0.000   0.000   0.000   0.000
   52        0.000   0.000   0.000   0.000
   53        0.000   0.000   0.000   0.000
   54        0.000   0.000   0.000   0.000
   55        0.000   0.000   0.000   0.000
   56        0.000   0.000   0.000   0.000
--------------------------------------------------
tot          0.000   0.000   0.000   0.000

 BZINTS: Fermi energy:    0.078535;  336.000000 electrons
         Band energy:-0.201122E+04;  BLOECHL correction:    0.000000

 total amount of memory used by VASP MPI-rank0   322725. kBytes
=======================================================================

   base      :      30000. kBytes
   nonl-proj :      70692. kBytes
   fftplans  :      34504. kBytes
   grid      :      83442. kBytes
   one-center:        344. kBytes
   wavefun   :     103743. kBytes

  
  
 General timing and accounting informations for this job:
 ========================================================
  
                  Total CPU time used (sec):     2682.267
                            User time (sec):     2680.568
                          System time (sec):        1.699
                         Elapsed time (sec):     2684.924
  
                   Maximum memory used (kb):      599484.
                   Average memory used (kb):          N/A
  
                          Minor page faults:       779212
                          Major page faults:            9
                 Voluntary context switches:         7596
