 vasp.6.3.2 27Jun22 (build Mar 25 2024 10:42:18) complex                         
 executed on             LinuxGNU date 2024.03.31  14:51:28
 running on   32 total cores
 distrk:  each k-point on   32 cores,    1 groups
 distr:  one band on NCORE=   1 cores,   32 groups


--------------------------------------------------------------------------------------------------------


 INCAR:
   ISTART = 0
   ICHARG = 2
   PREC = Accurate
   IBRION = -1
   EDIFF = 0.000000001
   EDIFFG = -0.0005
   NSW = 0
   NELM = 100
   ENCUT = 520
   ISMEAR = -5
   SIGMA = 0.05
   ISPIN = 2
   ISYM = 0
   LWAVE = False
   LCHARG = False
   LASPH = True
   LORBIT = 11
   ADDGRID = TRUE

 POTCAR:    PAW_PBE S 06Sep2000                   
 -----------------------------------------------------------------------------
|                                                                             |
|           W    W    AA    RRRRR   N    N  II  N    N   GGGG   !!!           |
|           W    W   A  A   R    R  NN   N  II  NN   N  G    G  !!!           |
|           W    W  A    A  R    R  N N  N  II  N N  N  G       !!!           |
|           W WW W  AAAAAA  RRRRR   N  N N  II  N  N N  G  GGG   !            |
|           WW  WW  A    A  R   R   N   NN  II  N   NN  G    G                |
|           W    W  A    A  R    R  N    N  II  N    N   GGGG   !!!           |
|                                                                             |
|     You use a magnetic or noncollinear calculation, but did not specify     |
|     the initial magnetic moment with the MAGMOM tag. Note that a            |
|     default of 1 will be used for all atoms. This ferromagnetic setup       |
|     may break the symmetry of the crystal, in particular it may rule        |
|     out finding an antiferromagnetic solution. Thence, we recommend         |
|     setting the initial magnetic moment manually or verifying carefully     |
|     that this magnetic setup is desired.                                    |
|                                                                             |
 -----------------------------------------------------------------------------

 -----------------------------------------------------------------------------
|                                                                             |
|           W    W    AA    RRRRR   N    N  II  N    N   GGGG   !!!           |
|           W    W   A  A   R    R  NN   N  II  NN   N  G    G  !!!           |
|           W    W  A    A  R    R  N N  N  II  N N  N  G       !!!           |
|           W WW W  AAAAAA  RRRRR   N  N N  II  N  N N  G  GGG   !            |
|           WW  WW  A    A  R   R   N   NN  II  N   NN  G    G                |
|           W    W  A    A  R    R  N    N  II  N    N   GGGG   !!!           |
|                                                                             |
|     For optimal performance we recommend to set                             |
|       NCORE = 2 up to number-of-cores-per-socket                            |
|     NCORE specifies how many cores store one orbital (NPAR=cpu/NCORE).      |
|     This setting can greatly improve the performance of VASP for DFT.       |
|     The default, NCORE=1 might be grossly inefficient on modern             |
|     multi-core architectures or massively parallel machines. Do your        |
|     own testing! More info at https://www.vasp.at/wiki/index.php/NCORE      |
|     Unfortunately you need to use the default for GW and RPA                |
|     calculations (for HF NCORE is supported but not extensively tested      |
|     yet).                                                                   |
|                                                                             |
 -----------------------------------------------------------------------------

 POTCAR:    PAW_PBE S 06Sep2000                   
   SHA256 =  0fc7481fb0695f01bdc6462160264c5c84044ae9ec85a907d398b887a2bc3132 S/POTCAR              
   COPYR  = (c) Copyright 06Sep2000 Georg Kresse                                                    
   COPYR  = This file is part of the software VASP. Any use, copying, and all other rights are regul
   COPYR  = If you do not have a valid VASP license, you may not use, copy or distribute this file. 
   VRHFIN =S : s2p4                                                                                 
   LEXCH  = PE                                                                                      
   EATOM  =   276.8230 eV,   20.3459 Ry                                                             
                                                                                                    
   TITEL  = PAW_PBE S 06Sep2000                                                                     
   LULTRA =        F    use ultrasoft PP ?                                                          
   IUNSCR =        1    unscreen: 0-lin 1-nonlin 2-no                                               
   RPACOR =    1.500    partial core radius                                                         
   POMASS =   32.066; ZVAL   =    6.000    mass and valenz                                          
   RCORE  =    1.900    outmost cutoff radius                                                       
   RWIGS  =    2.200; RWIGS  =    1.164    wigner-seitz radius (au A)                               
   ENMAX  =  258.689; ENMIN  =  194.016 eV                                                          
   ICORE  =        2    local potential                                                             
   LCOR   =        T    correct aug charges                                                         
   LPAW   =        T    paw PP                                                                      
   EAUG   =  335.092                                                                                
   DEXC   =    0.000                                                                                
   RMAX   =    1.942    core radius for proj-oper                                                   
   RAUG   =    1.300    factor for augmentation sphere                                              
   RDEP   =    1.954    radius for radial grids                                                     
   RDEPT  =    1.744    core radius for aug-charge                                                  
                                                                                                    
   Atomic configuration                                                                             
    6 entries                                                                                       
     n  l   j            E        occ.                                                              
     1  0  0.50     -2405.8406   2.0000                                                             
     2  0  0.50      -211.7007   2.0000                                                             
     2  1  1.50      -156.4958   6.0000                                                             
     3  0  0.50       -17.2562   2.0000                                                             
     3  1  0.50        -7.0085   4.0000                                                             
     3  2  1.50        -6.8029   0.0000                                                             
   Description                                                                                      
     l       E           TYP  RCUT    TYP  RCUT                                                     
     0    -17.2561641     23  1.900                                                                 
     0    -15.8743224     23  1.900                                                                 
     1     -7.0085400     23  1.900                                                                 
     1     -2.7779785     23  1.900                                                                 
     2     -6.8029130     23  1.900                                                                 
  local pseudopotential read in
  partial core-charges read in
  partial kinetic energy density read in
  atomic valenz-charges read in
  non local Contribution for L=           0  read in
    real space projection operators read in
  non local Contribution for L=           0  read in
    real space projection operators read in
  non local Contribution for L=           1  read in
    real space projection operators read in
  non local Contribution for L=           1  read in
    real space projection operators read in
    PAW grid and wavefunctions read in

   number of l-projection  operators is LMAX  =           4
   number of lm-projection operators is LMMAX =           8

 -----------------------------------------------------------------------------
|                                                                             |
|               ----> ADVICE to this user running VASP <----                  |
|                                                                             |
|     You have a (more or less) 'large supercell' and for larger cells it     |
|     might be more efficient to use real-space projection operators.         |
|     Therefore, try LREAL= Auto in the INCAR file.                           |
|     Mind: For very accurate calculation, you might also keep the            |
|     reciprocal projection scheme (i.e. LREAL=.FALSE.).                      |
|                                                                             |
 -----------------------------------------------------------------------------

  PAW_PBE S 06Sep2000                   :
 energy of atom  1       EATOM= -276.8230
 kinetic energy error for atom=    0.0016 (will be added to EATOM!!)


 POSCAR: generated by phonopy
  positions in direct lattice
  No initial velocities read in
 exchange correlation table for  LEXCH =        8
   RHO(1)=    0.500       N(1)  =     2000
   RHO(2)=  100.500       N(2)  =     4000



--------------------------------------------------------------------------------------------------------


 ion  position               nearest neighbor table
   1  0.886  0.467  0.678-  45 1.98  24 2.13
   2  0.886  0.967  0.678-  46 1.98  23 2.13
   3  0.330  0.189  0.551-  41 2.05  19 2.13
   4  0.330  0.689  0.551-  42 2.05  20 2.13
   5  0.913  0.105  0.912-  51 1.98  11 2.13
   6  0.913  0.605  0.912-  52 1.98  12 2.13
   7  0.239  0.301  0.777-  19 1.99  37 2.23
   8  0.240  0.801  0.777-  20 1.98  38 2.23
   9  0.144  0.306  0.224-  31 2.05  39 2.13
  10  0.144  0.806  0.224-  32 2.05  40 2.13
  11  0.856  0.194  0.776-  47 2.05   5 2.13
  12  0.856  0.694  0.776-  48 2.05   6 2.13
  13  0.760  0.199  0.223-  27 1.98  33 2.23
  14  0.760  0.699  0.223-  28 1.98  34 2.23
  15  0.170  0.439  0.449-  31 2.05  30 2.13
  16  0.170  0.939  0.449-  32 2.05  29 2.13
  17  0.413  0.145  0.912-  37 1.98  43 2.13
  18  0.413  0.645  0.912-  38 1.98  44 2.13
  19  0.386  0.283  0.678-   7 1.99   3 2.13
  20  0.386  0.783  0.678-   8 1.98   4 2.13
  21  0.644  0.444  0.224-  53 2.05  35 2.13
  22  0.644  0.944  0.224-  54 2.05  36 2.13
  23  0.830  0.061  0.551-  47 2.05   2 2.13
  24  0.830  0.561  0.551-  48 2.05   1 2.13
  25  0.260  0.051  0.223-  29 1.98  50 2.23
  26  0.260  0.551  0.223-  30 1.98  49 2.23
  27  0.614  0.217  0.322-  13 1.98  55 2.13
  28  0.614  0.717  0.322-  14 1.98  56 2.13
  29  0.114  0.033  0.322-  25 1.98  16 2.13
  30  0.114  0.533  0.322-  26 1.98  15 2.13
  31  0.060  0.345  0.374-   9 2.05  15 2.05
  32  0.060  0.845  0.374-  10 2.05  16 2.05
  33  0.743  0.289  0.071-  35 1.98  13 2.23
  34  0.743  0.789  0.071-  36 1.98  14 2.23
  35  0.587  0.355  0.088-  33 1.98  21 2.13
  36  0.587  0.855  0.088-  34 1.98  22 2.13
  37  0.257  0.211  0.929-  17 1.98   7 2.23
  38  0.257  0.711  0.929-  18 1.98   8 2.23
  39  0.087  0.395  0.088-  49 1.98   9 2.13
  40  0.087  0.895  0.088-  50 1.98  10 2.13
  41  0.440  0.095  0.626-  43 2.05   3 2.05
  42  0.440  0.595  0.626-  44 2.05   4 2.05
  43  0.356  0.056  0.776-  41 2.05  17 2.13
  44  0.356  0.556  0.776-  42 2.05  18 2.13
  45  0.740  0.449  0.777-   1 1.98  52 2.23
  46  0.740  0.949  0.777-   2 1.98  51 2.23
  47  0.940  0.155  0.626-  11 2.05  23 2.05
  48  0.940  0.655  0.626-  12 2.05  24 2.05
  49  0.243  0.461  0.071-  39 1.98  26 2.23
  50  0.243  0.961  0.071-  40 1.98  25 2.23
  51  0.757  0.039  0.929-   5 1.98  46 2.23
  52  0.757  0.539  0.929-   6 1.98  45 2.23
  53  0.560  0.405  0.374-  21 2.05  55 2.05
  54  0.560  0.905  0.374-  22 2.05  56 2.05
  55  0.670  0.311  0.449-  53 2.05  27 2.13
  56  0.670  0.811  0.449-  54 2.05  28 2.13


IMPORTANT INFORMATION: All symmetrisations will be switched off!
NOSYMM: (Re-)initialisation of all symmetry stuff for point group C_1.


----------------------------------------------------------------------------------------

                                     Primitive cell                                     

  volume of cell :    1863.6770

  direct lattice vectors                    reciprocal lattice vectors
     0.000000000 10.307367086 -0.372855731     0.000000000  0.096453423 -0.015606996
    16.788494411  0.000000000  0.000000000     0.059564603  0.000000000  0.000000000
     0.000000000 -1.732519801-10.707215182     0.000000000 -0.003358783 -0.092851486

  length of vectors
    10.314108670 16.788494411 10.846477853     0.097707938  0.059564603  0.092912216

  position of ions in fractional coordinates (direct lattice)
     0.886423141  0.467004751  0.678126386
     0.886423141  0.967004751  0.678126386
     0.329563264  0.188743823  0.550707721
     0.329563264  0.688743823  0.550707721
     0.912671285  0.105241885  0.911960471
     0.912671285  0.605241885  0.911960471
     0.238766859  0.300831047  0.776574189
     0.239736405  0.800831047  0.776574189
     0.144417516  0.305688762  0.224396680
     0.144417516  0.805688762  0.224396680
     0.855582484  0.194311238  0.775603320
     0.855582484  0.694311238  0.775603320
     0.760263595  0.199168953  0.223425811
     0.760263595  0.699168953  0.223425811
     0.170436736  0.438743823  0.449292279
     0.170436736  0.938743823  0.449292279
     0.412671285  0.144758115  0.911960471
     0.412671285  0.644758115  0.911960471
     0.386423141  0.282995249  0.678126386
     0.386423141  0.782995249  0.678126386
     0.644417516  0.444311238  0.224396680
     0.644417516  0.944311238  0.224396680
     0.829563264  0.061256177  0.550707721
     0.829563264  0.561256177  0.550707721
     0.260263595  0.050831047  0.223425811
     0.260263595  0.550831047  0.223425811
     0.613576859  0.217004751  0.321873614
     0.613576859  0.717004751  0.321873614
     0.113576859  0.032995249  0.321873614
     0.113576859  0.532995249  0.321873614
     0.059895700  0.345087734  0.374484367
     0.059895700  0.845087734  0.374484367
     0.743425210  0.289344343  0.071165234
     0.743425210  0.789344343  0.071165234
     0.587328715  0.355241885  0.088039529
     0.587328715  0.855241885  0.088039529
     0.256574790  0.210655657  0.928834766
     0.256574790  0.710655657  0.928834766
     0.087328715  0.394758115  0.088039529
     0.087328715  0.894758115  0.088039529
     0.440104300  0.095087734  0.625515633
     0.440104300  0.595087734  0.625515633
     0.355582484  0.055688762  0.775603320
     0.355582484  0.555688762  0.775603320
     0.739736405  0.449168953  0.776574189
     0.739736405  0.949168953  0.776574189
     0.940104300  0.154912266  0.625515633
     0.940104300  0.654912266  0.625515633
     0.243425210  0.460655657  0.071165234
     0.243425210  0.960655657  0.071165234
     0.756574790  0.039344343  0.928834766
     0.756574790  0.539344343  0.928834766
     0.559895700  0.404912266  0.374484367
     0.559895700  0.904912266  0.374484367
     0.670436736  0.311256177  0.449292279
     0.670436736  0.811256177  0.449292279

  ion indices of the primitive-cell ions
   primitive index   ion index
                 1           1
                 2           2
                 3           3
                 4           4
                 5           5
                 6           6
                 7           7
                 8           8
                 9           9
                10          10
                11          11
                12          12
                13          13
                14          14
                15          15
                16          16
                17          17
                18          18
                19          19
                20          20
                21          21
                22          22
                23          23
                24          24
                25          25
                26          26
                27          27
                28          28
                29          29
                30          30
                31          31
                32          32
                33          33
                34          34
                35          35
                36          36
                37          37
                38          38
                39          39
                40          40
                41          41
                42          42
                43          43
                44          44
                45          45
                46          46
                47          47
                48          48
                49          49
                50          50
                51          51
                52          52
                53          53
                54          54
                55          55
                56          56

----------------------------------------------------------------------------------------



 KPOINTS: pymatgen with grid density = 595 / numbe

Automatic generation of k-mesh.
 Grid dimensions read from file:
 generate k-points for:    2    2    2

 Generating k-lattice:

  Cartesian coordinates                     Fractional coordinates (reciprocal lattice)
     0.000000000  0.048226712 -0.007803498     0.500000000  0.000000000 -0.000000000
     0.029782301  0.000000000  0.000000000     0.000000000  0.500000000  0.000000000
     0.000000000 -0.001679391 -0.046425743    -0.000000000  0.000000000  0.500000000

  Length of vectors
     0.048853969  0.029782301  0.046456108

  Shift w.r.t. Gamma in fractional coordinates (k-lattice)
     0.000000000  0.000000000  0.000000000

 TETIRR: Found     24 inequivalent tetrahedra from       48
 
 Subroutine IBZKPT returns following result:
 ===========================================
 
 Found      8 irreducible k-points:
 
 Following reciprocal coordinates:
            Coordinates               Weight
  0.000000  0.000000  0.000000      1.000000
  0.500000  0.000000  0.000000      1.000000
  0.000000  0.500000  0.000000      1.000000
  0.500000  0.500000  0.000000      1.000000
  0.000000  0.000000  0.500000      1.000000
  0.500000  0.000000  0.500000      1.000000
  0.000000  0.500000  0.500000      1.000000
  0.500000  0.500000  0.500000      1.000000
 
 Following cartesian coordinates:
            Coordinates               Weight
  0.000000  0.000000 -0.000000      1.000000
  0.000000  0.048227 -0.007803      1.000000
  0.029782  0.000000 -0.000000      1.000000
  0.029782  0.048227 -0.007803      1.000000
  0.000000 -0.001679 -0.046426      1.000000
  0.000000  0.046547 -0.054229      1.000000
  0.029782 -0.001679 -0.046426      1.000000
  0.029782  0.046547 -0.054229      1.000000
 


--------------------------------------------------------------------------------------------------------




 Dimension of arrays:
   k-points           NKPTS =      8   k-points in BZ     NKDIM =      8   number of bands    NBANDS=    256
   number of dos      NEDOS =    301   number of ions     NIONS =     56
   non local maximal  LDIM  =      4   non local SUM 2l+1 LMDIM =      8
   total plane-waves  NPLWV = 846720
   max r-space proj   IRMAX =      1   max aug-charges    IRDMAX= 114695
   dimension x,y,z NGX =    80 NGY =  126 NGZ =   84
   dimension x,y,z NGXF=   160 NGYF=  252 NGZF=  168
   support grid    NGXF=   320 NGYF=  504 NGZF=  336
   ions per type =              56
   NGX,Y,Z   is equivalent  to a cutoff of  12.89, 12.48, 12.87 a.u.
   NGXF,Y,Z  is equivalent  to a cutoff of  25.79, 24.95, 25.75 a.u.

 SYSTEM =  unknown system                          
 POSCAR =  generated by phonopy                    

 Startparameter for this run:
   NWRITE =      2    write-flag & timer
   PREC   = accura    normal or accurate (medium, high low for compatibility)
   ISTART =      0    job   : 0-new  1-cont  2-samecut
   ICHARG =      2    charge: 1-file 2-atom 10-const
   ISPIN  =      2    spin polarized calculation?
   LNONCOLLINEAR =      F non collinear calculations
   LSORBIT =      F    spin-orbit coupling
   INIWAV =      1    electr: 0-lowe 1-rand  2-diag
   LASPH  =      T    aspherical Exc in radial PAW
 Electronic Relaxation 1
   ENCUT  =  520.0 eV  38.22 Ry    6.18 a.u.  19.18 31.22 20.17*2*pi/ulx,y,z
   ENINI  =  520.0     initial cutoff
   ENAUG  =  335.1 eV  augmentation charge cutoff
   NELM   =    100;   NELMIN=  2; NELMDL= -5     # of ELM steps 
   EDIFF  = 0.1E-08   stopping-criterion for ELM
   LREAL  =      F    real-space projection
   NLSPLINE    = F    spline interpolate recip. space projectors
   LCOMPAT=      F    compatible to vasp.4.4
   GGA_COMPAT  = T    GGA compatible to vasp.4.4-vasp.4.6
   LMAXPAW     = -100 max onsite density
   LMAXMIX     =    2 max onsite mixed and CHGCAR
   VOSKOWN=      0    Vosko Wilk Nusair interpolation
   ROPT   =    0.00000
 Ionic relaxation
   EDIFFG = -.5E-03   stopping-criterion for IOM
   NSW    =      0    number of steps for IOM
   NBLOCK =      1;   KBLOCK =      1    inner block; outer block 
   IBRION =     -1    ionic relax: 0-MD 1-quasi-New 2-CG
   NFREE  =      0    steps in history (QN), initial steepest desc. (CG)
   ISIF   =      2    stress and relaxation
   IWAVPR =     10    prediction:  0-non 1-charg 2-wave 3-comb
   ISYM   =      0    0-nonsym 1-usesym 2-fastsym
   LCORR  =      T    Harris-Foulkes like correction to forces

   POTIM  = 0.5000    time-step for ionic-motion
   TEIN   =    0.0    initial temperature
   TEBEG  =    0.0;   TEEND  =   0.0 temperature during run
   SMASS  =  -3.00    Nose mass-parameter (am)
   estimated Nose-frequenzy (Omega)   =  0.10E-29 period in steps = 0.13E+47 mass=  -0.243E-26a.u.
   SCALEE = 1.0000    scale energy and forces
   NPACO  =    256;   APACO  = 10.0  distance and # of slots for P.C.
   PSTRESS=    0.0 pullay stress

  Mass of Ions in am
   POMASS =  32.07
  Ionic Valenz
   ZVAL   =   6.00
  Atomic Wigner-Seitz radii
   RWIGS  =  -1.00
  virtual crystal weights 
   VCA    =   1.00
   NELECT =     336.0000    total number of electrons
   NUPDOWN=      -1.0000    fix difference up-down

 DOS related values:
   EMIN   =  10.00;   EMAX   =-10.00  energy-range for DOS
   EFERMI =   0.00
   ISMEAR =    -5;   SIGMA  =   0.05  broadening in eV -4-tet -1-fermi 0-gaus

 Electronic relaxation 2 (details)
   IALGO  =     38    algorithm
   LDIAG  =      T    sub-space diagonalisation (order eigenvalues)
   LSUBROT=      F    optimize rotation matrix (better conditioning)
   TURBO    =      0    0=normal 1=particle mesh
   IRESTART =      0    0=no restart 2=restart with 2 vectors
   NREBOOT  =      0    no. of reboots
   NMIN     =      0    reboot dimension
   EREF     =   0.00    reference energy to select bands
   IMIX   =      4    mixing-type and parameters
     AMIX     =   0.40;   BMIX     =  1.00
     AMIX_MAG =   1.60;   BMIX_MAG =  1.00
     AMIN     =   0.10
     WC   =   100.;   INIMIX=   1;  MIXPRE=   1;  MAXMIX= -45

 Intra band minimization:
   WEIMIN = 0.0000     energy-eigenvalue tresh-hold
   EBREAK =  0.98E-12  absolut break condition
   DEPER  =   0.30     relativ break condition  

   TIME   =   0.40     timestep for ELM

  volume/ion in A,a.u.               =      33.28       224.58
  Fermi-wavevector in a.u.,A,eV,Ry     =   0.924835  1.747685 11.637339  0.855320
  Thomas-Fermi vector in A             =   2.050624

 Write flags
   LWAVE        =      F    write WAVECAR
   LDOWNSAMPLE  =      F    k-point downsampling of WAVECAR
   LCHARG       =      F    write CHGCAR
   LVTOT        =      F    write LOCPOT, total local potential
   LVHAR        =      F    write LOCPOT, Hartree potential only
   LELF         =      F    write electronic localiz. function (ELF)
   LORBIT       =     11    0 simple, 1 ext, 2 COOP (PROOUT), +10 PAW based schemes


 Dipole corrections
   LMONO  =      F    monopole corrections only (constant potential shift)
   LDIPOL =      F    correct potential (dipole corrections)
   IDIPOL =      0    1-x, 2-y, 3-z, 4-all directions 
   EPSILON=  1.0000000 bulk dielectric constant

 Exchange correlation treatment:
   GGA     =    --    GGA type
   LEXCH   =     8    internal setting for exchange type
   LIBXC   =     F    Libxc                    
   VOSKOWN =     0    Vosko Wilk Nusair interpolation
   LHFCALC =     F    Hartree Fock is set to
   LHFONE  =     F    Hartree Fock one center treatment
   AEXX    =    0.0000 exact exchange contribution

 Linear response parameters
   LEPSILON=     F    determine dielectric tensor
   LRPA    =     F    only Hartree local field effects (RPA)
   LNABLA  =     F    use nabla operator in PAW spheres
   LVEL    =     F    velocity operator in full k-point grid
   CSHIFT  =0.1000    complex shift for real part using Kramers Kronig
   OMEGAMAX=  -1.0    maximum frequency
   DEG_THRESHOLD= 0.2000000E-02 threshold for treating states as degnerate
   RTIME   =   -0.100 relaxation time in fs
  (WPLASMAI=    0.000 imaginary part of plasma frequency in eV, 0.658/RTIME)
   DFIELD  = 0.0000000 0.0000000 0.0000000 field for delta impulse in time

  Optional k-point grid parameters
   LKPOINTS_OPT  =     F    use optional k-point grid
   KPOINTS_OPT_MODE=     1    mode for optional k-point grid

 Orbital magnetization related:
   ORBITALMAG=     F  switch on orbital magnetization
   LCHIMAG   =     F  perturbation theory with respect to B field
   DQ        =  0.001000  dq finite difference perturbation B field
   LLRAUG    =     F  two centre corrections for induced B field



--------------------------------------------------------------------------------------------------------


 Static calculation
 charge density and potential will be updated during run
 spin polarized calculation
 Variant of blocked Davidson
 Davidson routine will perform the subspace rotation
 perform sub-space diagonalisation
    after iterative eigenvector-optimisation
 modified Broyden-mixing scheme, WC =      100.0
 initial mixing is a Kerker type mixing with AMIX =  0.4000 and BMIX =      1.0000
 Hartree-type preconditioning will be used
 using additional bands           88
 reciprocal scheme for non local part
 use partial core corrections
 calculate Harris-corrections to forces   (improved forces if not selfconsistent)
 use gradient corrections 
 use of overlap-Matrix (Vanderbilt PP)
 Fermi weights with tetrahedron method with Bloechl corrections


--------------------------------------------------------------------------------------------------------


  energy-cutoff  :      520.00
  volume of cell :     1863.68
      direct lattice vectors                 reciprocal lattice vectors
     0.000000000 10.307367086 -0.372855731     0.000000000  0.096453423 -0.015606996
    16.788494411  0.000000000  0.000000000     0.059564603  0.000000000  0.000000000
     0.000000000 -1.732519801-10.707215182     0.000000000 -0.003358783 -0.092851486

  length of vectors
    10.314108670 16.788494411 10.846477853     0.097707938  0.059564603  0.092912216



 k-points in units of 2pi/SCALE and weight: pymatgen with grid density = 595 / numbe
   0.00000000  0.00000000 -0.00000000       0.125
   0.00000000  0.04822671 -0.00780350       0.125
   0.02978230  0.00000000 -0.00000000       0.125
   0.02978230  0.04822671 -0.00780350       0.125
   0.00000000 -0.00167939 -0.04642574       0.125
   0.00000000  0.04654732 -0.05422924       0.125
   0.02978230 -0.00167939 -0.04642574       0.125
   0.02978230  0.04654732 -0.05422924       0.125

 k-points in reciprocal lattice and weights: pymatgen with grid density = 595 / numbe
   0.00000000  0.00000000  0.00000000       0.125
   0.50000000  0.00000000  0.00000000       0.125
   0.00000000  0.50000000  0.00000000       0.125
   0.50000000  0.50000000  0.00000000       0.125
   0.00000000  0.00000000  0.50000000       0.125
   0.50000000  0.00000000  0.50000000       0.125
   0.00000000  0.50000000  0.50000000       0.125
   0.50000000  0.50000000  0.50000000       0.125

 position of ions in fractional coordinates (direct lattice) 
   0.88642314  0.46700475  0.67812639
   0.88642314  0.96700475  0.67812639
   0.32956326  0.18874382  0.55070772
   0.32956326  0.68874382  0.55070772
   0.91267129  0.10524188  0.91196047
   0.91267129  0.60524188  0.91196047
   0.23876686  0.30083105  0.77657419
   0.23973640  0.80083105  0.77657419
   0.14441752  0.30568876  0.22439668
   0.14441752  0.80568876  0.22439668
   0.85558248  0.19431124  0.77560332
   0.85558248  0.69431124  0.77560332
   0.76026360  0.19916895  0.22342581
   0.76026360  0.69916895  0.22342581
   0.17043674  0.43874382  0.44929228
   0.17043674  0.93874382  0.44929228
   0.41267129  0.14475812  0.91196047
   0.41267129  0.64475812  0.91196047
   0.38642314  0.28299525  0.67812639
   0.38642314  0.78299525  0.67812639
   0.64441752  0.44431124  0.22439668
   0.64441752  0.94431124  0.22439668
   0.82956326  0.06125618  0.55070772
   0.82956326  0.56125618  0.55070772
   0.26026360  0.05083105  0.22342581
   0.26026360  0.55083105  0.22342581
   0.61357686  0.21700475  0.32187361
   0.61357686  0.71700475  0.32187361
   0.11357686  0.03299525  0.32187361
   0.11357686  0.53299525  0.32187361
   0.05989570  0.34508773  0.37448437
   0.05989570  0.84508773  0.37448437
   0.74342521  0.28934434  0.07116523
   0.74342521  0.78934434  0.07116523
   0.58732871  0.35524188  0.08803953
   0.58732871  0.85524188  0.08803953
   0.25657479  0.21065566  0.92883477
   0.25657479  0.71065566  0.92883477
   0.08732871  0.39475812  0.08803953
   0.08732871  0.89475812  0.08803953
   0.44010430  0.09508773  0.62551563
   0.44010430  0.59508773  0.62551563
   0.35558248  0.05568876  0.77560332
   0.35558248  0.55568876  0.77560332
   0.73973640  0.44916895  0.77657419
   0.73973640  0.94916895  0.77657419
   0.94010430  0.15491227  0.62551563
   0.94010430  0.65491227  0.62551563
   0.24342521  0.46065566  0.07116523
   0.24342521  0.96065566  0.07116523
   0.75657479  0.03934434  0.92883477
   0.75657479  0.53934434  0.92883477
   0.55989570  0.40491227  0.37448437
   0.55989570  0.90491227  0.37448437
   0.67043674  0.31125618  0.44929228
   0.67043674  0.81125618  0.44929228

 position of ions in cartesian coordinates  (Angst):
   7.84030666  7.96182132 -7.59135308
  16.23455387  7.96182132 -7.59135308
   3.16872461  2.44281751 -6.01942562
  11.56297182  2.44281751 -6.01942562
   1.76685280  7.82724839-10.10485172
  10.16110000  7.82724839-10.10485172
   5.05050035  1.11562751 -8.40397253
  13.44474755  1.12562097 -8.40433404
   5.13205407  1.09979266 -2.45651044
  13.52630128  1.09979266 -2.45651044
   3.26219313  7.47505463 -8.62356047
  11.65644034  7.47505463 -8.62356047
   3.34374686  7.44922632 -2.67573688
  11.73799406  7.44922632 -2.67573688
   7.36584822  0.97834624 -4.87421742
  15.76009542  0.97834624 -4.87421742
   2.43027081  2.67356485 -9.91842386
  10.82451801  2.67356485 -9.91842386
   4.75106415  2.80813777 -7.40492521
  13.14531135  2.80813777 -7.40492521
   7.45931673  6.25347620 -2.64293831
  15.85356394  6.25347620 -2.64293831
   1.02839899  7.59650105 -6.20585349
   9.42264619  7.59650105 -6.20585349
   0.85337674  2.29554277 -2.48930901
   9.24762395  2.29554277 -2.48930901
   3.64318306  5.76670951 -3.67514570
  12.03743026  5.76670951 -3.67514570
   0.55394055  0.61302597 -3.48871783
   8.94818775  0.61302597 -3.48871783
   5.79350349 -0.03143461 -4.03201715
  14.18775070 -0.03143461 -4.03201715
   4.85765589  7.53946136 -1.03917182
  13.25190310  7.53946136 -1.03917182
   5.96397640  5.90128244 -1.16164705
  14.35822361  5.90128244 -1.16164705
   3.53659131  1.03538593-10.04089909
  11.93083852  1.03538593-10.04089909
   6.62739441  0.74759889 -0.97521919
  15.02164161  0.74759889 -0.97521919
   1.59637989  3.45259836 -6.86162589
   9.99062710  3.45259836 -6.86162589
   0.93493047  2.32137108 -8.43713261
   9.32917768  2.32137108 -8.43713261
   7.54087046  6.27930451 -8.59076190
  15.93511767  6.27930451 -8.59076190
   2.60074371  8.60628190 -7.04805376
  10.99499092  8.60628190 -7.04805376
   7.73371492  2.38577782 -0.85274396
  16.12796212  2.38577782 -0.85274396
   0.66053229  6.18906947-10.22732695
   9.05477950  6.18906947-10.22732695
   6.79786731  5.12224893 -4.21844502
  15.19211452  5.12224893 -4.21844502
   5.22552259  6.13202978 -5.06064529
  13.61976980  6.13202978 -5.06064529



--------------------------------------------------------------------------------------------------------


 k-point   1 :   0.0000 0.0000 0.0000  plane waves:   50179
 k-point   2 :   0.5000 0.0000 0.0000  plane waves:   50160
 k-point   3 :   0.0000 0.5000 0.0000  plane waves:   50162
 k-point   4 :   0.5000 0.5000 0.0000  plane waves:   50192
 k-point   5 :   0.0000 0.0000 0.5000  plane waves:   50190
 k-point   6 :   0.5000 0.0000 0.5000  plane waves:   50190
 k-point   7 :   0.0000 0.5000 0.5000  plane waves:   50172
 k-point   8 :   0.5000 0.5000 0.5000  plane waves:   50200

 maximum and minimum number of plane-waves per node :     50200    50160

 maximum number of plane-waves:     50200
 maximum index in each direction: 
   IXMAX=   19   IYMAX=   31   IZMAX=   20
   IXMIN=  -19   IYMIN=  -31   IZMIN=  -20


 serial   3D FFT for wavefunctions
 parallel 3D FFT for charge:
    minimum data exchange during FFTs selected (reduces bandwidth)


 total amount of memory used by VASP MPI-rank0   322725. kBytes
=======================================================================

   base      :      30000. kBytes
   nonl-proj :      70692. kBytes
   fftplans  :      34504. kBytes
   grid      :      83442. kBytes
   one-center:        344. kBytes
   wavefun   :     103743. kBytes

     INWAV:  cpu time      0.0000: real time      0.0002
 Broyden mixing: mesh for mixing (old mesh)
   NGX = 39   NGY = 63   NGZ = 41
  (NGX  =160   NGY  =252   NGZ  =168)
  gives a total of 100737 points

 initial charge density was supplied:
 charge density of overlapping atoms calculated
 number of electron     336.0000000 magnetization      56.0000000
 keeping initial charge density in first step


--------------------------------------------------------------------------------------------------------


 Maximum index for augmentation-charges         3947 (set IRDMAX)


--------------------------------------------------------------------------------------------------------


 First call to EWALD:  gamma=   0.144
 Maximum number of real-space cells 3x 2x 3
 Maximum number of reciprocal cells 2x 4x 2

    FEWALD:  cpu time      0.0021: real time      0.0021


--------------------------------------- Iteration      1(   1)  ---------------------------------------


    POTLOK:  cpu time      0.5122: real time      0.5123
    SETDIJ:  cpu time      7.1508: real time      7.1512
     EDDAV:  cpu time     44.8560: real time     44.8585
 BZINTS: Fermi energy:   10.166439;  336.000000 electrons
         Band energy: 0.225201E+03;  BLOECHL correction:   -0.008742
       DOS:  cpu time      0.0440: real time      0.0441
    --------------------------------------------
      LOOP:  cpu time     52.5631: real time     52.5661

 eigenvalue-minimisations  :  8192
 total energy-change (2. order) : 0.2106007E+04  (-0.1333785E+05)
 number of electron     336.0000000 magnetization      56.0000000
 augmentation part      336.0000000 magnetization      56.0000000

 Free energy of the ion-electron system (eV)
  ---------------------------------------------------
  alpha Z        PSCENC =       253.99581917
  Ewald energy   TEWEN  =     -9971.93970996
  -Hartree energ DENC   =     -4764.99022793
  -exchange      EXHF   =         0.00000000
  -V(xc)+E(xc)   XCENC  =       682.49405398
  PAW double counting   =     12174.71095765   -11995.46358648
  entropy T*S    EENTRO =         0.00000000
  eigenvalues    EBANDS =       225.20072874
  atomic energy  EATOM  =     15501.99929693
  Solvation  Ediel_sol  =         0.00000000
  ---------------------------------------------------
  free energy    TOTEN  =      2106.00733211 eV

  energy without entropy =     2106.00733211  energy(sigma->0) =     2106.00733211


--------------------------------------------------------------------------------------------------------




--------------------------------------- Iteration      1(   2)  ---------------------------------------


     EDDAV:  cpu time     50.4085: real time     50.4116
 BZINTS: Fermi energy:    1.451898;  336.000000 electrons
         Band energy:-0.187456E+04;  BLOECHL correction:    0.000000
       DOS:  cpu time      0.0272: real time      0.0272
    --------------------------------------------
      LOOP:  cpu time     50.4357: real time     50.4388

 eigenvalue-minimisations  : 10272
 total energy-change (2. order) :-0.2099756E+04  (-0.2021582E+04)
 number of electron     336.0000000 magnetization      56.0000000
 augmentation part      336.0000000 magnetization      56.0000000

 Free energy of the ion-electron system (eV)
  ---------------------------------------------------
  alpha Z        PSCENC =       253.99581917
  Ewald energy   TEWEN  =     -9971.93970996
  -Hartree energ DENC   =     -4764.99022793
  -exchange      EXHF   =         0.00000000
  -V(xc)+E(xc)   XCENC  =       682.49405398
  PAW double counting   =     12174.71095765   -11995.46358648
  entropy T*S    EENTRO =         0.00000000
  eigenvalues    EBANDS =     -1874.55540269
  atomic energy  EATOM  =     15501.99929693
  Solvation  Ediel_sol  =         0.00000000
  ---------------------------------------------------
  free energy    TOTEN  =         6.25120068 eV

  energy without entropy =        6.25120068  energy(sigma->0) =        6.25120068


--------------------------------------------------------------------------------------------------------




--------------------------------------- Iteration      1(   3)  ---------------------------------------


     EDDAV:  cpu time     49.3990: real time     49.4027
 BZINTS: Fermi energy:    0.220890;  336.000000 electrons
         Band energy:-0.209439E+04;  BLOECHL correction:    0.000000
       DOS:  cpu time      0.0264: real time      0.0265
    --------------------------------------------
      LOOP:  cpu time     49.4254: real time     49.4292

 eigenvalue-minimisations  : 10240
 total energy-change (2. order) :-0.2198298E+03  (-0.2171429E+03)
 number of electron     336.0000000 magnetization      56.0000000
 augmentation part      336.0000000 magnetization      56.0000000

 Free energy of the ion-electron system (eV)
  ---------------------------------------------------
  alpha Z        PSCENC =       253.99581917
  Ewald energy   TEWEN  =     -9971.93970996
  -Hartree energ DENC   =     -4764.99022793
  -exchange      EXHF   =         0.00000000
  -V(xc)+E(xc)   XCENC  =       682.49405398
  PAW double counting   =     12174.71095765   -11995.46358648
  entropy T*S    EENTRO =         0.00000000
  eigenvalues    EBANDS =     -2094.38520925
  atomic energy  EATOM  =     15501.99929693
  Solvation  Ediel_sol  =         0.00000000
  ---------------------------------------------------
  free energy    TOTEN  =      -213.57860588 eV

  energy without entropy =     -213.57860588  energy(sigma->0) =     -213.57860588


--------------------------------------------------------------------------------------------------------




--------------------------------------- Iteration      1(   4)  ---------------------------------------


     EDDAV:  cpu time     50.4355: real time     50.4421
 BZINTS: Fermi energy:    0.192877;  336.000000 electrons
         Band energy:-0.209929E+04;  BLOECHL correction:    0.000000
       DOS:  cpu time      0.0273: real time      0.0273
    --------------------------------------------
      LOOP:  cpu time     50.4627: real time     50.4694

 eigenvalue-minimisations  : 10368
 total energy-change (2. order) :-0.4900239E+01  (-0.4881908E+01)
 number of electron     336.0000000 magnetization      56.0000000
 augmentation part      336.0000000 magnetization      56.0000000

 Free energy of the ion-electron system (eV)
  ---------------------------------------------------
  alpha Z        PSCENC =       253.99581917
  Ewald energy   TEWEN  =     -9971.93970996
  -Hartree energ DENC   =     -4764.99022793
  -exchange      EXHF   =         0.00000000
  -V(xc)+E(xc)   XCENC  =       682.49405398
  PAW double counting   =     12174.71095765   -11995.46358648
  entropy T*S    EENTRO =         0.00000000
  eigenvalues    EBANDS =     -2099.28544805
  atomic energy  EATOM  =     15501.99929693
  Solvation  Ediel_sol  =         0.00000000
  ---------------------------------------------------
  free energy    TOTEN  =      -218.47884468 eV

  energy without entropy =     -218.47884468  energy(sigma->0) =     -218.47884468


--------------------------------------------------------------------------------------------------------




--------------------------------------- Iteration      1(   5)  ---------------------------------------


     EDDAV:  cpu time     53.6696: real time     53.6733
 BZINTS: Fermi energy:    0.192896;  336.000000 electrons
         Band energy:-0.209942E+04;  BLOECHL correction:    0.000000
       DOS:  cpu time      0.0268: real time      0.0269
    CHARGE:  cpu time      8.3925: real time      8.3935
    MIXING:  cpu time      0.0105: real time      0.0105
    --------------------------------------------
      LOOP:  cpu time     62.0994: real time     62.1042

 eigenvalue-minimisations  : 10080
 total energy-change (2. order) :-0.1328879E+00  (-0.1328218E+00)
 number of electron     335.9999997 magnetization      44.9918631
 augmentation part      -47.3225197 magnetization      44.8828109

 Broyden mixing:
  rms(total) = 0.82799E+01    rms(broyden)= 0.82799E+01
  rms(prec ) = 0.82999E+01
  weight for this iteration     100.00

 Free energy of the ion-electron system (eV)
  ---------------------------------------------------
  alpha Z        PSCENC =       253.99581917
  Ewald energy   TEWEN  =     -9971.93970996
  -Hartree energ DENC   =     -4764.99022793
  -exchange      EXHF   =         0.00000000
  -V(xc)+E(xc)   XCENC  =       682.49405398
  PAW double counting   =     12174.71095765   -11995.46358648
  entropy T*S    EENTRO =         0.00000000
  eigenvalues    EBANDS =     -2099.41833595
  atomic energy  EATOM  =     15501.99929693
  Solvation  Ediel_sol  =         0.00000000
  ---------------------------------------------------
  free energy    TOTEN  =      -218.61173258 eV

  energy without entropy =     -218.61173258  energy(sigma->0) =     -218.61173258


--------------------------------------------------------------------------------------------------------




--------------------------------------- Iteration      1(   6)  ---------------------------------------


    POTLOK:  cpu time      0.4336: real time      0.4343
    SETDIJ:  cpu time      3.7700: real time      3.7702
     EDDAV:  cpu time     47.9616: real time     47.9644
 BZINTS: Fermi energy:    0.410049;  336.000000 electrons
         Band energy:-0.201398E+04;  BLOECHL correction:    0.000000
       DOS:  cpu time      0.0273: real time      0.0273
    CHARGE:  cpu time     10.0720: real time     10.0725
    MIXING:  cpu time      0.0079: real time      0.0079
    --------------------------------------------
      LOOP:  cpu time     62.2724: real time     62.2766

 eigenvalue-minimisations  :  9632
 total energy-change (2. order) : 0.1022826E+03  (-0.2668137E+02)
 number of electron     335.9999997 magnetization      26.4655486
 augmentation part      -47.6487877 magnetization      27.5234143

 Broyden mixing:
  rms(total) = 0.49350E+01    rms(broyden)= 0.49350E+01
  rms(prec ) = 0.49573E+01
  weight for this iteration     100.00

 eigenvalues of (default mixing * dielectric matrix)
  average eigenvalue GAMMA=   1.6689
  1.6689

 Free energy of the ion-electron system (eV)
  ---------------------------------------------------
  alpha Z        PSCENC =       253.99581917
  Ewald energy   TEWEN  =     -9971.93970996
  -Hartree energ DENC   =     -4809.26064701
  -exchange      EXHF   =         0.00000000
  -V(xc)+E(xc)   XCENC  =       746.06948512
  PAW double counting   =     20721.05412606   -20544.27244584
  entropy T*S    EENTRO =         0.00000000
  eigenvalues    EBANDS =     -2013.97506040
  atomic energy  EATOM  =     15501.99929693
  Solvation  Ediel_sol  =         0.00000000
  ---------------------------------------------------
  free energy    TOTEN  =      -116.32913592 eV

  energy without entropy =     -116.32913592  energy(sigma->0) =     -116.32913592


--------------------------------------------------------------------------------------------------------




--------------------------------------- Iteration      1(   7)  ---------------------------------------


    POTLOK:  cpu time      0.4326: real time      0.4374
    SETDIJ:  cpu time     13.6733: real time     13.6738
     EDDAV:  cpu time     50.5613: real time     50.5639
 BZINTS: Fermi energy:    0.739693;  336.000000 electrons
         Band energy:-0.186743E+04;  BLOECHL correction:    0.000000
       DOS:  cpu time      0.0259: real time      0.0259
    CHARGE:  cpu time     13.9194: real time     13.9200
    MIXING:  cpu time      0.0087: real time      0.0087
    --------------------------------------------
      LOOP:  cpu time     78.6211: real time     78.6296

 eigenvalue-minimisations  : 10112
 total energy-change (2. order) :-0.1115051E+02  (-0.2698956E+01)
 number of electron     335.9999997 magnetization      19.7385095
 augmentation part      -47.3156948 magnetization      20.9437228

 Broyden mixing:
  rms(total) = 0.14058E+01    rms(broyden)= 0.14058E+01
  rms(prec ) = 0.14094E+01
  weight for this iteration     100.00

 eigenvalues of (default mixing * dielectric matrix)
  average eigenvalue GAMMA=   1.4813
  0.7858  2.1769

 Free energy of the ion-electron system (eV)
  ---------------------------------------------------
  alpha Z        PSCENC =       253.99581917
  Ewald energy   TEWEN  =     -9971.93970996
  -Hartree energ DENC   =     -4968.88706285
  -exchange      EXHF   =         0.00000000
  -V(xc)+E(xc)   XCENC  =       751.41732771
  PAW double counting   =     37040.60536738   -36867.23610358
  entropy T*S    EENTRO =         0.00000000
  eigenvalues    EBANDS =     -1867.43457887
  atomic energy  EATOM  =     15501.99929693
  Solvation  Ediel_sol  =         0.00000000
  ---------------------------------------------------
  free energy    TOTEN  =      -127.47964405 eV

  energy without entropy =     -127.47964405  energy(sigma->0) =     -127.47964405


--------------------------------------------------------------------------------------------------------




--------------------------------------- Iteration      1(   8)  ---------------------------------------


    POTLOK:  cpu time      0.4643: real time      0.4653
    SETDIJ:  cpu time      8.1103: real time      8.1131
     EDDAV:  cpu time     50.5943: real time     50.5972
 BZINTS: Fermi energy:    0.707117;  336.000000 electrons
         Band energy:-0.185514E+04;  BLOECHL correction:    0.000000
       DOS:  cpu time      0.0257: real time      0.0258
    CHARGE:  cpu time      8.9561: real time      8.9564
    MIXING:  cpu time      0.0079: real time      0.0079
    --------------------------------------------
      LOOP:  cpu time     68.1586: real time     68.1656

 eigenvalue-minimisations  :  9312
 total energy-change (2. order) :-0.4259707E+02  (-0.1963324E+01)
 number of electron     335.9999997 magnetization      16.0516077
 augmentation part      -47.0128456 magnetization      17.0962916

 Broyden mixing:
  rms(total) = 0.78546E+00    rms(broyden)= 0.78546E+00
  rms(prec ) = 0.79056E+00
  weight for this iteration     100.00

 eigenvalues of (default mixing * dielectric matrix)
  average eigenvalue GAMMA=   1.3395
  2.4923  0.9446  0.5815

 Free energy of the ion-electron system (eV)
  ---------------------------------------------------
  alpha Z        PSCENC =       253.99581917
  Ewald energy   TEWEN  =     -9971.93970996
  -Hartree energ DENC   =     -4998.19110230
  -exchange      EXHF   =         0.00000000
  -V(xc)+E(xc)   XCENC  =       726.59530643
  PAW double counting   =     40155.71631381   -39983.11356197
  entropy T*S    EENTRO =         0.00000000
  eigenvalues    EBANDS =     -1855.13907503
  atomic energy  EATOM  =     15501.99929693
  Solvation  Ediel_sol  =         0.00000000
  ---------------------------------------------------
  free energy    TOTEN  =      -170.07671292 eV

  energy without entropy =     -170.07671292  energy(sigma->0) =     -170.07671292


--------------------------------------------------------------------------------------------------------




--------------------------------------- Iteration      1(   9)  ---------------------------------------


    POTLOK:  cpu time      0.4412: real time      0.4424
    SETDIJ:  cpu time      5.5869: real time      5.5871
     EDDAV:  cpu time     50.5801: real time     50.5828
 BZINTS: Fermi energy:    0.628816;  336.000000 electrons
         Band energy:-0.186636E+04;  BLOECHL correction:    0.000000
       DOS:  cpu time      0.0265: real time      0.0266
    CHARGE:  cpu time     14.5286: real time     14.5292
    MIXING:  cpu time      0.0116: real time      0.0116
    --------------------------------------------
      LOOP:  cpu time     71.1749: real time     71.1797

 eigenvalue-minimisations  : 10240
 total energy-change (2. order) :-0.1693214E+02  (-0.6522401E+00)
 number of electron     335.9999997 magnetization      11.5265223
 augmentation part      -46.9150301 magnetization      12.3640021

 Broyden mixing:
  rms(total) = 0.43663E+00    rms(broyden)= 0.43662E+00
  rms(prec ) = 0.44871E+00
  weight for this iteration     100.00

 eigenvalues of (default mixing * dielectric matrix)
  average eigenvalue GAMMA=   1.3241
  2.5750  1.3000  0.7106  0.7106

 Free energy of the ion-electron system (eV)
  ---------------------------------------------------
  alpha Z        PSCENC =       253.99581917
  Ewald energy   TEWEN  =     -9971.93970996
  -Hartree energ DENC   =     -4994.49903366
  -exchange      EXHF   =         0.00000000
  -V(xc)+E(xc)   XCENC  =       717.17343891
  PAW double counting   =     40946.39102287   -40773.76690481
  entropy T*S    EENTRO =         0.00000000
  eigenvalues    EBANDS =     -1866.36277836
  atomic energy  EATOM  =     15501.99929693
  Solvation  Ediel_sol  =         0.00000000
  ---------------------------------------------------
  free energy    TOTEN  =      -187.00884891 eV

  energy without entropy =     -187.00884891  energy(sigma->0) =     -187.00884891


--------------------------------------------------------------------------------------------------------




--------------------------------------- Iteration      1(  10)  ---------------------------------------


    POTLOK:  cpu time      0.4620: real time      0.4630
    SETDIJ:  cpu time     11.2865: real time     11.2866
     EDDAV:  cpu time     54.9123: real time     54.9167
 BZINTS: Fermi energy:    0.475569;  336.000000 electrons
         Band energy:-0.190094E+04;  BLOECHL correction:    0.000000
       DOS:  cpu time      0.0260: real time      0.0261
    CHARGE:  cpu time     12.7526: real time     12.7532
    MIXING:  cpu time      0.0089: real time      0.0089
    --------------------------------------------
      LOOP:  cpu time     79.4482: real time     79.4545

 eigenvalue-minimisations  :  9984
 total energy-change (2. order) :-0.2003999E+02  (-0.1301737E+01)
 number of electron     335.9999997 magnetization       5.3060702
 augmentation part      -46.8735478 magnetization       5.8401885

 Broyden mixing:
  rms(total) = 0.32372E+00    rms(broyden)= 0.32371E+00
  rms(prec ) = 0.33669E+00
  weight for this iteration     100.00

 eigenvalues of (default mixing * dielectric matrix)
  average eigenvalue GAMMA=   1.4495
  2.4870  2.4870  0.9410  0.7302  0.6021

 Free energy of the ion-electron system (eV)
  ---------------------------------------------------
  alpha Z        PSCENC =       253.99581917
  Ewald energy   TEWEN  =     -9971.93970996
  -Hartree energ DENC   =     -4969.04663351
  -exchange      EXHF   =         0.00000000
  -V(xc)+E(xc)   XCENC  =       705.60496522
  PAW double counting   =     40950.64277312   -40777.36340199
  entropy T*S    EENTRO =         0.00000000
  eigenvalues    EBANDS =     -1900.94195018
  atomic energy  EATOM  =     15501.99929693
  Solvation  Ediel_sol  =         0.00000000
  ---------------------------------------------------
  free energy    TOTEN  =      -207.04884120 eV

  energy without entropy =     -207.04884120  energy(sigma->0) =     -207.04884120


--------------------------------------------------------------------------------------------------------




--------------------------------------- Iteration      1(  11)  ---------------------------------------


    POTLOK:  cpu time      0.4371: real time      0.4383
    SETDIJ:  cpu time      3.1696: real time      3.1698
     EDDAV:  cpu time     50.7227: real time     50.7254
 BZINTS: Fermi energy:    0.257787;  336.000000 electrons
         Band energy:-0.195830E+04;  BLOECHL correction:    0.000000
       DOS:  cpu time      0.0257: real time      0.0258
    CHARGE:  cpu time      8.9810: real time      8.9813
    MIXING:  cpu time      0.0092: real time      0.0092
    --------------------------------------------
      LOOP:  cpu time     63.3454: real time     63.3498

 eigenvalue-minimisations  :  9952
 total energy-change (2. order) :-0.1783376E+02  (-0.2163770E+01)
 number of electron     335.9999997 magnetization       3.5655323
 augmentation part      -46.9051993 magnetization       3.7487013

 Broyden mixing:
  rms(total) = 0.18630E+00    rms(broyden)= 0.18630E+00
  rms(prec ) = 0.20001E+00
  weight for this iteration     100.00

 eigenvalues of (default mixing * dielectric matrix)
  average eigenvalue GAMMA=   1.4673
  2.7982  2.7982  1.0284  0.8884  0.6999  0.5906

 Free energy of the ion-electron system (eV)
  ---------------------------------------------------
  alpha Z        PSCENC =       253.99581917
  Ewald energy   TEWEN  =     -9971.93970996
  -Hartree energ DENC   =     -4919.48351850
  -exchange      EXHF   =         0.00000000
  -V(xc)+E(xc)   XCENC  =       694.50313697
  PAW double counting   =     40377.85957283   -40203.52158699
  entropy T*S    EENTRO =         0.00000000
  eigenvalues    EBANDS =     -1958.29560932
  atomic energy  EATOM  =     15501.99929693
  Solvation  Ediel_sol  =         0.00000000
  ---------------------------------------------------
  free energy    TOTEN  =      -224.88259886 eV

  energy without entropy =     -224.88259886  energy(sigma->0) =     -224.88259886


--------------------------------------------------------------------------------------------------------




--------------------------------------- Iteration      1(  12)  ---------------------------------------


    POTLOK:  cpu time      0.4521: real time      0.4529
    SETDIJ:  cpu time      8.2111: real time      8.2115
     EDDAV:  cpu time     53.3891: real time     53.3948
 BZINTS: Fermi energy:    0.184296;  336.000000 electrons
         Band energy:-0.197901E+04;  BLOECHL correction:    0.000000
       DOS:  cpu time      0.0257: real time      0.0258
    CHARGE:  cpu time      4.8916: real time      4.8919
    MIXING:  cpu time      0.0092: real time      0.0092
    --------------------------------------------
      LOOP:  cpu time     66.9790: real time     66.9860

 eigenvalue-minimisations  : 10048
 total energy-change (2. order) :-0.3387362E+01  (-0.3884456E+00)
 number of electron     335.9999997 magnetization       2.3878309
 augmentation part      -46.9155695 magnetization       2.4706611

 Broyden mixing:
  rms(total) = 0.15934E+00    rms(broyden)= 0.15934E+00
  rms(prec ) = 0.17187E+00
  weight for this iteration     100.00

 eigenvalues of (default mixing * dielectric matrix)
  average eigenvalue GAMMA=   1.4926
  3.1020  3.1020  1.0565  1.0565  0.7812  0.7812  0.5691

 Free energy of the ion-electron system (eV)
  ---------------------------------------------------
  alpha Z        PSCENC =       253.99581917
  Ewald energy   TEWEN  =     -9971.93970996
  -Hartree energ DENC   =     -4899.94095157
  -exchange      EXHF   =         0.00000000
  -V(xc)+E(xc)   XCENC  =       692.04642665
  PAW double counting   =     39945.12017731   -39770.54469126
  entropy T*S    EENTRO =         0.00000000
  eigenvalues    EBANDS =     -1979.00632815
  atomic energy  EATOM  =     15501.99929693
  Solvation  Ediel_sol  =         0.00000000
  ---------------------------------------------------
  free energy    TOTEN  =      -228.26996087 eV

  energy without entropy =     -228.26996087  energy(sigma->0) =     -228.26996087


--------------------------------------------------------------------------------------------------------




--------------------------------------- Iteration      1(  13)  ---------------------------------------


    POTLOK:  cpu time      2.0963: real time      2.0967
    SETDIJ:  cpu time     10.2823: real time     10.2827
     EDDAV:  cpu time     49.7843: real time     49.7869
 BZINTS: Fermi energy:    0.116485;  336.000000 electrons
         Band energy:-0.200140E+04;  BLOECHL correction:    0.000000
       DOS:  cpu time      0.0257: real time      0.0257
    CHARGE:  cpu time     16.1823: real time     16.1829
    MIXING:  cpu time      0.0130: real time      0.0130
    --------------------------------------------
      LOOP:  cpu time     78.3840: real time     78.3880

 eigenvalue-minimisations  :  9504
 total energy-change (2. order) :-0.1047015E+01  (-0.1329548E+00)
 number of electron     335.9999997 magnetization       0.8860253
 augmentation part      -46.9737511 magnetization       0.9120463

 Broyden mixing:
  rms(total) = 0.92859E-01    rms(broyden)= 0.92859E-01
  rms(prec ) = 0.99660E-01
  weight for this iteration     100.00

 eigenvalues of (default mixing * dielectric matrix)
  average eigenvalue GAMMA=   1.5522
  3.3232  3.3232  1.5862  1.2824  0.9286  0.7001  0.7001  0.5735

 Free energy of the ion-electron system (eV)
  ---------------------------------------------------
  alpha Z        PSCENC =       253.99581917
  Ewald energy   TEWEN  =     -9971.93970996
  -Hartree energ DENC   =     -4876.85742135
  -exchange      EXHF   =         0.00000000
  -V(xc)+E(xc)   XCENC  =       690.06899345
  PAW double counting   =     39126.16686125   -38951.35304293
  entropy T*S    EENTRO =         0.00000000
  eigenvalues    EBANDS =     -2001.39777208
  atomic energy  EATOM  =     15501.99929693
  Solvation  Ediel_sol  =         0.00000000
  ---------------------------------------------------
  free energy    TOTEN  =      -229.31697552 eV

  energy without entropy =     -229.31697552  energy(sigma->0) =     -229.31697552


--------------------------------------------------------------------------------------------------------




--------------------------------------- Iteration      1(  14)  ---------------------------------------


    POTLOK:  cpu time      0.4778: real time      0.4791
    SETDIJ:  cpu time      6.7093: real time      6.7096
     EDDAV:  cpu time     46.2055: real time     46.2153
 BZINTS: Fermi energy:    0.081063;  336.000000 electrons
         Band energy:-0.201181E+04;  BLOECHL correction:    0.000000
       DOS:  cpu time      0.0273: real time      0.0274
    CHARGE:  cpu time      5.6156: real time      5.6158
    MIXING:  cpu time      0.0100: real time      0.0100
    --------------------------------------------
      LOOP:  cpu time     59.0456: real time     59.0572

 eigenvalue-minimisations  :  9088
 total energy-change (2. order) :-0.6271847E-01  (-0.1608035E-01)
 number of electron     335.9999997 magnetization       0.4165250
 augmentation part      -47.0005847 magnetization       0.4235433

 Broyden mixing:
  rms(total) = 0.43484E-01    rms(broyden)= 0.43484E-01
  rms(prec ) = 0.46183E-01
  weight for this iteration     100.00

 eigenvalues of (default mixing * dielectric matrix)
  average eigenvalue GAMMA=   1.5790
  4.1324  2.5569  2.5569  1.0967  1.0967  0.7713  0.7713  0.5761  0.6525

 Free energy of the ion-electron system (eV)
  ---------------------------------------------------
  alpha Z        PSCENC =       253.99581917
  Ewald energy   TEWEN  =     -9971.93970996
  -Hartree energ DENC   =     -4865.55010294
  -exchange      EXHF   =         0.00000000
  -V(xc)+E(xc)   XCENC  =       689.16048352
  PAW double counting   =     39066.56754501   -38891.79963816
  entropy T*S    EENTRO =         0.00000000
  eigenvalues    EBANDS =     -2011.81338756
  atomic energy  EATOM  =     15501.99929693
  Solvation  Ediel_sol  =         0.00000000
  ---------------------------------------------------
  free energy    TOTEN  =      -229.37969399 eV

  energy without entropy =     -229.37969399  energy(sigma->0) =     -229.37969399


--------------------------------------------------------------------------------------------------------




--------------------------------------- Iteration      1(  15)  ---------------------------------------


    POTLOK:  cpu time      0.4504: real time      0.4515
    SETDIJ:  cpu time     13.2422: real time     13.2427
     EDDAV:  cpu time     49.1241: real time     49.1267
 BZINTS: Fermi energy:    0.079228;  336.000000 electrons
         Band energy:-0.201152E+04;  BLOECHL correction:   -0.000000
       DOS:  cpu time      0.0281: real time      0.0281
    CHARGE:  cpu time     11.2259: real time     11.2263
    MIXING:  cpu time      0.0119: real time      0.0119
    --------------------------------------------
      LOOP:  cpu time     74.0824: real time     74.0871

 eigenvalue-minimisations  :  9568
 total energy-change (2. order) : 0.1288952E-02  (-0.2084073E-02)
 number of electron     335.9999997 magnetization       0.1722472
 augmentation part      -46.9945009 magnetization       0.1765504

 Broyden mixing:
  rms(total) = 0.20172E-01    rms(broyden)= 0.20172E-01
  rms(prec ) = 0.21741E-01
  weight for this iteration     100.00

 eigenvalues of (default mixing * dielectric matrix)
  average eigenvalue GAMMA=   1.5650
  4.5540  2.5272  2.5272  1.3359  0.9971  0.9971  0.7586  0.7586  0.6238  0.5704

 Free energy of the ion-electron system (eV)
  ---------------------------------------------------
  alpha Z        PSCENC =       253.99581917
  Ewald energy   TEWEN  =     -9971.93970996
  -Hartree energ DENC   =     -4865.71651267
  -exchange      EXHF   =         0.00000000
  -V(xc)+E(xc)   XCENC  =       689.12202266
  PAW double counting   =     39151.53117253   -38976.84992691
  entropy T*S    EENTRO =         0.00000000
  eigenvalues    EBANDS =     -2011.52056680
  atomic energy  EATOM  =     15501.99929693
  Solvation  Ediel_sol  =         0.00000000
  ---------------------------------------------------
  free energy    TOTEN  =      -229.37840504 eV

  energy without entropy =     -229.37840504  energy(sigma->0) =     -229.37840504


--------------------------------------------------------------------------------------------------------




--------------------------------------- Iteration      1(  16)  ---------------------------------------


    POTLOK:  cpu time      2.1421: real time      2.1429
    SETDIJ:  cpu time     12.1616: real time     12.1684
     EDDAV:  cpu time     49.1270: real time     49.1295
 BZINTS: Fermi energy:    0.077659;  336.000000 electrons
         Band energy:-0.201198E+04;  BLOECHL correction:    0.000000
       DOS:  cpu time      0.0257: real time      0.0257
    CHARGE:  cpu time      9.5405: real time      9.5410
    MIXING:  cpu time      0.0132: real time      0.0132
    --------------------------------------------
      LOOP:  cpu time     73.0101: real time     73.0208

 eigenvalue-minimisations  :  9184
 total energy-change (2. order) : 0.3122574E-02  (-0.5487063E-03)
 number of electron     335.9999997 magnetization       0.0694529
 augmentation part      -46.9933485 magnetization       0.0702648

 Broyden mixing:
  rms(total) = 0.12262E-01    rms(broyden)= 0.12262E-01
  rms(prec ) = 0.13274E-01
  weight for this iteration     100.00

 eigenvalues of (default mixing * dielectric matrix)
  average eigenvalue GAMMA=   1.5473
  4.7580  2.4275  2.4275  1.8447  0.9962  0.9962  0.9248  0.7284  0.7284  0.5820
  0.6063

 Free energy of the ion-electron system (eV)
  ---------------------------------------------------
  alpha Z        PSCENC =       253.99581917
  Ewald energy   TEWEN  =     -9971.93970996
  -Hartree energ DENC   =     -4865.16310736
  -exchange      EXHF   =         0.00000000
  -V(xc)+E(xc)   XCENC  =       689.05448351
  PAW double counting   =     39121.97089758   -38947.31337405
  entropy T*S    EENTRO =         0.00000000
  eigenvalues    EBANDS =     -2011.97958828
  atomic energy  EATOM  =     15501.99929693
  Solvation  Ediel_sol  =         0.00000000
  ---------------------------------------------------
  free energy    TOTEN  =      -229.37528246 eV

  energy without entropy =     -229.37528246  energy(sigma->0) =     -229.37528246


--------------------------------------------------------------------------------------------------------




--------------------------------------- Iteration      1(  17)  ---------------------------------------


    POTLOK:  cpu time      0.4392: real time      0.4400
    SETDIJ:  cpu time      6.9260: real time      6.9263
     EDDAV:  cpu time     49.8157: real time     49.8183
 BZINTS: Fermi energy:    0.079269;  336.000000 electrons
         Band energy:-0.201106E+04;  BLOECHL correction:    0.000000
       DOS:  cpu time      0.0257: real time      0.0258
    CHARGE:  cpu time      7.2977: real time      7.2980
    MIXING:  cpu time      0.0148: real time      0.0148
    --------------------------------------------
      LOOP:  cpu time     64.5191: real time     64.5231

 eigenvalue-minimisations  :  9504
 total energy-change (2. order) :-0.5157081E-03  (-0.1197881E-03)
 number of electron     335.9999997 magnetization       0.0177273
 augmentation part      -46.9882847 magnetization       0.0181282

 Broyden mixing:
  rms(total) = 0.49178E-02    rms(broyden)= 0.49178E-02
  rms(prec ) = 0.55130E-02
  weight for this iteration     100.00

 eigenvalues of (default mixing * dielectric matrix)
  average eigenvalue GAMMA=   1.5765
  4.9478  2.6022  2.6022  2.2038  1.1769  0.9968  0.9968  0.7616  0.7616  0.6830
  0.5928  0.5928

 Free energy of the ion-electron system (eV)
  ---------------------------------------------------
  alpha Z        PSCENC =       253.99581917
  Ewald energy   TEWEN  =     -9971.93970996
  -Hartree energ DENC   =     -4866.12350632
  -exchange      EXHF   =         0.00000000
  -V(xc)+E(xc)   XCENC  =       689.11431795
  PAW double counting   =     39162.91845544   -38988.28516157
  entropy T*S    EENTRO =         0.00000000
  eigenvalues    EBANDS =     -2011.05530982
  atomic energy  EATOM  =     15501.99929693
  Solvation  Ediel_sol  =         0.00000000
  ---------------------------------------------------
  free energy    TOTEN  =      -229.37579817 eV

  energy without entropy =     -229.37579817  energy(sigma->0) =     -229.37579817


--------------------------------------------------------------------------------------------------------




--------------------------------------- Iteration      1(  18)  ---------------------------------------


    POTLOK:  cpu time      0.4980: real time      0.5006
    SETDIJ:  cpu time      6.8696: real time      6.8699
     EDDAV:  cpu time     46.7368: real time     46.7393
 BZINTS: Fermi energy:    0.080375;  336.000000 electrons
         Band energy:-0.201054E+04;  BLOECHL correction:    0.000000
       DOS:  cpu time      0.0273: real time      0.0273
    CHARGE:  cpu time      8.8517: real time      8.8520
    MIXING:  cpu time      0.0117: real time      0.0117
    --------------------------------------------
      LOOP:  cpu time     62.9951: real time     63.0009

 eigenvalue-minimisations  :  9440
 total energy-change (2. order) :-0.1151861E-03  (-0.3913877E-04)
 number of electron     335.9999997 magnetization       0.0051744
 augmentation part      -46.9849831 magnetization       0.0057117

 Broyden mixing:
  rms(total) = 0.44389E-02    rms(broyden)= 0.44389E-02
  rms(prec ) = 0.46901E-02
  weight for this iteration     100.00

 eigenvalues of (default mixing * dielectric matrix)
  average eigenvalue GAMMA=   1.5448
  5.0019  2.6460  2.6460  2.2656  1.1300  1.1300  0.9913  0.9913  0.7250  0.7250
  0.5799  0.6453  0.6057

 Free energy of the ion-electron system (eV)
  ---------------------------------------------------
  alpha Z        PSCENC =       253.99581917
  Ewald energy   TEWEN  =     -9971.93970996
  -Hartree energ DENC   =     -4866.66040894
  -exchange      EXHF   =         0.00000000
  -V(xc)+E(xc)   XCENC  =       689.14921689
  PAW double counting   =     39191.45960471   -39016.84097761
  entropy T*S    EENTRO =         0.00000000
  eigenvalues    EBANDS =     -2010.53875455
  atomic energy  EATOM  =     15501.99929693
  Solvation  Ediel_sol  =         0.00000000
  ---------------------------------------------------
  free energy    TOTEN  =      -229.37591336 eV

  energy without entropy =     -229.37591336  energy(sigma->0) =     -229.37591336


--------------------------------------------------------------------------------------------------------




--------------------------------------- Iteration      1(  19)  ---------------------------------------


    POTLOK:  cpu time      0.4245: real time      0.4256
    SETDIJ:  cpu time      9.3440: real time      9.3443
     EDDAV:  cpu time     49.1166: real time     49.1192
 BZINTS: Fermi energy:    0.079667;  336.000000 electrons
         Band energy:-0.201080E+04;  BLOECHL correction:    0.000000
       DOS:  cpu time      0.0257: real time      0.0257
    CHARGE:  cpu time      7.4776: real time      7.4779
    MIXING:  cpu time      0.0110: real time      0.0110
    --------------------------------------------
      LOOP:  cpu time     66.3994: real time     66.4037

 eigenvalue-minimisations  :  9792
 total energy-change (2. order) :-0.5734924E-05  (-0.6151807E-05)
 number of electron     335.9999997 magnetization      -0.0005389
 augmentation part      -46.9858127 magnetization      -0.0002973

 Broyden mixing:
  rms(total) = 0.20185E-02    rms(broyden)= 0.20184E-02
  rms(prec ) = 0.21925E-02
  weight for this iteration     100.00

 eigenvalues of (default mixing * dielectric matrix)
  average eigenvalue GAMMA=   1.5458
  5.0454  2.7074  2.7074  2.1094  1.4092  1.4092  1.0335  1.0335  0.8578  0.7536
  0.7536  0.5814  0.6080  0.6320

 Free energy of the ion-electron system (eV)
  ---------------------------------------------------
  alpha Z        PSCENC =       253.99581917
  Ewald energy   TEWEN  =     -9971.93970996
  -Hartree energ DENC   =     -4866.38803198
  -exchange      EXHF   =         0.00000000
  -V(xc)+E(xc)   XCENC  =       689.13244429
  PAW double counting   =     39190.11666140   -39015.49490632
  entropy T*S    EENTRO =         0.00000000
  eigenvalues    EBANDS =     -2010.79749262
  atomic energy  EATOM  =     15501.99929693
  Solvation  Ediel_sol  =         0.00000000
  ---------------------------------------------------
  free energy    TOTEN  =      -229.37591909 eV

  energy without entropy =     -229.37591909  energy(sigma->0) =     -229.37591909


--------------------------------------------------------------------------------------------------------




--------------------------------------- Iteration      1(  20)  ---------------------------------------


    POTLOK:  cpu time      0.4418: real time      0.4487
    SETDIJ:  cpu time      4.7737: real time      4.7739
     EDDAV:  cpu time     47.3064: real time     47.3088
 BZINTS: Fermi energy:    0.079350;  336.000000 electrons
         Band energy:-0.201094E+04;  BLOECHL correction:    0.000000
       DOS:  cpu time      0.0257: real time      0.0257
    CHARGE:  cpu time      4.8500: real time      4.8502
    MIXING:  cpu time      0.0120: real time      0.0120
    --------------------------------------------
      LOOP:  cpu time     57.4095: real time     57.4192

 eigenvalue-minimisations  :  9184
 total energy-change (2. order) :-0.1031466E-04  (-0.3454280E-05)
 number of electron     335.9999997 magnetization      -0.0016058
 augmentation part      -46.9863437 magnetization      -0.0015283

 Broyden mixing:
  rms(total) = 0.94607E-03    rms(broyden)= 0.94595E-03
  rms(prec ) = 0.10050E-02
  weight for this iteration     100.00

 eigenvalues of (default mixing * dielectric matrix)
  average eigenvalue GAMMA=   1.5475
  5.0949  2.7079  2.7079  2.1015  2.1015  1.2301  1.2301  0.9910  0.9910  0.7799
  0.7328  0.7328  0.5792  0.6157  0.6157

 Free energy of the ion-electron system (eV)
  ---------------------------------------------------
  alpha Z        PSCENC =       253.99581917
  Ewald energy   TEWEN  =     -9971.93970996
  -Hartree energ DENC   =     -4866.24487763
  -exchange      EXHF   =         0.00000000
  -V(xc)+E(xc)   XCENC  =       689.12540733
  PAW double counting   =     39195.23392038   -39020.61024577
  entropy T*S    EENTRO =         0.00000000
  eigenvalues    EBANDS =     -2010.93553986
  atomic energy  EATOM  =     15501.99929693
  Solvation  Ediel_sol  =         0.00000000
  ---------------------------------------------------
  free energy    TOTEN  =      -229.37592941 eV

  energy without entropy =     -229.37592941  energy(sigma->0) =     -229.37592941


--------------------------------------------------------------------------------------------------------




--------------------------------------- Iteration      1(  21)  ---------------------------------------


    POTLOK:  cpu time      0.4530: real time      0.4537
    SETDIJ:  cpu time      5.3897: real time      5.3899
     EDDAV:  cpu time     48.5262: real time     48.5289
 BZINTS: Fermi energy:    0.079101;  336.000000 electrons
         Band energy:-0.201099E+04;  BLOECHL correction:    0.000000
       DOS:  cpu time      0.0281: real time      0.0282
    CHARGE:  cpu time     10.9956: real time     10.9960
    MIXING:  cpu time      0.0130: real time      0.0130
    --------------------------------------------
      LOOP:  cpu time     65.4056: real time     65.4096

 eigenvalue-minimisations  :  9216
 total energy-change (2. order) : 0.1123342E-05  (-0.8844715E-06)
 number of electron     335.9999997 magnetization      -0.0013450
 augmentation part      -46.9865370 magnetization      -0.0013486

 Broyden mixing:
  rms(total) = 0.42227E-03    rms(broyden)= 0.42199E-03
  rms(prec ) = 0.44430E-03
  weight for this iteration     100.00

 eigenvalues of (default mixing * dielectric matrix)
  average eigenvalue GAMMA=   1.5122
  5.0969  2.6684  2.6684  2.5693  1.6138  1.4075  1.1533  1.1533  0.9280  0.9280
  0.7392  0.7392  0.7256  0.5789  0.6124  0.6124

 Free energy of the ion-electron system (eV)
  ---------------------------------------------------
  alpha Z        PSCENC =       253.99581917
  Ewald energy   TEWEN  =     -9971.93970996
  -Hartree energ DENC   =     -4866.18620500
  -exchange      EXHF   =         0.00000000
  -V(xc)+E(xc)   XCENC  =       689.12181505
  PAW double counting   =     39194.66589120   -39020.04140624
  entropy T*S    EENTRO =         0.00000000
  eigenvalues    EBANDS =     -2010.99142944
  atomic energy  EATOM  =     15501.99929693
  Solvation  Ediel_sol  =         0.00000000
  ---------------------------------------------------
  free energy    TOTEN  =      -229.37592828 eV

  energy without entropy =     -229.37592828  energy(sigma->0) =     -229.37592828


--------------------------------------------------------------------------------------------------------




--------------------------------------- Iteration      1(  22)  ---------------------------------------


    POTLOK:  cpu time      0.4509: real time      0.4611
    SETDIJ:  cpu time      6.5195: real time      6.5198
     EDDAV:  cpu time     52.7035: real time     52.7061
 BZINTS: Fermi energy:    0.079360;  336.000000 electrons
         Band energy:-0.201101E+04;  BLOECHL correction:    0.000000
       DOS:  cpu time      0.0257: real time      0.0257
    CHARGE:  cpu time      9.6496: real time      9.6500
    MIXING:  cpu time      0.0154: real time      0.0154
    --------------------------------------------
      LOOP:  cpu time     69.3645: real time     69.3780

 eigenvalue-minimisations  :  9888
 total energy-change (2. order) : 0.4696667E-06  (-0.1401756E-06)
 number of electron     335.9999997 magnetization      -0.0004618
 augmentation part      -46.9866080 magnetization      -0.0004839

 Broyden mixing:
  rms(total) = 0.23063E-03    rms(broyden)= 0.23014E-03
  rms(prec ) = 0.24478E-03
  weight for this iteration     100.00

 eigenvalues of (default mixing * dielectric matrix)
  average eigenvalue GAMMA=   1.5004
  5.0911  2.6565  2.6565  2.6217  1.6755  1.4386  1.4386  1.0827  1.0827  0.9003
  0.9003  0.7422  0.7422  0.6736  0.5802  0.6123  0.6123

 Free energy of the ion-electron system (eV)
  ---------------------------------------------------
  alpha Z        PSCENC =       253.99581917
  Ewald energy   TEWEN  =     -9971.93970996
  -Hartree energ DENC   =     -4866.16427821
  -exchange      EXHF   =         0.00000000
  -V(xc)+E(xc)   XCENC  =       689.12021915
  PAW double counting   =     39193.25267573   -39018.62787607
  entropy T*S    EENTRO =         0.00000000
  eigenvalues    EBANDS =     -2011.01207456
  atomic energy  EATOM  =     15501.99929693
  Solvation  Ediel_sol  =         0.00000000
  ---------------------------------------------------
  free energy    TOTEN  =      -229.37592781 eV

  energy without entropy =     -229.37592781  energy(sigma->0) =     -229.37592781


--------------------------------------------------------------------------------------------------------




--------------------------------------- Iteration      1(  23)  ---------------------------------------


    POTLOK:  cpu time      0.4323: real time      0.4332
    SETDIJ:  cpu time      8.9746: real time      8.9749
     EDDAV:  cpu time     47.2827: real time     47.2851
 BZINTS: Fermi energy:    0.079047;  336.000000 electrons
         Band energy:-0.201101E+04;  BLOECHL correction:   -0.000000
       DOS:  cpu time      0.0298: real time      0.0299
    CHARGE:  cpu time      5.0634: real time      5.0636
    MIXING:  cpu time      0.0112: real time      0.0112
    --------------------------------------------
      LOOP:  cpu time     61.7940: real time     61.7979

 eigenvalue-minimisations  :  9216
 total energy-change (2. order) :-0.2445013E-06  (-0.5753178E-07)
 number of electron     335.9999997 magnetization      -0.0002552
 augmentation part      -46.9865783 magnetization      -0.0002513

 Broyden mixing:
[...]

  length of vectors
    10.314108670 16.788494411 10.846477853     0.097707938  0.059564603  0.092912216


 FORCES acting on ions
    electron-ion (+dipol)            ewald-force                    non-local-force                 convergence-correction
 -----------------------------------------------------------------------------------------------
   0.986E+02 -.105E+03 -.126E+02   -.104E+03 0.113E+03 0.112E+02   0.495E+01 -.888E+01 0.132E+01   -.110E-05 0.673E-06 -.229E-06
   0.987E+02 -.105E+03 -.125E+02   -.104E+03 0.113E+03 0.112E+02   0.495E+01 -.888E+01 0.132E+01   -.102E-05 0.632E-06 -.209E-06
   -.125E+02 0.419E+02 -.127E+03   0.127E+02 -.471E+02 0.134E+03   -.212E+00 0.520E+01 -.709E+01   -.121E-06 0.222E-07 0.808E-06
   -.124E+02 0.420E+02 -.127E+03   0.126E+02 -.472E+02 0.134E+03   -.246E+00 0.519E+01 -.705E+01   -.142E-06 0.514E-07 0.913E-06
   -.211E+02 -.902E+02 0.981E+02   0.197E+02 0.989E+02 -.103E+03   0.134E+01 -.874E+01 0.530E+01   -.330E-06 0.320E-06 -.781E-06
   -.211E+02 -.902E+02 0.981E+02   0.198E+02 0.989E+02 -.103E+03   0.134E+01 -.874E+01 0.530E+01   -.374E-06 0.300E-06 -.814E-06
   -.108E+03 0.943E+02 0.537E+01   0.113E+03 -.100E+03 -.327E+01   -.532E+01 0.605E+01 -.205E+01   0.119E-05 0.652E-07 0.139E-06
   -.108E+03 0.950E+02 0.625E+01   0.114E+03 -.101E+03 -.414E+01   -.534E+01 0.592E+01 -.212E+01   0.128E-05 0.733E-07 0.126E-06
   0.136E+03 -.540E+02 -.187E+02   -.143E+03 0.595E+02 0.192E+02   0.680E+01 -.552E+01 -.558E+00   -.120E-05 0.344E-06 -.167E-06
   0.136E+03 -.540E+02 -.187E+02   -.143E+03 0.595E+02 0.193E+02   0.680E+01 -.552E+01 -.558E+00   -.118E-05 0.347E-06 -.181E-06
   -.136E+03 0.541E+02 0.187E+02   0.143E+03 -.596E+02 -.193E+02   -.680E+01 0.552E+01 0.558E+00   0.118E-05 -.341E-06 0.202E-06
   -.136E+03 0.540E+02 0.187E+02   0.143E+03 -.595E+02 -.193E+02   -.680E+01 0.552E+01 0.558E+00   0.119E-05 -.378E-06 0.212E-06
   0.108E+03 -.950E+02 -.626E+01   -.114E+03 0.101E+03 0.415E+01   0.534E+01 -.592E+01 0.212E+01   -.128E-05 -.107E-06 -.934E-07
   0.108E+03 -.950E+02 -.625E+01   -.114E+03 0.101E+03 0.414E+01   0.534E+01 -.592E+01 0.212E+01   -.125E-05 -.104E-06 -.103E-06
   -.124E+02 -.420E+02 0.127E+03   0.126E+02 0.472E+02 -.134E+03   -.246E+00 -.519E+01 0.705E+01   -.133E-06 -.760E-07 -.988E-06
   -.124E+02 -.420E+02 0.127E+03   0.126E+02 0.472E+02 -.134E+03   -.246E+00 -.519E+01 0.705E+01   -.700E-07 -.700E-07 -.980E-06
   0.210E+02 -.902E+02 0.980E+02   -.196E+02 0.990E+02 -.103E+03   -.133E+01 -.873E+01 0.530E+01   0.349E-06 0.315E-06 -.774E-06
   0.211E+02 -.902E+02 0.981E+02   -.198E+02 0.989E+02 -.103E+03   -.134E+01 -.874E+01 0.530E+01   0.313E-06 0.379E-06 -.863E-06
   -.989E+02 -.104E+03 -.117E+02   0.104E+03 0.113E+03 0.104E+02   -.493E+01 -.901E+01 0.127E+01   0.102E-05 0.637E-06 -.231E-06
   -.986E+02 -.105E+03 -.125E+02   0.104E+03 0.113E+03 0.112E+02   -.495E+01 -.888E+01 0.132E+01   0.111E-05 0.740E-06 -.176E-06
   -.136E+03 -.539E+02 -.187E+02   0.143E+03 0.595E+02 0.193E+02   -.680E+01 -.552E+01 -.558E+00   0.121E-05 0.377E-06 -.184E-06
   -.136E+03 -.539E+02 -.187E+02   0.143E+03 0.595E+02 0.193E+02   -.680E+01 -.552E+01 -.558E+00   0.122E-05 0.381E-06 -.187E-06
   0.124E+02 0.420E+02 -.127E+03   -.126E+02 -.472E+02 0.134E+03   0.246E+00 0.519E+01 -.705E+01   0.122E-06 0.320E-07 0.819E-06
   0.123E+02 0.420E+02 -.127E+03   -.126E+02 -.472E+02 0.134E+03   0.246E+00 0.519E+01 -.705E+01   0.118E-06 0.562E-07 0.844E-06
   -.108E+03 -.950E+02 -.625E+01   0.114E+03 0.101E+03 0.413E+01   -.534E+01 -.592E+01 0.212E+01   0.125E-05 -.138E-06 -.927E-07
   -.108E+03 -.950E+02 -.625E+01   0.114E+03 0.101E+03 0.413E+01   -.534E+01 -.592E+01 0.212E+01   0.120E-05 -.165E-06 -.108E-06
   0.986E+02 0.105E+03 0.125E+02   -.104E+03 -.113E+03 -.112E+02   0.495E+01 0.888E+01 -.132E+01   -.111E-05 -.647E-06 0.132E-06
   0.986E+02 0.105E+03 0.125E+02   -.104E+03 -.113E+03 -.112E+02   0.495E+01 0.888E+01 -.132E+01   -.107E-05 -.661E-06 0.133E-06
   -.986E+02 0.105E+03 0.125E+02   0.104E+03 -.113E+03 -.112E+02   -.495E+01 0.888E+01 -.132E+01   0.110E-05 -.678E-06 0.146E-06
   -.987E+02 0.105E+03 0.125E+02   0.104E+03 -.113E+03 -.112E+02   -.495E+01 0.888E+01 -.132E+01   0.105E-05 -.660E-06 0.170E-06
   0.728E+02 0.961E+02 0.632E+02   -.755E+02 -.106E+03 -.653E+02   0.274E+01 0.971E+01 0.207E+01   -.378E-06 -.646E-06 -.835E-06
   0.728E+02 0.961E+02 0.633E+02   -.755E+02 -.106E+03 -.653E+02   0.274E+01 0.971E+01 0.207E+01   -.344E-06 -.695E-06 -.798E-06
   0.218E+02 -.937E+02 -.889E+02   -.205E+02 0.100E+03 0.940E+02   -.133E+01 -.628E+01 -.509E+01   -.149E-06 -.126E-06 0.962E-06
   0.218E+02 -.938E+02 -.889E+02   -.205E+02 0.100E+03 0.940E+02   -.133E+01 -.628E+01 -.509E+01   -.115E-06 -.135E-06 0.926E-06
   -.211E+02 0.902E+02 -.981E+02   0.198E+02 -.990E+02 0.103E+03   0.134E+01 0.874E+01 -.530E+01   -.363E-06 -.301E-06 0.963E-06
   -.211E+02 0.902E+02 -.981E+02   0.198E+02 -.989E+02 0.103E+03   0.134E+01 0.874E+01 -.530E+01   -.297E-06 -.307E-06 0.934E-06
   -.218E+02 0.933E+02 0.889E+02   0.205E+02 -.996E+02 -.940E+02   0.137E+01 0.628E+01 0.515E+01   0.106E-06 0.128E-06 -.735E-06
   -.218E+02 0.938E+02 0.889E+02   0.205E+02 -.100E+03 -.940E+02   0.133E+01 0.628E+01 0.509E+01   0.107E-06 0.125E-06 -.831E-06
   0.211E+02 0.902E+02 -.980E+02   -.197E+02 -.989E+02 0.103E+03   -.134E+01 0.874E+01 -.530E+01   0.341E-06 -.308E-06 0.963E-06
   0.211E+02 0.902E+02 -.981E+02   -.198E+02 -.989E+02 0.103E+03   -.134E+01 0.874E+01 -.530E+01   0.392E-06 -.352E-06 0.937E-06
   0.727E+02 -.961E+02 -.632E+02   -.754E+02 0.106E+03 0.653E+02   0.273E+01 -.971E+01 -.208E+01   -.342E-06 0.689E-06 0.681E-06
   0.728E+02 -.961E+02 -.632E+02   -.755E+02 0.106E+03 0.653E+02   0.274E+01 -.971E+01 -.207E+01   -.408E-06 0.715E-06 0.739E-06
   0.136E+03 0.539E+02 0.187E+02   -.143E+03 -.594E+02 -.193E+02   0.680E+01 0.553E+01 0.562E+00   -.113E-05 -.350E-06 0.199E-06
   0.136E+03 0.539E+02 0.187E+02   -.143E+03 -.594E+02 -.193E+02   0.680E+01 0.552E+01 0.558E+00   -.127E-05 -.371E-06 0.217E-06
   0.108E+03 0.951E+02 0.625E+01   -.114E+03 -.101E+03 -.413E+01   0.534E+01 0.592E+01 -.212E+01   -.125E-05 0.158E-06 0.131E-06
   0.108E+03 0.950E+02 0.625E+01   -.114E+03 -.101E+03 -.414E+01   0.534E+01 0.592E+01 -.212E+01   -.119E-05 0.119E-06 0.121E-06
   -.727E+02 -.961E+02 -.633E+02   0.754E+02 0.106E+03 0.654E+02   -.274E+01 -.971E+01 -.207E+01   0.370E-06 0.664E-06 0.674E-06
   -.728E+02 -.961E+02 -.633E+02   0.755E+02 0.106E+03 0.653E+02   -.274E+01 -.971E+01 -.207E+01   0.341E-06 0.620E-06 0.726E-06
   -.218E+02 -.938E+02 -.889E+02   0.205E+02 0.100E+03 0.940E+02   0.133E+01 -.628E+01 -.509E+01   0.985E-07 -.210E-06 0.913E-06
   -.218E+02 -.938E+02 -.889E+02   0.205E+02 0.100E+03 0.940E+02   0.133E+01 -.628E+01 -.509E+01   0.167E-06 -.170E-06 0.912E-06
   0.218E+02 0.938E+02 0.889E+02   -.205E+02 -.100E+03 -.940E+02   -.133E+01 0.628E+01 0.509E+01   -.104E-06 0.169E-06 -.755E-06
   0.218E+02 0.938E+02 0.889E+02   -.205E+02 -.100E+03 -.940E+02   -.133E+01 0.628E+01 0.509E+01   -.119E-06 0.200E-06 -.776E-06
   -.728E+02 0.962E+02 0.633E+02   0.755E+02 -.106E+03 -.653E+02   -.274E+01 0.971E+01 0.207E+01   0.369E-06 -.660E-06 -.826E-06
   -.728E+02 0.962E+02 0.633E+02   0.755E+02 -.106E+03 -.653E+02   -.274E+01 0.971E+01 0.207E+01   0.406E-06 -.645E-06 -.831E-06
   0.124E+02 -.419E+02 0.127E+03   -.126E+02 0.471E+02 -.134E+03   0.245E+00 -.519E+01 0.705E+01   0.907E-07 -.280E-07 -.105E-05
   0.124E+02 -.420E+02 0.127E+03   -.126E+02 0.472E+02 -.134E+03   0.246E+00 -.519E+01 0.705E+01   0.145E-06 -.244E-07 -.101E-05
 -----------------------------------------------------------------------------------------------
   -.943E-01 -.269E-01 -.456E-01   0.121E-12 -.782E-13 0.853E-13   0.943E-01 0.269E-01 0.456E-01   0.188E-07 -.224E-07 0.355E-07


 POSITION                                       TOTAL-FORCE (eV/Angst)
 -----------------------------------------------------------------------------------
      7.84031      7.96182     -7.59135         0.002520     -0.001268      0.000962
     16.23455      7.96182     -7.59135         0.002468     -0.001281      0.000930
      3.16872      2.44282     -6.01943         0.020895      0.006204     -0.021356
     11.56297      2.44282     -6.01943         0.002160     -0.000878     -0.002528
      1.76685      7.82725    -10.10485        -0.000061      0.000076     -0.000552
     10.16110      7.82725    -10.10485        -0.000106      0.000011     -0.000475
      5.05050      1.11563     -8.40397        -0.040785      0.136122      0.051098
     13.44475      1.12562     -8.40433         0.001654     -0.000696     -0.000720
      5.13205      1.09979     -2.45651        -0.000061      0.000322     -0.000279
     13.52630      1.09979     -2.45651        -0.000057      0.000468     -0.000292
      3.26219      7.47505     -8.62356         0.000034     -0.000507      0.000184
     11.65644      7.47505     -8.62356         0.000104     -0.000479      0.000278
      3.34375      7.44923     -2.67574        -0.001691      0.000677      0.000721
     11.73799      7.44923     -2.67574        -0.001547      0.000603      0.000670
      7.36585      0.97835     -4.87422         0.002034      0.001248      0.002336
     15.76010      0.97835     -4.87422         0.002047      0.000884      0.002486
      2.43027      2.67356     -9.91842         0.010592     -0.003515      0.009491
     10.82452      2.67356     -9.91842         0.000020      0.000101     -0.000352
      4.75106      2.80814     -7.40493         0.013982     -0.125611     -0.034814
     13.14531      2.80814     -7.40493        -0.002482     -0.001216      0.001004
      7.45932      6.25348     -2.64294        -0.000031      0.000579     -0.000410
     15.85356      6.25348     -2.64294         0.000158      0.000481     -0.000255
      1.02840      7.59650     -6.20585        -0.002149     -0.001024     -0.002599
      9.42265      7.59650     -6.20585        -0.002129     -0.000875     -0.002530
      0.85338      2.29554     -2.48931         0.001546      0.000737      0.000828
      9.24762      2.29554     -2.48931         0.001285      0.000738      0.000863
      3.64318      5.76671     -3.67515         0.002511      0.001260     -0.000928
     12.03743      5.76671     -3.67515         0.002463      0.001276     -0.000925
      0.55394      0.61303     -3.48872        -0.002366      0.001210     -0.001113
      8.94819      0.61303     -3.48872        -0.002404      0.000771     -0.001124
      5.79350     -0.03143     -4.03202        -0.001183      0.001799      0.000260
     14.18775     -0.03143     -4.03202        -0.001201      0.001778      0.000296
      4.85766      7.53946     -1.03917        -0.003876      0.002051     -0.000307
     13.25190      7.53946     -1.03917        -0.003935      0.002041     -0.000261
      5.96398      5.90128     -1.16165        -0.000091     -0.000167      0.000530
     14.35822      5.90128     -1.16165        -0.000124      0.000013      0.000496
      3.53659      1.03539    -10.04090         0.007498     -0.017542     -0.004059
     11.93084      1.03539    -10.04090         0.003916     -0.002129      0.000251
      6.62739      0.74760     -0.97522         0.000182      0.000083      0.000356
     15.02164      0.74760     -0.97522         0.000106     -0.000011      0.000422
      1.59638      3.45260     -6.86163        -0.003978     -0.001043     -0.002037
      9.99063      3.45260     -6.86163        -0.001214     -0.001806     -0.000325
      0.93493      2.32137     -8.43713        -0.003860     -0.001461     -0.000228
      9.32918      2.32137     -8.43713        -0.000206     -0.000445      0.000267
      7.54087      6.27930     -8.59076        -0.001573     -0.000640     -0.000689
     15.93512      6.27930     -8.59076        -0.001653     -0.000695     -0.000671
      2.60074      8.60628     -7.04805         0.001372     -0.001409     -0.000107
     10.99499      8.60628     -7.04805         0.001171     -0.001771     -0.000203
      7.73371      2.38578     -0.85274         0.003906      0.002080     -0.000021
     16.12796      2.38578     -0.85274         0.003892      0.002021     -0.000362
      0.66053      6.18907    -10.22733        -0.004032     -0.002133      0.000241
      9.05478      6.18907    -10.22733        -0.003910     -0.002048      0.000266
      6.79787      5.12225     -4.21845         0.001330      0.001482      0.000245
     15.19211      5.12225     -4.21845         0.001165      0.001751      0.000178
      5.22552      6.13203     -5.06065        -0.002173      0.000889      0.002345
     13.61977      6.13203     -5.06065        -0.002133      0.000896      0.002520
 -----------------------------------------------------------------------------------
    total drift:                                0.000001      0.000016     -0.000002


--------------------------------------------------------------------------------------------------------



  FREE ENERGIE OF THE ION-ELECTRON SYSTEM (eV)
  ---------------------------------------------------
  free  energy   TOTEN  =      -229.37592785 eV

  energy  without entropy=     -229.37592785  energy(sigma->0) =     -229.37592785



--------------------------------------------------------------------------------------------------------


    POTLOK:  cpu time     11.5059: real time     11.5138


--------------------------------------------------------------------------------------------------------


     LOOP+:  cpu time   2468.3779: real time   2468.6085
    4ORBIT:  cpu time      0.0000: real time      0.0000



 total charge

# of ion       s       p       d       tot
------------------------------------------
    1        1.376   2.247   0.000   3.623
    2        1.376   2.247   0.000   3.623
    3        1.376   2.258   0.000   3.634
    4        1.376   2.258   0.000   3.635
    5        1.376   2.247   0.000   3.622
    6        1.376   2.247   0.000   3.622
    7        1.376   2.259   0.000   3.634
    8        1.375   2.262   0.000   3.638
    9        1.377   2.257   0.000   3.634
   10        1.377   2.257   0.000   3.634
   11        1.377   2.257   0.000   3.634
   12        1.377   2.257   0.000   3.634
   13        1.375   2.262   0.000   3.638
   14        1.375   2.262   0.000   3.638
   15        1.376   2.258   0.000   3.635
   16        1.376   2.258   0.000   3.635
   17        1.376   2.246   0.000   3.622
   18        1.376   2.247   0.000   3.623
   19        1.376   2.244   0.000   3.620
   20        1.376   2.247   0.000   3.623
   21        1.377   2.257   0.000   3.634
   22        1.377   2.257   0.000   3.634
   23        1.376   2.258   0.000   3.635
   24        1.376   2.258   0.000   3.635
   25        1.375   2.262   0.000   3.638
   26        1.375   2.262   0.000   3.638
   27        1.376   2.247   0.000   3.623
   28        1.376   2.247   0.000   3.623
   29        1.376   2.247   0.000   3.623
   30        1.376   2.247   0.000   3.623
   31        1.376   2.254   0.000   3.630
   32        1.376   2.254   0.000   3.630
   33        1.375   2.263   0.000   3.638
   34        1.375   2.263   0.000   3.638
   35        1.376   2.247   0.000   3.622
   36        1.376   2.247   0.000   3.623
   37        1.375   2.263   0.000   3.638
   38        1.375   2.263   0.000   3.638
   39        1.376   2.247   0.000   3.623
   40        1.376   2.247   0.000   3.622
   41        1.376   2.255   0.000   3.630
   42        1.376   2.254   0.000   3.630
   43        1.377   2.257   0.000   3.634
   44        1.377   2.257   0.000   3.634
   45        1.375   2.262   0.000   3.638
   46        1.375   2.262   0.000   3.638
   47        1.376   2.254   0.000   3.630
   48        1.376   2.254   0.000   3.630
   49        1.375   2.263   0.000   3.638
   50        1.375   2.263   0.000   3.638
   51        1.375   2.263   0.000   3.638
   52        1.375   2.263   0.000   3.638
   53        1.376   2.254   0.000   3.630
   54        1.376   2.254   0.000   3.630
   55        1.376   2.258   0.000   3.635
   56        1.376   2.258   0.000   3.635
--------------------------------------------------
tot         77.050 126.304   0.000 203.354



 magnetization (x)

# of ion       s       p       d       tot
------------------------------------------
    1        0.000   0.000   0.000   0.000
    2        0.000   0.000   0.000   0.000
    3        0.000   0.000   0.000   0.000
    4        0.000   0.000   0.000   0.000
    5        0.000   0.000   0.000   0.000
    6        0.000   0.000   0.000   0.000
    7        0.000   0.000   0.000   0.000
    8        0.000   0.000   0.000   0.000
    9        0.000   0.000   0.000   0.000
   10        0.000   0.000   0.000   0.000
   11        0.000   0.000   0.000   0.000
   12        0.000   0.000   0.000   0.000
   13        0.000   0.000   0.000   0.000
   14        0.000   0.000   0.000   0.000
   15        0.000   0.000   0.000   0.000
   16        0.000   0.000   0.000   0.000
   17        0.000   0.000   0.000   0.000
   18        0.000   0.000   0.000   0.000
   19        0.000   0.000   0.000   0.000
   20        0.000   0.000   0.000   0.000
   21        0.000   0.000   0.000   0.000
   22        0.000   0.000   0.000   0.000
   23        0.000   0.000   0.000   0.000
   24        0.000   0.000   0.000   0.000
   25        0.000   0.000   0.000   0.000
   26        0.000   0.000   0.000   0.000
   27        0.000   0.000   0.000   0.000
   28        0.000   0.000   0.000   0.000
   29        0.000   0.000   0.000   0.000
   30        0.000   0.000   0.000   0.000
   31        0.000   0.000   0.000   0.000
   32        0.000   0.000   0.000   0.000
   33        0.000   0.000   0.000   0.000
   34        0.000   0.000   0.000   0.000
   35        0.000   0.000   0.000   0.000
   36        0.000   0.000   0.000   0.000
   37        0.000   0.000   0.000   0.000
   38        0.000   0.000   0.000   0.000
   39        0.000   0.000   0.000   0.000
   40        0.000   0.000   0.000   0.000
   41        0.000   0.000   0.000   0.000
   42        0.000   0.000   0.000   0.000
   43        0.000   0.000   0.000   0.000
   44        0.000   0.000   0.000   0.000
   45        0.000   0.000   0.000   0.000
   46        0.000   0.000   0.000   0.000
   47        0.000   0.000   0.000   0.000
   48        0.000   0.000   0.000   0.000
   49        0.000   0.000   0.000   0.000
   50        0.000   0.000   0.000   0.000
   51        0.000   0.000   0.000   0.000
   52        0.000   0.000   0.000   0.000
   53        0.000   0.000   0.000   0.000
   54        0.000   0.000   0.000   0.000
   55        0.000   0.000   0.000   0.000
   56        0.000   0.000   0.000   0.000
--------------------------------------------------
tot          0.000   0.000   0.000   0.000

 BZINTS: Fermi energy:    0.079105;  336.000000 electrons
         Band energy:-0.201102E+04;  BLOECHL correction:    0.000000

 total amount of memory used by VASP MPI-rank0   322725. kBytes
=======================================================================

   base      :      30000. kBytes
   nonl-proj :      70692. kBytes
   fftplans  :      34504. kBytes
   grid      :      83442. kBytes
   one-center:        344. kBytes
   wavefun   :     103743. kBytes

  
  
 General timing and accounting informations for this job:
 ========================================================
  
                  Total CPU time used (sec):     2506.573
                            User time (sec):     2504.860
                          System time (sec):        1.713
                         Elapsed time (sec):     2507.339
  
                   Maximum memory used (kb):      613296.
                   Average memory used (kb):          N/A
  
                          Minor page faults:       822280
                          Major page faults:          148
                 Voluntary context switches:         4712
