 vasp.6.3.2 27Jun22 (build Mar 25 2024 10:42:18) complex                         
 executed on             LinuxGNU date 2024.03.31  14:42:24
 running on   32 total cores
 distrk:  each k-point on   32 cores,    1 groups
 distr:  one band on NCORE=   1 cores,   32 groups


--------------------------------------------------------------------------------------------------------


 INCAR:
   ISTART = 0
   ICHARG = 2
   PREC = Accurate
   IBRION = -1
   EDIFF = 0.000000001
   EDIFFG = -0.0005
   NSW = 0
   NELM = 100
   ENCUT = 520
   ISMEAR = -5
   SIGMA = 0.05
   ISPIN = 2
   ISYM = 0
   LWAVE = False
   LCHARG = False
   LASPH = True
   LORBIT = 11
   ADDGRID = TRUE

 POTCAR:    PAW_PBE S 06Sep2000                   
 -----------------------------------------------------------------------------
|                                                                             |
|           W    W    AA    RRRRR   N    N  II  N    N   GGGG   !!!           |
|           W    W   A  A   R    R  NN   N  II  NN   N  G    G  !!!           |
|           W    W  A    A  R    R  N N  N  II  N N  N  G       !!!           |
|           W WW W  AAAAAA  RRRRR   N  N N  II  N  N N  G  GGG   !            |
|           WW  WW  A    A  R   R   N   NN  II  N   NN  G    G                |
|           W    W  A    A  R    R  N    N  II  N    N   GGGG   !!!           |
|                                                                             |
|     You use a magnetic or noncollinear calculation, but did not specify     |
|     the initial magnetic moment with the MAGMOM tag. Note that a            |
|     default of 1 will be used for all atoms. This ferromagnetic setup       |
|     may break the symmetry of the crystal, in particular it may rule        |
|     out finding an antiferromagnetic solution. Thence, we recommend         |
|     setting the initial magnetic moment manually or verifying carefully     |
|     that this magnetic setup is desired.                                    |
|                                                                             |
 -----------------------------------------------------------------------------

 -----------------------------------------------------------------------------
|                                                                             |
|           W    W    AA    RRRRR   N    N  II  N    N   GGGG   !!!           |
|           W    W   A  A   R    R  NN   N  II  NN   N  G    G  !!!           |
|           W    W  A    A  R    R  N N  N  II  N N  N  G       !!!           |
|           W WW W  AAAAAA  RRRRR   N  N N  II  N  N N  G  GGG   !            |
|           WW  WW  A    A  R   R   N   NN  II  N   NN  G    G                |
|           W    W  A    A  R    R  N    N  II  N    N   GGGG   !!!           |
|                                                                             |
|     For optimal performance we recommend to set                             |
|       NCORE = 2 up to number-of-cores-per-socket                            |
|     NCORE specifies how many cores store one orbital (NPAR=cpu/NCORE).      |
|     This setting can greatly improve the performance of VASP for DFT.       |
|     The default, NCORE=1 might be grossly inefficient on modern             |
|     multi-core architectures or massively parallel machines. Do your        |
|     own testing! More info at https://www.vasp.at/wiki/index.php/NCORE      |
|     Unfortunately you need to use the default for GW and RPA                |
|     calculations (for HF NCORE is supported but not extensively tested      |
|     yet).                                                                   |
|                                                                             |
 -----------------------------------------------------------------------------

 POTCAR:    PAW_PBE S 06Sep2000                   
   SHA256 =  0fc7481fb0695f01bdc6462160264c5c84044ae9ec85a907d398b887a2bc3132 S/POTCAR              
   COPYR  = (c) Copyright 06Sep2000 Georg Kresse                                                    
   COPYR  = This file is part of the software VASP. Any use, copying, and all other rights are regul
   COPYR  = If you do not have a valid VASP license, you may not use, copy or distribute this file. 
   VRHFIN =S : s2p4                                                                                 
   LEXCH  = PE                                                                                      
   EATOM  =   276.8230 eV,   20.3459 Ry                                                             
                                                                                                    
   TITEL  = PAW_PBE S 06Sep2000                                                                     
   LULTRA =        F    use ultrasoft PP ?                                                          
   IUNSCR =        1    unscreen: 0-lin 1-nonlin 2-no                                               
   RPACOR =    1.500    partial core radius                                                         
   POMASS =   32.066; ZVAL   =    6.000    mass and valenz                                          
   RCORE  =    1.900    outmost cutoff radius                                                       
   RWIGS  =    2.200; RWIGS  =    1.164    wigner-seitz radius (au A)                               
   ENMAX  =  258.689; ENMIN  =  194.016 eV                                                          
   ICORE  =        2    local potential                                                             
   LCOR   =        T    correct aug charges                                                         
   LPAW   =        T    paw PP                                                                      
   EAUG   =  335.092                                                                                
   DEXC   =    0.000                                                                                
   RMAX   =    1.942    core radius for proj-oper                                                   
   RAUG   =    1.300    factor for augmentation sphere                                              
   RDEP   =    1.954    radius for radial grids                                                     
   RDEPT  =    1.744    core radius for aug-charge                                                  
                                                                                                    
   Atomic configuration                                                                             
    6 entries                                                                                       
     n  l   j            E        occ.                                                              
     1  0  0.50     -2405.8406   2.0000                                                             
     2  0  0.50      -211.7007   2.0000                                                             
     2  1  1.50      -156.4958   6.0000                                                             
     3  0  0.50       -17.2562   2.0000                                                             
     3  1  0.50        -7.0085   4.0000                                                             
     3  2  1.50        -6.8029   0.0000                                                             
   Description                                                                                      
     l       E           TYP  RCUT    TYP  RCUT                                                     
     0    -17.2561641     23  1.900                                                                 
     0    -15.8743224     23  1.900                                                                 
     1     -7.0085400     23  1.900                                                                 
     1     -2.7779785     23  1.900                                                                 
     2     -6.8029130     23  1.900                                                                 
  local pseudopotential read in
  partial core-charges read in
  partial kinetic energy density read in
  atomic valenz-charges read in
  non local Contribution for L=           0  read in
    real space projection operators read in
  non local Contribution for L=           0  read in
    real space projection operators read in
  non local Contribution for L=           1  read in
    real space projection operators read in
  non local Contribution for L=           1  read in
    real space projection operators read in
    PAW grid and wavefunctions read in

   number of l-projection  operators is LMAX  =           4
   number of lm-projection operators is LMMAX =           8

 -----------------------------------------------------------------------------
|                                                                             |
|               ----> ADVICE to this user running VASP <----                  |
|                                                                             |
|     You have a (more or less) 'large supercell' and for larger cells it     |
|     might be more efficient to use real-space projection operators.         |
|     Therefore, try LREAL= Auto in the INCAR file.                           |
|     Mind: For very accurate calculation, you might also keep the            |
|     reciprocal projection scheme (i.e. LREAL=.FALSE.).                      |
|                                                                             |
 -----------------------------------------------------------------------------

  PAW_PBE S 06Sep2000                   :
 energy of atom  1       EATOM= -276.8230
 kinetic energy error for atom=    0.0016 (will be added to EATOM!!)


 POSCAR: generated by phonopy
  positions in direct lattice
  No initial velocities read in
 exchange correlation table for  LEXCH =        8
   RHO(1)=    0.500       N(1)  =     2000
   RHO(2)=  100.500       N(2)  =     4000



--------------------------------------------------------------------------------------------------------


 ion  position               nearest neighbor table
   1  0.886  0.467  0.678-  45 1.98  24 2.13
   2  0.886  0.967  0.678-  46 1.98  23 2.13
   3  0.330  0.189  0.551-  41 2.05  19 2.13
   4  0.330  0.689  0.551-  42 2.05  20 2.13
   5  0.913  0.105  0.912-  51 1.98  11 2.13
   6  0.913  0.605  0.912-  52 1.98  12 2.13
   7  0.241  0.301  0.777-  19 1.97  37 2.23
   8  0.240  0.801  0.777-  20 1.98  38 2.23
   9  0.144  0.306  0.224-  31 2.05  39 2.13
  10  0.144  0.806  0.224-  32 2.05  40 2.13
  11  0.856  0.194  0.776-  47 2.05   5 2.13
  12  0.856  0.694  0.776-  48 2.05   6 2.13
  13  0.760  0.199  0.223-  27 1.98  33 2.23
  14  0.760  0.699  0.223-  28 1.98  34 2.23
  15  0.170  0.439  0.449-  31 2.05  30 2.13
  16  0.170  0.939  0.449-  32 2.05  29 2.13
  17  0.413  0.145  0.912-  37 1.98  43 2.13
  18  0.413  0.645  0.912-  38 1.98  44 2.13
  19  0.386  0.283  0.678-   7 1.97   3 2.13
  20  0.386  0.783  0.678-   8 1.98   4 2.13
  21  0.644  0.444  0.224-  53 2.05  35 2.13
  22  0.644  0.944  0.224-  54 2.05  36 2.13
  23  0.830  0.061  0.551-  47 2.05   2 2.13
  24  0.830  0.561  0.551-  48 2.05   1 2.13
  25  0.260  0.051  0.223-  29 1.98  50 2.23
  26  0.260  0.551  0.223-  30 1.98  49 2.23
  27  0.614  0.217  0.322-  13 1.98  55 2.13
  28  0.614  0.717  0.322-  14 1.98  56 2.13
  29  0.114  0.033  0.322-  25 1.98  16 2.13
  30  0.114  0.533  0.322-  26 1.98  15 2.13
  31  0.060  0.345  0.374-   9 2.05  15 2.05
  32  0.060  0.845  0.374-  10 2.05  16 2.05
  33  0.743  0.289  0.071-  35 1.98  13 2.23
  34  0.743  0.789  0.071-  36 1.98  14 2.23
  35  0.587  0.355  0.088-  33 1.98  21 2.13
  36  0.587  0.855  0.088-  34 1.98  22 2.13
  37  0.257  0.211  0.929-  17 1.98   7 2.23
  38  0.257  0.711  0.929-  18 1.98   8 2.23
  39  0.087  0.395  0.088-  49 1.98   9 2.13
  40  0.087  0.895  0.088-  50 1.98  10 2.13
  41  0.440  0.095  0.626-  43 2.05   3 2.05
  42  0.440  0.595  0.626-  44 2.05   4 2.05
  43  0.356  0.056  0.776-  41 2.05  17 2.13
  44  0.356  0.556  0.776-  42 2.05  18 2.13
  45  0.740  0.449  0.777-   1 1.98  52 2.23
  46  0.740  0.949  0.777-   2 1.98  51 2.23
  47  0.940  0.155  0.626-  11 2.05  23 2.05
  48  0.940  0.655  0.626-  12 2.05  24 2.05
  49  0.243  0.461  0.071-  39 1.98  26 2.23
  50  0.243  0.961  0.071-  40 1.98  25 2.23
  51  0.757  0.039  0.929-   5 1.98  46 2.23
  52  0.757  0.539  0.929-   6 1.98  45 2.23
  53  0.560  0.405  0.374-  21 2.05  55 2.05
  54  0.560  0.905  0.374-  22 2.05  56 2.05
  55  0.670  0.311  0.449-  53 2.05  27 2.13
  56  0.670  0.811  0.449-  54 2.05  28 2.13


IMPORTANT INFORMATION: All symmetrisations will be switched off!
NOSYMM: (Re-)initialisation of all symmetry stuff for point group C_1.


----------------------------------------------------------------------------------------

                                     Primitive cell                                     

  volume of cell :    1863.6770

  direct lattice vectors                    reciprocal lattice vectors
     0.000000000 10.307367086 -0.372855731     0.000000000  0.096453423 -0.015606996
    16.788494411  0.000000000  0.000000000     0.059564603  0.000000000  0.000000000
     0.000000000 -1.732519801-10.707215182     0.000000000 -0.003358783 -0.092851486

  length of vectors
    10.314108670 16.788494411 10.846477853     0.097707938  0.059564603  0.092912216

  position of ions in fractional coordinates (direct lattice)
     0.886423141  0.467004751  0.678126386
     0.886423141  0.967004751  0.678126386
     0.329563264  0.188743823  0.550707721
     0.329563264  0.688743823  0.550707721
     0.912671285  0.105241885  0.911960471
     0.912671285  0.605241885  0.911960471
     0.240705950  0.300831047  0.776574189
     0.239736405  0.800831047  0.776574189
     0.144417516  0.305688762  0.224396680
     0.144417516  0.805688762  0.224396680
     0.855582484  0.194311238  0.775603320
     0.855582484  0.694311238  0.775603320
     0.760263595  0.199168953  0.223425811
     0.760263595  0.699168953  0.223425811
     0.170436736  0.438743823  0.449292279
     0.170436736  0.938743823  0.449292279
     0.412671285  0.144758115  0.911960471
     0.412671285  0.644758115  0.911960471
     0.386423141  0.282995249  0.678126386
     0.386423141  0.782995249  0.678126386
     0.644417516  0.444311238  0.224396680
     0.644417516  0.944311238  0.224396680
     0.829563264  0.061256177  0.550707721
     0.829563264  0.561256177  0.550707721
     0.260263595  0.050831047  0.223425811
     0.260263595  0.550831047  0.223425811
     0.613576859  0.217004751  0.321873614
     0.613576859  0.717004751  0.321873614
     0.113576859  0.032995249  0.321873614
     0.113576859  0.532995249  0.321873614
     0.059895700  0.345087734  0.374484367
     0.059895700  0.845087734  0.374484367
     0.743425210  0.289344343  0.071165234
     0.743425210  0.789344343  0.071165234
     0.587328715  0.355241885  0.088039529
     0.587328715  0.855241885  0.088039529
     0.256574790  0.210655657  0.928834766
     0.256574790  0.710655657  0.928834766
     0.087328715  0.394758115  0.088039529
     0.087328715  0.894758115  0.088039529
     0.440104300  0.095087734  0.625515633
     0.440104300  0.595087734  0.625515633
     0.355582484  0.055688762  0.775603320
     0.355582484  0.555688762  0.775603320
     0.739736405  0.449168953  0.776574189
     0.739736405  0.949168953  0.776574189
     0.940104300  0.154912266  0.625515633
     0.940104300  0.654912266  0.625515633
     0.243425210  0.460655657  0.071165234
     0.243425210  0.960655657  0.071165234
     0.756574790  0.039344343  0.928834766
     0.756574790  0.539344343  0.928834766
     0.559895700  0.404912266  0.374484367
     0.559895700  0.904912266  0.374484367
     0.670436736  0.311256177  0.449292279
     0.670436736  0.811256177  0.449292279

  ion indices of the primitive-cell ions
   primitive index   ion index
                 1           1
                 2           2
                 3           3
                 4           4
                 5           5
                 6           6
                 7           7
                 8           8
                 9           9
                10          10
                11          11
                12          12
                13          13
                14          14
                15          15
                16          16
                17          17
                18          18
                19          19
                20          20
                21          21
                22          22
                23          23
                24          24
                25          25
                26          26
                27          27
                28          28
                29          29
                30          30
                31          31
                32          32
                33          33
                34          34
                35          35
                36          36
                37          37
                38          38
                39          39
                40          40
                41          41
                42          42
                43          43
                44          44
                45          45
                46          46
                47          47
                48          48
                49          49
                50          50
                51          51
                52          52
                53          53
                54          54
                55          55
                56          56

----------------------------------------------------------------------------------------



 KPOINTS: pymatgen with grid density = 595 / numbe

Automatic generation of k-mesh.
 Grid dimensions read from file:
 generate k-points for:    2    2    2

 Generating k-lattice:

  Cartesian coordinates                     Fractional coordinates (reciprocal lattice)
     0.000000000  0.048226712 -0.007803498     0.500000000  0.000000000 -0.000000000
     0.029782301  0.000000000  0.000000000     0.000000000  0.500000000  0.000000000
     0.000000000 -0.001679391 -0.046425743    -0.000000000  0.000000000  0.500000000

  Length of vectors
     0.048853969  0.029782301  0.046456108

  Shift w.r.t. Gamma in fractional coordinates (k-lattice)
     0.000000000  0.000000000  0.000000000

 TETIRR: Found     24 inequivalent tetrahedra from       48
 
 Subroutine IBZKPT returns following result:
 ===========================================
 
 Found      8 irreducible k-points:
 
 Following reciprocal coordinates:
            Coordinates               Weight
  0.000000  0.000000  0.000000      1.000000
  0.500000  0.000000  0.000000      1.000000
  0.000000  0.500000  0.000000      1.000000
  0.500000  0.500000  0.000000      1.000000
  0.000000  0.000000  0.500000      1.000000
  0.500000  0.000000  0.500000      1.000000
  0.000000  0.500000  0.500000      1.000000
  0.500000  0.500000  0.500000      1.000000
 
 Following cartesian coordinates:
            Coordinates               Weight
  0.000000  0.000000 -0.000000      1.000000
  0.000000  0.048227 -0.007803      1.000000
  0.029782  0.000000 -0.000000      1.000000
  0.029782  0.048227 -0.007803      1.000000
  0.000000 -0.001679 -0.046426      1.000000
  0.000000  0.046547 -0.054229      1.000000
  0.029782 -0.001679 -0.046426      1.000000
  0.029782  0.046547 -0.054229      1.000000
 


--------------------------------------------------------------------------------------------------------




 Dimension of arrays:
   k-points           NKPTS =      8   k-points in BZ     NKDIM =      8   number of bands    NBANDS=    256
   number of dos      NEDOS =    301   number of ions     NIONS =     56
   non local maximal  LDIM  =      4   non local SUM 2l+1 LMDIM =      8
   total plane-waves  NPLWV = 846720
   max r-space proj   IRMAX =      1   max aug-charges    IRDMAX= 114695
   dimension x,y,z NGX =    80 NGY =  126 NGZ =   84
   dimension x,y,z NGXF=   160 NGYF=  252 NGZF=  168
   support grid    NGXF=   320 NGYF=  504 NGZF=  336
   ions per type =              56
   NGX,Y,Z   is equivalent  to a cutoff of  12.89, 12.48, 12.87 a.u.
   NGXF,Y,Z  is equivalent  to a cutoff of  25.79, 24.95, 25.75 a.u.

 SYSTEM =  unknown system                          
 POSCAR =  generated by phonopy                    

 Startparameter for this run:
   NWRITE =      2    write-flag & timer
   PREC   = accura    normal or accurate (medium, high low for compatibility)
   ISTART =      0    job   : 0-new  1-cont  2-samecut
   ICHARG =      2    charge: 1-file 2-atom 10-const
   ISPIN  =      2    spin polarized calculation?
   LNONCOLLINEAR =      F non collinear calculations
   LSORBIT =      F    spin-orbit coupling
   INIWAV =      1    electr: 0-lowe 1-rand  2-diag
   LASPH  =      T    aspherical Exc in radial PAW
 Electronic Relaxation 1
   ENCUT  =  520.0 eV  38.22 Ry    6.18 a.u.  19.18 31.22 20.17*2*pi/ulx,y,z
   ENINI  =  520.0     initial cutoff
   ENAUG  =  335.1 eV  augmentation charge cutoff
   NELM   =    100;   NELMIN=  2; NELMDL= -5     # of ELM steps 
   EDIFF  = 0.1E-08   stopping-criterion for ELM
   LREAL  =      F    real-space projection
   NLSPLINE    = F    spline interpolate recip. space projectors
   LCOMPAT=      F    compatible to vasp.4.4
   GGA_COMPAT  = T    GGA compatible to vasp.4.4-vasp.4.6
   LMAXPAW     = -100 max onsite density
   LMAXMIX     =    2 max onsite mixed and CHGCAR
   VOSKOWN=      0    Vosko Wilk Nusair interpolation
   ROPT   =    0.00000
 Ionic relaxation
   EDIFFG = -.5E-03   stopping-criterion for IOM
   NSW    =      0    number of steps for IOM
   NBLOCK =      1;   KBLOCK =      1    inner block; outer block 
   IBRION =     -1    ionic relax: 0-MD 1-quasi-New 2-CG
   NFREE  =      0    steps in history (QN), initial steepest desc. (CG)
   ISIF   =      2    stress and relaxation
   IWAVPR =     10    prediction:  0-non 1-charg 2-wave 3-comb
   ISYM   =      0    0-nonsym 1-usesym 2-fastsym
   LCORR  =      T    Harris-Foulkes like correction to forces

   POTIM  = 0.5000    time-step for ionic-motion
   TEIN   =    0.0    initial temperature
   TEBEG  =    0.0;   TEEND  =   0.0 temperature during run
   SMASS  =  -3.00    Nose mass-parameter (am)
   estimated Nose-frequenzy (Omega)   =  0.10E-29 period in steps = 0.13E+47 mass=  -0.243E-26a.u.
   SCALEE = 1.0000    scale energy and forces
   NPACO  =    256;   APACO  = 10.0  distance and # of slots for P.C.
   PSTRESS=    0.0 pullay stress

  Mass of Ions in am
   POMASS =  32.07
  Ionic Valenz
   ZVAL   =   6.00
  Atomic Wigner-Seitz radii
   RWIGS  =  -1.00
  virtual crystal weights 
   VCA    =   1.00
   NELECT =     336.0000    total number of electrons
   NUPDOWN=      -1.0000    fix difference up-down

 DOS related values:
   EMIN   =  10.00;   EMAX   =-10.00  energy-range for DOS
   EFERMI =   0.00
   ISMEAR =    -5;   SIGMA  =   0.05  broadening in eV -4-tet -1-fermi 0-gaus

 Electronic relaxation 2 (details)
   IALGO  =     38    algorithm
   LDIAG  =      T    sub-space diagonalisation (order eigenvalues)
   LSUBROT=      F    optimize rotation matrix (better conditioning)
   TURBO    =      0    0=normal 1=particle mesh
   IRESTART =      0    0=no restart 2=restart with 2 vectors
   NREBOOT  =      0    no. of reboots
   NMIN     =      0    reboot dimension
   EREF     =   0.00    reference energy to select bands
   IMIX   =      4    mixing-type and parameters
     AMIX     =   0.40;   BMIX     =  1.00
     AMIX_MAG =   1.60;   BMIX_MAG =  1.00
     AMIN     =   0.10
     WC   =   100.;   INIMIX=   1;  MIXPRE=   1;  MAXMIX= -45

 Intra band minimization:
   WEIMIN = 0.0000     energy-eigenvalue tresh-hold
   EBREAK =  0.98E-12  absolut break condition
   DEPER  =   0.30     relativ break condition  

   TIME   =   0.40     timestep for ELM

  volume/ion in A,a.u.               =      33.28       224.58
  Fermi-wavevector in a.u.,A,eV,Ry     =   0.924835  1.747685 11.637339  0.855320
  Thomas-Fermi vector in A             =   2.050624

 Write flags
   LWAVE        =      F    write WAVECAR
   LDOWNSAMPLE  =      F    k-point downsampling of WAVECAR
   LCHARG       =      F    write CHGCAR
   LVTOT        =      F    write LOCPOT, total local potential
   LVHAR        =      F    write LOCPOT, Hartree potential only
   LELF         =      F    write electronic localiz. function (ELF)
   LORBIT       =     11    0 simple, 1 ext, 2 COOP (PROOUT), +10 PAW based schemes


 Dipole corrections
   LMONO  =      F    monopole corrections only (constant potential shift)
   LDIPOL =      F    correct potential (dipole corrections)
   IDIPOL =      0    1-x, 2-y, 3-z, 4-all directions 
   EPSILON=  1.0000000 bulk dielectric constant

 Exchange correlation treatment:
   GGA     =    --    GGA type
   LEXCH   =     8    internal setting for exchange type
   LIBXC   =     F    Libxc                    
   VOSKOWN =     0    Vosko Wilk Nusair interpolation
   LHFCALC =     F    Hartree Fock is set to
   LHFONE  =     F    Hartree Fock one center treatment
   AEXX    =    0.0000 exact exchange contribution

 Linear response parameters
   LEPSILON=     F    determine dielectric tensor
   LRPA    =     F    only Hartree local field effects (RPA)
   LNABLA  =     F    use nabla operator in PAW spheres
   LVEL    =     F    velocity operator in full k-point grid
   CSHIFT  =0.1000    complex shift for real part using Kramers Kronig
   OMEGAMAX=  -1.0    maximum frequency
   DEG_THRESHOLD= 0.2000000E-02 threshold for treating states as degnerate
   RTIME   =   -0.100 relaxation time in fs
  (WPLASMAI=    0.000 imaginary part of plasma frequency in eV, 0.658/RTIME)
   DFIELD  = 0.0000000 0.0000000 0.0000000 field for delta impulse in time

  Optional k-point grid parameters
   LKPOINTS_OPT  =     F    use optional k-point grid
   KPOINTS_OPT_MODE=     1    mode for optional k-point grid

 Orbital magnetization related:
   ORBITALMAG=     F  switch on orbital magnetization
   LCHIMAG   =     F  perturbation theory with respect to B field
   DQ        =  0.001000  dq finite difference perturbation B field
   LLRAUG    =     F  two centre corrections for induced B field



--------------------------------------------------------------------------------------------------------


 Static calculation
 charge density and potential will be updated during run
 spin polarized calculation
 Variant of blocked Davidson
 Davidson routine will perform the subspace rotation
 perform sub-space diagonalisation
    after iterative eigenvector-optimisation
 modified Broyden-mixing scheme, WC =      100.0
 initial mixing is a Kerker type mixing with AMIX =  0.4000 and BMIX =      1.0000
 Hartree-type preconditioning will be used
 using additional bands           88
 reciprocal scheme for non local part
 use partial core corrections
 calculate Harris-corrections to forces   (improved forces if not selfconsistent)
 use gradient corrections 
 use of overlap-Matrix (Vanderbilt PP)
 Fermi weights with tetrahedron method with Bloechl corrections


--------------------------------------------------------------------------------------------------------


  energy-cutoff  :      520.00
  volume of cell :     1863.68
      direct lattice vectors                 reciprocal lattice vectors
     0.000000000 10.307367086 -0.372855731     0.000000000  0.096453423 -0.015606996
    16.788494411  0.000000000  0.000000000     0.059564603  0.000000000  0.000000000
     0.000000000 -1.732519801-10.707215182     0.000000000 -0.003358783 -0.092851486

  length of vectors
    10.314108670 16.788494411 10.846477853     0.097707938  0.059564603  0.092912216



 k-points in units of 2pi/SCALE and weight: pymatgen with grid density = 595 / numbe
   0.00000000  0.00000000 -0.00000000       0.125
   0.00000000  0.04822671 -0.00780350       0.125
   0.02978230  0.00000000 -0.00000000       0.125
   0.02978230  0.04822671 -0.00780350       0.125
   0.00000000 -0.00167939 -0.04642574       0.125
   0.00000000  0.04654732 -0.05422924       0.125
   0.02978230 -0.00167939 -0.04642574       0.125
   0.02978230  0.04654732 -0.05422924       0.125

 k-points in reciprocal lattice and weights: pymatgen with grid density = 595 / numbe
   0.00000000  0.00000000  0.00000000       0.125
   0.50000000  0.00000000  0.00000000       0.125
   0.00000000  0.50000000  0.00000000       0.125
   0.50000000  0.50000000  0.00000000       0.125
   0.00000000  0.00000000  0.50000000       0.125
   0.50000000  0.00000000  0.50000000       0.125
   0.00000000  0.50000000  0.50000000       0.125
   0.50000000  0.50000000  0.50000000       0.125

 position of ions in fractional coordinates (direct lattice) 
   0.88642314  0.46700475  0.67812639
   0.88642314  0.96700475  0.67812639
   0.32956326  0.18874382  0.55070772
   0.32956326  0.68874382  0.55070772
   0.91267129  0.10524188  0.91196047
   0.91267129  0.60524188  0.91196047
   0.24070595  0.30083105  0.77657419
   0.23973640  0.80083105  0.77657419
   0.14441752  0.30568876  0.22439668
   0.14441752  0.80568876  0.22439668
   0.85558248  0.19431124  0.77560332
   0.85558248  0.69431124  0.77560332
   0.76026360  0.19916895  0.22342581
   0.76026360  0.69916895  0.22342581
   0.17043674  0.43874382  0.44929228
   0.17043674  0.93874382  0.44929228
   0.41267129  0.14475812  0.91196047
   0.41267129  0.64475812  0.91196047
   0.38642314  0.28299525  0.67812639
   0.38642314  0.78299525  0.67812639
   0.64441752  0.44431124  0.22439668
   0.64441752  0.94431124  0.22439668
   0.82956326  0.06125618  0.55070772
   0.82956326  0.56125618  0.55070772
   0.26026360  0.05083105  0.22342581
   0.26026360  0.55083105  0.22342581
   0.61357686  0.21700475  0.32187361
   0.61357686  0.71700475  0.32187361
   0.11357686  0.03299525  0.32187361
   0.11357686  0.53299525  0.32187361
   0.05989570  0.34508773  0.37448437
   0.05989570  0.84508773  0.37448437
   0.74342521  0.28934434  0.07116523
   0.74342521  0.78934434  0.07116523
   0.58732871  0.35524188  0.08803953
   0.58732871  0.85524188  0.08803953
   0.25657479  0.21065566  0.92883477
   0.25657479  0.71065566  0.92883477
   0.08732871  0.39475812  0.08803953
   0.08732871  0.89475812  0.08803953
   0.44010430  0.09508773  0.62551563
   0.44010430  0.59508773  0.62551563
   0.35558248  0.05568876  0.77560332
   0.35558248  0.55568876  0.77560332
   0.73973640  0.44916895  0.77657419
   0.73973640  0.94916895  0.77657419
   0.94010430  0.15491227  0.62551563
   0.94010430  0.65491227  0.62551563
   0.24342521  0.46065566  0.07116523
   0.24342521  0.96065566  0.07116523
   0.75657479  0.03934434  0.92883477
   0.75657479  0.53934434  0.92883477
   0.55989570  0.40491227  0.37448437
   0.55989570  0.90491227  0.37448437
   0.67043674  0.31125618  0.44929228
   0.67043674  0.81125618  0.44929228

 position of ions in cartesian coordinates  (Angst):
   7.84030666  7.96182132 -7.59135308
  16.23455387  7.96182132 -7.59135308
   3.16872461  2.44281751 -6.01942562
  11.56297182  2.44281751 -6.01942562
   1.76685280  7.82724839-10.10485172
  10.16110000  7.82724839-10.10485172
   5.05050035  1.13561443 -8.40469554
  13.44474755  1.12562097 -8.40433404
   5.13205407  1.09979266 -2.45651044
  13.52630128  1.09979266 -2.45651044
   3.26219313  7.47505463 -8.62356047
  11.65644034  7.47505463 -8.62356047
   3.34374686  7.44922632 -2.67573688
  11.73799406  7.44922632 -2.67573688
   7.36584822  0.97834624 -4.87421742
  15.76009542  0.97834624 -4.87421742
   2.43027081  2.67356485 -9.91842386
  10.82451801  2.67356485 -9.91842386
   4.75106415  2.80813777 -7.40492521
  13.14531135  2.80813777 -7.40492521
   7.45931673  6.25347620 -2.64293831
  15.85356394  6.25347620 -2.64293831
   1.02839899  7.59650105 -6.20585349
   9.42264619  7.59650105 -6.20585349
   0.85337674  2.29554277 -2.48930901
   9.24762395  2.29554277 -2.48930901
   3.64318306  5.76670951 -3.67514570
  12.03743026  5.76670951 -3.67514570
   0.55394055  0.61302597 -3.48871783
   8.94818775  0.61302597 -3.48871783
   5.79350349 -0.03143461 -4.03201715
  14.18775070 -0.03143461 -4.03201715
   4.85765589  7.53946136 -1.03917182
  13.25190310  7.53946136 -1.03917182
   5.96397640  5.90128244 -1.16164705
  14.35822361  5.90128244 -1.16164705
   3.53659131  1.03538593-10.04089909
  11.93083852  1.03538593-10.04089909
   6.62739441  0.74759889 -0.97521919
  15.02164161  0.74759889 -0.97521919
   1.59637989  3.45259836 -6.86162589
   9.99062710  3.45259836 -6.86162589
   0.93493047  2.32137108 -8.43713261
   9.32917768  2.32137108 -8.43713261
   7.54087046  6.27930451 -8.59076190
  15.93511767  6.27930451 -8.59076190
   2.60074371  8.60628190 -7.04805376
  10.99499092  8.60628190 -7.04805376
   7.73371492  2.38577782 -0.85274396
  16.12796212  2.38577782 -0.85274396
   0.66053229  6.18906947-10.22732695
   9.05477950  6.18906947-10.22732695
   6.79786731  5.12224893 -4.21844502
  15.19211452  5.12224893 -4.21844502
   5.22552259  6.13202978 -5.06064529
  13.61976980  6.13202978 -5.06064529



--------------------------------------------------------------------------------------------------------


 k-point   1 :   0.0000 0.0000 0.0000  plane waves:   50179
 k-point   2 :   0.5000 0.0000 0.0000  plane waves:   50160
 k-point   3 :   0.0000 0.5000 0.0000  plane waves:   50162
 k-point   4 :   0.5000 0.5000 0.0000  plane waves:   50192
 k-point   5 :   0.0000 0.0000 0.5000  plane waves:   50190
 k-point   6 :   0.5000 0.0000 0.5000  plane waves:   50190
 k-point   7 :   0.0000 0.5000 0.5000  plane waves:   50172
 k-point   8 :   0.5000 0.5000 0.5000  plane waves:   50200

 maximum and minimum number of plane-waves per node :     50200    50160

 maximum number of plane-waves:     50200
 maximum index in each direction: 
   IXMAX=   19   IYMAX=   31   IZMAX=   20
   IXMIN=  -19   IYMIN=  -31   IZMIN=  -20


 serial   3D FFT for wavefunctions
 parallel 3D FFT for charge:
    minimum data exchange during FFTs selected (reduces bandwidth)


 total amount of memory used by VASP MPI-rank0   322725. kBytes
=======================================================================

   base      :      30000. kBytes
   nonl-proj :      70692. kBytes
   fftplans  :      34504. kBytes
   grid      :      83442. kBytes
   one-center:        344. kBytes
   wavefun   :     103743. kBytes

     INWAV:  cpu time      0.0000: real time      0.0001
 Broyden mixing: mesh for mixing (old mesh)
   NGX = 39   NGY = 63   NGZ = 41
  (NGX  =160   NGY  =252   NGZ  =168)
  gives a total of 100737 points

 initial charge density was supplied:
 charge density of overlapping atoms calculated
 number of electron     336.0000000 magnetization      56.0000000
 keeping initial charge density in first step


--------------------------------------------------------------------------------------------------------


 Maximum index for augmentation-charges         3947 (set IRDMAX)


--------------------------------------------------------------------------------------------------------


 First call to EWALD:  gamma=   0.144
 Maximum number of real-space cells 3x 2x 3
 Maximum number of reciprocal cells 2x 4x 2

    FEWALD:  cpu time      0.0020: real time      0.0020


--------------------------------------- Iteration      1(   1)  ---------------------------------------


    POTLOK:  cpu time      0.4491: real time      0.4493
    SETDIJ:  cpu time      6.2957: real time      6.2961
     EDDAV:  cpu time     38.6403: real time     38.6457
 BZINTS: Fermi energy:   10.166495;  336.000000 electrons
         Band energy: 0.225066E+03;  BLOECHL correction:   -0.008964
       DOS:  cpu time      0.0468: real time      0.0468
    --------------------------------------------
      LOOP:  cpu time     45.4319: real time     45.4380

 eigenvalue-minimisations  :  8192
 total energy-change (2. order) : 0.2106339E+04  (-0.1333804E+05)
 number of electron     336.0000000 magnetization      56.0000000
 augmentation part      336.0000000 magnetization      56.0000000

 Free energy of the ion-electron system (eV)
  ---------------------------------------------------
  alpha Z        PSCENC =       253.99581917
  Ewald energy   TEWEN  =     -9969.92533520
  -Hartree energ DENC   =     -4766.57438070
  -exchange      EXHF   =         0.00000000
  -V(xc)+E(xc)   XCENC  =       682.53017189
  PAW double counting   =     12174.71095765   -11995.46358648
  entropy T*S    EENTRO =         0.00000000
  eigenvalues    EBANDS =       225.06555745
  atomic energy  EATOM  =     15501.99929693
  Solvation  Ediel_sol  =         0.00000000
  ---------------------------------------------------
  free energy    TOTEN  =      2106.33850071 eV

  energy without entropy =     2106.33850071  energy(sigma->0) =     2106.33850071


--------------------------------------------------------------------------------------------------------




--------------------------------------- Iteration      1(   2)  ---------------------------------------


     EDDAV:  cpu time     45.4059: real time     45.4129
 BZINTS: Fermi energy:    1.451792;  336.000000 electrons
         Band energy:-0.187499E+04;  BLOECHL correction:    0.000000
       DOS:  cpu time      0.0269: real time      0.0270
    --------------------------------------------
      LOOP:  cpu time     45.4328: real time     45.4399

 eigenvalue-minimisations  : 10272
 total energy-change (2. order) :-0.2100055E+04  (-0.2021857E+04)
 number of electron     336.0000000 magnetization      56.0000000
 augmentation part      336.0000000 magnetization      56.0000000

 Free energy of the ion-electron system (eV)
  ---------------------------------------------------
  alpha Z        PSCENC =       253.99581917
  Ewald energy   TEWEN  =     -9969.92533520
  -Hartree energ DENC   =     -4766.57438070
  -exchange      EXHF   =         0.00000000
  -V(xc)+E(xc)   XCENC  =       682.53017189
  PAW double counting   =     12174.71095765   -11995.46358648
  entropy T*S    EENTRO =         0.00000000
  eigenvalues    EBANDS =     -1874.98910641
  atomic energy  EATOM  =     15501.99929693
  Solvation  Ediel_sol  =         0.00000000
  ---------------------------------------------------
  free energy    TOTEN  =         6.28383685 eV

  energy without entropy =        6.28383685  energy(sigma->0) =        6.28383685


--------------------------------------------------------------------------------------------------------




--------------------------------------- Iteration      1(   3)  ---------------------------------------


     EDDAV:  cpu time     47.2642: real time     47.2719
 BZINTS: Fermi energy:    0.219311;  336.000000 electrons
         Band energy:-0.209485E+04;  BLOECHL correction:    0.000000
       DOS:  cpu time      0.0257: real time      0.0258
    --------------------------------------------
      LOOP:  cpu time     47.2899: real time     47.2976

 eigenvalue-minimisations  : 10240
 total energy-change (2. order) :-0.2198626E+03  (-0.2171771E+03)
 number of electron     336.0000000 magnetization      56.0000000
 augmentation part      336.0000000 magnetization      56.0000000

 Free energy of the ion-electron system (eV)
  ---------------------------------------------------
  alpha Z        PSCENC =       253.99581917
  Ewald energy   TEWEN  =     -9969.92533520
  -Hartree energ DENC   =     -4766.57438070
  -exchange      EXHF   =         0.00000000
  -V(xc)+E(xc)   XCENC  =       682.53017189
  PAW double counting   =     12174.71095765   -11995.46358648
  entropy T*S    EENTRO =         0.00000000
  eigenvalues    EBANDS =     -2094.85171833
  atomic energy  EATOM  =     15501.99929693
  Solvation  Ediel_sol  =         0.00000000
  ---------------------------------------------------
  free energy    TOTEN  =      -213.57877507 eV

  energy without entropy =     -213.57877507  energy(sigma->0) =     -213.57877507


--------------------------------------------------------------------------------------------------------




--------------------------------------- Iteration      1(   4)  ---------------------------------------


     EDDAV:  cpu time     45.5652: real time     45.5751
 BZINTS: Fermi energy:    0.191603;  336.000000 electrons
         Band energy:-0.209975E+04;  BLOECHL correction:    0.000000
       DOS:  cpu time      0.0275: real time      0.0275
    --------------------------------------------
      LOOP:  cpu time     45.5927: real time     45.6026

 eigenvalue-minimisations  : 10336
 total energy-change (2. order) :-0.4898726E+01  (-0.4880376E+01)
 number of electron     336.0000000 magnetization      56.0000000
 augmentation part      336.0000000 magnetization      56.0000000

 Free energy of the ion-electron system (eV)
  ---------------------------------------------------
  alpha Z        PSCENC =       253.99581917
  Ewald energy   TEWEN  =     -9969.92533520
  -Hartree energ DENC   =     -4766.57438070
  -exchange      EXHF   =         0.00000000
  -V(xc)+E(xc)   XCENC  =       682.53017189
  PAW double counting   =     12174.71095765   -11995.46358648
  entropy T*S    EENTRO =         0.00000000
  eigenvalues    EBANDS =     -2099.75044474
  atomic energy  EATOM  =     15501.99929693
  Solvation  Ediel_sol  =         0.00000000
  ---------------------------------------------------
  free energy    TOTEN  =      -218.47750148 eV

  energy without entropy =     -218.47750148  energy(sigma->0) =     -218.47750148


--------------------------------------------------------------------------------------------------------




--------------------------------------- Iteration      1(   5)  ---------------------------------------


     EDDAV:  cpu time     46.5930: real time     46.6002
 BZINTS: Fermi energy:    0.191469;  336.000000 electrons
         Band energy:-0.209989E+04;  BLOECHL correction:    0.000000
       DOS:  cpu time      0.0260: real time      0.0261
    CHARGE:  cpu time      8.4173: real time      8.4188
    MIXING:  cpu time      0.0076: real time      0.0076
    --------------------------------------------
      LOOP:  cpu time     55.0439: real time     55.0527

 eigenvalue-minimisations  : 10080
 total energy-change (2. order) :-0.1350634E+00  (-0.1349972E+00)
 number of electron     335.9999996 magnetization      44.9918631
 augmentation part      -47.3229887 magnetization      44.8832572

 Broyden mixing:
  rms(total) = 0.82925E+01    rms(broyden)= 0.82925E+01
  rms(prec ) = 0.83125E+01
  weight for this iteration     100.00

 Free energy of the ion-electron system (eV)
  ---------------------------------------------------
  alpha Z        PSCENC =       253.99581917
  Ewald energy   TEWEN  =     -9969.92533520
  -Hartree energ DENC   =     -4766.57438070
  -exchange      EXHF   =         0.00000000
  -V(xc)+E(xc)   XCENC  =       682.53017189
  PAW double counting   =     12174.71095765   -11995.46358648
  entropy T*S    EENTRO =         0.00000000
  eigenvalues    EBANDS =     -2099.88550817
  atomic energy  EATOM  =     15501.99929693
  Solvation  Ediel_sol  =         0.00000000
  ---------------------------------------------------
  free energy    TOTEN  =      -218.61256491 eV

  energy without entropy =     -218.61256491  energy(sigma->0) =     -218.61256491


--------------------------------------------------------------------------------------------------------




--------------------------------------- Iteration      1(   6)  ---------------------------------------


    POTLOK:  cpu time      0.3961: real time      0.3971
    SETDIJ:  cpu time      3.7347: real time      3.7351
     EDDAV:  cpu time     43.1269: real time     43.1330
 BZINTS: Fermi energy:    0.408532;  336.000000 electrons
         Band energy:-0.201434E+04;  BLOECHL correction:   -0.000000
       DOS:  cpu time      0.0296: real time      0.0297
    CHARGE:  cpu time     11.9964: real time     11.9973
    MIXING:  cpu time      0.0103: real time      0.0103
    --------------------------------------------
      LOOP:  cpu time     59.2940: real time     59.3024

 eigenvalue-minimisations  :  9632
 total energy-change (2. order) : 0.1022893E+03  (-0.2667644E+02)
 number of electron     335.9999996 magnetization      26.4793802
 augmentation part      -47.6488463 magnetization      27.5375863

 Broyden mixing:
  rms(total) = 0.49389E+01    rms(broyden)= 0.49389E+01
  rms(prec ) = 0.49612E+01
  weight for this iteration     100.00

 eigenvalues of (default mixing * dielectric matrix)
  average eigenvalue GAMMA=   1.6680
  1.6680

 Free energy of the ion-electron system (eV)
  ---------------------------------------------------
  alpha Z        PSCENC =       253.99581917
  Ewald energy   TEWEN  =     -9969.92533520
  -Hartree energ DENC   =     -4810.95590251
  -exchange      EXHF   =         0.00000000
  -V(xc)+E(xc)   XCENC  =       746.12438743
  PAW double counting   =     20735.82792290   -20559.05154655
  entropy T*S    EENTRO =         0.00000000
  eigenvalues    EBANDS =     -2014.33790109
  atomic energy  EATOM  =     15501.99929693
  Solvation  Ediel_sol  =         0.00000000
  ---------------------------------------------------
  free energy    TOTEN  =      -116.32325891 eV

  energy without entropy =     -116.32325891  energy(sigma->0) =     -116.32325891


--------------------------------------------------------------------------------------------------------




--------------------------------------- Iteration      1(   7)  ---------------------------------------


    POTLOK:  cpu time      0.3934: real time      0.3992
    SETDIJ:  cpu time      5.8374: real time      5.8380
     EDDAV:  cpu time     44.6383: real time     44.6445
 BZINTS: Fermi energy:    0.738245;  336.000000 electrons
         Band energy:-0.186781E+04;  BLOECHL correction:    0.000000
       DOS:  cpu time      0.0257: real time      0.0258
    CHARGE:  cpu time      8.1354: real time      8.1361
    MIXING:  cpu time      0.0066: real time      0.0066
    --------------------------------------------
      LOOP:  cpu time     59.0367: real time     59.0501

 eigenvalue-minimisations  : 10080
 total energy-change (2. order) :-0.1115020E+02  (-0.2696607E+01)
 number of electron     335.9999997 magnetization      19.7299688
 augmentation part      -47.3158024 magnetization      20.9352909

 Broyden mixing:
  rms(total) = 0.14026E+01    rms(broyden)= 0.14026E+01
  rms(prec ) = 0.14062E+01
  weight for this iteration     100.00

 eigenvalues of (default mixing * dielectric matrix)
  average eigenvalue GAMMA=   1.4835
  0.7880  2.1790

 Free energy of the ion-electron system (eV)
  ---------------------------------------------------
  alpha Z        PSCENC =       253.99581917
  Ewald energy   TEWEN  =     -9969.92533520
  -Hartree energ DENC   =     -4970.56403811
  -exchange      EXHF   =         0.00000000
  -V(xc)+E(xc)   XCENC  =       751.46634602
  PAW double counting   =     37062.84353207   -36889.48367169
  entropy T*S    EENTRO =         0.00000000
  eigenvalues    EBANDS =     -1867.80540660
  atomic energy  EATOM  =     15501.99929693
  Solvation  Ediel_sol  =         0.00000000
  ---------------------------------------------------
  free energy    TOTEN  =      -127.47345741 eV

  energy without entropy =     -127.47345741  energy(sigma->0) =     -127.47345741


--------------------------------------------------------------------------------------------------------




--------------------------------------- Iteration      1(   8)  ---------------------------------------


    POTLOK:  cpu time      0.4040: real time      0.4048
    SETDIJ:  cpu time      4.3757: real time      4.3760
     EDDAV:  cpu time     44.0698: real time     44.0758
 BZINTS: Fermi energy:    0.705643;  336.000000 electrons
         Band energy:-0.185541E+04;  BLOECHL correction:    0.000000
       DOS:  cpu time      0.0272: real time      0.0273
    CHARGE:  cpu time     10.1200: real time     10.1207
    MIXING:  cpu time      0.0123: real time      0.0123
    --------------------------------------------
      LOOP:  cpu time     59.0091: real time     59.0169

 eigenvalue-minimisations  :  9344
 total energy-change (2. order) :-0.4267318E+02  (-0.1969735E+01)
 number of electron     335.9999997 magnetization      16.0575002
 augmentation part      -47.0123112 magnetization      17.1020294

 Broyden mixing:
  rms(total) = 0.78414E+00    rms(broyden)= 0.78414E+00
  rms(prec ) = 0.78927E+00
  weight for this iteration     100.00

 eigenvalues of (default mixing * dielectric matrix)
  average eigenvalue GAMMA=   1.3390
  2.4912  0.9432  0.5824

 Free energy of the ion-electron system (eV)
  ---------------------------------------------------
  alpha Z        PSCENC =       253.99581917
  Ewald energy   TEWEN  =     -9969.92533520
  -Hartree energ DENC   =     -5000.00197740
  -exchange      EXHF   =         0.00000000
  -V(xc)+E(xc)   XCENC  =       726.60589388
  PAW double counting   =     40196.63736867   -40024.04412922
  entropy T*S    EENTRO =         0.00000000
  eigenvalues    EBANDS =     -1855.41357900
  atomic energy  EATOM  =     15501.99929693
  Solvation  Ediel_sol  =         0.00000000
  ---------------------------------------------------
  free energy    TOTEN  =      -170.14664217 eV

  energy without entropy =     -170.14664217  energy(sigma->0) =     -170.14664217


--------------------------------------------------------------------------------------------------------




--------------------------------------- Iteration      1(   9)  ---------------------------------------


    POTLOK:  cpu time      0.3944: real time      0.3951
    SETDIJ:  cpu time     10.2103: real time     10.2110
     EDDAV:  cpu time     46.5566: real time     46.5631
 BZINTS: Fermi energy:    0.627863;  336.000000 electrons
         Band energy:-0.186664E+04;  BLOECHL correction:    0.000000
       DOS:  cpu time      0.0257: real time      0.0258
    CHARGE:  cpu time      2.9284: real time      2.9287
    MIXING:  cpu time      0.0080: real time      0.0080
    --------------------------------------------
      LOOP:  cpu time     60.1234: real time     60.1316

 eigenvalue-minimisations  : 10240
 total energy-change (2. order) :-0.1682776E+02  (-0.6450798E+00)
 number of electron     335.9999997 magnetization      11.5305747
 augmentation part      -46.9153596 magnetization      12.3682307

 Broyden mixing:
  rms(total) = 0.43652E+00    rms(broyden)= 0.43652E+00
  rms(prec ) = 0.44858E+00
  weight for this iteration     100.00

 eigenvalues of (default mixing * dielectric matrix)
  average eigenvalue GAMMA=   1.3242
  2.5747  1.3003  0.7110  0.7110

 Free energy of the ion-electron system (eV)
  ---------------------------------------------------
  alpha Z        PSCENC =       253.99581917
  Ewald energy   TEWEN  =     -9969.92533520
  -Hartree energ DENC   =     -4996.25213068
  -exchange      EXHF   =         0.00000000
  -V(xc)+E(xc)   XCENC  =       717.23887738
  PAW double counting   =     40982.71152828   -40810.09844217
  entropy T*S    EENTRO =         0.00000000
  eigenvalues    EBANDS =     -1866.64401752
  atomic energy  EATOM  =     15501.99929693
  Solvation  Ediel_sol  =         0.00000000
  ---------------------------------------------------
  free energy    TOTEN  =      -186.97440382 eV

  energy without entropy =     -186.97440382  energy(sigma->0) =     -186.97440382


--------------------------------------------------------------------------------------------------------




--------------------------------------- Iteration      1(  10)  ---------------------------------------


    POTLOK:  cpu time      0.3983: real time      0.3992
    SETDIJ:  cpu time      3.7558: real time      3.7561
     EDDAV:  cpu time     44.5655: real time     44.5742
 BZINTS: Fermi energy:    0.474745;  336.000000 electrons
         Band energy:-0.190118E+04;  BLOECHL correction:    0.000000
       DOS:  cpu time      0.0273: real time      0.0273
    CHARGE:  cpu time      9.2578: real time      9.2586
    MIXING:  cpu time      0.0109: real time      0.0109
    --------------------------------------------
      LOOP:  cpu time     58.0156: real time     58.0263

 eigenvalue-minimisations  :  9984
 total energy-change (2. order) :-0.2005594E+02  (-0.1302451E+01)
 number of electron     335.9999997 magnetization       5.3071775
 augmentation part      -46.8736047 magnetization       5.8416573

 Broyden mixing:
  rms(total) = 0.32405E+00    rms(broyden)= 0.32405E+00
  rms(prec ) = 0.33701E+00
  weight for this iteration     100.00

 eigenvalues of (default mixing * dielectric matrix)
  average eigenvalue GAMMA=   1.4494
  2.4871  2.4871  0.9414  0.7292  0.6022

 Free energy of the ion-electron system (eV)
  ---------------------------------------------------
  alpha Z        PSCENC =       253.99581917
  Ewald energy   TEWEN  =     -9969.92533520
  -Hartree energ DENC   =     -4970.85560526
  -exchange      EXHF   =         0.00000000
  -V(xc)+E(xc)   XCENC  =       705.66526754
  PAW double counting   =     40989.75395339   -40816.48621236
  entropy T*S    EENTRO =         0.00000000
  eigenvalues    EBANDS =     -1901.17752896
  atomic energy  EATOM  =     15501.99929693
  Solvation  Ediel_sol  =         0.00000000
  ---------------------------------------------------
  free energy    TOTEN  =      -207.03034474 eV

  energy without entropy =     -207.03034474  energy(sigma->0) =     -207.03034474


--------------------------------------------------------------------------------------------------------




--------------------------------------- Iteration      1(  11)  ---------------------------------------


    POTLOK:  cpu time      0.3958: real time      0.3966
    SETDIJ:  cpu time      2.7081: real time      2.7083
     EDDAV:  cpu time     44.5956: real time     44.6020
 BZINTS: Fermi energy:    0.257116;  336.000000 electrons
         Band energy:-0.195855E+04;  BLOECHL correction:    0.000000
       DOS:  cpu time      0.0264: real time      0.0265
    CHARGE:  cpu time      9.1201: real time      9.1207
    MIXING:  cpu time      0.0103: real time      0.0103
    --------------------------------------------
      LOOP:  cpu time     56.8562: real time     56.8644

 eigenvalue-minimisations  :  9952
 total energy-change (2. order) :-0.1784592E+02  (-0.2164737E+01)
 number of electron     335.9999997 magnetization       3.5723105
 augmentation part      -46.9052214 magnetization       3.7555861

 Broyden mixing:
  rms(total) = 0.18649E+00    rms(broyden)= 0.18649E+00
  rms(prec ) = 0.20019E+00
  weight for this iteration     100.00

 eigenvalues of (default mixing * dielectric matrix)
  average eigenvalue GAMMA=   1.4668
  2.7972  2.7972  1.0274  0.8893  0.6995  0.5903

 Free energy of the ion-electron system (eV)
  ---------------------------------------------------
  alpha Z        PSCENC =       253.99581917
  Ewald energy   TEWEN  =     -9969.92533520
  -Hartree energ DENC   =     -4921.28160513
  -exchange      EXHF   =         0.00000000
  -V(xc)+E(xc)   XCENC  =       694.55682708
  PAW double counting   =     40416.63845737   -40242.31146775
  entropy T*S    EENTRO =         0.00000000
  eigenvalues    EBANDS =     -1958.54825636
  atomic energy  EATOM  =     15501.99929693
  Solvation  Ediel_sol  =         0.00000000
  ---------------------------------------------------
  free energy    TOTEN  =      -224.87626389 eV

  energy without entropy =     -224.87626389  energy(sigma->0) =     -224.87626389


--------------------------------------------------------------------------------------------------------




--------------------------------------- Iteration      1(  12)  ---------------------------------------


    POTLOK:  cpu time      0.3981: real time      0.3987
    SETDIJ:  cpu time      4.4651: real time      4.4654
     EDDAV:  cpu time     44.7179: real time     44.7264
 BZINTS: Fermi energy:    0.183688;  336.000000 electrons
         Band energy:-0.197920E+04;  BLOECHL correction:    0.000000
       DOS:  cpu time      0.0264: real time      0.0265
    CHARGE:  cpu time     10.5057: real time     10.5064
    MIXING:  cpu time      0.0070: real time      0.0070
    --------------------------------------------
      LOOP:  cpu time     60.1203: real time     60.1305

 eigenvalue-minimisations  : 10048
 total energy-change (2. order) :-0.3386251E+01  (-0.3877665E+00)
 number of electron     335.9999997 magnetization       2.3920268
 augmentation part      -46.9153322 magnetization       2.4751403

 Broyden mixing:
  rms(total) = 0.15966E+00    rms(broyden)= 0.15966E+00
  rms(prec ) = 0.17219E+00
  weight for this iteration     100.00

 eigenvalues of (default mixing * dielectric matrix)
  average eigenvalue GAMMA=   1.4918
  3.1005  3.1005  1.0556  1.0556  0.7811  0.7811  0.5685

 Free energy of the ion-electron system (eV)
  ---------------------------------------------------
  alpha Z        PSCENC =       253.99581917
  Ewald energy   TEWEN  =     -9969.92533520
  -Hartree energ DENC   =     -4901.79958806
  -exchange      EXHF   =         0.00000000
  -V(xc)+E(xc)   XCENC  =       692.10382281
  PAW double counting   =     39984.81297272   -39810.24937074
  entropy T*S    EENTRO =         0.00000000
  eigenvalues    EBANDS =     -1979.20013210
  atomic energy  EATOM  =     15501.99929693
  Solvation  Ediel_sol  =         0.00000000
  ---------------------------------------------------
  free energy    TOTEN  =      -228.26251448 eV

  energy without entropy =     -228.26251448  energy(sigma->0) =     -228.26251448


--------------------------------------------------------------------------------------------------------




--------------------------------------- Iteration      1(  13)  ---------------------------------------


    POTLOK:  cpu time      0.4160: real time      0.4167
    SETDIJ:  cpu time      8.6526: real time      8.6532
     EDDAV:  cpu time     43.0672: real time     43.0731
 BZINTS: Fermi energy:    0.115840;  336.000000 electrons
         Band energy:-0.200163E+04;  BLOECHL correction:    0.000000
       DOS:  cpu time      0.0256: real time      0.0257
    CHARGE:  cpu time      4.7732: real time      4.7736
    MIXING:  cpu time      0.0075: real time      0.0075
    --------------------------------------------
      LOOP:  cpu time     56.9421: real time     56.9498

 eigenvalue-minimisations  :  9568
 total energy-change (2. order) :-0.1052609E+01  (-0.1335222E+00)
 number of electron     335.9999997 magnetization       0.8885119
 augmentation part      -46.9735205 magnetization       0.9145338

 Broyden mixing:
  rms(total) = 0.93028E-01    rms(broyden)= 0.93027E-01
  rms(prec ) = 0.99845E-01
  weight for this iteration     100.00

 eigenvalues of (default mixing * dielectric matrix)
  average eigenvalue GAMMA=   1.5516
  3.3222  3.3222  1.5839  1.2846  0.9272  0.6999  0.6999  0.5728

 Free energy of the ion-electron system (eV)
  ---------------------------------------------------
  alpha Z        PSCENC =       253.99581917
  Ewald energy   TEWEN  =     -9969.92533520
  -Hartree energ DENC   =     -4878.67798814
  -exchange      EXHF   =         0.00000000
  -V(xc)+E(xc)   XCENC  =       690.12219234
  PAW double counting   =     39164.47087708   -38989.66798575
  entropy T*S    EENTRO =         0.00000000
  eigenvalues    EBANDS =     -2001.63200022
  atomic energy  EATOM  =     15501.99929693
  Solvation  Ediel_sol  =         0.00000000
  ---------------------------------------------------
  free energy    TOTEN  =      -229.31512380 eV

  energy without entropy =     -229.31512380  energy(sigma->0) =     -229.31512380


--------------------------------------------------------------------------------------------------------




--------------------------------------- Iteration      1(  14)  ---------------------------------------


    POTLOK:  cpu time      0.4161: real time      0.4170
    SETDIJ:  cpu time      7.5323: real time      7.5328
     EDDAV:  cpu time     41.0246: real time     41.0505
 BZINTS: Fermi energy:    0.080095;  336.000000 electrons
         Band energy:-0.201212E+04;  BLOECHL correction:   -0.000000
       DOS:  cpu time      0.0272: real time      0.0273
    CHARGE:  cpu time      3.6587: real time      3.6590
    MIXING:  cpu time      0.0075: real time      0.0075
    --------------------------------------------
      LOOP:  cpu time     52.6663: real time     52.6941

 eigenvalue-minimisations  :  8992
 total energy-change (2. order) :-0.6452332E-01  (-0.1624971E-01)
 number of electron     335.9999997 magnetization       0.4184134
 augmentation part      -47.0006640 magnetization       0.4254118

 Broyden mixing:
  rms(total) = 0.43743E-01    rms(broyden)= 0.43743E-01
  rms(prec ) = 0.46442E-01
  weight for this iteration     100.00

 eigenvalues of (default mixing * dielectric matrix)
  average eigenvalue GAMMA=   1.5785
  4.1290  2.5573  2.5573  1.0966  1.0966  0.7712  0.7712  0.5754  0.6520

 Free energy of the ion-electron system (eV)
  ---------------------------------------------------
  alpha Z        PSCENC =       253.99581917
  Ewald energy   TEWEN  =     -9969.92533520
  -Hartree energ DENC   =     -4867.29883759
  -exchange      EXHF   =         0.00000000
  -V(xc)+E(xc)   XCENC  =       689.20851346
  PAW double counting   =     39103.16972516   -38928.41179172
  entropy T*S    EENTRO =         0.00000000
  eigenvalues    EBANDS =     -2012.11703733
  atomic energy  EATOM  =     15501.99929693
  Solvation  Ediel_sol  =         0.00000000
  ---------------------------------------------------
  free energy    TOTEN  =      -229.37964711 eV

  energy without entropy =     -229.37964711  energy(sigma->0) =     -229.37964711


--------------------------------------------------------------------------------------------------------




--------------------------------------- Iteration      1(  15)  ---------------------------------------


    POTLOK:  cpu time      0.3963: real time      0.3969
    SETDIJ:  cpu time     14.3178: real time     14.3187
     EDDAV:  cpu time     44.5848: real time     44.5910
 BZINTS: Fermi energy:    0.078292;  336.000000 electrons
         Band energy:-0.201181E+04;  BLOECHL correction:   -0.000000
       DOS:  cpu time      0.0282: real time      0.0282
    CHARGE:  cpu time      5.6589: real time      5.6594
    MIXING:  cpu time      0.0115: real time      0.0115
    --------------------------------------------
      LOOP:  cpu time     64.9973: real time     65.0057

 eigenvalue-minimisations  :  9664
 total energy-change (2. order) : 0.1270516E-02  (-0.2077694E-02)
 number of electron     335.9999997 magnetization       0.1723556
 augmentation part      -46.9945270 magnetization       0.1766536

 Broyden mixing:
  rms(total) = 0.20224E-01    rms(broyden)= 0.20224E-01
  rms(prec ) = 0.21799E-01
  weight for this iteration     100.00

 eigenvalues of (default mixing * dielectric matrix)
  average eigenvalue GAMMA=   1.5649
  4.5528  2.5274  2.5274  1.3360  0.9970  0.9970  0.7588  0.7588  0.6240  0.5698

 Free energy of the ion-electron system (eV)
  ---------------------------------------------------
  alpha Z        PSCENC =       253.99581917
  Ewald energy   TEWEN  =     -9969.92533520
  -Hartree energ DENC   =     -4867.47987617
  -exchange      EXHF   =         0.00000000
  -V(xc)+E(xc)   XCENC  =       689.17099872
  PAW double counting   =     39189.00775191   -39014.33691447
  entropy T*S    EENTRO =         0.00000000
  eigenvalues    EBANDS =     -2011.81011748
  atomic energy  EATOM  =     15501.99929693
  Solvation  Ediel_sol  =         0.00000000
  ---------------------------------------------------
  free energy    TOTEN  =      -229.37837660 eV

  energy without entropy =     -229.37837660  energy(sigma->0) =     -229.37837660


--------------------------------------------------------------------------------------------------------




--------------------------------------- Iteration      1(  16)  ---------------------------------------


    POTLOK:  cpu time      0.3957: real time      0.3965
    SETDIJ:  cpu time      5.1438: real time      5.1462
     EDDAV:  cpu time     41.8839: real time     41.8899
 BZINTS: Fermi energy:    0.076625;  336.000000 electrons
         Band energy:-0.201228E+04;  BLOECHL correction:    0.000000
       DOS:  cpu time      0.0257: real time      0.0258
    CHARGE:  cpu time      8.5394: real time      8.5401
    MIXING:  cpu time      0.0125: real time      0.0125
    --------------------------------------------
      LOOP:  cpu time     56.0011: real time     56.0110

 eigenvalue-minimisations  :  9152
 total energy-change (2. order) : 0.3102760E-02  (-0.5499558E-03)
 number of electron     335.9999997 magnetization       0.0697797
 augmentation part      -46.9933802 magnetization       0.0705753

 Broyden mixing:
  rms(total) = 0.12336E-01    rms(broyden)= 0.12336E-01
  rms(prec ) = 0.13348E-01
  weight for this iteration     100.00

 eigenvalues of (default mixing * dielectric matrix)
  average eigenvalue GAMMA=   1.5467
  4.7572  2.4276  2.4276  1.8417  0.9956  0.9956  0.9235  0.7283  0.7283  0.5815
  0.6063

 Free energy of the ion-electron system (eV)
  ---------------------------------------------------
  alpha Z        PSCENC =       253.99581917
  Ewald energy   TEWEN  =     -9969.92533520
  -Hartree energ DENC   =     -4866.91960055
  -exchange      EXHF   =         0.00000000
  -V(xc)+E(xc)   XCENC  =       689.10276065
  PAW double counting   =     39158.96927810   -38984.32230020
  entropy T*S    EENTRO =         0.00000000
  eigenvalues    EBANDS =     -2012.27519275
  atomic energy  EATOM  =     15501.99929693
  Solvation  Ediel_sol  =         0.00000000
  ---------------------------------------------------
  free energy    TOTEN  =      -229.37527384 eV

  energy without entropy =     -229.37527384  energy(sigma->0) =     -229.37527384


--------------------------------------------------------------------------------------------------------




--------------------------------------- Iteration      1(  17)  ---------------------------------------


    POTLOK:  cpu time      0.3978: real time      0.3985
    SETDIJ:  cpu time      6.7052: real time      6.7057
     EDDAV:  cpu time     42.8468: real time     42.8533
 BZINTS: Fermi energy:    0.078354;  336.000000 electrons
         Band energy:-0.201135E+04;  BLOECHL correction:    0.000000
       DOS:  cpu time      0.0266: real time      0.0267
    CHARGE:  cpu time      8.2237: real time      8.2244
    MIXING:  cpu time      0.0092: real time      0.0092
    --------------------------------------------
      LOOP:  cpu time     58.2093: real time     58.2177

 eigenvalue-minimisations  :  9504
 total energy-change (2. order) :-0.5033318E-03  (-0.1195699E-03)
 number of electron     335.9999997 magnetization       0.0178941
 augmentation part      -46.9883095 magnetization       0.0182930

 Broyden mixing:
  rms(total) = 0.49298E-02    rms(broyden)= 0.49297E-02
  rms(prec ) = 0.55302E-02
  weight for this iteration     100.00

 eigenvalues of (default mixing * dielectric matrix)
  average eigenvalue GAMMA=   1.5760
  4.9476  2.6015  2.6015  2.2019  1.1767  0.9962  0.9962  0.7616  0.7616  0.6824
  0.5895  0.5956

 Free energy of the ion-electron system (eV)
  ---------------------------------------------------
  alpha Z        PSCENC =       253.99581917
  Ewald energy   TEWEN  =     -9969.92533520
  -Hartree energ DENC   =     -4867.88365488
  -exchange      EXHF   =         0.00000000
  -V(xc)+E(xc)   XCENC  =       689.16283369
  PAW double counting   =     39199.97131375   -39025.34861269
  entropy T*S    EENTRO =         0.00000000
  eigenvalues    EBANDS =     -2011.34743795
  atomic energy  EATOM  =     15501.99929693
  Solvation  Ediel_sol  =         0.00000000
  ---------------------------------------------------
  free energy    TOTEN  =      -229.37577717 eV

  energy without entropy =     -229.37577717  energy(sigma->0) =     -229.37577717


--------------------------------------------------------------------------------------------------------




--------------------------------------- Iteration      1(  18)  ---------------------------------------


    POTLOK:  cpu time      0.3951: real time      0.3959
    SETDIJ:  cpu time      2.6312: real time      2.6314
     EDDAV:  cpu time     43.0749: real time     43.0810
 BZINTS: Fermi energy:    0.079707;  336.000000 electrons
         Band energy:-0.201082E+04;  BLOECHL correction:    0.000000
       DOS:  cpu time      0.0258: real time      0.0258
    CHARGE:  cpu time      9.6910: real time      9.6917
    MIXING:  cpu time      0.0112: real time      0.0112
    --------------------------------------------
      LOOP:  cpu time     55.8292: real time     55.8370

 eigenvalue-minimisations  :  9536
 total energy-change (2. order) :-0.1164322E-03  (-0.3947454E-04)
 number of electron     335.9999997 magnetization       0.0051977
 augmentation part      -46.9849695 magnetization       0.0057395

 Broyden mixing:
  rms(total) = 0.44614E-02    rms(broyden)= 0.44614E-02
  rms(prec ) = 0.47139E-02
  weight for this iteration     100.00

 eigenvalues of (default mixing * dielectric matrix)
  average eigenvalue GAMMA=   1.5445
  5.0018  2.6451  2.6451  2.2642  1.1302  1.1302  0.9906  0.9906  0.7251  0.7251
  0.5791  0.6448  0.6063

 Free energy of the ion-electron system (eV)
  ---------------------------------------------------
  alpha Z        PSCENC =       253.99581917
  Ewald energy   TEWEN  =     -9969.92533520
  -Hartree energ DENC   =     -4868.42836858
  -exchange      EXHF   =         0.00000000
  -V(xc)+E(xc)   XCENC  =       689.19821123
  PAW double counting   =     39228.74021333   -39054.13236449
  entropy T*S    EENTRO =         0.00000000
  eigenvalues    EBANDS =     -2010.82336599
  atomic energy  EATOM  =     15501.99929693
  Solvation  Ediel_sol  =         0.00000000
  ---------------------------------------------------
  free energy    TOTEN  =      -229.37589360 eV

  energy without entropy =     -229.37589360  energy(sigma->0) =     -229.37589360


--------------------------------------------------------------------------------------------------------




--------------------------------------- Iteration      1(  19)  ---------------------------------------


    POTLOK:  cpu time      0.3877: real time      0.3885
    SETDIJ:  cpu time      4.5004: real time      4.5007
     EDDAV:  cpu time     45.4767: real time     45.4830
 BZINTS: Fermi energy:    0.078690;  336.000000 electrons
         Band energy:-0.201108E+04;  BLOECHL correction:    0.000000
       DOS:  cpu time      0.0266: real time      0.0266
    CHARGE:  cpu time      9.3106: real time      9.3114
    MIXING:  cpu time      0.0094: real time      0.0094
    --------------------------------------------
      LOOP:  cpu time     59.7114: real time     59.7195

 eigenvalue-minimisations  :  9760
 total energy-change (2. order) :-0.5934697E-05  (-0.6206318E-05)
 number of electron     335.9999997 magnetization      -0.0005266
 augmentation part      -46.9858054 magnetization      -0.0002846

 Broyden mixing:
  rms(total) = 0.20235E-02    rms(broyden)= 0.20235E-02
  rms(prec ) = 0.21984E-02
  weight for this iteration     100.00

 eigenvalues of (default mixing * dielectric matrix)
  average eigenvalue GAMMA=   1.5454
  5.0451  2.7072  2.7072  2.1095  1.4072  1.4072  1.0333  1.0333  0.8580  0.7537
  0.7537  0.5805  0.6089  0.6313

 Free energy of the ion-electron system (eV)
  ---------------------------------------------------
  alpha Z        PSCENC =       253.99581917
  Ewald energy   TEWEN  =     -9969.92533520
  -Hartree energ DENC   =     -4868.15376947
  -exchange      EXHF   =         0.00000000
  -V(xc)+E(xc)   XCENC  =       689.18129033
  PAW double counting   =     39227.37444009   -39052.76344211
  entropy T*S    EENTRO =         0.00000000
  eigenvalues    EBANDS =     -2011.08419928
  atomic energy  EATOM  =     15501.99929693
  Solvation  Ediel_sol  =         0.00000000
  ---------------------------------------------------
  free energy    TOTEN  =      -229.37589954 eV

  energy without entropy =     -229.37589954  energy(sigma->0) =     -229.37589954


--------------------------------------------------------------------------------------------------------




--------------------------------------- Iteration      1(  20)  ---------------------------------------


    POTLOK:  cpu time      0.3874: real time      0.3918
    SETDIJ:  cpu time     10.4835: real time     10.4842
     EDDAV:  cpu time     42.8427: real time     42.8478
 BZINTS: Fermi energy:    0.078345;  336.000000 electrons
         Band energy:-0.201122E+04;  BLOECHL correction:    0.000000
       DOS:  cpu time      0.0263: real time      0.0263
    CHARGE:  cpu time      4.5982: real time      4.5985
    MIXING:  cpu time      0.0080: real time      0.0080
    --------------------------------------------
      LOOP:  cpu time     58.3460: real time     58.3566

 eigenvalue-minimisations  :  9216
 total energy-change (2. order) :-0.1052622E-04  (-0.3471694E-05)
 number of electron     335.9999997 magnetization      -0.0016278
 augmentation part      -46.9863341 magnetization      -0.0015495

 Broyden mixing:
  rms(total) = 0.95405E-03    rms(broyden)= 0.95393E-03
  rms(prec ) = 0.10132E-02
  weight for this iteration     100.00

 eigenvalues of (default mixing * dielectric matrix)
  average eigenvalue GAMMA=   1.5469
  5.0951  2.7081  2.7081  2.0981  2.0981  1.2301  1.2301  0.9900  0.9900  0.7802
  0.7328  0.7328  0.5785  0.6158  0.6158

 Free energy of the ion-electron system (eV)
  ---------------------------------------------------
  alpha Z        PSCENC =       253.99581917
  Ewald energy   TEWEN  =     -9969.92533520
  -Hartree energ DENC   =     -4868.01118105
  -exchange      EXHF   =         0.00000000
  -V(xc)+E(xc)   XCENC  =       689.17429900
  PAW double counting   =     39232.55922403   -39057.94631477
  entropy T*S    EENTRO =         0.00000000
  eigenvalues    EBANDS =     -2011.22171816
  atomic energy  EATOM  =     15501.99929693
  Solvation  Ediel_sol  =         0.00000000
  ---------------------------------------------------
  free energy    TOTEN  =      -229.37591006 eV

  energy without entropy =     -229.37591006  energy(sigma->0) =     -229.37591006


--------------------------------------------------------------------------------------------------------




--------------------------------------- Iteration      1(  21)  ---------------------------------------


    POTLOK:  cpu time      0.3834: real time      0.3842
    SETDIJ:  cpu time      2.6119: real time      2.6122
     EDDAV:  cpu time     45.9830: real time     45.9880
 BZINTS: Fermi energy:    0.078300;  336.000000 electrons
         Band energy:-0.201128E+04;  BLOECHL correction:    0.000000
       DOS:  cpu time      0.0257: real time      0.0257
    CHARGE:  cpu time      8.9611: real time      8.9618
    MIXING:  cpu time      0.0113: real time      0.0113
    --------------------------------------------
      LOOP:  cpu time     57.9763: real time     57.9832

 eigenvalue-minimisations  :  9280
 total energy-change (2. order) : 0.1179069E-05  (-0.8874651E-06)
 number of electron     335.9999997 magnetization      -0.0013487
 augmentation part      -46.9865293 magnetization      -0.0013526

 Broyden mixing:
  rms(total) = 0.42520E-03    rms(broyden)= 0.42493E-03
  rms(prec ) = 0.44740E-03
  weight for this iteration     100.00

 eigenvalues of (default mixing * dielectric matrix)
  average eigenvalue GAMMA=   1.5119
  5.0969  2.6686  2.6686  2.5704  1.6080  1.4016  1.1558  1.1558  0.9286  0.9286
  0.7390  0.7390  0.7258  0.5781  0.6125  0.6125

 Free energy of the ion-electron system (eV)
  ---------------------------------------------------
  alpha Z        PSCENC =       253.99581917
  Ewald energy   TEWEN  =     -9969.92533520
  -Hartree energ DENC   =     -4867.95185829
  -exchange      EXHF   =         0.00000000
  -V(xc)+E(xc)   XCENC  =       689.17066175
  PAW double counting   =     39231.97900955   -39057.36528204
  entropy T*S    EENTRO =         0.00000000
  eigenvalues    EBANDS =     -2011.27822076
  atomic energy  EATOM  =     15501.99929693
  Solvation  Ediel_sol  =         0.00000000
  ---------------------------------------------------
  free energy    TOTEN  =      -229.37590889 eV

  energy without entropy =     -229.37590889  energy(sigma->0) =     -229.37590889


--------------------------------------------------------------------------------------------------------




--------------------------------------- Iteration      1(  22)  ---------------------------------------


    POTLOK:  cpu time      0.3873: real time      0.3946
    SETDIJ:  cpu time      8.6551: real time      8.6558
     EDDAV:  cpu time     43.7509: real time     43.7573
 BZINTS: Fermi energy:    0.078130;  336.000000 electrons
         Band energy:-0.201130E+04;  BLOECHL correction:    0.000000
       DOS:  cpu time      0.0257: real time      0.0257
    CHARGE:  cpu time      9.4697: real time      9.4704
    MIXING:  cpu time      0.0103: real time      0.0103
    --------------------------------------------
      LOOP:  cpu time     62.2990: real time     62.3141

 eigenvalue-minimisations  :  9760
 total energy-change (2. order) : 0.4494650E-06  (-0.1407528E-06)
 number of electron     335.9999997 magnetization      -0.0004750
 augmentation part      -46.9865984 magnetization      -0.0004966

 Broyden mixing:
  rms(total) = 0.23146E-03    rms(broyden)= 0.23096E-03
  rms(prec ) = 0.24570E-03
  weight for this iteration     100.00

 eigenvalues of (default mixing * dielectric matrix)
  average eigenvalue GAMMA=   1.5007
  5.0912  2.6575  2.6575  2.6224  1.6706  1.4415  1.4415  1.0833  1.0833  0.9000
  0.9000  0.7422  0.7422  0.6739  0.5793  0.6125  0.6125

 Free energy of the ion-electron system (eV)
  ---------------------------------------------------
  alpha Z        PSCENC =       253.99581917
  Ewald energy   TEWEN  =     -9969.92533520
  -Hartree energ DENC   =     -4867.93019778
  -exchange      EXHF   =         0.00000000
  -V(xc)+E(xc)   XCENC  =       689.16908031
  PAW double counting   =     39230.56677323   -39055.95273880
  entropy T*S    EENTRO =         0.00000000
  eigenvalues    EBANDS =     -2011.29860630
  atomic energy  EATOM  =     15501.99929693
  Solvation  Ediel_sol  =         0.00000000
  ---------------------------------------------------
  free energy    TOTEN  =      -229.37590844 eV

  energy without entropy =     -229.37590844  energy(sigma->0) =     -229.37590844


--------------------------------------------------------------------------------------------------------




--------------------------------------- Iteration      1(  23)  ---------------------------------------


    POTLOK:  cpu time      0.3883: real time      0.3891
    SETDIJ:  cpu time      2.6314: real time      2.6317
     EDDAV:  cpu time     41.9267: real time     41.9327
 BZINTS: Fermi energy:    0.078178;  336.000000 electrons
         Band energy:-0.201129E+04;  BLOECHL correction:    0.000000
       DOS:  cpu time      0.0256: real time      0.0257
    CHARGE:  cpu time      7.2174: real time      7.2180
    MIXING:  cpu time      0.0116: real time      0.0116
    --------------------------------------------
      LOOP:  cpu time     52.2011: real time     52.2087

 eigenvalue-minimisations  :  9216
 total energy-change (2. order) :-0.2310335E-06  (-0.5766398E-07)
 number of electron     335.9999997 magnetization      -0.0002604
 augmentation part      -46.9865710 magnetization      -0.0002565

 Broyden mixing:
[...]

  length of vectors
    10.314108670 16.788494411 10.846477853     0.097707938  0.059564603  0.092912216


 FORCES acting on ions
    electron-ion (+dipol)            ewald-force                    non-local-force                 convergence-correction
 -----------------------------------------------------------------------------------------------
   0.987E+02 -.105E+03 -.125E+02   -.104E+03 0.114E+03 0.112E+02   0.495E+01 -.888E+01 0.132E+01   0.182E-05 -.460E-06 0.948E-06
   0.986E+02 -.105E+03 -.125E+02   -.104E+03 0.113E+03 0.112E+02   0.495E+01 -.888E+01 0.132E+01   0.156E-05 -.265E-06 0.944E-06
   -.123E+02 0.421E+02 -.127E+03   0.125E+02 -.473E+02 0.134E+03   -.279E+00 0.519E+01 -.701E+01   0.194E-06 0.191E-06 -.880E-06
   -.124E+02 0.420E+02 -.127E+03   0.126E+02 -.472E+02 0.134E+03   -.246E+00 0.519E+01 -.705E+01   0.104E-06 0.882E-07 -.117E-05
   -.212E+02 -.902E+02 0.980E+02   0.198E+02 0.990E+02 -.103E+03   0.134E+01 -.874E+01 0.530E+01   -.251E-07 -.150E-06 0.152E-05
   -.211E+02 -.902E+02 0.981E+02   0.198E+02 0.989E+02 -.103E+03   0.134E+01 -.874E+01 0.530E+01   -.498E-07 -.116E-06 0.176E-05
   -.109E+03 0.957E+02 0.715E+01   0.114E+03 -.102E+03 -.502E+01   -.535E+01 0.578E+01 -.219E+01   -.157E-05 0.164E-06 0.582E-06
   -.108E+03 0.950E+02 0.625E+01   0.114E+03 -.101E+03 -.414E+01   -.534E+01 0.592E+01 -.212E+01   -.186E-05 0.913E-07 0.636E-06
   0.136E+03 -.539E+02 -.187E+02   -.143E+03 0.594E+02 0.193E+02   0.680E+01 -.552E+01 -.558E+00   0.165E-05 0.369E-07 -.108E-05
   0.136E+03 -.539E+02 -.187E+02   -.143E+03 0.595E+02 0.193E+02   0.680E+01 -.552E+01 -.558E+00   0.160E-05 0.682E-07 -.104E-05
   -.136E+03 0.538E+02 0.187E+02   0.143E+03 -.593E+02 -.193E+02   -.680E+01 0.552E+01 0.558E+00   -.147E-05 -.181E-06 0.975E-06
   -.136E+03 0.539E+02 0.187E+02   0.143E+03 -.595E+02 -.193E+02   -.680E+01 0.552E+01 0.558E+00   -.171E-05 -.536E-07 0.993E-06
   0.108E+03 -.950E+02 -.624E+01   -.114E+03 0.101E+03 0.413E+01   0.534E+01 -.592E+01 0.212E+01   0.187E-05 -.113E-06 -.723E-06
   0.108E+03 -.950E+02 -.625E+01   -.114E+03 0.101E+03 0.414E+01   0.534E+01 -.592E+01 0.212E+01   0.166E-05 -.634E-07 -.674E-06
   -.123E+02 -.419E+02 0.127E+03   0.126E+02 0.471E+02 -.134E+03   -.245E+00 -.519E+01 0.705E+01   0.159E-06 0.128E-06 0.144E-05
   -.124E+02 -.420E+02 0.127E+03   0.126E+02 0.472E+02 -.134E+03   -.245E+00 -.519E+01 0.705E+01   -.229E-07 0.128E-06 0.143E-05
   0.212E+02 -.902E+02 0.981E+02   -.199E+02 0.989E+02 -.103E+03   -.134E+01 -.875E+01 0.529E+01   0.148E-06 0.526E-07 0.149E-05
   0.211E+02 -.902E+02 0.981E+02   -.198E+02 0.989E+02 -.103E+03   -.134E+01 -.874E+01 0.530E+01   0.465E-07 0.119E-07 0.175E-05
   -.984E+02 -.105E+03 -.134E+02   0.103E+03 0.114E+03 0.121E+02   -.497E+01 -.875E+01 0.137E+01   -.151E-05 -.236E-07 0.925E-06
   -.986E+02 -.105E+03 -.125E+02   0.104E+03 0.113E+03 0.112E+02   -.495E+01 -.888E+01 0.132E+01   -.183E-05 -.253E-06 0.830E-06
   -.136E+03 -.540E+02 -.187E+02   0.143E+03 0.595E+02 0.192E+02   -.680E+01 -.552E+01 -.558E+00   -.171E-05 -.814E-07 -.103E-05
   -.136E+03 -.540E+02 -.187E+02   0.143E+03 0.595E+02 0.193E+02   -.680E+01 -.552E+01 -.558E+00   -.158E-05 -.858E-07 -.105E-05
   0.123E+02 0.420E+02 -.127E+03   -.126E+02 -.472E+02 0.134E+03   0.246E+00 0.519E+01 -.705E+01   -.730E-07 -.897E-07 -.793E-06
   0.124E+02 0.420E+02 -.127E+03   -.126E+02 -.472E+02 0.134E+03   0.246E+00 0.519E+01 -.705E+01   -.153E-06 -.165E-06 -.102E-05
   -.108E+03 -.950E+02 -.626E+01   0.114E+03 0.101E+03 0.414E+01   -.534E+01 -.592E+01 0.212E+01   -.171E-05 0.198E-06 -.762E-06
   -.108E+03 -.950E+02 -.626E+01   0.114E+03 0.101E+03 0.414E+01   -.534E+01 -.592E+01 0.212E+01   -.174E-05 0.251E-06 -.726E-06
   0.987E+02 0.105E+03 0.125E+02   -.104E+03 -.113E+03 -.112E+02   0.495E+01 0.888E+01 -.132E+01   0.185E-05 0.253E-06 -.586E-06
   0.986E+02 0.105E+03 0.125E+02   -.104E+03 -.113E+03 -.112E+02   0.495E+01 0.888E+01 -.132E+01   0.163E-05 0.181E-06 -.719E-06
   -.987E+02 0.105E+03 0.125E+02   0.104E+03 -.113E+03 -.112E+02   -.495E+01 0.888E+01 -.132E+01   -.173E-05 0.294E-06 -.644E-06
   -.986E+02 0.105E+03 0.125E+02   0.104E+03 -.113E+03 -.112E+02   -.495E+01 0.888E+01 -.132E+01   -.173E-05 0.290E-06 -.741E-06
   0.728E+02 0.962E+02 0.633E+02   -.755E+02 -.106E+03 -.654E+02   0.274E+01 0.971E+01 0.207E+01   0.922E-06 0.325E-06 0.829E-06
   0.728E+02 0.961E+02 0.633E+02   -.755E+02 -.106E+03 -.653E+02   0.274E+01 0.971E+01 0.207E+01   0.823E-06 0.474E-06 0.666E-06
   0.218E+02 -.938E+02 -.889E+02   -.205E+02 0.100E+03 0.940E+02   -.133E+01 -.628E+01 -.509E+01   0.422E-06 -.101E-06 -.183E-05
   0.218E+02 -.938E+02 -.889E+02   -.205E+02 0.100E+03 0.940E+02   -.133E+01 -.628E+01 -.509E+01   0.213E-06 -.722E-08 -.164E-05
   -.211E+02 0.902E+02 -.980E+02   0.198E+02 -.989E+02 0.103E+03   0.134E+01 0.874E+01 -.530E+01   -.158E-07 0.654E-07 -.213E-05
   -.211E+02 0.902E+02 -.981E+02   0.198E+02 -.989E+02 0.103E+03   0.134E+01 0.874E+01 -.530E+01   -.167E-06 -.435E-07 -.201E-05
   -.218E+02 0.942E+02 0.889E+02   0.205E+02 -.101E+03 -.939E+02   0.130E+01 0.627E+01 0.502E+01   -.200E-06 0.795E-07 0.110E-05
   -.218E+02 0.938E+02 0.889E+02   0.205E+02 -.100E+03 -.940E+02   0.133E+01 0.628E+01 0.509E+01   -.301E-06 0.156E-07 0.139E-05
   0.212E+02 0.902E+02 -.981E+02   -.198E+02 -.989E+02 0.103E+03   -.134E+01 0.874E+01 -.530E+01   0.106E-06 -.342E-08 -.212E-05
   0.211E+02 0.902E+02 -.981E+02   -.198E+02 -.989E+02 0.103E+03   -.134E+01 0.874E+01 -.530E+01   -.352E-07 0.118E-06 -.206E-05
   0.728E+02 -.962E+02 -.633E+02   -.756E+02 0.106E+03 0.654E+02   0.275E+01 -.971E+01 -.207E+01   0.873E-06 -.409E-06 -.281E-06
   0.727E+02 -.961E+02 -.633E+02   -.755E+02 0.106E+03 0.653E+02   0.274E+01 -.971E+01 -.207E+01   0.873E-06 -.373E-06 -.471E-06
   0.136E+03 0.540E+02 0.187E+02   -.143E+03 -.595E+02 -.193E+02   0.680E+01 0.552E+01 0.554E+00   0.150E-05 0.660E-07 0.958E-06
   0.136E+03 0.540E+02 0.187E+02   -.143E+03 -.595E+02 -.193E+02   0.680E+01 0.552E+01 0.558E+00   0.172E-05 0.153E-06 0.953E-06
   0.108E+03 0.949E+02 0.626E+01   -.114E+03 -.101E+03 -.414E+01   0.534E+01 0.592E+01 -.212E+01   0.177E-05 -.253E-06 0.661E-06
   0.108E+03 0.950E+02 0.625E+01   -.114E+03 -.101E+03 -.414E+01   0.534E+01 0.592E+01 -.212E+01   0.154E-05 -.157E-06 0.654E-06
   -.729E+02 -.962E+02 -.632E+02   0.756E+02 0.106E+03 0.653E+02   -.274E+01 -.971E+01 -.207E+01   -.811E-06 -.531E-06 -.224E-06
   -.728E+02 -.962E+02 -.632E+02   0.755E+02 0.106E+03 0.653E+02   -.274E+01 -.971E+01 -.207E+01   -.892E-06 -.436E-06 -.474E-06
   -.218E+02 -.937E+02 -.889E+02   0.205E+02 0.100E+03 0.940E+02   0.133E+01 -.628E+01 -.509E+01   -.267E-06 0.314E-06 -.170E-05
   -.218E+02 -.938E+02 -.889E+02   0.205E+02 0.100E+03 0.940E+02   0.133E+01 -.628E+01 -.509E+01   -.409E-06 0.214E-06 -.173E-05
   0.218E+02 0.937E+02 0.889E+02   -.205E+02 -.100E+03 -.940E+02   -.133E+01 0.628E+01 0.509E+01   0.296E-06 -.228E-06 0.112E-05
   0.218E+02 0.937E+02 0.889E+02   -.205E+02 -.100E+03 -.940E+02   -.133E+01 0.628E+01 0.509E+01   0.238E-06 -.301E-06 0.131E-05
   -.728E+02 0.961E+02 0.632E+02   0.755E+02 -.106E+03 -.653E+02   -.274E+01 0.971E+01 0.207E+01   -.895E-06 0.497E-06 0.729E-06
   -.728E+02 0.961E+02 0.633E+02   0.755E+02 -.106E+03 -.653E+02   -.274E+01 0.971E+01 0.207E+01   -.927E-06 0.368E-06 0.739E-06
   0.124E+02 -.420E+02 0.127E+03   -.126E+02 0.472E+02 -.134E+03   0.246E+00 -.519E+01 0.705E+01   0.197E-07 -.774E-07 0.162E-05
   0.124E+02 -.420E+02 0.127E+03   -.126E+02 0.472E+02 -.134E+03   0.246E+00 -.519E+01 0.705E+01   -.209E-06 -.100E-06 0.143E-05
 -----------------------------------------------------------------------------------------------
   0.947E-01 0.272E-01 0.455E-01   0.121E-12 0.142E-13 0.000E+00   -.947E-01 -.271E-01 -.455E-01   0.900E-08 -.357E-08 0.680E-07


 POSITION                                       TOTAL-FORCE (eV/Angst)
 -----------------------------------------------------------------------------------
      7.84031      7.96182     -7.59135         0.002426     -0.001259      0.000932
     16.23455      7.96182     -7.59135         0.002478     -0.001246      0.000964
      3.16872      2.44282     -6.01943        -0.016570     -0.008114      0.016550
     11.56297      2.44282     -6.01943         0.002138     -0.000904     -0.002505
      1.76685      7.82725    -10.10485        -0.000073     -0.000059     -0.000373
     10.16110      7.82725    -10.10485        -0.000028      0.000005     -0.000449
      5.05050      1.13561     -8.40470         0.045177     -0.142216     -0.056006
     13.44475      1.12562     -8.40433         0.001506     -0.000572     -0.000653
      5.13205      1.09979     -2.45651        -0.000130      0.000578     -0.000281
     13.52630      1.09979     -2.45651        -0.000133      0.000429     -0.000273
      3.26219      7.47505     -8.62356         0.000155     -0.000397      0.000379
     11.65644      7.47505     -8.62356         0.000086     -0.000419      0.000286
      3.34375      7.44923     -2.67574        -0.001470      0.000590      0.000652
     11.73799      7.44923     -2.67574        -0.001615      0.000665      0.000704
      7.36585      0.97835     -4.87422         0.002265      0.000530      0.002694
     15.76010      0.97835     -4.87422         0.002253      0.000895      0.002547
      2.43027      2.67356     -9.91842        -0.010654      0.003587     -0.010365
     10.82452      2.67356     -9.91842         0.000116     -0.000086     -0.000575
      4.75106      2.80814     -7.40493        -0.020166      0.128024      0.040068
     13.14531      2.80814     -7.40493        -0.002463     -0.001313      0.000889
      7.45932      6.25348     -2.64294         0.000224      0.000318     -0.000155
     15.85356      6.25348     -2.64294         0.000031      0.000416     -0.000310
      1.02840      7.59650     -6.20585        -0.002150     -0.000762     -0.002435
      9.42265      7.59650     -6.20585        -0.002170     -0.000905     -0.002503
      0.85338      2.29554     -2.48931         0.001615      0.000527      0.000544
      9.24762      2.29554     -2.48931         0.001877      0.000526      0.000510
      3.64318      5.76671     -3.67515         0.002436      0.001267     -0.000966
     12.03743      5.76671     -3.67515         0.002483      0.001251     -0.000969
      0.55394      0.61303     -3.48872        -0.002581      0.001321     -0.000777
      8.94819      0.61303     -3.48872        -0.002539      0.001763     -0.000768
      5.79350     -0.03143     -4.03202        -0.001243      0.001754      0.000204
     14.18775     -0.03143     -4.03202        -0.001223      0.001776      0.000168
      4.85766      7.53946     -1.03917        -0.003986      0.002052     -0.000218
     13.25190      7.53946     -1.03917        -0.003925      0.002061     -0.000266
      5.96398      5.90128     -1.16165        -0.000043      0.000149      0.000392
     14.35822      5.90128     -1.16165        -0.000010     -0.000030      0.000428
      3.53659      1.03539    -10.04090         0.000533      0.013386      0.004601
     11.93084      1.03539    -10.04090         0.003943     -0.001972      0.000276
      6.62739      0.74760     -0.97522        -0.000047     -0.000101      0.000561
     15.02164      0.74760     -0.97522         0.000027     -0.000005      0.000504
      1.59638      3.45260     -6.86163         0.001557     -0.002494      0.001509
      9.99063      3.45260     -6.86163        -0.001209     -0.001746     -0.000137
      0.93493      2.32137     -8.43713         0.003675      0.000592      0.000748
      9.32918      2.32137     -8.43713         0.000016     -0.000458      0.000299
      7.54087      6.27930     -8.59076        -0.001589     -0.000629     -0.000686
     15.93512      6.27930     -8.59076        -0.001509     -0.000574     -0.000703
      2.60074      8.60628     -7.04805         0.001053     -0.002136     -0.000359
     10.99499      8.60628     -7.04805         0.001253     -0.001784     -0.000262
      7.73371      2.38578     -0.85274         0.003949      0.002016     -0.000505
     16.12796      2.38578     -0.85274         0.003971      0.002082     -0.000164
      0.66053      6.18907    -10.22733        -0.003828     -0.001971      0.000286
      9.05478      6.18907    -10.22733        -0.003949     -0.002056      0.000260
      6.79787      5.12225     -4.21845         0.001092      0.002072      0.000220
     15.19211      5.12225     -4.21845         0.001259      0.001803      0.000288
      5.22552      6.13203     -5.06065        -0.002125      0.000892      0.002688
     13.61977      6.13203     -5.06065        -0.002166      0.000884      0.002514
 -----------------------------------------------------------------------------------
    total drift:                               -0.000003      0.000012      0.000002


--------------------------------------------------------------------------------------------------------



  FREE ENERGIE OF THE ION-ELECTRON SYSTEM (eV)
  ---------------------------------------------------
  free  energy   TOTEN  =      -229.37590847 eV

  energy  without entropy=     -229.37590847  energy(sigma->0) =     -229.37590847



--------------------------------------------------------------------------------------------------------


    POTLOK:  cpu time      8.4906: real time      8.4953


--------------------------------------------------------------------------------------------------------


     LOOP+:  cpu time   2047.1680: real time   2047.5027
    4ORBIT:  cpu time      0.0000: real time      0.0000



 total charge

# of ion       s       p       d       tot
------------------------------------------
    1        1.376   2.247   0.000   3.623
    2        1.376   2.247   0.000   3.623
    3        1.376   2.259   0.000   3.635
    4        1.376   2.258   0.000   3.635
    5        1.376   2.247   0.000   3.623
    6        1.376   2.247   0.000   3.623
    7        1.375   2.266   0.000   3.641
    8        1.375   2.262   0.000   3.638
    9        1.377   2.257   0.000   3.634
   10        1.377   2.257   0.000   3.634
   11        1.377   2.257   0.000   3.634
   12        1.377   2.257   0.000   3.634
   13        1.375   2.262   0.000   3.638
   14        1.375   2.262   0.000   3.638
   15        1.376   2.258   0.000   3.635
   16        1.376   2.258   0.000   3.635
   17        1.376   2.247   0.000   3.623
   18        1.376   2.247   0.000   3.622
   19        1.375   2.250   0.000   3.626
   20        1.376   2.247   0.000   3.623
   21        1.377   2.257   0.000   3.634
   22        1.377   2.257   0.000   3.634
   23        1.376   2.258   0.000   3.635
   24        1.376   2.258   0.000   3.635
   25        1.375   2.262   0.000   3.638
   26        1.375   2.262   0.000   3.638
   27        1.376   2.247   0.000   3.623
   28        1.376   2.247   0.000   3.623
   29        1.376   2.247   0.000   3.623
   30        1.376   2.247   0.000   3.623
   31        1.376   2.254   0.000   3.630
   32        1.376   2.254   0.000   3.630
   33        1.375   2.263   0.000   3.638
   34        1.375   2.263   0.000   3.638
   35        1.376   2.247   0.000   3.623
   36        1.376   2.247   0.000   3.623
   37        1.375   2.263   0.000   3.639
   38        1.375   2.263   0.000   3.638
   39        1.376   2.247   0.000   3.622
   40        1.376   2.247   0.000   3.623
   41        1.376   2.254   0.000   3.630
   42        1.376   2.254   0.000   3.630
   43        1.377   2.257   0.000   3.634
   44        1.377   2.257   0.000   3.634
   45        1.375   2.262   0.000   3.638
   46        1.375   2.262   0.000   3.638
   47        1.376   2.254   0.000   3.630
   48        1.376   2.254   0.000   3.630
   49        1.375   2.263   0.000   3.638
   50        1.375   2.263   0.000   3.638
   51        1.375   2.263   0.000   3.638
   52        1.375   2.263   0.000   3.638
   53        1.376   2.254   0.000   3.630
   54        1.376   2.254   0.000   3.630
   55        1.376   2.258   0.000   3.635
   56        1.376   2.258   0.000   3.635
--------------------------------------------------
tot         77.049 126.321   0.000 203.369



 magnetization (x)

# of ion       s       p       d       tot
------------------------------------------
    1        0.000   0.000   0.000   0.000
    2        0.000   0.000   0.000   0.000
    3        0.000   0.000   0.000   0.000
    4        0.000   0.000   0.000   0.000
    5        0.000   0.000   0.000   0.000
    6        0.000   0.000   0.000   0.000
    7        0.000   0.000   0.000   0.000
    8        0.000   0.000   0.000   0.000
    9        0.000   0.000   0.000   0.000
   10        0.000   0.000   0.000   0.000
   11        0.000   0.000   0.000   0.000
   12        0.000   0.000   0.000   0.000
   13        0.000   0.000   0.000   0.000
   14        0.000   0.000   0.000   0.000
   15        0.000   0.000   0.000   0.000
   16        0.000   0.000   0.000   0.000
   17        0.000   0.000   0.000   0.000
   18        0.000   0.000   0.000   0.000
   19        0.000   0.000   0.000   0.000
   20        0.000   0.000   0.000   0.000
   21        0.000   0.000   0.000   0.000
   22        0.000   0.000   0.000   0.000
   23        0.000   0.000   0.000   0.000
   24        0.000   0.000   0.000   0.000
   25        0.000   0.000   0.000   0.000
   26        0.000   0.000   0.000   0.000
   27        0.000   0.000   0.000   0.000
   28        0.000   0.000   0.000   0.000
   29        0.000   0.000   0.000   0.000
   30        0.000   0.000   0.000   0.000
   31        0.000   0.000   0.000   0.000
   32        0.000   0.000   0.000   0.000
   33        0.000   0.000   0.000   0.000
   34        0.000   0.000   0.000   0.000
   35        0.000   0.000   0.000   0.000
   36        0.000   0.000   0.000   0.000
   37        0.000   0.000   0.000   0.000
   38        0.000   0.000   0.000   0.000
   39        0.000  -0.000   0.000   0.000
   40        0.000   0.000   0.000   0.000
   41        0.000   0.000   0.000   0.000
   42        0.000   0.000   0.000   0.000
   43        0.000   0.000   0.000   0.000
   44        0.000   0.000   0.000   0.000
   45        0.000   0.000   0.000   0.000
   46        0.000   0.000   0.000   0.000
   47        0.000   0.000   0.000   0.000
   48        0.000   0.000   0.000   0.000
   49        0.000   0.000   0.000   0.000
   50        0.000   0.000   0.000   0.000
   51        0.000   0.000   0.000   0.000
   52        0.000   0.000   0.000   0.000
   53        0.000   0.000   0.000   0.000
   54        0.000   0.000   0.000   0.000
   55        0.000   0.000   0.000   0.000
   56        0.000   0.000   0.000   0.000
--------------------------------------------------
tot          0.000   0.000   0.000   0.000

 BZINTS: Fermi energy:    0.078268;  336.000000 electrons
         Band energy:-0.201130E+04;  BLOECHL correction:    0.000000

 total amount of memory used by VASP MPI-rank0   322725. kBytes
=======================================================================

   base      :      30000. kBytes
   nonl-proj :      70692. kBytes
   fftplans  :      34504. kBytes
   grid      :      83442. kBytes
   one-center:        344. kBytes
   wavefun   :     103743. kBytes

  
  
 General timing and accounting informations for this job:
 ========================================================
  
                  Total CPU time used (sec):     2080.529
                            User time (sec):     2079.051
                          System time (sec):        1.478
                         Elapsed time (sec):     2081.791
  
                   Maximum memory used (kb):      602648.
                   Average memory used (kb):          N/A
  
                          Minor page faults:       741312
                          Major page faults:          174
                 Voluntary context switches:         6334
