unknown system                          
           1
    -6.543022    6.292119    6.541493
     6.541506   -6.293866    6.541694
     6.541745    6.292443   -6.542912
   Li   La   Zr   O 
  28  12   8  48
Direct configuration=     1
   0.39004738  0.65781475  0.38382349
   0.36766333  0.24145139  0.62212667
   0.87939026  0.48948693  0.71548472
   0.61769917  0.74140688  0.37223340
   0.77245164  0.00201553  0.11064377
   0.21285406  0.99358888  0.88570926
   0.86756031  0.24137586  0.12217861
   0.21096615  0.98940453  0.38379597
   0.45573959  0.24461874  0.06800412
   0.09535587  0.48058172  0.26614207
   0.76179357  0.98070395  0.59987667
   0.56345023  0.74458688  0.96033818
   0.11777602  0.74149330  0.87222412
   0.10425961  0.82298318  0.11060467
   0.27469899  0.65988408  0.77702838
   0.38127523  0.49345053  0.71728515
   0.67521606  0.38381616  0.42649725
   0.02967662  0.09908734  0.78738783
   0.71304263  0.82512144  0.22828116
   0.81015749  0.23819515  0.70723815
   0.87950035  0.15801481  0.89484356
   0.72362673  0.32511878  0.21748350
   0.60615974  0.50212278  0.27694800
   0.28281380  0.59912453  0.53399529
   0.92214998  0.88371888  0.17976616
   0.27265256  0.15995223  0.77903065
   0.20255709  0.73817787  0.31470168
   0.60625373  0.32307299  0.60876116
   0.24279274  0.36128601  0.11702696
   0.74277786  0.12168530  0.37746339
   0.11795588  0.24144040  0.37240761
   0.36823134  0.11691327  0.24722045
   0.36757480  0.74147771  0.12201378
   0.11726762  0.36596335  0.74720857
   0.74276000  0.61692602  0.87270437
   0.24275681  0.86598393  0.62173689
   0.86799072  0.74145429  0.62243452
   0.61257813  0.86126866  0.74724044
   0.61747683  0.24142799  0.87199415
   0.87294590  0.62160473  0.24720863
   0.99228760  0.99052376  0.99684886
   0.49222374  0.99136647  0.49761404
   0.49321887  0.49151999  0.99674806
   0.99332537  0.49238922  0.49769419
   0.49239708  0.49052654  0.49676403
   0.49223489  0.99152305  0.99766297
   0.99320702  0.99238521  0.49775118
   0.99317819  0.49139635  0.99673260
   0.47157374  0.36983131  0.29491229
   0.57340989  0.17255341  0.19955722
   0.01405904  0.31039735  0.89690791
   0.91204853  0.11310551  0.59757516
   0.28481217  0.46955479  0.37617020
   0.37881658  0.28936952  0.47545532
   0.59183249  0.90449197  0.11822757
   0.17310353  0.19362380  0.58536681
   0.20076468  0.57836843  0.18337401
   0.31238584  0.89931919  0.01899815
   0.89357161  0.01325617  0.31108179
   0.10674575  0.58372811  0.90920183
   0.10789203  0.00908908  0.20523496
   0.30243483  0.89855427  0.28922440
   0.18314301  0.47383017  0.59463159
   0.37769257  0.58432842  0.89974352
   0.01124511  0.19193297  0.10851347
   0.19717016  0.11437384  0.02823346
   0.58193617  0.89869368  0.38597564
   0.28835779  0.31799428  0.91566855
   0.90352660  0.29093351  0.31530492
   0.58474819  0.16488753  0.46636635
   0.47420556  0.58422179  0.17913355
   0.90096988  0.36866482  0.57882219
   0.52382467  0.61430020  0.70166135
   0.41117958  0.81802252  0.79274399
   0.96184108  0.66489527  0.08916352
   0.07427307  0.86856139  0.40533395
   0.70078733  0.50907512  0.61230898
   0.60408133  0.69196324  0.51582773
   0.39530250  0.08438791  0.88213936
   0.81081187  0.79105979  0.40810987
   0.78477210  0.39851056  0.80688883
   0.67459587  0.08419546  0.97869215
   0.09020336  0.97385899  0.68756641
   0.88142343  0.39871182  0.08640277
   0.87176086  0.96965605  0.78931484
   0.67882483  0.07836518  0.70528682
   0.80670345  0.51339005  0.39809571
   0.61374778  0.40450992  0.09640386
   0.97103495  0.78937371  0.88328752
   0.79045706  0.86980807  0.97599161
   0.40460150  0.08367720  0.61116285
   0.69511949  0.67256298  0.07798146
   0.08094807  0.69360801  0.67757031
   0.39231513  0.81034154  0.51842246
   0.51448657  0.39926256  0.81686540
   0.09314573  0.61301620  0.41648205
