  39  39   0   0
  0.2439952E+02  0.6834254E-09  0.1767185E-08  0.7880486E-09  0.0000000E+00
   1.0000000000000000E-004
  CAR 
 NEB_refined                             
      9.50420015    -23.80036953  301      1.06309118      1.00000000
    -23.800  0.0000E+00  0.0000E+00
    -23.689  0.0000E+00  0.0000E+00
    -23.578  0.0000E+00  0.0000E+00
    -23.467 -0.8594E-31 -0.9540E-32
    -23.356 -0.6304E-27 -0.7000E-28
    -23.245 -0.2489E-23 -0.2764E-24
    -23.134 -0.5289E-20 -0.5874E-21
    -23.023 -0.6040E-17 -0.6711E-18
    -22.912 -0.3588E-14 -0.3990E-15
    -22.801 -0.1172E-11 -0.1305E-12
    -22.690 -0.2042E-09 -0.2280E-10
    -22.579 -0.1894E-07 -0.2125E-08
    -22.468 -0.9285E-06 -0.1052E-06
    -22.357 -0.2384E-04 -0.2752E-05
    -22.246 -0.3148E-03 -0.3769E-04
    -22.135 -0.2041E-02 -0.2642E-03
    -22.024 -0.5364E-02 -0.8597E-03
    -21.913  0.3651E-02 -0.4544E-03
    -21.802  0.5513E-01  0.5666E-02
    -21.691  0.1345E+00  0.2060E-01
    -21.580  0.1637E+00  0.3877E-01
    -21.469  0.1710E+00  0.5776E-01
    -21.358  0.2747E+00  0.8825E-01
    -21.247  0.4263E+00  0.1356E+00
    -21.136  0.4645E+00  0.1871E+00
    -21.025  0.3077E+00  0.2213E+00
    -20.914  0.8754E-01  0.2310E+00
    -20.803 -0.1137E-01  0.2298E+00
    -20.692 -0.1270E-01  0.2283E+00
    -20.581 -0.2842E-02  0.2280E+00
    -20.470 -0.2829E-03  0.2280E+00
    -20.359 -0.1409E-04  0.2280E+00
    -20.248 -0.3660E-06  0.2280E+00
    -20.137 -0.5047E-08  0.2280E+00
    -20.026 -0.3732E-10  0.2280E+00
    -19.915 -0.1488E-12  0.2280E+00
    -19.804 -0.3120E-15  0.2280E+00
    -19.693  0.0000E+00  0.2280E+00
    -19.582  0.0000E+00  0.2280E+00
    -19.471  0.0000E+00  0.2280E+00
    -19.360  0.0000E+00  0.2280E+00
    -19.249  0.0000E+00  0.2280E+00
    -19.138  0.0000E+00  0.2280E+00
    -19.027  0.0000E+00  0.2280E+00
    -18.916  0.0000E+00  0.2280E+00
    -18.805  0.0000E+00  0.2280E+00
    -18.694  0.0000E+00  0.2280E+00
    -18.583  0.0000E+00  0.2280E+00
    -18.472  0.0000E+00  0.2280E+00
    -18.361  0.0000E+00  0.2280E+00
    -18.250  0.0000E+00  0.2280E+00
    -18.139  0.0000E+00  0.2280E+00
    -18.028  0.0000E+00  0.2280E+00
    -17.917  0.0000E+00  0.2280E+00
    -17.806  0.0000E+00  0.2280E+00
    -17.695  0.0000E+00  0.2280E+00
    -17.584  0.0000E+00  0.2280E+00
    -17.473  0.0000E+00  0.2280E+00
    -17.361  0.0000E+00  0.2280E+00
    -17.250  0.0000E+00  0.2280E+00
    -17.139  0.0000E+00  0.2280E+00
    -17.028  0.0000E+00  0.2280E+00
    -16.917  0.0000E+00  0.2280E+00
    -16.806  0.0000E+00  0.2280E+00
    -16.695  0.0000E+00  0.2280E+00
    -16.584  0.0000E+00  0.2280E+00
    -16.473  0.0000E+00  0.2280E+00
    -16.362  0.0000E+00  0.2280E+00
    -16.251  0.0000E+00  0.2280E+00
    -16.140  0.0000E+00  0.2280E+00
    -16.029  0.0000E+00  0.2280E+00
    -15.918  0.0000E+00  0.2280E+00
    -15.807  0.0000E+00  0.2280E+00
    -15.696  0.0000E+00  0.2280E+00
    -15.585  0.0000E+00  0.2280E+00
    -15.474  0.0000E+00  0.2280E+00
    -15.363  0.0000E+00  0.2280E+00
    -15.252  0.0000E+00  0.2280E+00
    -15.141  0.0000E+00  0.2280E+00
    -15.030  0.0000E+00  0.2280E+00
    -14.919  0.0000E+00  0.2280E+00
    -14.808  0.0000E+00  0.2280E+00
    -14.697  0.0000E+00  0.2280E+00
    -14.586  0.0000E+00  0.2280E+00
    -14.475  0.0000E+00  0.2280E+00
    -14.364  0.0000E+00  0.2280E+00
    -14.253  0.0000E+00  0.2280E+00
    -14.142 -0.2495E-29  0.2280E+00
    -14.031 -0.1463E-25  0.2280E+00
    -13.920 -0.4624E-22  0.2280E+00
    -13.809 -0.7876E-19  0.2280E+00
    -13.698 -0.7030E-16  0.2280E+00
    -13.587 -0.3456E-13  0.2280E+00
    -13.476 -0.9140E-11  0.2280E+00
    -13.365 -0.1298E-08  0.2280E+00
    -13.254 -0.9868E-07  0.2280E+00
    -13.143 -0.3996E-05  0.2280E+00
    -13.032 -0.8511E-04  0.2280E+00
    -12.921 -0.9241E-03  0.2279E+00
    -12.810 -0.4660E-02  0.2274E+00
    -12.699 -0.6559E-02  0.2266E+00
    -12.588  0.2709E-01  0.2296E+00
    -12.477  0.1195E+00  0.2429E+00
    -12.366  0.1996E+00  0.2651E+00
    -12.255  0.1970E+00  0.2869E+00
    -12.144  0.1340E+00  0.3018E+00
    -12.033  0.5650E-01  0.3081E+00
    -11.922  0.6806E-02  0.3088E+00
    -11.811 -0.4866E-02  0.3083E+00
    -11.700 -0.2265E-02  0.3080E+00
    -11.589 -0.3942E-03  0.3080E+00
    -11.478 -0.3327E-04  0.3080E+00
    -11.367 -0.1443E-05  0.3080E+00
    -11.256 -0.3284E-07  0.3080E+00
    -11.145 -0.3965E-09  0.3080E+00
    -11.034 -0.1962E-09  0.3080E+00
    -10.923 -0.1583E-07  0.3080E+00
    -10.812 -0.6778E-06  0.3080E+00
    -10.701 -0.1498E-04  0.3080E+00
    -10.590 -0.1658E-03  0.3080E+00
    -10.479 -0.8470E-03  0.3079E+00
    -10.368 -0.1311E-02  0.3077E+00
    -10.257  0.4239E-02  0.3082E+00
    -10.145  0.2171E-01  0.3106E+00
    -10.034  0.4166E-01  0.3152E+00
     -9.923  0.4458E-01  0.3202E+00
     -9.812  0.2721E-01  0.3232E+00
     -9.701  0.5060E-02  0.3238E+00
     -9.590 -0.5560E-02  0.3232E+00
     -9.479  0.1754E-01  0.3251E+00
     -9.368  0.8889E-01  0.3350E+00
     -9.257  0.1507E+00  0.3517E+00
     -9.146  0.1284E+00  0.3660E+00
     -9.035  0.5475E-01  0.3720E+00
     -8.924  0.6276E-02  0.3727E+00
     -8.813 -0.4230E-02  0.3723E+00
     -8.702 -0.1994E-02  0.3720E+00
     -8.591 -0.3667E-03  0.3720E+00
     -8.480 -0.3378E-04  0.3720E+00
     -8.369 -0.1633E-05  0.3720E+00
     -8.258 -0.4189E-07  0.3720E+00
     -8.147 -0.5728E-09  0.3720E+00
     -8.036 -0.4183E-11  0.3720E+00
     -7.925 -0.1634E-13  0.3720E+00
     -7.814 -0.3200E-16  0.3720E+00
     -7.703  0.0000E+00  0.3720E+00
     -7.592  0.0000E+00  0.3720E+00
     -7.481  0.0000E+00  0.3720E+00
     -7.370  0.0000E+00  0.3720E+00
     -7.259  0.0000E+00  0.3720E+00
     -7.148  0.0000E+00  0.3720E+00
     -7.037  0.0000E+00  0.3720E+00
     -6.926  0.0000E+00  0.3720E+00
     -6.815  0.0000E+00  0.3720E+00
     -6.704  0.0000E+00  0.3720E+00
     -6.593  0.0000E+00  0.3720E+00
     -6.482  0.0000E+00  0.3720E+00
     -6.371  0.0000E+00  0.3720E+00
     -6.260  0.0000E+00  0.3720E+00
     -6.149  0.0000E+00  0.3720E+00
     -6.038  0.0000E+00  0.3720E+00
     -5.927  0.0000E+00  0.3720E+00
     -5.816  0.0000E+00  0.3720E+00
     -5.705  0.0000E+00  0.3720E+00
     -5.594  0.0000E+00  0.3720E+00
     -5.483  0.0000E+00  0.3720E+00
     -5.372  0.0000E+00  0.3720E+00
     -5.261  0.0000E+00  0.3720E+00
     -5.150  0.0000E+00  0.3720E+00
     -5.039  0.0000E+00  0.3720E+00
     -4.928 -0.5551E-30  0.3720E+00
     -4.817 -0.3403E-26  0.3720E+00
     -4.706 -0.1120E-22  0.3720E+00
     -4.595 -0.1979E-19  0.3720E+00
     -4.484 -0.1874E-16  0.3720E+00
     -4.373 -0.9178E-14  0.3720E+00
     -4.262 -0.2463E-11  0.3720E+00
     -4.151 -0.3506E-09  0.3720E+00
     -4.040 -0.2630E-07  0.3720E+00
     -3.929 -0.1028E-05  0.3720E+00
     -3.818 -0.2053E-04  0.3720E+00
     -3.707 -0.2009E-03  0.3720E+00
     -3.596 -0.8603E-03  0.3719E+00
     -3.485 -0.7655E-03  0.3718E+00
     -3.374  0.5232E-02  0.3724E+00
     -3.263  0.2000E-01  0.3746E+00
     -3.152  0.3761E-01  0.3788E+00
     -3.041  0.4430E-01  0.3837E+00
     -2.930  0.3063E-01  0.3871E+00
     -2.818  0.1009E-01  0.3882E+00
     -2.707 -0.2559E-03  0.3882E+00
     -2.596 -0.1241E-02  0.3880E+00
     -2.485 -0.3565E-03  0.3880E+00
     -2.374 -0.4353E-04  0.3880E+00
     -2.263 -0.2605E-05  0.3880E+00
     -2.152 -0.1855E-06  0.3880E+00
     -2.041 -0.3274E-05  0.3880E+00
     -1.930 -0.5121E-04  0.3880E+00
     -1.819 -0.3860E-03  0.3880E+00
     -1.708 -0.1202E-02  0.3878E+00
     -1.597 -0.1355E-03  0.3878E+00
     -1.486  0.8254E-02  0.3887E+00
     -1.375  0.2711E-01  0.3917E+00
     -1.264  0.5668E-01  0.3980E+00
     -1.153  0.8343E-01  0.4073E+00
     -1.042  0.8234E-01  0.4164E+00
     -0.931  0.5084E-01  0.4221E+00
     -0.820  0.2263E-01  0.4246E+00
     -0.709  0.2925E-01  0.4278E+00
     -0.598  0.4260E-01  0.4326E+00
     -0.487  0.2527E-01  0.4354E+00
     -0.376  0.5016E-02  0.4359E+00
     -0.265  0.2050E-01  0.4382E+00
     -0.154  0.6297E-01  0.4452E+00
     -0.043  0.9979E-01  0.4563E+00
      0.068  0.1223E+00  0.4698E+00
      0.179  0.1278E+00  0.4840E+00
      0.290  0.1142E+00  0.4967E+00
      0.401  0.1053E+00  0.5084E+00
      0.512  0.1037E+00  0.5199E+00
      0.623  0.9031E-01  0.5299E+00
      0.734  0.7923E-01  0.5387E+00
      0.845  0.8382E-01  0.5480E+00
      0.956  0.7893E-01  0.5568E+00
      1.067  0.4792E-01  0.5621E+00
      1.178  0.1709E-01  0.5640E+00
      1.289  0.2223E-02  0.5643E+00
      1.400 -0.1417E-02  0.5641E+00
      1.511 -0.7944E-03  0.5640E+00
      1.622 -0.1559E-03  0.5640E+00
      1.733 -0.1420E-04  0.5640E+00
      1.844 -0.6444E-06  0.5640E+00
      1.955 -0.1503E-07  0.5640E+00
      2.066 -0.1831E-09  0.5640E+00
      2.177 -0.5334E-11  0.5640E+00
      2.288 -0.5549E-09  0.5640E+00
      2.399 -0.3897E-07  0.5640E+00
      2.510 -0.1420E-05  0.5640E+00
      2.621 -0.2616E-04  0.5640E+00
      2.732 -0.2291E-03  0.5640E+00
      2.843 -0.7713E-03  0.5639E+00
      2.954  0.4700E-03  0.5639E+00
      3.065  0.8105E-02  0.5648E+00
      3.176  0.1601E-01  0.5666E+00
      3.287  0.1151E-01  0.5679E+00
      3.398  0.2220E-02  0.5681E+00
      3.509 -0.8012E-03  0.5681E+00
      3.620 -0.4228E-03  0.5680E+00
      3.731 -0.3862E-03  0.5680E+00
      3.842 -0.1394E-02  0.5678E+00
      3.953 -0.6993E-03  0.5677E+00
      4.064  0.1133E-01  0.5690E+00
      4.175  0.3287E-01  0.5726E+00
      4.286  0.3910E-01  0.5770E+00
      4.397  0.2343E-01  0.5796E+00
      4.509  0.5890E-02  0.5802E+00
      4.620 -0.9301E-03  0.5801E+00
      4.731 -0.9225E-03  0.5800E+00
      4.842 -0.2110E-03  0.5800E+00
      4.953 -0.7957E-04  0.5800E+00
      5.064 -0.4535E-03  0.5799E+00
      5.175 -0.1426E-02  0.5798E+00
      5.286  0.3515E-03  0.5798E+00
      5.397  0.1304E-01  0.5813E+00
      5.508  0.3356E-01  0.5850E+00
      5.619  0.4239E-01  0.5897E+00
      5.730  0.3669E-01  0.5938E+00
      5.841  0.3843E-01  0.5980E+00
      5.952  0.5039E-01  0.6036E+00
      6.063  0.5511E-01  0.6098E+00
      6.174  0.5146E-01  0.6155E+00
      6.285  0.3284E-01  0.6191E+00
      6.396  0.9555E-02  0.6202E+00
      6.507  0.1209E-01  0.6215E+00
      6.618  0.3226E-01  0.6251E+00
      6.729  0.4083E-01  0.6296E+00
      6.840  0.4095E-01  0.6342E+00
      6.951  0.4583E-01  0.6393E+00
      7.062  0.4760E-01  0.6445E+00
      7.173  0.4414E-01  0.6494E+00
      7.284  0.4473E-01  0.6544E+00
      7.395  0.5670E-01  0.6607E+00
      7.506  0.6186E-01  0.6676E+00
      7.617  0.3713E-01  0.6717E+00
      7.728  0.6967E-02  0.6725E+00
      7.839 -0.2605E-02  0.6722E+00
      7.950 -0.1377E-02  0.6720E+00
      8.061 -0.2303E-03  0.6720E+00
      8.172 -0.1786E-04  0.6720E+00
      8.283 -0.6986E-06  0.6720E+00
      8.394 -0.1422E-07  0.6720E+00
      8.505 -0.1530E-09  0.6720E+00
      8.616 -0.8758E-12  0.6720E+00
      8.727 -0.2680E-14  0.6720E+00
      8.838  0.0000E+00  0.6720E+00
      8.949  0.0000E+00  0.6720E+00
      9.060  0.0000E+00  0.6720E+00
      9.171  0.0000E+00  0.6720E+00
      9.282  0.0000E+00  0.6720E+00
      9.393  0.0000E+00  0.6720E+00
      9.504  0.0000E+00  0.6720E+00
