       N       E                     dE             d eps       ncg     rms          rms(c)
DAV:   1     0.512828992682E+04    0.51283E+04   -0.22086E+05   606   0.163E+03
DAV:   2     0.480779751207E+03   -0.46475E+04   -0.44861E+04   624   0.441E+02
DAV:   3    -0.266985027283E+03   -0.74776E+03   -0.73606E+03   702   0.184E+02
DAV:   4    -0.320627352283E+03   -0.53642E+02   -0.53023E+02   672   0.433E+01
DAV:   5    -0.322981769331E+03   -0.23544E+01   -0.23488E+01   834   0.972E+00    0.269E+01
RMM:   6    -0.305421603703E+03    0.17560E+02   -0.30014E+01   635   0.588E+00    0.179E+01
RMM:   7    -0.304289254834E+03    0.11323E+01   -0.35792E+01   651   0.539E+00    0.113E+01
RMM:   8    -0.304081965490E+03    0.20729E+00   -0.27499E+00   743   0.286E+00    0.666E+00
RMM:   9    -0.303933677756E+03    0.14829E+00   -0.25066E+00   615   0.181E+00    0.254E+00
RMM:  10    -0.303783755049E+03    0.14992E+00   -0.23045E-01   696   0.103E+00    0.174E+00
RMM:  11    -0.303760297755E+03    0.23457E-01   -0.97516E-02   769   0.454E-01    0.124E+00
RMM:  12    -0.303755809987E+03    0.44878E-02   -0.68031E-02   686   0.306E-01    0.686E-01
RMM:  13    -0.303757382033E+03   -0.15720E-02   -0.14758E-02   670   0.188E-01    0.597E-01
RMM:  14    -0.303760583387E+03   -0.32014E-02   -0.13651E-02   640   0.169E-01    0.266E-01
RMM:  15    -0.303759692209E+03    0.89118E-03   -0.44347E-03   747   0.985E-02    0.316E-01
RMM:  16    -0.303759820882E+03   -0.12867E-03   -0.13354E-03   675   0.579E-02    0.222E-01
RMM:  17    -0.303759787075E+03    0.33807E-04   -0.11515E-03   620   0.457E-02    0.774E-02
RMM:  18    -0.303759802498E+03   -0.15423E-04   -0.55157E-04   684   0.311E-02    0.640E-02
RMM:  19    -0.303759771657E+03    0.30841E-04   -0.11862E-04   740   0.170E-02    0.499E-02
RMM:  20    -0.303759731855E+03    0.39802E-04   -0.50046E-05   581   0.101E-02    0.206E-02
RMM:  21    -0.303759730471E+03    0.13846E-05   -0.18550E-05   605   0.658E-03    0.113E-02
RMM:  22    -0.303759726203E+03    0.42673E-05   -0.51886E-06   544   0.394E-03    0.507E-03
RMM:  23    -0.303759726389E+03   -0.18538E-06   -0.15693E-06   360   0.238E-03
   1 F= -.30375973E+03 E0= -.30380781E+03  d E =-.303760E+03
       N       E                     dE             d eps       ncg     rms          rms(c)
DAV:   1    -0.303759726095E+03    0.10849E-06   -0.87001E-07   345   0.295E-03    0.154E-03
RMM:   2    -0.303759726061E+03    0.33746E-07   -0.53320E-07   343   0.135E-03
   2 F= -.30375973E+03 E0= -.30380781E+03  d E =0.327615E-06
       N       E                     dE             d eps       ncg     rms          rms(c)
DAV:   1    -0.303759726052E+03    0.42746E-07   -0.11341E-07   393   0.126E-03    0.140E-03
RMM:   2    -0.303759726072E+03   -0.19369E-07   -0.50285E-08   283   0.587E-04
   3 F= -.30375973E+03 E0= -.30380782E+03  d E =-.103682E-07
       N       E                     dE             d eps       ncg     rms          rms(c)
DAV:   1    -0.303759726080E+03   -0.28202E-07   -0.73865E-08   429   0.936E-04    0.864E-04
RMM:   2    -0.303759726108E+03   -0.28034E-07   -0.27168E-09    92   0.350E-04
   4 F= -.30375973E+03 E0= -.30380781E+03  d E =-.368673E-07
       N       E                     dE             d eps       ncg     rms          rms(c)
DAV:   1    -0.303759726076E+03    0.42855E-08   -0.79329E-08   393   0.778E-04    0.375E-04
RMM:   2    -0.303759726078E+03   -0.15134E-08   -0.55714E-10    78   0.329E-04
   5 F= -.30375973E+03 E0= -.30380782E+03  d E =0.308064E-07
       N       E                     dE             d eps       ncg     rms          rms(c)
DAV:   1    -0.303759726080E+03   -0.38344E-08   -0.25751E-08   375   0.378E-04    0.259E-04
RMM:   2    -0.303759726075E+03    0.53551E-08   -0.99547E-11    61   0.237E-04
   6 F= -.30375973E+03 E0= -.30380782E+03  d E =0.303407E-08
       N       E                     dE             d eps       ncg     rms          rms(c)
DAV:   1    -0.303759726072E+03    0.82582E-08   -0.90596E-09   366   0.283E-04    0.140E-04
RMM:   2    -0.303759726069E+03    0.29759E-08    0.11004-220    48   0.169E-04
   7 F= -.30375973E+03 E0= -.30380782E+03  d E =0.587897E-08
       N       E                     dE             d eps       ncg     rms          rms(c)
DAV:   1    -0.303759726068E+03    0.39145E-08   -0.57177E-09   366   0.174E-04    0.149E-04
RMM:   2    -0.303759726068E+03   -0.69849E-09    0.13422-204    43   0.138E-04
   8 F= -.30375973E+03 E0= -.30380782E+03  d E =0.240107E-09
       N       E                     dE             d eps       ncg     rms          rms(c)
DAV:   1    -0.303759726067E+03    0.92405E-09   -0.27084E-09   357   0.164E-04    0.716E-05
RMM:   2    -0.303759726067E+03   -0.58208E-09    0.31659-221    36   0.756E-05
   9 F= -.30375973E+03 E0= -.30380782E+03  d E =0.104046E-08
       N       E                     dE             d eps       ncg     rms          rms(c)
DAV:   1    -0.303759726069E+03   -0.20809E-08   -0.12759E-09   339   0.839E-05    0.572E-05
RMM:   2    -0.303759726067E+03    0.15061E-08    0.19253-289    31   0.579E-05
  10 F= -.30375973E+03 E0= -.30380782E+03  d E =0.727596E-11
       N       E                     dE             d eps       ncg     rms          rms(c)
DAV:   1    -0.303759726067E+03    0.15207E-08   -0.49350E-10   339   0.651E-05    0.461E-05
RMM:   2    -0.303759726066E+03    0.96770E-09    0.99899-290    29   0.394E-05
  11 F= -.30375973E+03 E0= -.30380782E+03  d E =0.982254E-09
       N       E                     dE             d eps       ncg     rms          rms(c)
DAV:   1    -0.303759726068E+03   -0.52387E-09   -0.81610E-10   339   0.520E-05    0.210E-05
RMM:   2    -0.303759726067E+03    0.12005E-08    0.68737-290    27   0.311E-05
  12 F= -.30375973E+03 E0= -.30380782E+03  d E =-.291038E-09
       N       E                     dE             d eps       ncg     rms          rms(c)
DAV:   1    -0.303759726068E+03   -0.65484E-10   -0.48756E-10   339   0.313E-05    0.250E-05
RMM:   2    -0.303759726066E+03    0.16735E-08    0.00000E+00    21   0.223E-05
  13 F= -.30375973E+03 E0= -.30380782E+03  d E =0.407454E-09
       N       E                     dE             d eps       ncg     rms          rms(c)
DAV:   1    -0.303759726066E+03    0.17972E-08   -0.43226E-10   339   0.284E-05    0.123E-05
RMM:   2    -0.303759726066E+03    0.10914E-09    0.00000E+00    19   0.146E-05
  14 F= -.30375973E+03 E0= -.30380782E+03  d E =0.232831E-09
       N       E                     dE             d eps       ncg     rms          rms(c)
DAV:   1    -0.303759726066E+03    0.36380E-09   -0.23200E-10   339   0.169E-05    0.678E-06
RMM:   2    -0.303759726066E+03   -0.33469E-09    0.00000E+00    19   0.119E-05
  15 F= -.30375973E+03 E0= -.30380782E+03  d E =-.800355E-10
       N       E                     dE             d eps       ncg     rms          rms(c)
DAV:   1    -0.303759726065E+03    0.56752E-09   -0.56537E-10   339   0.130E-05    0.963E-06
RMM:   2    -0.303759726066E+03   -0.93860E-09    0.00000E+00    18   0.896E-06
  16 F= -.30375973E+03 E0= -.30380782E+03  d E =-.363798E-10
       N       E                     dE             d eps       ncg     rms          rms(c)
DAV:   1    -0.303759726067E+03   -0.14334E-08   -0.54587E-10   339   0.112E-05    0.419E-06
RMM:   2    -0.303759726066E+03    0.53114E-09    0.00000E+00    15   0.621E-06
  17 F= -.30375973E+03 E0= -.30380782E+03  d E =0.363798E-10
       N       E                     dE             d eps       ncg     rms          rms(c)
DAV:   1    -0.303759726066E+03    0.75670E-09   -0.46990E-10   339   0.686E-06    0.259E-06
RMM:   2    -0.303759726066E+03   -0.33469E-09    0.00000E+00    15   0.484E-06
  18 F= -.30375973E+03 E0= -.30380782E+03  d E =-.109139E-09
       N       E                     dE             d eps       ncg     rms          rms(c)
DAV:   1    -0.303759726066E+03   -0.54570E-09   -0.87772E-10   339   0.534E-06    0.279E-06
RMM:   2    -0.303759726066E+03   -0.21828E-10    0.00000E+00    14   0.356E-06
  19 F= -.30375973E+03 E0= -.30380782E+03  d E =-.232831E-09
       N       E                     dE             d eps       ncg     rms          rms(c)
DAV:   1    -0.303759726066E+03    0.37835E-09   -0.14485E-10   312   0.431E-06    0.134E-06
RMM:   2    -0.303759726066E+03   -0.31287E-09    0.00000E+00    13   0.262E-06
  20 F= -.30375973E+03 E0= -.30380782E+03  d E =0.873115E-10
       N       E                     dE             d eps       ncg     rms          rms(c)
DAV:   1    -0.303759726067E+03   -0.10768E-08   -0.40478E-10   312   0.282E-06    0.124E-06
RMM:   2    -0.303759726065E+03    0.17317E-08    0.00000E+00    13   0.208E-06
  21 F= -.30375973E+03 E0= -.30380782E+03  d E =0.967702E-09
       N       E                     dE             d eps       ncg     rms          rms(c)
DAV:   1    -0.303759726067E+03   -0.10914E-09   -0.19237E-10   312   0.251E-06    0.839E-07
RMM:   2    -0.303759726066E+03    0.12224E-08    0.00000E+00    13   0.155E-06
  22 F= -.30375973E+03 E0= -.30380782E+03  d E =-.618456E-09
       N       E                     dE             d eps       ncg     rms          rms(c)
DAV:   1    -0.303759726067E+03    0.74215E-09   -0.31327E-10   312   0.183E-06    0.383E-07
RMM:   2    -0.303759726066E+03    0.26921E-09    0.00000E+00    13   0.122E-06
  23 F= -.30375973E+03 E0= -.30380782E+03  d E =-.211003E-09
       N       E                     dE             d eps       ncg     rms          rms(c)
DAV:   1    -0.303759726066E+03    0.13824E-09   -0.43612E-10   312   0.134E-06    0.553E-07
RMM:   2    -0.303759726066E+03   -0.14552E-10    0.00000E+00    13   0.954E-07
  24 F= -.30375973E+03 E0= -.30380782E+03  d E =-.145519E-09
       N       E                     dE             d eps       ncg     rms          rms(c)
DAV:   1    -0.303759726065E+03    0.11132E-08   -0.90234E-11   312   0.112E-06    0.258E-07
RMM:   2    -0.303759726066E+03   -0.70577E-09    0.00000E+00    13   0.676E-07
  25 F= -.30375973E+03 E0= -.30380782E+03  d E =0.422006E-09
       N       E                     dE             d eps       ncg     rms          rms(c)
DAV:   1    -0.303759726067E+03   -0.17026E-08   -0.18365E-10   312   0.742E-07    0.171E-07
RMM:   2    -0.303759726066E+03    0.47294E-09    0.00000E+00    13   0.547E-07
  26 F= -.30375973E+03 E0= -.30380782E+03  d E =-.523869E-09
       N       E                     dE             d eps       ncg     rms          rms(c)
DAV:   1    -0.303759726066E+03    0.71304E-09   -0.10313E-10   312   0.618E-07    0.186E-07
RMM:   2    -0.303759726067E+03   -0.39290E-09    0.00000E+00    13   0.426E-07
  27 F= -.30375973E+03 E0= -.30380782E+03  d E =-.152795E-09
       N       E                     dE             d eps       ncg     rms          rms(c)
DAV:   1    -0.303759726067E+03   -0.61846E-09    0.11596E-10   312   0.488E-07    0.997E-08
RMM:   2    -0.303759726067E+03    0.24011E-09    0.00000E+00    12   0.322E-07
  28 F= -.30375973E+03 E0= -.30380782E+03  d E =0.145519E-10
       N       E                     dE             d eps       ncg     rms          rms(c)
DAV:   1    -0.303759726066E+03    0.45839E-09   -0.38919E-10   312   0.350E-07    0.946E-08
RMM:   2    -0.303759726067E+03   -0.29104E-09    0.00000E+00    12   0.263E-07
  29 F= -.30375973E+03 E0= -.30380782E+03  d E =-.727596E-10
       N       E                     dE             d eps       ncg     rms          rms(c)
DAV:   1    -0.303759726067E+03   -0.95315E-09   -0.16289E-10   312   0.311E-07    0.724E-08
RMM:   2    -0.303759726067E+03    0.53842E-09    0.00000E+00    11   0.201E-07
  30 F= -.30375973E+03 E0= -.30380782E+03  d E =-.123691E-09
       N       E                     dE             d eps       ncg     rms          rms(c)
DAV:   1    -0.303759726066E+03    0.15061E-08   -0.24701E-10   312   0.229E-07    0.372E-08
RMM:   2    -0.303759726067E+03   -0.80763E-09    0.00000E+00    11   0.157E-07
  31 F= -.30375973E+03 E0= -.30380782E+03  d E =0.160071E-09
       N       E                     dE             d eps       ncg     rms          rms(c)
DAV:   1    -0.303759726066E+03    0.12369E-09    0.22366E-10   312   0.174E-07    0.472E-08
RMM:   2    -0.303759726067E+03   -0.77853E-09    0.00000E+00    10   0.127E-07
  32 F= -.30375973E+03 E0= -.30380782E+03  d E =0.152795E-09
       N       E                     dE             d eps       ncg     rms          rms(c)
DAV:   1    -0.303759726066E+03   -0.71304E-09   -0.99597E-11   312   0.145E-07    0.265E-08
RMM:   2    -0.303759726067E+03   -0.19645E-09    0.00000E+00    11   0.931E-08
  33 F= -.30375973E+03 E0= -.30380782E+03  d E =-.130967E-09
       N       E                     dE             d eps       ncg     rms          rms(c)
DAV:   1    -0.303759726067E+03   -0.29104E-09   -0.28678E-10   312   0.103E-07    0.191E-08
RMM:   2    -0.303759726067E+03    0.16735E-09    0.00000E+00     8   0.757E-08
  34 F= -.30375973E+03 E0= -.30380782E+03  d E =0.727596E-10
       N       E                     dE             d eps       ncg     rms          rms(c)
DAV:   1    -0.303759726066E+03    0.74942E-09    0.33926E-10   312   0.854E-08    0.185E-08
RMM:   2    -0.303759726066E+03   -0.27649E-09    0.00000E+00     9   0.594E-08
  35 F= -.30375973E+03 E0= -.30380782E+03  d E =0.305590E-09
       N       E                     dE             d eps       ncg     rms          rms(c)
DAV:   1    -0.303759726066E+03   -0.29104E-09    0.40542E-11   312   0.674E-08    0.118E-08
RMM:   2    -0.303759726066E+03   -0.18917E-09    0.00000E+00     8   0.463E-08
  36 F= -.30375973E+03 E0= -.30380782E+03  d E =-.203727E-09
       N       E                     dE             d eps       ncg     rms          rms(c)
DAV:   1    -0.303759726067E+03   -0.40018E-09    0.22400E-10   312   0.508E-08    0.114E-08
RMM:   2    -0.303759726066E+03    0.21828E-09    0.00000E+00     7   0.378E-08
  37 F= -.30375973E+03 E0= -.30380782E+03  d E =0.727596E-11
       N       E                     dE             d eps       ncg     rms          rms(c)
DAV:   1    -0.303759726066E+03    0.74215E-09   -0.65828E-10   312   0.439E-08    0.881E-09
RMM:   2    -0.303759726067E+03   -0.63301E-09    0.00000E+00     7   0.291E-08
  38 F= -.30375973E+03 E0= -.30380782E+03  d E =-.109139E-09
       N       E                     dE             d eps       ncg     rms          rms(c)
DAV:   1    -0.303759726065E+03    0.64028E-09    0.14714E-11   312   0.327E-08    0.542E-09
RMM:   2    -0.303759726066E+03   -0.11059E-08    0.00000E+00     7   0.231E-08
  39 F= -.30375973E+03 E0= -.30380782E+03  d E =0.167347E-09
       N       E                     dE             d eps       ncg     rms          rms(c)
DAV:   1    -0.303759726066E+03   -0.11132E-08   -0.69195E-11   312   0.263E-08    0.621E-09
RMM:   2    -0.303759726067E+03   -0.87311E-10    0.00000E+00     6   0.191E-08
  40 F= -.30375973E+03 E0= -.30380782E+03  d E =-.945874E-10
       N       E                     dE             d eps       ncg     rms          rms(c)
DAV:   1    -0.303759726065E+03    0.11787E-08   -0.13412E-10   312   0.217E-08    0.360E-09
RMM:   2    -0.303759726066E+03   -0.11350E-08    0.00000E+00     7   0.141E-08
  41 F= -.30375973E+03 E0= -.30380782E+03  d E =0.130967E-09
       N       E                     dE             d eps       ncg     rms          rms(c)
DAV:   1    -0.303759726064E+03    0.10332E-08   -0.17713E-10   312   0.156E-08    0.304E-09
RMM:   2    -0.303759726066E+03   -0.22774E-08    0.00000E+00     6   0.116E-08
  42 F= -.30375973E+03 E0= -.30380782E+03  d E =-.109139E-09
       N       E                     dE             d eps       ncg     rms          rms(c)
DAV:   1    -0.303759726067E+03   -0.29831E-08   -0.13062E-10   312   0.134E-08    0.258E-09
RMM:   2    -0.303759726066E+03    0.80036E-09    0.00000E+00     6   0.892E-09
  43 F= -.30375973E+03 E0= -.30380782E+03  d E =0.945874E-10
       N       E                     dE             d eps       ncg     rms          rms(c)
DAV:   1    -0.303759726067E+03    0.34197E-09   -0.15061E-10   312   0.101E-08    0.170E-09
RMM:   2    -0.303759726067E+03    0.26921E-09    0.00000E+00     6   0.712E-09
  44 F= -.30375973E+03 E0= -.30380782E+03  d E =-.189175E-09
       N       E                     dE             d eps       ncg     rms          rms(c)
DAV:   1    -0.303759726067E+03   -0.35652E-09   -0.15467E-10   312   0.780E-09    0.170E-09
RMM:   2    -0.303759726066E+03    0.76398E-09    0.00000E+00     6   0.573E-09
  45 F= -.30375973E+03 E0= -.30380782E+03  d E =0.138243E-09
       N       E                     dE             d eps       ncg     rms          rms(c)
DAV:   1    -0.303759726066E+03    0.15352E-08   -0.18113E-11   312   0.672E-09    0.137E-09
RMM:   2    -0.303759726066E+03   -0.69849E-09    0.00000E+00     6   0.449E-09
  46 F= -.30375973E+03 E0= -.30380782E+03  d E =0.727596E-10
       N       E                     dE             d eps       ncg     rms          rms(c)
DAV:   1    -0.303759726066E+03   -0.51659E-09   -0.54807E-10   312   0.506E-09    0.837E-10
RMM:   2    -0.303759726066E+03   -0.14552E-09    0.00000E+00     6   0.357E-09
  47 F= -.30375973E+03 E0= -.30380782E+03  d E =0.363798E-10
       N       E                     dE             d eps       ncg     rms          rms(c)
DAV:   1    -0.303759726066E+03   -0.24011E-09   -0.97970E-11   312   0.400E-09    0.111E-09
RMM:   2    -0.303759726066E+03    0.14552E-10    0.00000E+00     5   0.282E-09
  48 F= -.30375973E+03 E0= -.30380782E+03  d E =-.800355E-10
       N       E                     dE             d eps       ncg     rms          rms(c)
DAV:   1    -0.303759726066E+03    0.12369E-09   -0.23889E-10   312   0.342E-09    0.746E-10
RMM:   2    -0.303759726066E+03   -0.15280E-09    0.00000E+00     6   0.217E-09
  49 F= -.30375973E+03 E0= -.30380782E+03  d E =-.436557E-10
       N       E                     dE             d eps       ncg     rms          rms(c)
DAV:   1    -0.303759726066E+03    0.26921E-09   -0.10986E-10   312   0.253E-09    0.506E-10
RMM:   2    -0.303759726067E+03   -0.48749E-09    0.00000E+00     5   0.175E-09
  50 F= -.30375973E+03 E0= -.30380782E+03  d E =-.654836E-10
       N       E                     dE             d eps       ncg     rms          rms(c)
DAV:   1    -0.303759726067E+03   -0.96043E-09    0.23343E-10   312   0.194E-09    0.479E-10
RMM:   2    -0.303759726066E+03    0.71304E-09    0.00000E+00     5   0.139E-09
  51 F= -.30375973E+03 E0= -.30380782E+03  d E =0.240107E-09
       N       E                     dE             d eps       ncg     rms          rms(c)
DAV:   1    -0.303759726066E+03    0.14843E-08   -0.75635E-11   312   0.184E-09    0.413E-10
RMM:   2    -0.303759726066E+03   -0.88039E-09    0.00000E+00     5   0.114E-09
  52 F= -.30375973E+03 E0= -.30380782E+03  d E =-.109139E-09
       N       E                     dE             d eps       ncg     rms          rms(c)
DAV:   1    -0.303759726067E+03   -0.12151E-08   -0.88085E-11   312   0.132E-09    0.400E-10
RMM:   2    -0.303759726066E+03    0.31287E-09    0.00000E+00     5   0.894E-10
  53 F= -.30375973E+03 E0= -.30380782E+03  d E =-.218279E-10
       N       E                     dE             d eps       ncg     rms          rms(c)
DAV:   1    -0.303759726067E+03    0.14552E-09   -0.21430E-10   312   0.101E-09    0.441E-10
RMM:   2    -0.303759726066E+03    0.15280E-09    0.00000E+00     5   0.768E-10
  54 F= -.30375973E+03 E0= -.30380782E+03  d E =-.145519E-10
       N       E                     dE             d eps       ncg     rms          rms(c)
DAV:   1    -0.303759726067E+03   -0.43656E-10   -0.48789E-12   312   0.912E-10    0.291E-10
RMM:   2    -0.303759726066E+03    0.18917E-09    0.00000E+00     5   0.569E-10
  55 F= -.30375973E+03 E0= -.30380782E+03  d E =-.727596E-11
       N       E                     dE             d eps       ncg     rms          rms(c)
DAV:   1    -0.303759726067E+03   -0.74215E-09   -0.22047E-10   312   0.667E-10    0.355E-10
RMM:   2    -0.303759726066E+03    0.10186E-08    0.00000E+00     5   0.487E-10
  56 F= -.30375973E+03 E0= -.30380782E+03  d E =0.873115E-10
       N       E                     dE             d eps       ncg     rms          rms(c)
DAV:   1    -0.303759726067E+03    0.48021E-09    0.17723E-10   312   0.693E-10    0.221E-10
RMM:   2    -0.303759726066E+03    0.55297E-09    0.00000E+00     5   0.401E-10
  57 F= -.30375973E+03 E0= -.30380782E+03  d E =0.145519E-10
       N       E                     dE             d eps       ncg     rms          rms(c)
DAV:   1    -0.303759726065E+03    0.14479E-08    0.10250E-10   312   0.468E-10    0.282E-10
RMM:   2    -0.303759726066E+03   -0.96770E-09    0.00000E+00     4   0.314E-10
  58 F= -.30375973E+03 E0= -.30380782E+03  d E =-.727596E-10
       N       E                     dE             d eps       ncg     rms          rms(c)
DAV:   1    -0.303759726066E+03   -0.56752E-09    0.34362E-10   312   0.388E-10    0.213E-10
RMM:   2    -0.303759726066E+03   -0.48749E-09    0.00000E+00     4   0.262E-10
  59 F= -.30375973E+03 E0= -.30380782E+03  d E =-.873115E-10
       N       E                     dE             d eps       ncg     rms          rms(c)
DAV:   1    -0.303759726067E+03   -0.12515E-08    0.17051E-10   312   0.349E-10    0.281E-10
RMM:   2    -0.303759726066E+03    0.88767E-09    0.00000E+00     4   0.237E-10
  60 F= -.30375973E+03 E0= -.30380782E+03  d E =0.123691E-09
       N       E                     dE             d eps       ncg     rms          rms(c)
DAV:   1    -0.303759726065E+03    0.20591E-08   -0.72927E-11   312   0.377E-10    0.189E-10
RMM:   2    -0.303759726066E+03   -0.12151E-08    0.00000E+00     4   0.181E-10
  61 F= -.30375973E+03 E0= -.30380782E+03  d E =-.436557E-10
       N       E                     dE             d eps       ncg     rms          rms(c)
DAV:   1    -0.303759726066E+03   -0.54570E-09   -0.41282E-11   312   0.276E-10    0.316E-10
RMM:   2    -0.303759726066E+03   -0.65484E-09    0.00000E+00     4   0.187E-10
  62 F= -.30375973E+03 E0= -.30380782E+03  d E =0.145519E-10
       N       E                     dE             d eps       ncg     rms          rms(c)
DAV:   1    -0.303759726066E+03    0.12369E-09   -0.11824E-10   312   0.302E-10    0.259E-10
RMM:   2    -0.303759726066E+03   -0.84401E-09    0.00000E+00     4   0.152E-10
  63 F= -.30375973E+03 E0= -.30380782E+03  d E =-.654836E-10
       N       E                     dE             d eps       ncg     rms          rms(c)
DAV:   1    -0.303759726066E+03   -0.66211E-09   -0.72622E-11   312   0.241E-10    0.326E-10
RMM:   2    -0.303759726066E+03   -0.72760E-10    0.00000E+00     4   0.156E-10
  64 F= -.30375973E+03 E0= -.30380782E+03  d E =0.109139E-09
       N       E                     dE             d eps       ncg     rms          rms(c)
DAV:   1    -0.303759726067E+03   -0.10768E-08    0.23968E-11   312   0.237E-10    0.316E-10
RMM:   2    -0.303759726066E+03    0.10041E-08    0.00000E+00     4   0.132E-10
  65 F= -.30375973E+03 E0= -.30380782E+03  d E =0.000000E+00
       N       E                     dE             d eps       ncg     rms          rms(c)
DAV:   1    -0.303759726067E+03    0.64756E-09    0.73986E-11   312   0.256E-10    0.254E-10
RMM:   2    -0.303759726066E+03    0.29104E-09    0.00000E+00     4   0.105E-10
  66 F= -.30375973E+03 E0= -.30380782E+03  d E =-.654836E-10
       N       E                     dE             d eps       ncg     rms          rms(c)
DAV:   1    -0.303759726065E+03    0.15789E-08   -0.20135E-10   312   0.203E-10    0.241E-10
RMM:   2    -0.303759726066E+03   -0.12806E-08    0.00000E+00     3   0.108E-10
  67 F= -.30375973E+03 E0= -.30380782E+03  d E =0.727596E-11
       N       E                     dE             d eps       ncg     rms          rms(c)
DAV:   1    -0.303759726066E+03   -0.75670E-09    0.69830E-12   312   0.223E-10    0.391E-10
RMM:   2    -0.303759726066E+03   -0.54570E-09    0.00000E+00     4   0.138E-10
  68 F= -.30375973E+03 E0= -.30380782E+03  d E =-.218279E-10
       N       E                     dE             d eps       ncg     rms          rms(c)
DAV:   1    -0.303759726067E+03   -0.11350E-08   -0.87345E-11   312   0.319E-10    0.314E-10
RMM:   2    -0.303759726066E+03    0.61118E-09    0.00000E+00     3   0.107E-10
  69 F= -.30375973E+03 E0= -.30380782E+03  d E =0.218279E-10
       N       E                     dE             d eps       ncg     rms          rms(c)
DAV:   1    -0.303759726066E+03    0.58208E-09    0.68900E-11   312   0.210E-10    0.172E-10
RMM:   2    -0.303759726066E+03   -0.72760E-11    0.00000E+00     4   0.952E-11
  70 F= -.30375973E+03 E0= -.30380782E+03  d E =-.363798E-10
       N       E                     dE             d eps       ncg     rms          rms(c)
DAV:   1    -0.303759726067E+03   -0.30559E-09   -0.81837E-11   312   0.166E-10    0.275E-10
RMM:   2    -0.303759726066E+03    0.36380E-09    0.00000E+00     3   0.928E-11
  71 F= -.30375973E+03 E0= -.30380782E+03  d E =0.654836E-10
       N       E                     dE             d eps       ncg     rms          rms(c)
DAV:   1    -0.303759726066E+03    0.67666E-09    0.16910E-10   312   0.157E-10    0.240E-10
RMM:   2    -0.303759726066E+03   -0.29104E-09    0.00000E+00     4   0.939E-11
  72 F= -.30375973E+03 E0= -.30380782E+03  d E =0.218279E-10
       N       E                     dE             d eps       ncg     rms          rms(c)
DAV:   1    -0.303759726066E+03   -0.26921E-09   -0.20547E-12   312   0.137E-10    0.354E-10
RMM:   2    -0.303759726066E+03   -0.80036E-10    0.00000E+00     3   0.121E-10
  73 F= -.30375973E+03 E0= -.30380782E+03  d E =-.582077E-10
       N       E                     dE             d eps       ncg     rms          rms(c)
DAV:   1    -0.303759726066E+03    0.23283E-09    0.12698E-10   312   0.225E-10    0.264E-10
RMM:   2    -0.303759726066E+03   -0.35652E-09    0.00000E+00     4   0.860E-11
  74 F= -.30375973E+03 E0= -.30380782E+03  d E =-.436557E-10
       N       E                     dE             d eps       ncg     rms          rms(c)
DAV:   1    -0.303759726066E+03   -0.72760E-11    0.89327E-11   312   0.167E-10    0.226E-10
RMM:   2    -0.303759726066E+03   -0.35652E-09    0.00000E+00     3   0.817E-11
  75 F= -.30375973E+03 E0= -.30380782E+03  d E =-.727596E-11
       N       E                     dE             d eps       ncg     rms          rms(c)
DAV:   1    -0.303759726066E+03   -0.15280E-09   -0.30045E-11   312   0.219E-10    0.190E-10
RMM:   2    -0.303759726066E+03   -0.21828E-10    0.00000E+00     3   0.742E-11
  76 F= -.30375973E+03 E0= -.30380782E+03  d E =0.181899E-09
       N       E                     dE             d eps       ncg     rms          rms(c)
DAV:   1    -0.303759726065E+03    0.14843E-08   -0.10802E-10   312   0.116E-10    0.241E-10
RMM:   2    -0.303759726066E+03   -0.17026E-08    0.00000E+00     3   0.906E-11
  77 F= -.30375973E+03 E0= -.30380782E+03  d E =-.196451E-09
       N       E                     dE             d eps       ncg     rms          rms(c)
DAV:   1    -0.303759726067E+03   -0.17972E-08   -0.70526E-11   312   0.119E-10    0.301E-10
RMM:   2    -0.303759726066E+03    0.16735E-09    0.00000E+00     3   0.831E-11
  78 F= -.30375973E+03 E0= -.30380782E+03  d E =0.727596E-10
       N       E                     dE             d eps       ncg     rms          rms(c)
DAV:   1    -0.303759726065E+03    0.13824E-08   -0.99004E-11   312   0.194E-10    0.310E-10
RMM:   2    -0.303759726066E+03   -0.11642E-08    0.00000E+00     3   0.900E-11
  79 F= -.30375973E+03 E0= -.30380782E+03  d E =0.509317E-10
       N       E                     dE             d eps       ncg     rms          rms(c)
DAV:   1    -0.303759726067E+03   -0.15280E-08    0.23140E-10   312   0.172E-10    0.229E-10
RMM:   2    -0.303759726066E+03    0.27649E-09    0.00000E+00     3   0.793E-11
  80 F= -.30375973E+03 E0= -.30380782E+03  d E =-.873115E-10
       N       E                     dE             d eps       ncg     rms          rms(c)
DAV:   1    -0.303759726066E+03    0.48749E-09    0.19195E-10   312   0.136E-10    0.374E-10
RMM:   2    -0.303759726066E+03   -0.15280E-09    0.00000E+00     3   0.128E-10
  81 F= -.30375973E+03 E0= -.30380782E+03  d E =0.582077E-10
       N       E                     dE             d eps       ncg     rms          rms(c)
DAV:   1    -0.303759726066E+03    0.35652E-09    0.10891E-10   312   0.436E-10    0.387E-10
RMM:   2    -0.303759726066E+03   -0.58935E-09    0.00000E+00     3   0.130E-10
  82 F= -.30375973E+03 E0= -.30380782E+03  d E =-.800355E-10
       N       E                     dE             d eps       ncg     rms          rms(c)
DAV:   1    -0.303759726066E+03   -0.25466E-09    0.52807E-11   312   0.320E-10    0.228E-10
RMM:   2    -0.303759726066E+03   -0.29104E-09    0.00000E+00     3   0.817E-11
  83 F= -.30375973E+03 E0= -.30380782E+03  d E =0.436557E-10
       N       E                     dE             d eps       ncg     rms          rms(c)
DAV:   1    -0.303759726067E+03   -0.13169E-08   -0.69231E-11   312   0.123E-10    0.248E-10
RMM:   2    -0.303759726066E+03    0.10405E-08    0.00000E+00     3   0.867E-11
  84 F= -.30375973E+03 E0= -.30380782E+03  d E =0.145519E-10
       N       E                     dE             d eps       ncg     rms          rms(c)
DAV:   1    -0.303759726066E+03    0.10696E-08    0.14668E-10   312   0.183E-10    0.331E-10
RMM:   2    -0.303759726066E+03   -0.50932E-10    0.00000E+00     3   0.978E-11
  85 F= -.30375973E+03 E0= -.30380782E+03  d E =-.218279E-10
       N       E                     dE             d eps       ncg     rms          rms(c)
DAV:   1    -0.303759726068E+03   -0.13388E-08   -0.76432E-11   312   0.217E-10    0.247E-10
RMM:   2    -0.303759726066E+03    0.12733E-08    0.00000E+00     3   0.922E-11
  86 F= -.30375973E+03 E0= -.30380782E+03  d E =-.145519E-10
       N       E                     dE             d eps       ncg     rms          rms(c)
DAV:   1    -0.303759726066E+03    0.16225E-08    0.26756E-11   312   0.266E-10    0.223E-10
RMM:   2    -0.303759726066E+03   -0.24011E-09    0.00000E+00     3   0.819E-11
  87 F= -.30375973E+03 E0= -.30380782E+03  d E =0.109139E-09
       N       E                     dE             d eps       ncg     rms          rms(c)
DAV:   1    -0.303759726066E+03   -0.16735E-09    0.14649E-10   312   0.206E-10    0.339E-10
RMM:   2    -0.303759726066E+03   -0.13097E-09    0.00000E+00     3   0.114E-10
  88 F= -.30375973E+03 E0= -.30380782E+03  d E =-.582077E-10
       N       E                     dE             d eps       ncg     rms          rms(c)
DAV:   1    -0.303759726067E+03   -0.64028E-09   -0.90889E-12   312   0.401E-10    0.175E-10
RMM:   2    -0.303759726066E+03    0.48749E-09    0.00000E+00     3   0.826E-11
  89 F= -.30375973E+03 E0= -.30380782E+03  d E =-.218279E-10
       N       E                     dE             d eps       ncg     rms          rms(c)
DAV:   1    -0.303759726066E+03    0.12878E-08    0.28251E-10   312   0.953E-11    0.281E-10
RMM:   2    -0.303759726066E+03   -0.66211E-09    0.00000E+00     3   0.882E-11
  90 F= -.30375973E+03 E0= -.30380782E+03  d E =0.138243E-09
       N       E                     dE             d eps       ncg     rms          rms(c)
DAV:   1    -0.303759726066E+03   -0.94587E-10   -0.12865E-10   312   0.167E-10    0.266E-10
RMM:   2    -0.303759726066E+03   -0.69122E-09    0.00000E+00     3   0.835E-11
  91 F= -.30375973E+03 E0= -.30380782E+03  d E =-.123691E-09
       N       E                     dE             d eps       ncg     rms          rms(c)
DAV:   1    -0.303759726066E+03   -0.45839E-09    0.61413E-11   312   0.104E-10    0.305E-10
RMM:   2    -0.303759726066E+03   -0.25466E-09    0.00000E+00     3   0.730E-11
  92 F= -.30375973E+03 E0= -.30380782E+03  d E =-.218279E-10
       N       E                     dE             d eps       ncg     rms          rms(c)
DAV:   1    -0.303759726066E+03   -0.31287E-09   -0.23638E-10   312   0.148E-10    0.409E-10
RMM:   2    -0.303759726066E+03    0.13097E-09    0.00000E+00     2   0.114E-10
  93 F= -.30375973E+03 E0= -.30380782E+03  d E =0.727596E-10
       N       E                     dE             d eps       ncg     rms          rms(c)
DAV:   1    -0.303759726067E+03   -0.18917E-09   -0.71521E-11   312   0.221E-10    0.229E-10
RMM:   2    -0.303759726066E+03    0.22555E-09    0.00000E+00     3   0.930E-11
  94 F= -.30375973E+03 E0= -.30380782E+03  d E =-.945874E-10
       N       E                     dE             d eps       ncg     rms          rms(c)
DAV:   1    -0.303759726067E+03   -0.30559E-09    0.37839E-11   312   0.151E-10    0.369E-10
RMM:   2    -0.303759726066E+03    0.50204E-09    0.00000E+00     3   0.115E-10
  95 F= -.30375973E+03 E0= -.30380782E+03  d E =-.291038E-10
       N       E                     dE             d eps       ncg     rms          rms(c)
DAV:   1    -0.303759726066E+03    0.85856E-09   -0.12574E-10   312   0.276E-10    0.331E-10
RMM:   2    -0.303759726066E+03   -0.16007E-09    0.00000E+00     2   0.107E-10
  96 F= -.30375973E+03 E0= -.30380782E+03  d E =0.196451E-09
       N       E                     dE             d eps       ncg     rms          rms(c)
DAV:   1    -0.303759726067E+03   -0.13169E-08   -0.13550E-10   312   0.374E-10    0.173E-10
RMM:   2    -0.303759726066E+03    0.10623E-08    0.00000E+00     2   0.838E-11
  97 F= -.30375973E+03 E0= -.30380782E+03  d E =-.945874E-10
       N       E                     dE             d eps       ncg     rms          rms(c)
DAV:   1    -0.303759726067E+03   -0.72760E-11    0.11199E-10   312   0.136E-10    0.472E-10
RMM:   2    -0.303759726066E+03    0.10696E-08    0.00000E+00     2   0.144E-10
  98 F= -.30375973E+03 E0= -.30380782E+03  d E =0.000000E+00
       N       E                     dE             d eps       ncg     rms          rms(c)
DAV:   1    -0.303759726066E+03    0.10696E-08    0.66509E-11   312   0.480E-10    0.206E-10
RMM:   2    -0.303759726066E+03   -0.29104E-10    0.00000E+00     2   0.844E-11
  99 F= -.30375973E+03 E0= -.30380782E+03  d E =-.291038E-10
       N       E                     dE             d eps       ncg     rms          rms(c)
DAV:   1    -0.303759726067E+03   -0.13097E-09    0.67029E-11   312   0.103E-10    0.254E-10
RMM:   2    -0.303759726066E+03    0.87311E-10    0.00000E+00     2   0.860E-11
 100 F= -.30375973E+03 E0= -.30380782E+03  d E =-.145519E-10
       N       E                     dE             d eps       ncg     rms          rms(c)
DAV:   1    -0.303759726067E+03   -0.85856E-09   -0.13372E-10   312   0.168E-10    0.244E-10
RMM:   2    -0.303759726066E+03    0.93132E-09    0.00000E+00     2   0.748E-11
 101 F= -.30375973E+03 E0= -.30380782E+03  d E =-.145519E-10
       N       E                     dE             d eps       ncg     rms          rms(c)
DAV:   1    -0.303759726067E+03    0.10914E-09   -0.44461E-11   312   0.228E-10    0.260E-10
RMM:   2    -0.303759726066E+03    0.77125E-09    0.00000E+00     2   0.882E-11
 102 F= -.30375973E+03 E0= -.30380782E+03  d E =-.509317E-10
       N       E                     dE             d eps       ncg     rms          rms(c)
DAV:   1    -0.303759726066E+03    0.15643E-08    0.21720E-10   312   0.201E-10    0.197E-10
RMM:   2    -0.303759726066E+03   -0.77125E-09    0.00000E+00     2   0.803E-11
 103 F= -.30375973E+03 E0= -.30380782E+03  d E =0.218279E-10
       N       E                     dE             d eps       ncg     rms          rms(c)
DAV:   1    -0.303759726065E+03    0.51659E-09    0.33787E-11   312   0.120E-10    0.387E-10
RMM:   2    -0.303759726066E+03   -0.12878E-08    0.00000E+00     2   0.104E-10
 104 F= -.30375973E+03 E0= -.30380782E+03  d E =0.000000E+00
       N       E                     dE             d eps       ncg     rms          rms(c)
DAV:   1    -0.303759726067E+03   -0.19427E-08    0.78928E-11   312   0.211E-10    0.264E-10
RMM:   2    -0.303759726066E+03    0.61846E-09    0.00000E+00     2   0.873E-11
 105 F= -.30375973E+03 E0= -.30380782E+03  d E =-.363798E-10
       N       E                     dE             d eps       ncg     rms          rms(c)
DAV:   1    -0.303759726067E+03    0.24738E-09    0.14107E-10   312   0.217E-10    0.253E-10
RMM:   2    -0.303759726066E+03    0.50204E-09    0.00000E+00     2   0.904E-11
 106 F= -.30375973E+03 E0= -.30380782E+03  d E =0.130967E-09
       N       E                     dE             d eps       ncg     rms          rms(c)
DAV:   1    -0.303759726066E+03    0.13461E-08    0.26250E-10   312   0.217E-10    0.230E-10
RMM:   2    -0.303759726066E+03   -0.79308E-09    0.00000E+00     2   0.766E-11
 107 F= -.30375973E+03 E0= -.30380782E+03  d E =0.509317E-10
       N       E                     dE             d eps       ncg     rms          rms(c)
DAV:   1    -0.303759726067E+03   -0.98953E-09   -0.28059E-10   312   0.192E-10    0.286E-10
RMM:   2    -0.303759726066E+03    0.94587E-10    0.00000E+00     2   0.834E-11
 108 F= -.30375973E+03 E0= -.30380782E+03  d E =-.101863E-09
       N       E                     dE             d eps       ncg     rms          rms(c)
DAV:   1    -0.303759726066E+03    0.71304E-09   -0.27270E-10   312   0.184E-10    0.242E-10
RMM:   2    -0.303759726066E+03   -0.54570E-09    0.00000E+00     2   0.895E-11
 109 F= -.30375973E+03 E0= -.30380782E+03  d E =0.727596E-10
       N       E                     dE             d eps       ncg     rms          rms(c)
DAV:   1    -0.303759726066E+03   -0.20373E-09    0.11612E-12   312   0.208E-10    0.289E-10
RMM:   2    -0.303759726066E+03   -0.43656E-09    0.00000E+00     2   0.977E-11
 110 F= -.30375973E+03 E0= -.30380782E+03  d E =-.945874E-10
       N       E                     dE             d eps       ncg     rms          rms(c)
DAV:   1    -0.303759726065E+03    0.74215E-09    0.21582E-10   312   0.266E-10    0.297E-10
RMM:   2    -0.303759726066E+03   -0.11423E-08    0.00000E+00     2   0.889E-11
 111 F= -.30375973E+03 E0= -.30380782E+03  d E =0.363798E-10
       N       E                     dE             d eps       ncg     rms          rms(c)
DAV:   1    -0.303759726066E+03   -0.72032E-09    0.64216E-11   312   0.218E-10    0.385E-10
RMM:   2    -0.303759726066E+03   -0.49477E-09    0.00000E+00     2   0.103E-10
 112 F= -.30375973E+03 E0= -.30380782E+03  d E =-.727596E-10
       N       E                     dE             d eps       ncg     rms          rms(c)
DAV:   1    -0.303759726065E+03    0.12151E-08   -0.64947E-11   312   0.322E-10    0.390E-10
RMM:   2    -0.303759726066E+03   -0.15862E-08    0.00000E+00     2   0.106E-10
 113 F= -.30375973E+03 E0= -.30380782E+03  d E =0.123691E-09
       N       E                     dE             d eps       ncg     rms          rms(c)
DAV:   1    -0.303759726067E+03   -0.17608E-08   -0.15113E-10   312   0.230E-10    0.343E-10
RMM:   2    -0.303759726066E+03    0.20373E-09    0.00000E+00     2   0.105E-10
 114 F= -.30375973E+03 E0= -.30380782E+03  d E =0.291038E-10
       N       E                     dE             d eps       ncg     rms          rms(c)
DAV:   1    -0.303759726066E+03    0.30559E-09   -0.25281E-10   312   0.222E-10    0.209E-10
RMM:   2    -0.303759726066E+03   -0.16735E-09    0.00000E+00     2   0.789E-11
 115 F= -.30375973E+03 E0= -.30380782E+03  d E =-.654836E-10
       N       E                     dE             d eps       ncg     rms          rms(c)
DAV:   1    -0.303759726066E+03    0.50932E-09   -0.40341E-12   312   0.137E-10    0.297E-10
RMM:   2    -0.303759726066E+03   -0.64028E-09    0.00000E+00     2   0.919E-11
 116 F= -.30375973E+03 E0= -.30380782E+03  d E =0.363798E-10
       N       E                     dE             d eps       ncg     rms          rms(c)
DAV:   1    -0.303759726067E+03   -0.11350E-08   -0.27393E-10   312   0.232E-10    0.266E-10
RMM:   2    -0.303759726066E+03    0.45839E-09    0.00000E+00     2   0.787E-11
 117 F= -.30375973E+03 E0= -.30380782E+03  d E =-.363798E-10
       N       E                     dE             d eps       ncg     rms          rms(c)
DAV:   1    -0.303759726067E+03    0.29831E-09   -0.23090E-10   312   0.202E-10    0.201E-10
RMM:   2    -0.303759726066E+03    0.22555E-09    0.00000E+00     2   0.667E-11
 118 F= -.30375973E+03 E0= -.30380782E+03  d E =0.654836E-10
       N       E                     dE             d eps       ncg     rms          rms(c)
DAV:   1    -0.303759726065E+03    0.11496E-08   -0.38843E-11   312   0.968E-11    0.264E-10
RMM:   2    -0.303759726066E+03   -0.94587E-09    0.00000E+00     2   0.679E-11
 119 F= -.30375973E+03 E0= -.30380782E+03  d E =-.218279E-10
       N       E                     dE             d eps       ncg     rms          rms(c)
DAV:   1    -0.303759726065E+03    0.66939E-09   -0.15313E-10   312   0.164E-10    0.293E-10
RMM:   2    -0.303759726066E+03   -0.16516E-08    0.00000E+00     2   0.947E-11
 120 F= -.30375973E+03 E0= -.30380782E+03  d E =-.363798E-10
       N       E                     dE             d eps       ncg     rms          rms(c)
DAV:   1    -0.303759726066E+03   -0.13024E-08    0.18806E-11   312   0.233E-10    0.176E-10
RMM:   2    -0.303759726066E+03   -0.30559E-09    0.00000E+00     2   0.676E-11
 121 F= -.30375973E+03 E0= -.30380782E+03  d E =0.436557E-10
       N       E                     dE             d eps       ncg     rms          rms(c)
DAV:   1    -0.303759726066E+03    0.38563E-09    0.10260E-10   312   0.109E-10    0.326E-10
RMM:   2    -0.303759726066E+03   -0.75670E-09    0.00000E+00     2   0.935E-11
 122 F= -.30375973E+03 E0= -.30380782E+03  d E =-.654836E-10
       N       E                     dE             d eps       ncg     rms          rms(c)
DAV:   1    -0.303759726066E+03   -0.47294E-09    0.74738E-11   312   0.267E-10    0.246E-10
RMM:   2    -0.303759726066E+03   -0.35652E-09    0.00000E+00     2   0.862E-11
 123 F= -.30375973E+03 E0= -.30380782E+03  d E =-.727596E-10
       N       E                     dE             d eps       ncg     rms          rms(c)
DAV:   1    -0.303759726067E+03   -0.69849E-09    0.48303E-12   312   0.202E-10    0.237E-10
RMM:   2    -0.303759726066E+03    0.40745E-09    0.00000E+00     2   0.909E-11
 124 F= -.30375973E+03 E0= -.30380782E+03  d E =0.654836E-10
       N       E                     dE             d eps       ncg     rms          rms(c)
DAV:   1    -0.303759726066E+03    0.43656E-09    0.46654E-11   312   0.270E-10    0.239E-10
RMM:   2    -0.303759726066E+03   -0.14552E-10    0.00000E+00     2   0.907E-11
 125 F= -.30375973E+03 E0= -.30380782E+03  d E =0.145519E-10
       N       E                     dE             d eps       ncg     rms          rms(c)
DAV:   1    -0.303759726067E+03   -0.67666E-09    0.60913E-11   312   0.233E-10    0.272E-10
RMM:   2    -0.303759726066E+03    0.62573E-09    0.00000E+00     2   0.853E-11
 126 F= -.30375973E+03 E0= -.30380782E+03  d E =-.363798E-10
       N       E                     dE             d eps       ncg     rms          rms(c)
DAV:   1    -0.303759726065E+03    0.17608E-08   -0.32748E-11   312   0.226E-10    0.212E-10
RMM:   2    -0.303759726066E+03   -0.11205E-08    0.00000E+00     2   0.750E-11
 127 F= -.30375973E+03 E0= -.30380782E+03  d E =0.145519E-10
       N       E                     dE             d eps       ncg     rms          rms(c)
DAV:   1    -0.303759726066E+03   -0.30559E-09   -0.92115E-12   312   0.174E-10    0.308E-10
RMM:   2    -0.303759726066E+03   -0.75670E-09    0.00000E+00     2   0.794E-11
 128 F= -.30375973E+03 E0= -.30380782E+03  d E =0.582077E-10
       N       E                     dE             d eps       ncg     rms          rms(c)
DAV:   1    -0.303759726067E+03   -0.15207E-08   -0.26614E-10   312   0.235E-10    0.181E-10
RMM:   2    -0.303759726066E+03    0.77125E-09    0.00000E+00     2   0.698E-11
 129 F= -.30375973E+03 E0= -.30380782E+03  d E =0.727596E-11
       N       E                     dE             d eps       ncg     rms          rms(c)
DAV:   1    -0.303759726067E+03   -0.20373E-09   -0.86649E-11   312   0.101E-10    0.262E-10
RMM:   2    -0.303759726066E+03    0.96043E-09    0.00000E+00     2   0.840E-11
 130 F= -.30375973E+03 E0= -.30380782E+03  d E =-.145519E-10
       N       E                     dE             d eps       ncg     rms          rms(c)
DAV:   1    -0.303759726066E+03    0.16153E-08   -0.11207E-10   312   0.220E-10    0.262E-10
RMM:   2    -0.303759726066E+03   -0.58935E-09    0.00000E+00     2   0.756E-11
 131 F= -.30375973E+03 E0= -.30380782E+03  d E =0.654836E-10
       N       E                     dE             d eps       ncg     rms          rms(c)
DAV:   1    -0.303759726066E+03   -0.34925E-09   -0.13689E-10   312   0.166E-10    0.211E-10
RMM:   2    -0.303759726066E+03   -0.36380E-09    0.00000E+00     2   0.761E-11
 132 F= -.30375973E+03 E0= -.30380782E+03  d E =-.123691E-09
       N       E                     dE             d eps       ncg     rms          rms(c)
DAV:   1    -0.303759726067E+03   -0.80763E-09   -0.11609E-10   312   0.145E-10    0.273E-10
RMM:   2    -0.303759726066E+03    0.44383E-09    0.00000E+00     2   0.821E-11
 133 F= -.30375973E+03 E0= -.30380782E+03  d E =0.000000E+00
       N       E                     dE             d eps       ncg     rms          rms(c)
DAV:   1    -0.303759726066E+03    0.77853E-09   -0.63296E-11   312   0.211E-10    0.219E-10
RMM:   2    -0.303759726066E+03   -0.29104E-09    0.00000E+00     2   0.810E-11
 134 F= -.30375973E+03 E0= -.30380782E+03  d E =0.436557E-10
       N       E                     dE             d eps       ncg     rms          rms(c)
DAV:   1    -0.303759726066E+03   -0.38563E-09    0.14721E-11   312   0.179E-10    0.283E-10
RMM:   2    -0.303759726066E+03    0.43656E-10    0.00000E+00     2   0.839E-11
 135 F= -.30375973E+03 E0= -.30380782E+03  d E =-.509317E-10
       N       E                     dE             d eps       ncg     rms          rms(c)
DAV:   1    -0.303759726066E+03    0.27649E-09   -0.89479E-11   312   0.198E-10    0.252E-10
RMM:   2    -0.303759726066E+03   -0.13097E-09    0.00000E+00     2   0.921E-11
 136 F= -.30375973E+03 E0= -.30380782E+03  d E =0.101863E-09
       N       E                     dE             d eps       ncg     rms          rms(c)
DAV:   1    -0.303759726066E+03   -0.50932E-10   -0.23635E-10   312   0.177E-10    0.204E-10
RMM:   2    -0.303759726066E+03   -0.14552E-09    0.00000E+00     2   0.668E-11
 137 F= -.30375973E+03 E0= -.30380782E+03  d E =-.654836E-10
       N       E                     dE             d eps       ncg     rms          rms(c)
DAV:   1    -0.303759726066E+03    0.28376E-09   -0.10682E-10   312   0.161E-10    0.255E-10
RMM:   2    -0.303759726066E+03   -0.38563E-09    0.00000E+00     2   0.705E-11
 138 F= -.30375973E+03 E0= -.30380782E+03  d E =0.436557E-10
       N       E                     dE             d eps       ncg     rms          rms(c)
DAV:   1    -0.303759726068E+03   -0.15862E-08    0.20769E-10   312   0.144E-10    0.259E-10
RMM:   2    -0.303759726066E+03    0.12151E-08    0.00000E+00     2   0.887E-11
 139 F= -.30375973E+03 E0= -.30380782E+03  d E =0.145519E-10
       N       E                     dE             d eps       ncg     rms          rms(c)
DAV:   1    -0.303759726067E+03    0.64028E-09   -0.20025E-10   312   0.208E-10    0.301E-10
RMM:   2    -0.303759726066E+03    0.48021E-09    0.00000E+00     2   0.913E-11
 140 F= -.30375973E+03 E0= -.30380782E+03  d E =-.945874E-10
       N       E                     dE             d eps       ncg     rms          rms(c)
DAV:   1    -0.303759726066E+03    0.59663E-09   -0.16056E-11   312   0.293E-10    0.200E-10
RMM:   2    -0.303759726066E+03   -0.13824E-09    0.00000E+00     2   0.733E-11
 141 F= -.30375973E+03 E0= -.30380782E+03  d E =-.218279E-10
       N       E                     dE             d eps       ncg     rms          rms(c)
DAV:   1    -0.303759726066E+03    0.10914E-09    0.38951E-11   312   0.916E-11    0.218E-10
RMM:   2    -0.303759726066E+03   -0.16735E-09    0.00000E+00     2   0.711E-11
 142 F= -.30375973E+03 E0= -.30380782E+03  d E =0.800355E-10
       N       E                     dE             d eps       ncg     rms          rms(c)
DAV:   1    -0.303759726067E+03   -0.11860E-08   -0.11914E-10   312   0.179E-10    0.291E-10
RMM:   2    -0.303759726066E+03    0.10114E-08    0.00000E+00     2   0.784E-11
 143 F= -.30375973E+03 E0= -.30380782E+03  d E =-.727596E-11
       N       E                     dE             d eps       ncg     rms          rms(c)
DAV:   1    -0.303759726066E+03    0.12733E-08    0.18402E-10   312   0.156E-10    0.226E-10
RMM:   2    -0.303759726066E+03   -0.21828E-09    0.00000E+00     2   0.772E-11
 144 F= -.30375973E+03 E0= -.30380782E+03  d E =0.436557E-10
       N       E                     dE             d eps       ncg     rms          rms(c)
DAV:   1    -0.303759726066E+03    0.48021E-09    0.16407E-10   312   0.137E-10    0.317E-10
RMM:   2    -0.303759726066E+03   -0.80036E-09    0.00000E+00     2   0.937E-11
 145 F= -.30375973E+03 E0= -.30380782E+03  d E =-.101863E-09
       N       E                     dE             d eps       ncg     rms          rms(c)
DAV:   1    -0.303759726065E+03    0.42201E-09   -0.12283E-10   312   0.165E-10    0.254E-10
RMM:   2    -0.303759726066E+03   -0.11496E-08    0.00000E+00     2   0.775E-11
 146 F= -.30375973E+03 E0= -.30380782E+03  d E =0.727596E-10
       N       E                     dE             d eps       ncg     rms          rms(c)
DAV:   1    -0.303759726066E+03   -0.11787E-08   -0.93786E-11   312   0.204E-10    0.230E-10
RMM:   2    -0.303759726066E+03    0.36380E-10    0.00000E+00     2   0.816E-11
 147 F= -.30375973E+03 E0= -.30380782E+03  d E =0.727596E-11
       N       E                     dE             d eps       ncg     rms          rms(c)
DAV:   1    -0.303759726067E+03   -0.34197E-09    0.20174E-11   312   0.173E-10    0.306E-10
RMM:   2    -0.303759726066E+03    0.26193E-09    0.00000E+00     2   0.103E-10
 148 F= -.30375973E+03 E0= -.30380782E+03  d E =-.116415E-09
       N       E                     dE             d eps       ncg     rms          rms(c)
DAV:   1    -0.303759726067E+03    0.36380E-10    0.39213E-10   312   0.286E-10    0.210E-10
RMM:   2    -0.303759726066E+03    0.31287E-09    0.00000E+00     2   0.674E-11
 149 F= -.30375973E+03 E0= -.30380782E+03  d E =0.873115E-10
       N       E                     dE             d eps       ncg     rms          rms(c)
DAV:   1    -0.303759726065E+03    0.19500E-08    0.35598E-11   312   0.980E-11    0.269E-10
RMM:   2    -0.303759726066E+03   -0.16662E-08    0.00000E+00     2   0.752E-11
 150 F= -.30375973E+03 E0= -.30380782E+03  d E =-.291038E-10
       N       E                     dE             d eps       ncg     rms          rms(c)
DAV:   1    -0.303759726067E+03   -0.20300E-08   -0.94129E-12   312   0.201E-10    0.191E-10
RMM:   2    -0.303759726066E+03    0.40745E-09    0.00000E+00     2   0.686E-11
 151 F= -.30375973E+03 E0= -.30380782E+03  d E =0.436557E-10
       N       E                     dE             d eps       ncg     rms          rms(c)
DAV:   1    -0.303759726065E+03    0.21028E-08   -0.21920E-10   312   0.106E-10    0.312E-10
RMM:   2    -0.303759726066E+03   -0.17753E-08    0.00000E+00     2   0.868E-11
 152 F= -.30375973E+03 E0= -.30380782E+03  d E =-.800355E-10
       N       E                     dE             d eps       ncg     rms          rms(c)
DAV:   1    -0.303759726065E+03   -0.80763E-09   -0.11123E-10   312   0.198E-10    0.261E-10
RMM:   2    -0.303759726066E+03   -0.82218E-09    0.00000E+00     2   0.841E-11
 153 F= -.30375973E+03 E0= -.30380782E+03  d E =0.145519E-09
       N       E                     dE             d eps       ncg     rms          rms(c)
DAV:   1    -0.303759726067E+03   -0.13242E-08    0.11710E-10   312   0.150E-10    0.240E-10
RMM:   2    -0.303759726066E+03    0.48021E-09    0.00000E+00     2   0.837E-11
 154 F= -.30375973E+03 E0= -.30380782E+03  d E =-.218279E-10
       N       E                     dE             d eps       ncg     rms          rms(c)
DAV:   1    -0.303759726066E+03    0.39290E-09   -0.39815E-11   312   0.164E-10    0.321E-10
RMM:   2    -0.303759726066E+03   -0.50932E-10    0.00000E+00     2   0.988E-11
 155 F= -.30375973E+03 E0= -.30380782E+03  d E =-.138243E-09
       N       E                     dE             d eps       ncg     rms          rms(c)
DAV:   1    -0.303759726068E+03   -0.15934E-08   -0.89367E-11   312   0.248E-10    0.409E-10
RMM:   2    -0.303759726066E+03    0.17317E-08    0.00000E+00     2   0.120E-10
 156 F= -.30375973E+03 E0= -.30380782E+03  d E =0.189175E-09
       N       E                     dE             d eps       ncg     rms          rms(c)
DAV:   1    -0.303759726066E+03    0.21828E-08    0.14730E-10   312   0.214E-10    0.303E-10
RMM:   2    -0.303759726066E+03   -0.65484E-09    0.00000E+00     2   0.961E-11
 157 F= -.30375973E+03 E0= -.30380782E+03  d E =-.203727E-09
       N       E                     dE             d eps       ncg     rms          rms(c)
DAV:   1    -0.303759726066E+03   -0.56752E-09    0.31100E-10   312   0.315E-10    0.368E-10
RMM:   2    -0.303759726066E+03   -0.58208E-10    0.00000E+00     2   0.115E-10
 158 F= -.30375973E+03 E0= -.30380782E+03  d E =0.291038E-10
       N       E                     dE             d eps       ncg     rms          rms(c)
DAV:   1    -0.303759726067E+03   -0.18190E-09   -0.14222E-10   312   0.199E-10    0.367E-10
RMM:   2    -0.303759726066E+03    0.12369E-09    0.00000E+00     2   0.110E-10
 159 F= -.30375973E+03 E0= -.30380782E+03  d E =0.000000E+00
       N       E                     dE             d eps       ncg     rms          rms(c)
DAV:   1    -0.303759726068E+03   -0.95315E-09    0.17665E-10   312   0.177E-10    0.273E-10
RMM:   2    -0.303759726066E+03    0.11569E-08    0.00000E+00     2   0.846E-11
 160 F= -.30375973E+03 E0= -.30380782E+03  d E =0.800355E-10
       N       E                     dE             d eps       ncg     rms          rms(c)
DAV:   1    -0.303759726067E+03    0.95315E-09   -0.38775E-14   312   0.227E-10    0.284E-10
RMM:   2    -0.303759726066E+03    0.18917E-09    0.00000E+00     2   0.106E-10
 161 F= -.30375973E+03 E0= -.30380782E+03  d E =-.145519E-10
       N       E                     dE             d eps       ncg     rms          rms(c)
DAV:   1    -0.303759726068E+03   -0.14770E-08   -0.94514E-11   312   0.360E-10    0.377E-10
RMM:   2    -0.303759726066E+03    0.17462E-08    0.00000E+00     2   0.112E-10
 162 F= -.30375973E+03 E0= -.30380782E+03  d E =0.800355E-10
       N       E                     dE             d eps       ncg     rms          rms(c)
DAV:   1    -0.303759726066E+03    0.17171E-08   -0.13463E-11   312   0.356E-10    0.209E-10
RMM:   2    -0.303759726066E+03   -0.65484E-10    0.00000E+00     2   0.808E-11
 163 F= -.30375973E+03 E0= -.30380782E+03  d E =-.945874E-10
       N       E                     dE             d eps       ncg     rms          rms(c)
DAV:   1    -0.303759726066E+03    0.69122E-09    0.20753E-10   312   0.231E-10    0.224E-10
RMM:   2    -0.303759726066E+03   -0.80763E-09    0.00000E+00     2   0.788E-11
 164 F= -.30375973E+03 E0= -.30380782E+03  d E =-.509317E-10
       N       E                     dE             d eps       ncg     rms          rms(c)
DAV:   1    -0.303759726066E+03    0.12369E-09    0.21786E-11   312   0.134E-10    0.302E-10
RMM:   2    -0.303759726066E+03   -0.80763E-09    0.00000E+00     2   0.931E-11
 165 F= -.30375973E+03 E0= -.30380782E+03  d E =0.123691E-09
       N       E                     dE             d eps       ncg     rms          rms(c)
DAV:   1    -0.303759726067E+03   -0.15207E-08    0.22360E-11   312   0.233E-10    0.254E-10
RMM:   2    -0.303759726066E+03    0.64756E-09    0.00000E+00     2   0.846E-11
 166 F= -.30375973E+03 E0= -.30380782E+03  d E =-.654836E-10
       N       E                     dE             d eps       ncg     rms          rms(c)
DAV:   1    -0.303759726065E+03    0.21464E-08   -0.10549E-10   312   0.169E-10    0.300E-10
RMM:   2    -0.303759726066E+03   -0.15934E-08    0.00000E+00     2   0.955E-11
 167 F= -.30375973E+03 E0= -.30380782E+03  d E =-.945874E-10
       N       E                     dE             d eps       ncg     rms          rms(c)
DAV:   1    -0.303759726067E+03   -0.20227E-08    0.20886E-10   312   0.215E-10    0.279E-10
RMM:   2    -0.303759726066E+03    0.54570E-09    0.00000E+00     2   0.965E-11
 168 F= -.30375973E+03 E0= -.30380782E+03  d E =0.116415E-09
       N       E                     dE             d eps       ncg     rms          rms(c)
DAV:   1    -0.303759726067E+03    0.12369E-09   -0.76974E-11   312   0.301E-10    0.297E-10
RMM:   2    -0.303759726066E+03    0.40018E-09    0.00000E+00     2   0.110E-10
 169 F= -.30375973E+03 E0= -.30380782E+03  d E =-.218279E-10
       N       E                     dE             d eps       ncg     rms          rms(c)
DAV:   1    -0.303759726067E+03    0.13824E-09   -0.69755E-11   312   0.290E-10    0.286E-10
RMM:   2    -0.303759726066E+03    0.29104E-09    0.00000E+00     2   0.100E-10
 170 F= -.30375973E+03 E0= -.30380782E+03  d E =0.291038E-10
       N       E                     dE             d eps       ncg     rms          rms(c)
DAV:   1    -0.303759726066E+03    0.69122E-09    0.10160E-10   312   0.307E-10    0.206E-10
RMM:   2    -0.303759726066E+03   -0.47294E-09    0.00000E+00     2   0.698E-11
 171 F= -.30375973E+03 E0= -.30380782E+03  d E =-.727596E-10
       N       E                     dE             d eps       ncg     rms          rms(c)
DAV:   1    -0.303759726066E+03    0.30559E-09   -0.49345E-11   312   0.201E-10    0.228E-10
RMM:   2    -0.303759726066E+03   -0.81491E-09    0.00000E+00     2   0.778E-11
 172 F= -.30375973E+03 E0= -.30380782E+03  d E =-.363798E-10
       N       E                     dE             d eps       ncg     rms          rms(c)
DAV:   1    -0.303759726065E+03    0.17462E-09   -0.68696E-12   312   0.208E-10    0.195E-10
RMM:   2    -0.303759726066E+03   -0.90222E-09    0.00000E+00     2   0.679E-11
 173 F= -.30375973E+03 E0= -.30380782E+03  d E =0.873115E-10
       N       E                     dE             d eps       ncg     rms          rms(c)
DAV:   1    -0.303759726065E+03    0.18190E-09    0.31012E-11   312   0.108E-10    0.251E-10
RMM:   2    -0.303759726066E+03   -0.10259E-08    0.00000E+00     2   0.729E-11
 174 F= -.30375973E+03 E0= -.30380782E+03  d E =0.582077E-10
       N       E                     dE             d eps       ncg     rms          rms(c)
DAV:   1    -0.303759726067E+03   -0.15571E-08   -0.18769E-10   312   0.131E-10    0.293E-10
RMM:   2    -0.303759726066E+03    0.45839E-09    0.00000E+00     2   0.102E-10
 175 F= -.30375973E+03 E0= -.30380782E+03  d E =-.727596E-10
       N       E                     dE             d eps       ncg     rms          rms(c)
DAV:   1    -0.303759726067E+03    0.26921E-09    0.44581E-11   312   0.263E-10    0.234E-10
RMM:   2    -0.303759726066E+03    0.27649E-09    0.00000E+00     2   0.817E-11
 176 F= -.30375973E+03 E0= -.30380782E+03  d E =0.873115E-10
       N       E                     dE             d eps       ncg     rms          rms(c)
DAV:   1    -0.303759726066E+03    0.83674E-09    0.81874E-11   312   0.191E-10    0.230E-10
RMM:   2    -0.303759726066E+03   -0.63301E-09    0.00000E+00     2   0.735E-11
 177 F= -.30375973E+03 E0= -.30380782E+03  d E =-.727596E-10
       N       E                     dE             d eps       ncg     rms          rms(c)
DAV:   1    -0.303759726066E+03    0.80036E-10   -0.23508E-10   312   0.151E-10    0.307E-10
RMM:   2    -0.303759726066E+03   -0.76398E-09    0.00000E+00     2   0.776E-11
 178 F= -.30375973E+03 E0= -.30380782E+03  d E =-.509317E-10
       N       E                     dE             d eps       ncg     rms          rms(c)
DAV:   1    -0.303759726067E+03   -0.16807E-08   -0.17217E-10   312   0.183E-10    0.312E-10
RMM:   2    -0.303759726066E+03    0.96043E-09    0.00000E+00     2   0.932E-11
 179 F= -.30375973E+03 E0= -.30380782E+03  d E =0.436557E-10
       N       E                     dE             d eps       ncg     rms          rms(c)
DAV:   1    -0.303759726066E+03    0.14334E-08    0.46768E-11   312   0.225E-10    0.308E-10
RMM:   2    -0.303759726066E+03   -0.56752E-09    0.00000E+00     2   0.971E-11
 180 F= -.30375973E+03 E0= -.30380782E+03  d E =-.945874E-10
       N       E                     dE             d eps       ncg     rms          rms(c)
DAV:   1    -0.303759726067E+03   -0.10768E-08    0.31818E-10   312   0.189E-10    0.298E-10
RMM:   2    -0.303759726066E+03    0.52387E-09    0.00000E+00     2   0.941E-11
 181 F= -.30375973E+03 E0= -.30380782E+03  d E =0.145519E-10
       N       E                     dE             d eps       ncg     rms          rms(c)
DAV:   1    -0.303759726067E+03   -0.40018E-09   -0.57770E-11   312   0.296E-10    0.198E-10
RMM:   2    -0.303759726066E+03    0.10550E-08    0.00000E+00     2   0.788E-11
 182 F= -.30375973E+03 E0= -.30380782E+03  d E =0.130967E-09
       N       E                     dE             d eps       ncg     rms          rms(c)
DAV:   1    -0.303759726067E+03    0.61118E-09   -0.44557E-11   312   0.217E-10    0.297E-10
RMM:   2    -0.303759726066E+03    0.41473E-09    0.00000E+00     2   0.107E-10
 183 F= -.30375973E+03 E0= -.30380782E+03  d E =-.291038E-10
       N       E                     dE             d eps       ncg     rms          rms(c)
DAV:   1    -0.303759726067E+03   -0.15280E-09    0.19652E-10   312   0.308E-10    0.249E-10
RMM:   2    -0.303759726067E+03    0.40018E-09    0.00000E+00     2   0.819E-11
 184 F= -.30375973E+03 E0= -.30380782E+03  d E =-.167347E-09
       N       E                     dE             d eps       ncg     rms          rms(c)
DAV:   1    -0.303759726067E+03    0.30559E-09    0.22709E-11   312   0.193E-10    0.413E-10
RMM:   2    -0.303759726066E+03    0.35652E-09    0.00000E+00     2   0.127E-10
 185 F= -.30375973E+03 E0= -.30380782E+03  d E =0.261934E-09
       N       E                     dE             d eps       ncg     rms          rms(c)
DAV:   1    -0.303759726066E+03    0.13824E-09   -0.13388E-10   312   0.366E-10    0.329E-10
RMM:   2    -0.303759726066E+03    0.12369E-09    0.00000E+00     2   0.991E-11
 186 F= -.30375973E+03 E0= -.30380782E+03  d E =-.945874E-10
       N       E                     dE             d eps       ncg     rms          rms(c)
DAV:   1    -0.303759726068E+03   -0.10114E-08    0.39248E-11   312   0.233E-10    0.275E-10
RMM:   2    -0.303759726066E+03    0.11059E-08    0.00000E+00     2   0.746E-11
 187 F= -.30375973E+03 E0= -.30380782E+03  d E =-.291038E-10
       N       E                     dE             d eps       ncg     rms          rms(c)
DAV:   1    -0.303759726066E+03    0.10623E-08   -0.49819E-11   312   0.217E-10    0.301E-10
RMM:   2    -0.303759726066E+03    0.43656E-10    0.00000E+00     2   0.894E-11
 188 F= -.30375973E+03 E0= -.30380782E+03  d E =0.000000E+00
       N       E                     dE             d eps       ncg     rms          rms(c)
DAV:   1    -0.303759726067E+03   -0.66211E-09   -0.21220E-10   312   0.199E-10    0.277E-10
RMM:   2    -0.303759726066E+03    0.67666E-09    0.00000E+00     2   0.852E-11
 189 F= -.30375973E+03 E0= -.30380782E+03  d E =-.291038E-10
       N       E                     dE             d eps       ncg     rms          rms(c)
DAV:   1    -0.303759726066E+03    0.79308E-09   -0.27494E-11   312   0.130E-10    0.315E-10
RMM:   2    -0.303759726066E+03   -0.10914E-09    0.00000E+00     2   0.889E-11
 190 F= -.30375973E+03 E0= -.30380782E+03  d E =0.727596E-11
       N       E                     dE             d eps       ncg     rms          rms(c)
DAV:   1    -0.303759726066E+03    0.64756E-09    0.21864E-10   312   0.287E-10    0.311E-10
RMM:   2    -0.303759726066E+03   -0.71304E-09    0.00000E+00     2   0.112E-10
 191 F= -.30375973E+03 E0= -.30380782E+03  d E =0.436557E-10
       N       E                     dE             d eps       ncg     rms          rms(c)
DAV:   1    -0.303759726066E+03   -0.66939E-09    0.66517E-11   312   0.366E-10    0.438E-10
RMM:   2    -0.303759726066E+03    0.21828E-10    0.00000E+00     2   0.137E-10
 192 F= -.30375973E+03 E0= -.30380782E+03  d E =0.654836E-10
       N       E                     dE             d eps       ncg     rms          rms(c)
DAV:   1    -0.303759726067E+03   -0.48021E-09    0.19505E-11   312   0.521E-10    0.352E-10
RMM:   2    -0.303759726066E+03    0.40745E-09    0.00000E+00     2   0.992E-11
 193 F= -.30375973E+03 E0= -.30380782E+03  d E =-.945874E-10
       N       E                     dE             d eps       ncg     rms          rms(c)
DAV:   1    -0.303759726065E+03    0.13970E-08    0.93790E-11   312   0.215E-10    0.367E-10
RMM:   2    -0.303759726066E+03   -0.86584E-09    0.00000E+00     2   0.104E-10
 194 F= -.30375973E+03 E0= -.30380782E+03  d E =0.123691E-09
       N       E                     dE             d eps       ncg     rms          rms(c)
DAV:   1    -0.303759726068E+03   -0.25175E-08   -0.77841E-11   312   0.194E-10    0.238E-10
RMM:   2    -0.303759726066E+03    0.14625E-08    0.00000E+00     2   0.898E-11
 195 F= -.30375973E+03 E0= -.30380782E+03  d E =-.189175E-09
       N       E                     dE             d eps       ncg     rms          rms(c)
DAV:   1    -0.303759726065E+03    0.27212E-08    0.25103E-11   312   0.190E-10    0.188E-10
RMM:   2    -0.303759726066E+03   -0.12587E-08    0.00000E+00     2   0.703E-11
 196 F= -.30375973E+03 E0= -.30380782E+03  d E =0.000000E+00
       N       E                     dE             d eps       ncg     rms          rms(c)
DAV:   1    -0.303759726066E+03   -0.74942E-09    0.15878E-10   312   0.140E-10    0.211E-10
RMM:   2    -0.303759726066E+03   -0.45111E-09    0.00000E+00     2   0.755E-11
 197 F= -.30375973E+03 E0= -.30380782E+03  d E =0.582077E-10
       N       E                     dE             d eps       ncg     rms          rms(c)
DAV:   1    -0.303759726066E+03   -0.40018E-09    0.71670E-11   312   0.178E-10    0.268E-10
RMM:   2    -0.303759726066E+03    0.65484E-10    0.00000E+00     2   0.725E-11
 198 F= -.30375973E+03 E0= -.30380782E+03  d E =0.116415E-09
       N       E                     dE             d eps       ncg     rms          rms(c)
DAV:   1    -0.303759726065E+03    0.10332E-08   -0.45738E-11   312   0.141E-10    0.246E-10
RMM:   2    -0.303759726066E+03   -0.10114E-08    0.00000E+00     2   0.823E-11
 199 F= -.30375973E+03 E0= -.30380782E+03  d E =-.436557E-10
       N       E                     dE             d eps       ncg     rms          rms(c)
DAV:   1    -0.303759726066E+03   -0.98953E-09   -0.55247E-11   312   0.160E-10    0.213E-10
RMM:   2    -0.303759726066E+03   -0.36380E-10    0.00000E+00     2   0.806E-11
 200 F= -.30375973E+03 E0= -.30380782E+03  d E =-.145519E-10
       N       E                     dE             d eps       ncg     rms          rms(c)
DAV:   1    -0.303759726065E+03    0.96770E-09   -0.16471E-10   312   0.149E-10    0.270E-10
RMM:   2    -0.303759726066E+03   -0.10550E-08    0.00000E+00     2   0.819E-11
 201 F= -.30375973E+03 E0= -.30380782E+03  d E =-.509317E-10
       N       E                     dE             d eps       ncg     rms          rms(c)
DAV:   1    -0.303759726066E+03   -0.10332E-08   -0.20707E-10   312   0.182E-10    0.280E-10
RMM:   2    -0.303759726066E+03    0.65484E-10    0.00000E+00     2   0.864E-11
 202 F= -.30375973E+03 E0= -.30380782E+03  d E =0.873115E-10
       N       E                     dE             d eps       ncg     rms          rms(c)
DAV:   1    -0.303759726066E+03   -0.29104E-10   -0.35847E-11   312   0.166E-10    0.197E-10
RMM:   2    -0.303759726066E+03    0.29104E-10    0.00000E+00     2   0.675E-11
 203 F= -.30375973E+03 E0= -.30380782E+03  d E =-.654836E-10
       N       E                     dE             d eps       ncg     rms          rms(c)
DAV:   1    -0.303759726066E+03    0.82946E-09    0.37983E-11   312   0.114E-10    0.331E-10
RMM:   2    -0.303759726066E+03   -0.90222E-09    0.00000E+00     2   0.803E-11
 204 F= -.30375973E+03 E0= -.30380782E+03  d E =-.101863E-09
       N       E                     dE             d eps       ncg     rms          rms(c)
DAV:   1    -0.303759726067E+03   -0.12878E-08    0.18732E-10   312   0.227E-10    0.297E-10
RMM:   2    -0.303759726066E+03    0.47294E-09    0.00000E+00     2   0.845E-11
 205 F= -.30375973E+03 E0= -.30380782E+03  d E =0.873115E-10
       N       E                     dE             d eps       ncg     rms          rms(c)
DAV:   1    -0.303759726066E+03    0.11496E-08    0.56989E-11   312   0.236E-10    0.260E-10
RMM:   2    -0.303759726067E+03   -0.79308E-09    0.00000E+00     2   0.878E-11
 206 F= -.30375973E+03 E0= -.30380782E+03  d E =-.116415E-09
       N       E                     dE             d eps       ncg     rms          rms(c)
DAV:   1    -0.303759726067E+03   -0.12005E-08    0.28695E-10   312   0.202E-10    0.329E-10
RMM:   2    -0.303759726066E+03    0.48749E-09    0.00000E+00     2   0.101E-10
 207 F= -.30375973E+03 E0= -.30380782E+03  d E =0.800355E-10
       N       E                     dE             d eps       ncg     rms          rms(c)
DAV:   1    -0.303759726067E+03   -0.18917E-09    0.15472E-10   312   0.266E-10    0.267E-10
RMM:   2    -0.303759726066E+03    0.73487E-09    0.00000E+00     2   0.917E-11
 208 F= -.30375973E+03 E0= -.30380782E+03  d E =0.582077E-10
       N       E                     dE             d eps       ncg     rms          rms(c)
DAV:   1    -0.303759726067E+03   -0.32014E-09   -0.62101E-11   312   0.191E-10    0.285E-10
RMM:   2    -0.303759726066E+03    0.11059E-08    0.00000E+00     2   0.851E-11
 209 F= -.30375973E+03 E0= -.30380782E+03  d E =0.509317E-10
       N       E                     dE             d eps       ncg     rms          rms(c)
DAV:   1    -0.303759726065E+03    0.21755E-08    0.17565E-10   312   0.166E-10    0.372E-10
RMM:   2    -0.303759726066E+03   -0.11569E-08    0.00000E+00     2   0.996E-11
 210 F= -.30375973E+03 E0= -.30380782E+03  d E =-.873115E-10
       N       E                     dE             d eps       ncg     rms          rms(c)
DAV:   1    -0.303759726066E+03   -0.11787E-08   -0.19195E-10   312   0.256E-10    0.299E-10
RMM:   2    -0.303759726066E+03    0.13824E-09    0.00000E+00     2   0.880E-11
 211 F= -.30375973E+03 E0= -.30380782E+03  d E =0.116415E-09
       N       E                     dE             d eps       ncg     rms          rms(c)
DAV:   1    -0.303759726066E+03    0.81491E-09   -0.53855E-11   312   0.234E-10    0.254E-10
RMM:   2    -0.303759726066E+03   -0.80036E-09    0.00000E+00     2   0.715E-11
 212 F= -.30375973E+03 E0= -.30380782E+03  d E =-.123691E-09
       N       E                     dE             d eps       ncg     rms          rms(c)
DAV:   1    -0.303759726067E+03   -0.16807E-08   -0.35924E-10   312   0.164E-10    0.331E-10
RMM:   2    -0.303759726066E+03    0.10041E-08    0.00000E+00     2   0.105E-10
 213 F= -.30375973E+03 E0= -.30380782E+03  d E =0.123691E-09
       N       E                     dE             d eps       ncg     rms          rms(c)
DAV:   1    -0.303759726066E+03    0.11205E-08   -0.62105E-11   312   0.185E-10    0.245E-10
RMM:   2    -0.303759726066E+03   -0.16007E-09    0.00000E+00     2   0.849E-11
 214 F= -.30375973E+03 E0= -.30380782E+03  d E =-.436557E-10
       N       E                     dE             d eps       ncg     rms          rms(c)
DAV:   1    -0.303759726066E+03   -0.58208E-10    0.68724E-11   312   0.196E-10    0.296E-10
RMM:   2    -0.303759726066E+03   -0.14552E-09    0.00000E+00     2   0.992E-11
 215 F= -.30375973E+03 E0= -.30380782E+03  d E =-.436557E-10
       N       E                     dE             d eps       ncg     rms          rms(c)
DAV:   1    -0.303759726065E+03    0.94587E-09    0.40407E-10   312   0.301E-10    0.395E-10
RMM:   2    -0.303759726066E+03   -0.11496E-08    0.00000E+00     2   0.112E-10
 216 F= -.30375973E+03 E0= -.30380782E+03  d E =-.582077E-10
       N       E                     dE             d eps       ncg     rms          rms(c)
DAV:   1    -0.303759726066E+03   -0.81491E-09    0.96044E-11   312   0.352E-10    0.398E-10
RMM:   2    -0.303759726066E+03   -0.35652E-09    0.00000E+00     2   0.115E-10
 217 F= -.30375973E+03 E0= -.30380782E+03  d E =-.218279E-10
       N       E                     dE             d eps       ncg     rms          rms(c)
DAV:   1    -0.303759726067E+03   -0.80036E-09   -0.12787E-11   312   0.291E-10    0.341E-10
RMM:   2    -0.303759726066E+03    0.50204E-09    0.00000E+00     2   0.102E-10
 218 F= -.30375973E+03 E0= -.30380782E+03  d E =0.582077E-10
       N       E                     dE             d eps       ncg     rms          rms(c)
DAV:   1    -0.303759726066E+03    0.74942E-09   -0.11520E-10   312   0.283E-10    0.378E-10
RMM:   2    -0.303759726066E+03   -0.32742E-09    0.00000E+00     2   0.119E-10
 219 F= -.30375973E+03 E0= -.30380782E+03  d E =-.800355E-10
       N       E                     dE             d eps       ncg     rms          rms(c)
DAV:   1    -0.303759726066E+03    0.66211E-09   -0.13659E-10   312   0.353E-10    0.277E-10
RMM:   2    -0.303759726066E+03   -0.96770E-09    0.00000E+00     2   0.867E-11
 220 F= -.30375973E+03 E0= -.30380782E+03  d E =0.218279E-10
       N       E                     dE             d eps       ncg     rms          rms(c)
DAV:   1    -0.303759726065E+03    0.14552E-09    0.42362E-11   312   0.257E-10    0.320E-10
RMM:   2    -0.303759726066E+03   -0.11278E-08    0.00000E+00     2   0.101E-10
 221 F= -.30375973E+03 E0= -.30380782E+03  d E =-.145519E-10
       N       E                     dE             d eps       ncg     rms          rms(c)
DAV:   1    -0.303759726067E+03   -0.16371E-08   -0.12675E-10   312   0.356E-10    0.227E-10
RMM:   2    -0.303759726066E+03    0.51659E-09    0.00000E+00     2   0.854E-11
 222 F= -.30375973E+03 E0= -.30380782E+03  d E =0.727596E-11
       N       E                     dE             d eps       ncg     rms          rms(c)
DAV:   1    -0.303759726066E+03    0.63301E-09    0.18447E-10   312   0.163E-10    0.267E-10
RMM:   2    -0.303759726066E+03    0.21828E-10    0.00000E+00     2   0.797E-11
 223 F= -.30375973E+03 E0= -.30380782E+03  d E =0.138243E-09
       N       E                     dE             d eps       ncg     rms          rms(c)
DAV:   1    -0.303759726065E+03    0.93860E-09    0.10463E-11   312   0.162E-10    0.305E-10
RMM:   2    -0.303759726066E+03   -0.88767E-09    0.00000E+00     2   0.872E-11
 224 F= -.30375973E+03 E0= -.30380782E+03  d E =0.291038E-10
       N       E                     dE             d eps       ncg     rms          rms(c)
DAV:   1    -0.303759726066E+03   -0.85856E-09   -0.97592E-11   312   0.268E-10    0.274E-10
RMM:   2    -0.303759726066E+03   -0.12369E-09    0.00000E+00     2   0.899E-11
 225 F= -.30375973E+03 E0= -.30380782E+03  d E =-.945874E-10
       N       E                     dE             d eps       ncg     rms          rms(c)
DAV:   1    -0.303759726066E+03    0.64756E-09   -0.15967E-10   312   0.230E-10    0.341E-10
RMM:   2    -0.303759726066E+03   -0.68394E-09    0.00000E+00     2   0.994E-11
 226 F= -.30375973E+03 E0= -.30380782E+03  d E =0.873115E-10
       N       E                     dE             d eps       ncg     rms          rms(c)
DAV:   1    -0.303759726066E+03   -0.86584E-09   -0.88687E-11   312   0.207E-10    0.304E-10
RMM:   2    -0.303759726066E+03    0.11642E-09    0.00000E+00     2   0.101E-10
 227 F= -.30375973E+03 E0= -.30380782E+03  d E =-.654836E-10
       N       E                     dE             d eps       ncg     rms          rms(c)
DAV:   1    -0.303759726066E+03    0.14552E-10    0.28449E-11   312   0.195E-10    0.225E-10
RMM:   2    -0.303759726066E+03    0.11642E-09    0.00000E+00     2   0.706E-11
 228 F= -.30375973E+03 E0= -.30380782E+03  d E =0.145519E-10
       N       E                     dE             d eps       ncg     rms          rms(c)
DAV:   1    -0.303759726066E+03    0.48021E-09   -0.27679E-11   312   0.137E-10    0.225E-10
RMM:   2    -0.303759726066E+03   -0.41473E-09    0.00000E+00     2   0.687E-11
 229 F= -.30375973E+03 E0= -.30380782E+03  d E =-.509317E-10
       N       E                     dE             d eps       ncg     rms          rms(c)
DAV:   1    -0.303759726066E+03    0.36380E-10   -0.63333E-11   312   0.162E-10    0.347E-10
RMM:   2    -0.303759726066E+03   -0.44383E-09    0.00000E+00     2   0.929E-11
 230 F= -.30375973E+03 E0= -.30380782E+03  d E =0.727596E-11
       N       E                     dE             d eps       ncg     rms          rms(c)
DAV:   1    -0.303759726065E+03    0.14625E-08   -0.39748E-11   312   0.349E-10    0.325E-10
RMM:   2    -0.303759726066E+03   -0.19209E-08    0.00000E+00     2   0.914E-11
 231 F= -.30375973E+03 E0= -.30380782E+03  d E =-.145519E-10
       N       E                     dE             d eps       ncg     rms          rms(c)
DAV:   1    -0.303759726067E+03   -0.28886E-08   -0.14357E-10   312   0.260E-10    0.379E-10
RMM:   2    -0.303759726066E+03    0.10186E-08    0.00000E+00     2   0.105E-10
 232 F= -.30375973E+03 E0= -.30380782E+03  d E =0.509317E-10
       N       E                     dE             d eps       ncg     rms          rms(c)
DAV:   1    -0.303759726067E+03    0.19645E-09   -0.16601E-10   312   0.207E-10    0.223E-10
RMM:   2    -0.303759726066E+03    0.80036E-09    0.00000E+00     2   0.764E-11
 233 F= -.30375973E+03 E0= -.30380782E+03  d E =-.218279E-10
       N       E                     dE             d eps       ncg     rms          rms(c)
DAV:   1    -0.303759726067E+03    0.53842E-09   -0.18650E-10   312   0.174E-10    0.294E-10
RMM:   2    -0.303759726066E+03    0.24738E-09    0.00000E+00     2   0.999E-11
 234 F= -.30375973E+03 E0= -.30380782E+03  d E =-.145519E-10
       N       E                     dE             d eps       ncg     rms          rms(c)
DAV:   1    -0.303759726067E+03   -0.60390E-09    0.11489E-10   312   0.252E-10    0.248E-10
RMM:   2    -0.303759726067E+03    0.73487E-09    0.00000E+00     2   0.746E-11
 235 F= -.30375973E+03 E0= -.30380782E+03  d E =-.116415E-09
       N       E                     dE             d eps       ncg     rms          rms(c)
DAV:   1    -0.303759726066E+03    0.12733E-08    0.28474E-10   312   0.221E-10    0.276E-10
RMM:   2    -0.303759726066E+03   -0.42201E-09    0.00000E+00     2   0.889E-11
 236 F= -.30375973E+03 E0= -.30380782E+03  d E =0.116415E-09
       N       E                     dE             d eps       ncg     rms          rms(c)
DAV:   1    -0.303759726065E+03    0.14697E-08   -0.17206E-11   312   0.224E-10    0.370E-10
RMM:   2    -0.303759726066E+03   -0.19063E-08    0.00000E+00     2   0.119E-10
 237 F= -.30375973E+03 E0= -.30380782E+03  d E =-.145519E-10
       N       E                     dE             d eps       ncg     rms          rms(c)
DAV:   1    -0.303759726067E+03   -0.22847E-08    0.21066E-10   312   0.366E-10    0.237E-10
RMM:   2    -0.303759726066E+03    0.34197E-09    0.00000E+00     2   0.722E-11
 238 F= -.30375973E+03 E0= -.30380782E+03  d E =-.363798E-10
       N       E                     dE             d eps       ncg     rms          rms(c)
DAV:   1    -0.303759726065E+03    0.18117E-08   -0.20268E-11   312   0.171E-10    0.235E-10
RMM:   2    -0.303759726066E+03   -0.14115E-08    0.00000E+00     2   0.889E-11
 239 F= -.30375973E+03 E0= -.30380782E+03  d E =0.582077E-10
       N       E                     dE             d eps       ncg     rms          rms(c)
DAV:   1    -0.303759726066E+03   -0.11350E-08    0.10387E-10   312   0.223E-10    0.323E-10
[...]
 635 F= -.30375973E+03 E0= -.30380782E+03  d E =0.145519E-10
       N       E                     dE             d eps       ncg     rms          rms(c)
DAV:   1    -0.303759726067E+03   -0.32014E-09    0.29084E-10   294   0.212E-10    0.265E-10
RMM:   2    -0.303759726066E+03    0.16007E-09    0.00000E+00     1   0.756E-11
 636 F= -.30375973E+03 E0= -.30380782E+03  d E =-.145519E-10
       N       E                     dE             d eps       ncg     rms          rms(c)
DAV:   1    -0.303759726066E+03    0.56025E-09    0.15500E-11   294   0.202E-10    0.272E-10
RMM:   2    -0.303759726066E+03   -0.38563E-09    0.00000E+00     1   0.896E-11
 637 F= -.30375973E+03 E0= -.30380782E+03  d E =0.145519E-10
       N       E                     dE             d eps       ncg     rms          rms(c)
DAV:   1    -0.303759726066E+03    0.34197E-09    0.12997E-10   294   0.145E-10    0.235E-10
RMM:   2    -0.303759726066E+03   -0.62573E-09    0.00000E+00     1   0.790E-11
 638 F= -.30375973E+03 E0= -.30380782E+03  d E =0.101863E-09
       N       E                     dE             d eps       ncg     rms          rms(c)
DAV:   1    -0.303759726066E+03   -0.48749E-09   -0.26833E-10   294   0.198E-10    0.222E-10
RMM:   2    -0.303759726066E+03   -0.32742E-09    0.00000E+00     1   0.775E-11
 639 F= -.30375973E+03 E0= -.30380782E+03  d E =-.189175E-09
       N       E                     dE             d eps       ncg     rms          rms(c)
DAV:   1    -0.303759726067E+03   -0.10550E-08   -0.18793E-10   294   0.205E-10    0.295E-10
RMM:   2    -0.303759726066E+03    0.72032E-09    0.00000E+00     1   0.834E-11
 640 F= -.30375973E+03 E0= -.30380782E+03  d E =-.727596E-11
       N       E                     dE             d eps       ncg     rms          rms(c)
DAV:   1    -0.303759726066E+03    0.84401E-09    0.12224E-11   294   0.162E-10    0.267E-10
RMM:   2    -0.303759726066E+03   -0.65484E-10    0.00000E+00     1   0.778E-11
 641 F= -.30375973E+03 E0= -.30380782E+03  d E =0.582077E-10
       N       E                     dE             d eps       ncg     rms          rms(c)
DAV:   1    -0.303759726065E+03    0.15280E-08    0.33190E-11   294   0.162E-10    0.232E-10
RMM:   2    -0.303759726066E+03   -0.15571E-08    0.00000E+00     1   0.760E-11
 642 F= -.30375973E+03 E0= -.30380782E+03  d E =0.363798E-10
       N       E                     dE             d eps       ncg     rms          rms(c)
DAV:   1    -0.303759726066E+03   -0.10477E-08    0.94584E-11   294   0.141E-10    0.309E-10
RMM:   2    -0.303759726066E+03   -0.48749E-09    0.00000E+00     1   0.900E-11
 643 F= -.30375973E+03 E0= -.30380782E+03  d E =0.218279E-10
       N       E                     dE             d eps       ncg     rms          rms(c)
DAV:   1    -0.303759726067E+03   -0.10623E-08   -0.11707E-10   294   0.277E-10    0.290E-10
RMM:   2    -0.303759726066E+03    0.56025E-09    0.00000E+00     1   0.972E-11
 644 F= -.30375973E+03 E0= -.30380782E+03  d E =-.145519E-10
       N       E                     dE             d eps       ncg     rms          rms(c)
DAV:   1    -0.303759726067E+03    0.14552E-09    0.40840E-11   294   0.181E-10    0.231E-10
RMM:   2    -0.303759726067E+03    0.26193E-09    0.00000E+00     1   0.799E-11
 645 F= -.30375973E+03 E0= -.30380782E+03  d E =-.152795E-09
       N       E                     dE             d eps       ncg     rms          rms(c)
DAV:   1    -0.303759726065E+03    0.16880E-08    0.32393E-10   294   0.205E-10    0.176E-10
RMM:   2    -0.303759726066E+03   -0.13097E-08    0.00000E+00     1   0.661E-11
 646 F= -.30375973E+03 E0= -.30380782E+03  d E =0.116415E-09
       N       E                     dE             d eps       ncg     rms          rms(c)
DAV:   1    -0.303759726065E+03   -0.12369E-09   -0.68775E-11   294   0.159E-10    0.238E-10
RMM:   2    -0.303759726066E+03   -0.10841E-08    0.00000E+00     1   0.768E-11
 647 F= -.30375973E+03 E0= -.30380782E+03  d E =0.101863E-09
       N       E                     dE             d eps       ncg     rms          rms(c)
DAV:   1    -0.303759726065E+03    0.87311E-10   -0.12859E-10   294   0.199E-10    0.268E-10
RMM:   2    -0.303759726066E+03   -0.13533E-08    0.00000E+00     1   0.744E-11
 648 F= -.30375973E+03 E0= -.30380782E+03  d E =-.181899E-09
       N       E                     dE             d eps       ncg     rms          rms(c)
DAV:   1    -0.303759726067E+03   -0.14334E-08   -0.15608E-11   294   0.194E-10    0.252E-10
RMM:   2    -0.303759726066E+03    0.87311E-10    0.00000E+00     1   0.843E-11
 649 F= -.30375973E+03 E0= -.30380782E+03  d E =0.727596E-11
       N       E                     dE             d eps       ncg     rms          rms(c)
DAV:   1    -0.303759726067E+03   -0.53842E-09    0.23108E-10   294   0.178E-10    0.244E-10
RMM:   2    -0.303759726066E+03    0.66939E-09    0.00000E+00     1   0.817E-11
 650 F= -.30375973E+03 E0= -.30380782E+03  d E =0.436557E-10
       N       E                     dE             d eps       ncg     rms          rms(c)
DAV:   1    -0.303759726067E+03    0.10914E-09    0.85698E-11   294   0.173E-10    0.169E-10
RMM:   2    -0.303759726066E+03    0.59663E-09    0.00000E+00     1   0.703E-11
 651 F= -.30375973E+03 E0= -.30380782E+03  d E =0.363798E-10
       N       E                     dE             d eps       ncg     rms          rms(c)
DAV:   1    -0.303759726066E+03    0.12878E-08   -0.10265E-10   294   0.123E-10    0.455E-10
RMM:   2    -0.303759726066E+03   -0.69849E-09    0.00000E+00     1   0.117E-10
 652 F= -.30375973E+03 E0= -.30380782E+03  d E =-.727596E-11
       N       E                     dE             d eps       ncg     rms          rms(c)
DAV:   1    -0.303759726067E+03   -0.13315E-08   -0.72397E-11   294   0.307E-10    0.217E-10
RMM:   2    -0.303759726066E+03    0.61118E-09    0.00000E+00     1   0.786E-11
 653 F= -.30375973E+03 E0= -.30380782E+03  d E =-.218279E-10
       N       E                     dE             d eps       ncg     rms          rms(c)
DAV:   1    -0.303759726067E+03    0.21100E-09   -0.61204E-11   294   0.160E-10    0.259E-10
RMM:   2    -0.303759726066E+03    0.41473E-09    0.00000E+00     1   0.746E-11
 654 F= -.30375973E+03 E0= -.30380782E+03  d E =0.145519E-10
       N       E                     dE             d eps       ncg     rms          rms(c)
DAV:   1    -0.303759726067E+03   -0.16735E-09   -0.17121E-10   294   0.180E-10    0.274E-10
RMM:   2    -0.303759726066E+03    0.59663E-09    0.00000E+00     1   0.832E-11
 655 F= -.30375973E+03 E0= -.30380782E+03  d E =0.145519E-10
       N       E                     dE             d eps       ncg     rms          rms(c)
DAV:   1    -0.303759726066E+03    0.86584E-09   -0.37686E-11   294   0.147E-10    0.247E-10
RMM:   2    -0.303759726066E+03   -0.24738E-09    0.00000E+00     1   0.906E-11
 656 F= -.30375973E+03 E0= -.30380782E+03  d E =0.218279E-10
       N       E                     dE             d eps       ncg     rms          rms(c)
DAV:   1    -0.303759726067E+03   -0.54570E-09   -0.24664E-10   294   0.265E-10    0.320E-10
RMM:   2    -0.303759726066E+03    0.32014E-09    0.00000E+00     1   0.109E-10
 657 F= -.30375973E+03 E0= -.30380782E+03  d E =0.218279E-10
       N       E                     dE             d eps       ncg     rms          rms(c)
DAV:   1    -0.303759726067E+03   -0.29831E-09    0.19949E-11   294   0.356E-10    0.272E-10
RMM:   2    -0.303759726066E+03    0.53114E-09    0.00000E+00     1   0.907E-11
 658 F= -.30375973E+03 E0= -.30380782E+03  d E =-.873115E-10
       N       E                     dE             d eps       ncg     rms          rms(c)
DAV:   1    -0.303759726067E+03    0.00000E+00   -0.25449E-10   294   0.271E-10    0.368E-10
RMM:   2    -0.303759726066E+03    0.46566E-09    0.00000E+00     1   0.103E-10
 659 F= -.30375973E+03 E0= -.30380782E+03  d E =-.654836E-10
       N       E                     dE             d eps       ncg     rms          rms(c)
DAV:   1    -0.303759726067E+03    0.29104E-10    0.10900E-10   294   0.243E-10    0.208E-10
RMM:   2    -0.303759726066E+03    0.57480E-09    0.00000E+00     1   0.712E-11
 660 F= -.30375973E+03 E0= -.30380782E+03  d E =0.138243E-09
       N       E                     dE             d eps       ncg     rms          rms(c)
DAV:   1    -0.303759726065E+03    0.16807E-08    0.10007E-10   294   0.137E-10    0.204E-10
RMM:   2    -0.303759726066E+03   -0.11496E-08    0.00000E+00     1   0.777E-11
 661 F= -.30375973E+03 E0= -.30380782E+03  d E =-.436557E-10
       N       E                     dE             d eps       ncg     rms          rms(c)
DAV:   1    -0.303759726066E+03   -0.27649E-09    0.99419E-12   294   0.192E-10    0.214E-10
RMM:   2    -0.303759726067E+03   -0.97498E-09    0.00000E+00     1   0.703E-11
 662 F= -.30375973E+03 E0= -.30380782E+03  d E =-.101863E-09
       N       E                     dE             d eps       ncg     rms          rms(c)
DAV:   1    -0.303759726068E+03   -0.21100E-08    0.10972E-10   294   0.170E-10    0.347E-10
RMM:   2    -0.303759726066E+03    0.12951E-08    0.00000E+00     1   0.931E-11
 663 F= -.30375973E+03 E0= -.30380782E+03  d E =0.160071E-09
       N       E                     dE             d eps       ncg     rms          rms(c)
DAV:   1    -0.303759726068E+03   -0.80036E-10   -0.11750E-11   294   0.252E-10    0.287E-10
RMM:   2    -0.303759726066E+03    0.12951E-08    0.00000E+00     1   0.962E-11
 664 F= -.30375973E+03 E0= -.30380782E+03  d E =-.800355E-10
       N       E                     dE             d eps       ncg     rms          rms(c)
DAV:   1    -0.303759726066E+03    0.16807E-08    0.15730E-10   294   0.271E-10    0.237E-10
RMM:   2    -0.303759726066E+03   -0.35652E-09    0.00000E+00     1   0.801E-11
 665 F= -.30375973E+03 E0= -.30380782E+03  d E =0.291038E-10
       N       E                     dE             d eps       ncg     rms          rms(c)
DAV:   1    -0.303759726067E+03   -0.76398E-09    0.32173E-11   294   0.235E-10    0.282E-10
RMM:   2    -0.303759726066E+03    0.46566E-09    0.00000E+00     1   0.877E-11
 666 F= -.30375973E+03 E0= -.30380782E+03  d E =0.582077E-10
       N       E                     dE             d eps       ncg     rms          rms(c)
DAV:   1    -0.303759726066E+03    0.39290E-09    0.29741E-11   294   0.158E-10    0.352E-10
RMM:   2    -0.303759726066E+03    0.21828E-10    0.00000E+00     1   0.104E-10
 667 F= -.30375973E+03 E0= -.30380782E+03  d E =-.509317E-10
       N       E                     dE             d eps       ncg     rms          rms(c)
DAV:   1    -0.303759726067E+03   -0.85856E-09   -0.49432E-11   294   0.219E-10    0.305E-10
RMM:   2    -0.303759726066E+03    0.86584E-09    0.00000E+00     1   0.922E-11
 668 F= -.30375973E+03 E0= -.30380782E+03  d E =-.145519E-10
       N       E                     dE             d eps       ncg     rms          rms(c)
DAV:   1    -0.303759726067E+03    0.59663E-09    0.34515E-12   294   0.264E-10    0.228E-10
RMM:   2    -0.303759726066E+03    0.36380E-09    0.00000E+00     1   0.845E-11
 669 F= -.30375973E+03 E0= -.30380782E+03  d E =0.945874E-10
       N       E                     dE             d eps       ncg     rms          rms(c)
DAV:   1    -0.303759726067E+03   -0.94587E-10    0.19491E-10   294   0.220E-10    0.179E-10
RMM:   2    -0.303759726067E+03    0.24011E-09    0.00000E+00     1   0.565E-11
 670 F= -.30375973E+03 E0= -.30380782E+03  d E =-.218279E-09
       N       E                     dE             d eps       ncg     rms          rms(c)
DAV:   1    -0.303759726066E+03    0.46566E-09    0.22787E-10   294   0.796E-11    0.303E-10
RMM:   2    -0.303759726066E+03   -0.10914E-09    0.00000E+00     1   0.803E-11
 671 F= -.30375973E+03 E0= -.30380782E+03  d E =0.116415E-09
       N       E                     dE             d eps       ncg     rms          rms(c)
DAV:   1    -0.303759726065E+03    0.87311E-09    0.21611E-10   294   0.247E-10    0.322E-10
RMM:   2    -0.303759726066E+03   -0.92405E-09    0.00000E+00     1   0.963E-11
 672 F= -.30375973E+03 E0= -.30380782E+03  d E =0.582077E-10
       N       E                     dE             d eps       ncg     rms          rms(c)
DAV:   1    -0.303759726066E+03   -0.67666E-09   -0.13082E-10   294   0.193E-10    0.309E-10
RMM:   2    -0.303759726066E+03   -0.29831E-09    0.00000E+00     1   0.892E-11
 673 F= -.30375973E+03 E0= -.30380782E+03  d E =-.509317E-10
       N       E                     dE             d eps       ncg     rms          rms(c)
DAV:   1    -0.303759726066E+03    0.42928E-09   -0.10438E-10   294   0.152E-10    0.225E-10
RMM:   2    -0.303759726066E+03   -0.67666E-09    0.00000E+00     1   0.682E-11
 674 F= -.30375973E+03 E0= -.30380782E+03  d E =0.509317E-10
       N       E                     dE             d eps       ncg     rms          rms(c)
DAV:   1    -0.303759726066E+03   -0.80036E-10   -0.15898E-10   294   0.143E-10    0.330E-10
RMM:   2    -0.303759726066E+03   -0.58208E-09    0.00000E+00     1   0.102E-10
 675 F= -.30375973E+03 E0= -.30380782E+03  d E =0.145519E-10
       N       E                     dE             d eps       ncg     rms          rms(c)
DAV:   1    -0.303759726066E+03    0.18917E-09    0.30532E-11   294   0.187E-10    0.359E-10
RMM:   2    -0.303759726066E+03   -0.90222E-09    0.00000E+00     1   0.106E-10
 676 F= -.30375973E+03 E0= -.30380782E+03  d E =-.130967E-09
       N       E                     dE             d eps       ncg     rms          rms(c)
DAV:   1    -0.303759726066E+03   -0.58208E-09   -0.12512E-10   294   0.239E-10    0.252E-10
RMM:   2    -0.303759726066E+03   -0.29104E-09    0.00000E+00     1   0.786E-11
 677 F= -.30375973E+03 E0= -.30380782E+03  d E =0.291038E-10
       N       E                     dE             d eps       ncg     rms          rms(c)
DAV:   1    -0.303759726067E+03   -0.38563E-09    0.11015E-10   294   0.129E-10    0.310E-10
RMM:   2    -0.303759726066E+03    0.13097E-09    0.00000E+00     1   0.988E-11
 678 F= -.30375973E+03 E0= -.30380782E+03  d E =0.363798E-10
       N       E                     dE             d eps       ncg     rms          rms(c)
DAV:   1    -0.303759726067E+03   -0.50932E-10   -0.18255E-10   294   0.321E-10    0.282E-10
RMM:   2    -0.303759726066E+03    0.21828E-09    0.00000E+00     1   0.104E-10
 679 F= -.30375973E+03 E0= -.30380782E+03  d E =0.363798E-10
       N       E                     dE             d eps       ncg     rms          rms(c)
DAV:   1    -0.303759726066E+03    0.26921E-09    0.13706E-10   294   0.335E-10    0.229E-10
RMM:   2    -0.303759726066E+03   -0.14552E-10    0.00000E+00     1   0.785E-11
 680 F= -.30375973E+03 E0= -.30380782E+03  d E =0.363798E-10
       N       E                     dE             d eps       ncg     rms          rms(c)
DAV:   1    -0.303759726067E+03   -0.19645E-09    0.33491E-11   294   0.125E-10    0.275E-10
RMM:   2    -0.303759726066E+03    0.10914E-09    0.00000E+00     1   0.869E-11
 681 F= -.30375973E+03 E0= -.30380782E+03  d E =-.727596E-10
       N       E                     dE             d eps       ncg     rms          rms(c)
DAV:   1    -0.303759726067E+03   -0.66211E-09    0.11416E-10   294   0.292E-10    0.268E-10
RMM:   2    -0.303759726066E+03    0.69849E-09    0.00000E+00     1   0.993E-11
 682 F= -.30375973E+03 E0= -.30380782E+03  d E =-.727596E-10
       N       E                     dE             d eps       ncg     rms          rms(c)
DAV:   1    -0.303759726065E+03    0.22847E-08    0.54785E-11   294   0.332E-10    0.243E-10
RMM:   2    -0.303759726066E+03   -0.15134E-08    0.00000E+00     1   0.826E-11
 683 F= -.30375973E+03 E0= -.30380782E+03  d E =0.727596E-10
       N       E                     dE             d eps       ncg     rms          rms(c)
DAV:   1    -0.303759726065E+03   -0.20373E-09   -0.23998E-11   294   0.182E-10    0.211E-10
RMM:   2    -0.303759726066E+03   -0.13169E-08    0.00000E+00     1   0.819E-11
 684 F= -.30375973E+03 E0= -.30380782E+03  d E =-.727596E-11
       N       E                     dE             d eps       ncg     rms          rms(c)
DAV:   1    -0.303759726067E+03   -0.22192E-08    0.28575E-10   294   0.187E-10    0.258E-10
RMM:   2    -0.303759726066E+03    0.91677E-09    0.00000E+00     1   0.869E-11
 685 F= -.30375973E+03 E0= -.30380782E+03  d E =0.145519E-10
       N       E                     dE             d eps       ncg     rms          rms(c)
DAV:   1    -0.303759726066E+03    0.86584E-09    0.17081E-10   294   0.262E-10    0.356E-10
RMM:   2    -0.303759726066E+03    0.16007E-09    0.00000E+00     1   0.105E-10
 686 F= -.30375973E+03 E0= -.30380782E+03  d E =0.109139E-09
       N       E                     dE             d eps       ncg     rms          rms(c)
DAV:   1    -0.303759726067E+03   -0.69849E-09   -0.11302E-10   294   0.337E-10    0.332E-10
RMM:   2    -0.303759726066E+03    0.69849E-09    0.00000E+00     1   0.999E-11
 687 F= -.30375973E+03 E0= -.30380782E+03  d E =-.160071E-09
       N       E                     dE             d eps       ncg     rms          rms(c)
DAV:   1    -0.303759726067E+03    0.51659E-09   -0.10231E-10   294   0.336E-10    0.309E-10
RMM:   2    -0.303759726066E+03    0.17462E-09    0.00000E+00     1   0.104E-10
 688 F= -.30375973E+03 E0= -.30380782E+03  d E =-.727596E-11
       N       E                     dE             d eps       ncg     rms          rms(c)
DAV:   1    -0.303759726066E+03    0.87311E-09    0.13174E-10   294   0.334E-10    0.334E-10
RMM:   2    -0.303759726066E+03   -0.61846E-09    0.00000E+00     1   0.956E-11
 689 F= -.30375973E+03 E0= -.30380782E+03  d E =0.800355E-10
       N       E                     dE             d eps       ncg     rms          rms(c)
DAV:   1    -0.303759726066E+03   -0.20373E-09   -0.20364E-10   294   0.278E-10    0.251E-10
RMM:   2    -0.303759726066E+03   -0.50204E-09    0.00000E+00     1   0.898E-11
 690 F= -.30375973E+03 E0= -.30380782E+03  d E =-.873115E-10
       N       E                     dE             d eps       ncg     rms          rms(c)
DAV:   1    -0.303759726067E+03   -0.14843E-08    0.26935E-10   294   0.250E-10    0.261E-10
RMM:   2    -0.303759726066E+03    0.10477E-08    0.00000E+00     1   0.863E-11
 691 F= -.30375973E+03 E0= -.30380782E+03  d E =0.654836E-10
       N       E                     dE             d eps       ncg     rms          rms(c)
DAV:   1    -0.303759726067E+03    0.38563E-09    0.10391E-10   294   0.248E-10    0.192E-10
RMM:   2    -0.303759726066E+03    0.66939E-09    0.00000E+00     1   0.634E-11
 692 F= -.30375973E+03 E0= -.30380782E+03  d E =0.727596E-11
       N       E                     dE             d eps       ncg     rms          rms(c)
DAV:   1    -0.303759726068E+03   -0.45839E-09    0.10932E-10   294   0.153E-10    0.265E-10
RMM:   2    -0.303759726066E+03    0.11278E-08    0.00000E+00     1   0.759E-11
 693 F= -.30375973E+03 E0= -.30380782E+03  d E =0.000000E+00
       N       E                     dE             d eps       ncg     rms          rms(c)
DAV:   1    -0.303759726067E+03    0.98953E-09   -0.24050E-10   294   0.136E-10    0.409E-10
RMM:   2    -0.303759726066E+03    0.17462E-09    0.00000E+00     1   0.122E-10
 694 F= -.30375973E+03 E0= -.30380782E+03  d E =0.363798E-10
       N       E                     dE             d eps       ncg     rms          rms(c)
DAV:   1    -0.303759726065E+03    0.11642E-08   -0.53808E-11   294   0.284E-10    0.262E-10
RMM:   2    -0.303759726066E+03   -0.10623E-08    0.00000E+00     1   0.860E-11
 695 F= -.30375973E+03 E0= -.30380782E+03  d E =-.727596E-10
       N       E                     dE             d eps       ncg     rms          rms(c)
DAV:   1    -0.303759726066E+03   -0.61118E-09    0.14676E-10   294   0.222E-10    0.205E-10
RMM:   2    -0.303759726066E+03   -0.37835E-09    0.00000E+00     1   0.745E-11
 696 F= -.30375973E+03 E0= -.30380782E+03  d E =0.727596E-10
