 vasp.6.3.2 27Jun22 (build Mar 25 2024 10:42:18) complex                         
 executed on             LinuxGNU date 2024.03.31  12:28:12
 running on   32 total cores
 distrk:  each k-point on   32 cores,    1 groups
 distr:  one band on NCORE=   1 cores,   32 groups


--------------------------------------------------------------------------------------------------------


 INCAR:
   ISTART = 0
   ICHARG = 2
   PREC = Accurate
   IBRION = -1
   EDIFF = 0.000000001
   EDIFFG = -0.0005
   NSW = 0
   NELM = 100
   ENCUT = 520
   ISMEAR = -5
   SIGMA = 0.05
   ISPIN = 2
   ISYM = 0
   LWAVE = False
   LCHARG = False
   LASPH = True
   LORBIT = 11
   ADDGRID = TRUE

 POTCAR:    PAW_PBE S 06Sep2000                   
 -----------------------------------------------------------------------------
|                                                                             |
|           W    W    AA    RRRRR   N    N  II  N    N   GGGG   !!!           |
|           W    W   A  A   R    R  NN   N  II  NN   N  G    G  !!!           |
|           W    W  A    A  R    R  N N  N  II  N N  N  G       !!!           |
|           W WW W  AAAAAA  RRRRR   N  N N  II  N  N N  G  GGG   !            |
|           WW  WW  A    A  R   R   N   NN  II  N   NN  G    G                |
|           W    W  A    A  R    R  N    N  II  N    N   GGGG   !!!           |
|                                                                             |
|     You use a magnetic or noncollinear calculation, but did not specify     |
|     the initial magnetic moment with the MAGMOM tag. Note that a            |
|     default of 1 will be used for all atoms. This ferromagnetic setup       |
|     may break the symmetry of the crystal, in particular it may rule        |
|     out finding an antiferromagnetic solution. Thence, we recommend         |
|     setting the initial magnetic moment manually or verifying carefully     |
|     that this magnetic setup is desired.                                    |
|                                                                             |
 -----------------------------------------------------------------------------

 -----------------------------------------------------------------------------
|                                                                             |
|           W    W    AA    RRRRR   N    N  II  N    N   GGGG   !!!           |
|           W    W   A  A   R    R  NN   N  II  NN   N  G    G  !!!           |
|           W    W  A    A  R    R  N N  N  II  N N  N  G       !!!           |
|           W WW W  AAAAAA  RRRRR   N  N N  II  N  N N  G  GGG   !            |
|           WW  WW  A    A  R   R   N   NN  II  N   NN  G    G                |
|           W    W  A    A  R    R  N    N  II  N    N   GGGG   !!!           |
|                                                                             |
|     For optimal performance we recommend to set                             |
|       NCORE = 2 up to number-of-cores-per-socket                            |
|     NCORE specifies how many cores store one orbital (NPAR=cpu/NCORE).      |
|     This setting can greatly improve the performance of VASP for DFT.       |
|     The default, NCORE=1 might be grossly inefficient on modern             |
|     multi-core architectures or massively parallel machines. Do your        |
|     own testing! More info at https://www.vasp.at/wiki/index.php/NCORE      |
|     Unfortunately you need to use the default for GW and RPA                |
|     calculations (for HF NCORE is supported but not extensively tested      |
|     yet).                                                                   |
|                                                                             |
 -----------------------------------------------------------------------------

 POTCAR:    PAW_PBE S 06Sep2000                   
   SHA256 =  0fc7481fb0695f01bdc6462160264c5c84044ae9ec85a907d398b887a2bc3132 S/POTCAR              
   COPYR  = (c) Copyright 06Sep2000 Georg Kresse                                                    
   COPYR  = This file is part of the software VASP. Any use, copying, and all other rights are regul
   COPYR  = If you do not have a valid VASP license, you may not use, copy or distribute this file. 
   VRHFIN =S : s2p4                                                                                 
   LEXCH  = PE                                                                                      
   EATOM  =   276.8230 eV,   20.3459 Ry                                                             
                                                                                                    
   TITEL  = PAW_PBE S 06Sep2000                                                                     
   LULTRA =        F    use ultrasoft PP ?                                                          
   IUNSCR =        1    unscreen: 0-lin 1-nonlin 2-no                                               
   RPACOR =    1.500    partial core radius                                                         
   POMASS =   32.066; ZVAL   =    6.000    mass and valenz                                          
   RCORE  =    1.900    outmost cutoff radius                                                       
   RWIGS  =    2.200; RWIGS  =    1.164    wigner-seitz radius (au A)                               
   ENMAX  =  258.689; ENMIN  =  194.016 eV                                                          
   ICORE  =        2    local potential                                                             
   LCOR   =        T    correct aug charges                                                         
   LPAW   =        T    paw PP                                                                      
   EAUG   =  335.092                                                                                
   DEXC   =    0.000                                                                                
   RMAX   =    1.942    core radius for proj-oper                                                   
   RAUG   =    1.300    factor for augmentation sphere                                              
   RDEP   =    1.954    radius for radial grids                                                     
   RDEPT  =    1.744    core radius for aug-charge                                                  
                                                                                                    
   Atomic configuration                                                                             
    6 entries                                                                                       
     n  l   j            E        occ.                                                              
     1  0  0.50     -2405.8406   2.0000                                                             
     2  0  0.50      -211.7007   2.0000                                                             
     2  1  1.50      -156.4958   6.0000                                                             
     3  0  0.50       -17.2562   2.0000                                                             
     3  1  0.50        -7.0085   4.0000                                                             
     3  2  1.50        -6.8029   0.0000                                                             
   Description                                                                                      
     l       E           TYP  RCUT    TYP  RCUT                                                     
     0    -17.2561641     23  1.900                                                                 
     0    -15.8743224     23  1.900                                                                 
     1     -7.0085400     23  1.900                                                                 
     1     -2.7779785     23  1.900                                                                 
     2     -6.8029130     23  1.900                                                                 
  local pseudopotential read in
  partial core-charges read in
  partial kinetic energy density read in
  atomic valenz-charges read in
  non local Contribution for L=           0  read in
    real space projection operators read in
  non local Contribution for L=           0  read in
    real space projection operators read in
  non local Contribution for L=           1  read in
    real space projection operators read in
  non local Contribution for L=           1  read in
    real space projection operators read in
    PAW grid and wavefunctions read in

   number of l-projection  operators is LMAX  =           4
   number of lm-projection operators is LMMAX =           8

 -----------------------------------------------------------------------------
|                                                                             |
|               ----> ADVICE to this user running VASP <----                  |
|                                                                             |
|     You have a (more or less) 'large supercell' and for larger cells it     |
|     might be more efficient to use real-space projection operators.         |
|     Therefore, try LREAL= Auto in the INCAR file.                           |
|     Mind: For very accurate calculation, you might also keep the            |
|     reciprocal projection scheme (i.e. LREAL=.FALSE.).                      |
|                                                                             |
 -----------------------------------------------------------------------------

  PAW_PBE S 06Sep2000                   :
 energy of atom  1       EATOM= -276.8230
 kinetic energy error for atom=    0.0016 (will be added to EATOM!!)


 POSCAR: generated by phonopy
  positions in direct lattice
  No initial velocities read in
 exchange correlation table for  LEXCH =        8
   RHO(1)=    0.500       N(1)  =     2000
   RHO(2)=  100.500       N(2)  =     4000



--------------------------------------------------------------------------------------------------------


 ion  position               nearest neighbor table
   1  0.886  0.467  0.678-  45 1.98  24 2.13
   2  0.886  0.967  0.678-  46 1.98  23 2.13
   3  0.330  0.189  0.552-  41 2.05  19 2.13
   4  0.330  0.689  0.551-  42 2.05  20 2.13
   5  0.913  0.105  0.912-  51 1.98  11 2.13
   6  0.913  0.605  0.912-  52 1.98  12 2.13
   7  0.240  0.301  0.777-  19 1.98  37 2.23
   8  0.240  0.801  0.777-  20 1.98  38 2.23
   9  0.144  0.306  0.224-  31 2.05  39 2.13
  10  0.144  0.806  0.224-  32 2.05  40 2.13
  11  0.856  0.194  0.776-  47 2.05   5 2.13
  12  0.856  0.694  0.776-  48 2.05   6 2.13
  13  0.760  0.199  0.223-  27 1.98  33 2.23
  14  0.760  0.699  0.223-  28 1.98  34 2.23
  15  0.170  0.439  0.449-  31 2.05  30 2.13
  16  0.170  0.939  0.449-  32 2.05  29 2.13
  17  0.413  0.145  0.912-  37 1.98  43 2.13
  18  0.413  0.645  0.912-  38 1.98  44 2.13
  19  0.386  0.283  0.678-   7 1.98   3 2.13
  20  0.386  0.783  0.678-   8 1.98   4 2.13
  21  0.644  0.444  0.224-  53 2.05  35 2.13
  22  0.644  0.944  0.224-  54 2.05  36 2.13
  23  0.830  0.061  0.551-  47 2.05   2 2.13
  24  0.830  0.561  0.551-  48 2.05   1 2.13
  25  0.260  0.051  0.223-  29 1.98  50 2.23
  26  0.260  0.551  0.223-  30 1.98  49 2.23
  27  0.614  0.217  0.322-  13 1.98  55 2.13
  28  0.614  0.717  0.322-  14 1.98  56 2.13
  29  0.114  0.033  0.322-  25 1.98  16 2.13
  30  0.114  0.533  0.322-  26 1.98  15 2.13
  31  0.060  0.345  0.374-   9 2.05  15 2.05
  32  0.060  0.845  0.374-  10 2.05  16 2.05
  33  0.743  0.289  0.071-  35 1.98  13 2.23
  34  0.743  0.789  0.071-  36 1.98  14 2.23
  35  0.587  0.355  0.088-  33 1.98  21 2.13
  36  0.587  0.855  0.088-  34 1.98  22 2.13
  37  0.257  0.211  0.929-  17 1.98   7 2.23
  38  0.257  0.711  0.929-  18 1.98   8 2.23
  39  0.087  0.395  0.088-  49 1.98   9 2.13
  40  0.087  0.895  0.088-  50 1.98  10 2.13
  41  0.440  0.095  0.626-   3 2.05  43 2.05
  42  0.440  0.595  0.626-  44 2.05   4 2.05
  43  0.356  0.056  0.776-  41 2.05  17 2.13
  44  0.356  0.556  0.776-  42 2.05  18 2.13
  45  0.740  0.449  0.777-   1 1.98  52 2.23
  46  0.740  0.949  0.777-   2 1.98  51 2.23
  47  0.940  0.155  0.626-  11 2.05  23 2.05
  48  0.940  0.655  0.626-  12 2.05  24 2.05
  49  0.243  0.461  0.071-  39 1.98  26 2.23
  50  0.243  0.961  0.071-  40 1.98  25 2.23
  51  0.757  0.039  0.929-   5 1.98  46 2.23
  52  0.757  0.539  0.929-   6 1.98  45 2.23
  53  0.560  0.405  0.374-  21 2.05  55 2.05
  54  0.560  0.905  0.374-  22 2.05  56 2.05
  55  0.670  0.311  0.449-  53 2.05  27 2.13
  56  0.670  0.811  0.449-  54 2.05  28 2.13


IMPORTANT INFORMATION: All symmetrisations will be switched off!
NOSYMM: (Re-)initialisation of all symmetry stuff for point group C_1.


----------------------------------------------------------------------------------------

                                     Primitive cell                                     

  volume of cell :    1863.6770

  direct lattice vectors                    reciprocal lattice vectors
     0.000000000 10.307367086 -0.372855731     0.000000000  0.096453423 -0.015606996
    16.788494411  0.000000000  0.000000000     0.059564603  0.000000000  0.000000000
     0.000000000 -1.732519801-10.707215182     0.000000000 -0.003358783 -0.092851486

  length of vectors
    10.314108670 16.788494411 10.846477853     0.097707938  0.059564603  0.092912216

  position of ions in fractional coordinates (direct lattice)
     0.886423141  0.467004751  0.678126386
     0.886423141  0.967004751  0.678126386
     0.329563264  0.188743823  0.551629679
     0.329563264  0.688743823  0.550707721
     0.912671285  0.105241885  0.911960471
     0.912671285  0.605241885  0.911960471
     0.239736405  0.300831047  0.776574189
     0.239736405  0.800831047  0.776574189
     0.144417516  0.305688762  0.224396680
     0.144417516  0.805688762  0.224396680
     0.855582484  0.194311238  0.775603320
     0.855582484  0.694311238  0.775603320
     0.760263595  0.199168953  0.223425811
     0.760263595  0.699168953  0.223425811
     0.170436736  0.438743823  0.449292279
     0.170436736  0.938743823  0.449292279
     0.412671285  0.144758115  0.911960471
     0.412671285  0.644758115  0.911960471
     0.386423141  0.282995249  0.678126386
     0.386423141  0.782995249  0.678126386
     0.644417516  0.444311238  0.224396680
     0.644417516  0.944311238  0.224396680
     0.829563264  0.061256177  0.550707721
     0.829563264  0.561256177  0.550707721
     0.260263595  0.050831047  0.223425811
     0.260263595  0.550831047  0.223425811
     0.613576859  0.217004751  0.321873614
     0.613576859  0.717004751  0.321873614
     0.113576859  0.032995249  0.321873614
     0.113576859  0.532995249  0.321873614
     0.059895700  0.345087734  0.374484367
     0.059895700  0.845087734  0.374484367
     0.743425210  0.289344343  0.071165234
     0.743425210  0.789344343  0.071165234
     0.587328715  0.355241885  0.088039529
     0.587328715  0.855241885  0.088039529
     0.256574790  0.210655657  0.928834766
     0.256574790  0.710655657  0.928834766
     0.087328715  0.394758115  0.088039529
     0.087328715  0.894758115  0.088039529
     0.440104300  0.095087734  0.625515633
     0.440104300  0.595087734  0.625515633
     0.355582484  0.055688762  0.775603320
     0.355582484  0.555688762  0.775603320
     0.739736405  0.449168953  0.776574189
     0.739736405  0.949168953  0.776574189
     0.940104300  0.154912266  0.625515633
     0.940104300  0.654912266  0.625515633
     0.243425210  0.460655657  0.071165234
     0.243425210  0.960655657  0.071165234
     0.756574790  0.039344343  0.928834766
     0.756574790  0.539344343  0.928834766
     0.559895700  0.404912266  0.374484367
     0.559895700  0.904912266  0.374484367
     0.670436736  0.311256177  0.449292279
     0.670436736  0.811256177  0.449292279

  ion indices of the primitive-cell ions
   primitive index   ion index
                 1           1
                 2           2
                 3           3
                 4           4
                 5           5
                 6           6
                 7           7
                 8           8
                 9           9
                10          10
                11          11
                12          12
                13          13
                14          14
                15          15
                16          16
                17          17
                18          18
                19          19
                20          20
                21          21
                22          22
                23          23
                24          24
                25          25
                26          26
                27          27
                28          28
                29          29
                30          30
                31          31
                32          32
                33          33
                34          34
                35          35
                36          36
                37          37
                38          38
                39          39
                40          40
                41          41
                42          42
                43          43
                44          44
                45          45
                46          46
                47          47
                48          48
                49          49
                50          50
                51          51
                52          52
                53          53
                54          54
                55          55
                56          56

----------------------------------------------------------------------------------------



 KPOINTS: pymatgen with grid density = 595 / numbe

Automatic generation of k-mesh.
 Grid dimensions read from file:
 generate k-points for:    2    2    2

 Generating k-lattice:

  Cartesian coordinates                     Fractional coordinates (reciprocal lattice)
     0.000000000  0.048226712 -0.007803498     0.500000000  0.000000000 -0.000000000
     0.029782301  0.000000000  0.000000000     0.000000000  0.500000000  0.000000000
     0.000000000 -0.001679391 -0.046425743    -0.000000000  0.000000000  0.500000000

  Length of vectors
     0.048853969  0.029782301  0.046456108

  Shift w.r.t. Gamma in fractional coordinates (k-lattice)
     0.000000000  0.000000000  0.000000000

 TETIRR: Found     24 inequivalent tetrahedra from       48
 
 Subroutine IBZKPT returns following result:
 ===========================================
 
 Found      8 irreducible k-points:
 
 Following reciprocal coordinates:
            Coordinates               Weight
  0.000000  0.000000  0.000000      1.000000
  0.500000  0.000000  0.000000      1.000000
  0.000000  0.500000  0.000000      1.000000
  0.500000  0.500000  0.000000      1.000000
  0.000000  0.000000  0.500000      1.000000
  0.500000  0.000000  0.500000      1.000000
  0.000000  0.500000  0.500000      1.000000
  0.500000  0.500000  0.500000      1.000000
 
 Following cartesian coordinates:
            Coordinates               Weight
  0.000000  0.000000 -0.000000      1.000000
  0.000000  0.048227 -0.007803      1.000000
  0.029782  0.000000 -0.000000      1.000000
  0.029782  0.048227 -0.007803      1.000000
  0.000000 -0.001679 -0.046426      1.000000
  0.000000  0.046547 -0.054229      1.000000
  0.029782 -0.001679 -0.046426      1.000000
  0.029782  0.046547 -0.054229      1.000000
 


--------------------------------------------------------------------------------------------------------




 Dimension of arrays:
   k-points           NKPTS =      8   k-points in BZ     NKDIM =      8   number of bands    NBANDS=    256
   number of dos      NEDOS =    301   number of ions     NIONS =     56
   non local maximal  LDIM  =      4   non local SUM 2l+1 LMDIM =      8
   total plane-waves  NPLWV = 846720
   max r-space proj   IRMAX =      1   max aug-charges    IRDMAX= 114695
   dimension x,y,z NGX =    80 NGY =  126 NGZ =   84
   dimension x,y,z NGXF=   160 NGYF=  252 NGZF=  168
   support grid    NGXF=   320 NGYF=  504 NGZF=  336
   ions per type =              56
   NGX,Y,Z   is equivalent  to a cutoff of  12.89, 12.48, 12.87 a.u.
   NGXF,Y,Z  is equivalent  to a cutoff of  25.79, 24.95, 25.75 a.u.

 SYSTEM =  unknown system                          
 POSCAR =  generated by phonopy                    

 Startparameter for this run:
   NWRITE =      2    write-flag & timer
   PREC   = accura    normal or accurate (medium, high low for compatibility)
   ISTART =      0    job   : 0-new  1-cont  2-samecut
   ICHARG =      2    charge: 1-file 2-atom 10-const
   ISPIN  =      2    spin polarized calculation?
   LNONCOLLINEAR =      F non collinear calculations
   LSORBIT =      F    spin-orbit coupling
   INIWAV =      1    electr: 0-lowe 1-rand  2-diag
   LASPH  =      T    aspherical Exc in radial PAW
 Electronic Relaxation 1
   ENCUT  =  520.0 eV  38.22 Ry    6.18 a.u.  19.18 31.22 20.17*2*pi/ulx,y,z
   ENINI  =  520.0     initial cutoff
   ENAUG  =  335.1 eV  augmentation charge cutoff
   NELM   =    100;   NELMIN=  2; NELMDL= -5     # of ELM steps 
   EDIFF  = 0.1E-08   stopping-criterion for ELM
   LREAL  =      F    real-space projection
   NLSPLINE    = F    spline interpolate recip. space projectors
   LCOMPAT=      F    compatible to vasp.4.4
   GGA_COMPAT  = T    GGA compatible to vasp.4.4-vasp.4.6
   LMAXPAW     = -100 max onsite density
   LMAXMIX     =    2 max onsite mixed and CHGCAR
   VOSKOWN=      0    Vosko Wilk Nusair interpolation
   ROPT   =    0.00000
 Ionic relaxation
   EDIFFG = -.5E-03   stopping-criterion for IOM
   NSW    =      0    number of steps for IOM
   NBLOCK =      1;   KBLOCK =      1    inner block; outer block 
   IBRION =     -1    ionic relax: 0-MD 1-quasi-New 2-CG
   NFREE  =      0    steps in history (QN), initial steepest desc. (CG)
   ISIF   =      2    stress and relaxation
   IWAVPR =     10    prediction:  0-non 1-charg 2-wave 3-comb
   ISYM   =      0    0-nonsym 1-usesym 2-fastsym
   LCORR  =      T    Harris-Foulkes like correction to forces

   POTIM  = 0.5000    time-step for ionic-motion
   TEIN   =    0.0    initial temperature
   TEBEG  =    0.0;   TEEND  =   0.0 temperature during run
   SMASS  =  -3.00    Nose mass-parameter (am)
   estimated Nose-frequenzy (Omega)   =  0.10E-29 period in steps = 0.13E+47 mass=  -0.243E-26a.u.
   SCALEE = 1.0000    scale energy and forces
   NPACO  =    256;   APACO  = 10.0  distance and # of slots for P.C.
   PSTRESS=    0.0 pullay stress

  Mass of Ions in am
   POMASS =  32.07
  Ionic Valenz
   ZVAL   =   6.00
  Atomic Wigner-Seitz radii
   RWIGS  =  -1.00
  virtual crystal weights 
   VCA    =   1.00
   NELECT =     336.0000    total number of electrons
   NUPDOWN=      -1.0000    fix difference up-down

 DOS related values:
   EMIN   =  10.00;   EMAX   =-10.00  energy-range for DOS
   EFERMI =   0.00
   ISMEAR =    -5;   SIGMA  =   0.05  broadening in eV -4-tet -1-fermi 0-gaus

 Electronic relaxation 2 (details)
   IALGO  =     38    algorithm
   LDIAG  =      T    sub-space diagonalisation (order eigenvalues)
   LSUBROT=      F    optimize rotation matrix (better conditioning)
   TURBO    =      0    0=normal 1=particle mesh
   IRESTART =      0    0=no restart 2=restart with 2 vectors
   NREBOOT  =      0    no. of reboots
   NMIN     =      0    reboot dimension
   EREF     =   0.00    reference energy to select bands
   IMIX   =      4    mixing-type and parameters
     AMIX     =   0.40;   BMIX     =  1.00
     AMIX_MAG =   1.60;   BMIX_MAG =  1.00
     AMIN     =   0.10
     WC   =   100.;   INIMIX=   1;  MIXPRE=   1;  MAXMIX= -45

 Intra band minimization:
   WEIMIN = 0.0000     energy-eigenvalue tresh-hold
   EBREAK =  0.98E-12  absolut break condition
   DEPER  =   0.30     relativ break condition  

   TIME   =   0.40     timestep for ELM

  volume/ion in A,a.u.               =      33.28       224.58
  Fermi-wavevector in a.u.,A,eV,Ry     =   0.924835  1.747685 11.637339  0.855320
  Thomas-Fermi vector in A             =   2.050624

 Write flags
   LWAVE        =      F    write WAVECAR
   LDOWNSAMPLE  =      F    k-point downsampling of WAVECAR
   LCHARG       =      F    write CHGCAR
   LVTOT        =      F    write LOCPOT, total local potential
   LVHAR        =      F    write LOCPOT, Hartree potential only
   LELF         =      F    write electronic localiz. function (ELF)
   LORBIT       =     11    0 simple, 1 ext, 2 COOP (PROOUT), +10 PAW based schemes


 Dipole corrections
   LMONO  =      F    monopole corrections only (constant potential shift)
   LDIPOL =      F    correct potential (dipole corrections)
   IDIPOL =      0    1-x, 2-y, 3-z, 4-all directions 
   EPSILON=  1.0000000 bulk dielectric constant

 Exchange correlation treatment:
   GGA     =    --    GGA type
   LEXCH   =     8    internal setting for exchange type
   LIBXC   =     F    Libxc                    
   VOSKOWN =     0    Vosko Wilk Nusair interpolation
   LHFCALC =     F    Hartree Fock is set to
   LHFONE  =     F    Hartree Fock one center treatment
   AEXX    =    0.0000 exact exchange contribution

 Linear response parameters
   LEPSILON=     F    determine dielectric tensor
   LRPA    =     F    only Hartree local field effects (RPA)
   LNABLA  =     F    use nabla operator in PAW spheres
   LVEL    =     F    velocity operator in full k-point grid
   CSHIFT  =0.1000    complex shift for real part using Kramers Kronig
   OMEGAMAX=  -1.0    maximum frequency
   DEG_THRESHOLD= 0.2000000E-02 threshold for treating states as degnerate
   RTIME   =   -0.100 relaxation time in fs
  (WPLASMAI=    0.000 imaginary part of plasma frequency in eV, 0.658/RTIME)
   DFIELD  = 0.0000000 0.0000000 0.0000000 field for delta impulse in time

  Optional k-point grid parameters
   LKPOINTS_OPT  =     F    use optional k-point grid
   KPOINTS_OPT_MODE=     1    mode for optional k-point grid

 Orbital magnetization related:
   ORBITALMAG=     F  switch on orbital magnetization
   LCHIMAG   =     F  perturbation theory with respect to B field
   DQ        =  0.001000  dq finite difference perturbation B field
   LLRAUG    =     F  two centre corrections for induced B field



--------------------------------------------------------------------------------------------------------


 Static calculation
 charge density and potential will be updated during run
 spin polarized calculation
 Variant of blocked Davidson
 Davidson routine will perform the subspace rotation
 perform sub-space diagonalisation
    after iterative eigenvector-optimisation
 modified Broyden-mixing scheme, WC =      100.0
 initial mixing is a Kerker type mixing with AMIX =  0.4000 and BMIX =      1.0000
 Hartree-type preconditioning will be used
 using additional bands           88
 reciprocal scheme for non local part
 use partial core corrections
 calculate Harris-corrections to forces   (improved forces if not selfconsistent)
 use gradient corrections 
 use of overlap-Matrix (Vanderbilt PP)
 Fermi weights with tetrahedron method with Bloechl corrections


--------------------------------------------------------------------------------------------------------


  energy-cutoff  :      520.00
  volume of cell :     1863.68
      direct lattice vectors                 reciprocal lattice vectors
     0.000000000 10.307367086 -0.372855731     0.000000000  0.096453423 -0.015606996
    16.788494411  0.000000000  0.000000000     0.059564603  0.000000000  0.000000000
     0.000000000 -1.732519801-10.707215182     0.000000000 -0.003358783 -0.092851486

  length of vectors
    10.314108670 16.788494411 10.846477853     0.097707938  0.059564603  0.092912216



 k-points in units of 2pi/SCALE and weight: pymatgen with grid density = 595 / numbe
   0.00000000  0.00000000 -0.00000000       0.125
   0.00000000  0.04822671 -0.00780350       0.125
   0.02978230  0.00000000 -0.00000000       0.125
   0.02978230  0.04822671 -0.00780350       0.125
   0.00000000 -0.00167939 -0.04642574       0.125
   0.00000000  0.04654732 -0.05422924       0.125
   0.02978230 -0.00167939 -0.04642574       0.125
   0.02978230  0.04654732 -0.05422924       0.125

 k-points in reciprocal lattice and weights: pymatgen with grid density = 595 / numbe
   0.00000000  0.00000000  0.00000000       0.125
   0.50000000  0.00000000  0.00000000       0.125
   0.00000000  0.50000000  0.00000000       0.125
   0.50000000  0.50000000  0.00000000       0.125
   0.00000000  0.00000000  0.50000000       0.125
   0.50000000  0.00000000  0.50000000       0.125
   0.00000000  0.50000000  0.50000000       0.125
   0.50000000  0.50000000  0.50000000       0.125

 position of ions in fractional coordinates (direct lattice) 
   0.88642314  0.46700475  0.67812639
   0.88642314  0.96700475  0.67812639
   0.32956326  0.18874382  0.55162968
   0.32956326  0.68874382  0.55070772
   0.91267129  0.10524188  0.91196047
   0.91267129  0.60524188  0.91196047
   0.23973640  0.30083105  0.77657419
   0.23973640  0.80083105  0.77657419
   0.14441752  0.30568876  0.22439668
   0.14441752  0.80568876  0.22439668
   0.85558248  0.19431124  0.77560332
   0.85558248  0.69431124  0.77560332
   0.76026360  0.19916895  0.22342581
   0.76026360  0.69916895  0.22342581
   0.17043674  0.43874382  0.44929228
   0.17043674  0.93874382  0.44929228
   0.41267129  0.14475812  0.91196047
   0.41267129  0.64475812  0.91196047
   0.38642314  0.28299525  0.67812639
   0.38642314  0.78299525  0.67812639
   0.64441752  0.44431124  0.22439668
   0.64441752  0.94431124  0.22439668
   0.82956326  0.06125618  0.55070772
   0.82956326  0.56125618  0.55070772
   0.26026360  0.05083105  0.22342581
   0.26026360  0.55083105  0.22342581
   0.61357686  0.21700475  0.32187361
   0.61357686  0.71700475  0.32187361
   0.11357686  0.03299525  0.32187361
   0.11357686  0.53299525  0.32187361
   0.05989570  0.34508773  0.37448437
   0.05989570  0.84508773  0.37448437
   0.74342521  0.28934434  0.07116523
   0.74342521  0.78934434  0.07116523
   0.58732871  0.35524188  0.08803953
   0.58732871  0.85524188  0.08803953
   0.25657479  0.21065566  0.92883477
   0.25657479  0.71065566  0.92883477
   0.08732871  0.39475812  0.08803953
   0.08732871  0.89475812  0.08803953
   0.44010430  0.09508773  0.62551563
   0.44010430  0.59508773  0.62551563
   0.35558248  0.05568876  0.77560332
   0.35558248  0.55568876  0.77560332
   0.73973640  0.44916895  0.77657419
   0.73973640  0.94916895  0.77657419
   0.94010430  0.15491227  0.62551563
   0.94010430  0.65491227  0.62551563
   0.24342521  0.46065566  0.07116523
   0.24342521  0.96065566  0.07116523
   0.75657479  0.03934434  0.92883477
   0.75657479  0.53934434  0.92883477
   0.55989570  0.40491227  0.37448437
   0.55989570  0.90491227  0.37448437
   0.67043674  0.31125618  0.44929228
   0.67043674  0.81125618  0.44929228

 position of ions in cartesian coordinates  (Angst):
   7.84030666  7.96182132 -7.59135308
  16.23455387  7.96182132 -7.59135308
   3.16872461  2.44122019 -6.02929723
  11.56297182  2.44281751 -6.01942562
   1.76685280  7.82724839-10.10485172
  10.16110000  7.82724839-10.10485172
   5.05050035  1.12562097 -8.40433404
  13.44474755  1.12562097 -8.40433404
   5.13205407  1.09979266 -2.45651044
  13.52630128  1.09979266 -2.45651044
   3.26219313  7.47505463 -8.62356047
  11.65644034  7.47505463 -8.62356047
   3.34374686  7.44922632 -2.67573688
  11.73799406  7.44922632 -2.67573688
   7.36584822  0.97834624 -4.87421742
  15.76009542  0.97834624 -4.87421742
   2.43027081  2.67356485 -9.91842386
  10.82451801  2.67356485 -9.91842386
   4.75106415  2.80813777 -7.40492521
  13.14531135  2.80813777 -7.40492521
   7.45931673  6.25347620 -2.64293831
  15.85356394  6.25347620 -2.64293831
   1.02839899  7.59650105 -6.20585349
   9.42264619  7.59650105 -6.20585349
   0.85337674  2.29554277 -2.48930901
   9.24762395  2.29554277 -2.48930901
   3.64318306  5.76670951 -3.67514570
  12.03743026  5.76670951 -3.67514570
   0.55394055  0.61302597 -3.48871783
   8.94818775  0.61302597 -3.48871783
   5.79350349 -0.03143461 -4.03201715
  14.18775070 -0.03143461 -4.03201715
   4.85765589  7.53946136 -1.03917182
  13.25190310  7.53946136 -1.03917182
   5.96397640  5.90128244 -1.16164705
  14.35822361  5.90128244 -1.16164705
   3.53659131  1.03538593-10.04089909
  11.93083852  1.03538593-10.04089909
   6.62739441  0.74759889 -0.97521919
  15.02164161  0.74759889 -0.97521919
   1.59637989  3.45259836 -6.86162589
   9.99062710  3.45259836 -6.86162589
   0.93493047  2.32137108 -8.43713261
   9.32917768  2.32137108 -8.43713261
   7.54087046  6.27930451 -8.59076190
  15.93511767  6.27930451 -8.59076190
   2.60074371  8.60628190 -7.04805376
  10.99499092  8.60628190 -7.04805376
   7.73371492  2.38577782 -0.85274396
  16.12796212  2.38577782 -0.85274396
   0.66053229  6.18906947-10.22732695
   9.05477950  6.18906947-10.22732695
   6.79786731  5.12224893 -4.21844502
  15.19211452  5.12224893 -4.21844502
   5.22552259  6.13202978 -5.06064529
  13.61976980  6.13202978 -5.06064529



--------------------------------------------------------------------------------------------------------


 k-point   1 :   0.0000 0.0000 0.0000  plane waves:   50179
 k-point   2 :   0.5000 0.0000 0.0000  plane waves:   50160
 k-point   3 :   0.0000 0.5000 0.0000  plane waves:   50162
 k-point   4 :   0.5000 0.5000 0.0000  plane waves:   50192
 k-point   5 :   0.0000 0.0000 0.5000  plane waves:   50190
 k-point   6 :   0.5000 0.0000 0.5000  plane waves:   50190
 k-point   7 :   0.0000 0.5000 0.5000  plane waves:   50172
 k-point   8 :   0.5000 0.5000 0.5000  plane waves:   50200

 maximum and minimum number of plane-waves per node :     50200    50160

 maximum number of plane-waves:     50200
 maximum index in each direction: 
   IXMAX=   19   IYMAX=   31   IZMAX=   20
   IXMIN=  -19   IYMIN=  -31   IZMIN=  -20


 serial   3D FFT for wavefunctions
 parallel 3D FFT for charge:
    minimum data exchange during FFTs selected (reduces bandwidth)


 total amount of memory used by VASP MPI-rank0   322725. kBytes
=======================================================================

   base      :      30000. kBytes
   nonl-proj :      70692. kBytes
   fftplans  :      34504. kBytes
   grid      :      83442. kBytes
   one-center:        344. kBytes
   wavefun   :     103743. kBytes

     INWAV:  cpu time      0.0000: real time      0.0002
 Broyden mixing: mesh for mixing (old mesh)
   NGX = 39   NGY = 63   NGZ = 41
  (NGX  =160   NGY  =252   NGZ  =168)
  gives a total of 100737 points

 initial charge density was supplied:
 charge density of overlapping atoms calculated
 number of electron     336.0000000 magnetization      56.0000000
 keeping initial charge density in first step


--------------------------------------------------------------------------------------------------------


 Maximum index for augmentation-charges         3947 (set IRDMAX)


--------------------------------------------------------------------------------------------------------


 First call to EWALD:  gamma=   0.144
 Maximum number of real-space cells 3x 2x 3
 Maximum number of reciprocal cells 2x 4x 2

    FEWALD:  cpu time      0.0023: real time      0.0023


--------------------------------------- Iteration      1(   1)  ---------------------------------------


    POTLOK:  cpu time      0.5592: real time      0.5596
    SETDIJ:  cpu time      9.8645: real time     10.3163
     EDDAV:  cpu time     57.9814: real time     60.3599
 BZINTS: Fermi energy:   10.166723;  336.000000 electrons
         Band energy: 0.225089E+03;  BLOECHL correction:   -0.008695
       DOS:  cpu time      0.0489: real time      0.0490
    --------------------------------------------
      LOOP:  cpu time     68.4540: real time     71.2847

 eigenvalue-minimisations  :  8192
 total energy-change (2. order) : 0.2106323E+04  (-0.1333802E+05)
 number of electron     336.0000000 magnetization      56.0000000
 augmentation part      336.0000000 magnetization      56.0000000

 Free energy of the ion-electron system (eV)
  ---------------------------------------------------
  alpha Z        PSCENC =       253.99581917
  Ewald energy   TEWEN  =     -9969.68631375
  -Hartree energ DENC   =     -4766.85294707
  -exchange      EXHF   =         0.00000000
  -V(xc)+E(xc)   XCENC  =       682.53045139
  PAW double counting   =     12174.71095765   -11995.46358648
  entropy T*S    EENTRO =         0.00000000
  eigenvalues    EBANDS =       225.08905426
  atomic energy  EATOM  =     15501.99929693
  Solvation  Ediel_sol  =         0.00000000
  ---------------------------------------------------
  free energy    TOTEN  =      2106.32273211 eV

  energy without entropy =     2106.32273211  energy(sigma->0) =     2106.32273211


--------------------------------------------------------------------------------------------------------




--------------------------------------- Iteration      1(   2)  ---------------------------------------


     EDDAV:  cpu time     66.5136: real time     67.4097
 BZINTS: Fermi energy:    1.452280;  336.000000 electrons
         Band energy:-0.187495E+04;  BLOECHL correction:    0.000000
       DOS:  cpu time      0.0276: real time      0.0277
    --------------------------------------------
      LOOP:  cpu time     66.5412: real time     67.4374

 eigenvalue-minimisations  : 10272
 total energy-change (2. order) :-0.2100038E+04  (-0.2021842E+04)
 number of electron     336.0000000 magnetization      56.0000000
 augmentation part      336.0000000 magnetization      56.0000000

 Free energy of the ion-electron system (eV)
  ---------------------------------------------------
  alpha Z        PSCENC =       253.99581917
  Ewald energy   TEWEN  =     -9969.68631375
  -Hartree energ DENC   =     -4766.85294707
  -exchange      EXHF   =         0.00000000
  -V(xc)+E(xc)   XCENC  =       682.53045139
  PAW double counting   =     12174.71095765   -11995.46358648
  entropy T*S    EENTRO =         0.00000000
  eigenvalues    EBANDS =     -1874.94847796
  atomic energy  EATOM  =     15501.99929693
  Solvation  Ediel_sol  =         0.00000000
  ---------------------------------------------------
  free energy    TOTEN  =         6.28519989 eV

  energy without entropy =        6.28519989  energy(sigma->0) =        6.28519989


--------------------------------------------------------------------------------------------------------




--------------------------------------- Iteration      1(   3)  ---------------------------------------


     EDDAV:  cpu time     76.2663: real time     76.4013
 BZINTS: Fermi energy:    0.220561;  336.000000 electrons
         Band energy:-0.209481E+04;  BLOECHL correction:    0.000000
       DOS:  cpu time      0.0277: real time      0.0278
    --------------------------------------------
      LOOP:  cpu time     76.2940: real time     76.4290

 eigenvalue-minimisations  : 10240
 total energy-change (2. order) :-0.2198636E+03  (-0.2171776E+03)
 number of electron     336.0000000 magnetization      56.0000000
 augmentation part      336.0000000 magnetization      56.0000000

 Free energy of the ion-electron system (eV)
  ---------------------------------------------------
  alpha Z        PSCENC =       253.99581917
  Ewald energy   TEWEN  =     -9969.68631375
  -Hartree energ DENC   =     -4766.85294707
  -exchange      EXHF   =         0.00000000
  -V(xc)+E(xc)   XCENC  =       682.53045139
  PAW double counting   =     12174.71095765   -11995.46358648
  entropy T*S    EENTRO =         0.00000000
  eigenvalues    EBANDS =     -2094.81211929
  atomic energy  EATOM  =     15501.99929693
  Solvation  Ediel_sol  =         0.00000000
  ---------------------------------------------------
  free energy    TOTEN  =      -213.57844145 eV

  energy without entropy =     -213.57844145  energy(sigma->0) =     -213.57844145


--------------------------------------------------------------------------------------------------------




--------------------------------------- Iteration      1(   4)  ---------------------------------------


     EDDAV:  cpu time     73.4045: real time     73.5087
 BZINTS: Fermi energy:    0.192481;  336.000000 electrons
         Band energy:-0.209971E+04;  BLOECHL correction:    0.000000
       DOS:  cpu time      0.0275: real time      0.0276
    --------------------------------------------
      LOOP:  cpu time     73.4320: real time     73.5363

 eigenvalue-minimisations  : 10304
 total energy-change (2. order) :-0.4896690E+01  (-0.4878335E+01)
 number of electron     336.0000000 magnetization      56.0000000
 augmentation part      336.0000000 magnetization      56.0000000

 Free energy of the ion-electron system (eV)
  ---------------------------------------------------
  alpha Z        PSCENC =       253.99581917
  Ewald energy   TEWEN  =     -9969.68631375
  -Hartree energ DENC   =     -4766.85294707
  -exchange      EXHF   =         0.00000000
  -V(xc)+E(xc)   XCENC  =       682.53045139
  PAW double counting   =     12174.71095765   -11995.46358648
  entropy T*S    EENTRO =         0.00000000
  eigenvalues    EBANDS =     -2099.70880963
  atomic energy  EATOM  =     15501.99929693
  Solvation  Ediel_sol  =         0.00000000
  ---------------------------------------------------
  free energy    TOTEN  =      -218.47513179 eV

  energy without entropy =     -218.47513179  energy(sigma->0) =     -218.47513179


--------------------------------------------------------------------------------------------------------




--------------------------------------- Iteration      1(   5)  ---------------------------------------


     EDDAV:  cpu time     63.5949: real time     63.6730
 BZINTS: Fermi energy:    0.192229;  336.000000 electrons
         Band energy:-0.209985E+04;  BLOECHL correction:   -0.000000
       DOS:  cpu time      0.0314: real time      0.0314
    CHARGE:  cpu time      4.9413: real time      4.9444
    MIXING:  cpu time      0.0083: real time      0.0083
    --------------------------------------------
      LOOP:  cpu time     68.5758: real time     68.6571

 eigenvalue-minimisations  : 10048
 total energy-change (2. order) :-0.1371883E+00  (-0.1371220E+00)
 number of electron     335.9999997 magnetization      44.9918631
 augmentation part      -47.3222764 magnetization      44.8836931

 Broyden mixing:
  rms(total) = 0.82964E+01    rms(broyden)= 0.82964E+01
  rms(prec ) = 0.83163E+01
  weight for this iteration     100.00

 Free energy of the ion-electron system (eV)
  ---------------------------------------------------
  alpha Z        PSCENC =       253.99581917
  Ewald energy   TEWEN  =     -9969.68631375
  -Hartree energ DENC   =     -4766.85294707
  -exchange      EXHF   =         0.00000000
  -V(xc)+E(xc)   XCENC  =       682.53045139
  PAW double counting   =     12174.71095765   -11995.46358648
  entropy T*S    EENTRO =         0.00000000
  eigenvalues    EBANDS =     -2099.84599797
  atomic energy  EATOM  =     15501.99929693
  Solvation  Ediel_sol  =         0.00000000
  ---------------------------------------------------
  free energy    TOTEN  =      -218.61232012 eV

  energy without entropy =     -218.61232012  energy(sigma->0) =     -218.61232012


--------------------------------------------------------------------------------------------------------




--------------------------------------- Iteration      1(   6)  ---------------------------------------


    POTLOK:  cpu time      0.4484: real time      0.4540
    SETDIJ:  cpu time     11.8174: real time     11.8445
     EDDAV:  cpu time     65.8147: real time     65.8849
 BZINTS: Fermi energy:    0.410155;  336.000000 electrons
         Band energy:-0.201432E+04;  BLOECHL correction:    0.000000
       DOS:  cpu time      0.0275: real time      0.0276
    CHARGE:  cpu time     13.6579: real time     13.6662
    MIXING:  cpu time      0.0078: real time      0.0078
    --------------------------------------------
      LOOP:  cpu time     91.7737: real time     91.8849

 eigenvalue-minimisations  :  9632
 total energy-change (2. order) : 0.1022864E+03  (-0.2667639E+02)
 number of electron     335.9999997 magnetization      26.4962165
 augmentation part      -47.6484294 magnetization      27.5546939

 Broyden mixing:
  rms(total) = 0.49381E+01    rms(broyden)= 0.49381E+01
  rms(prec ) = 0.49604E+01
  weight for this iteration     100.00

 eigenvalues of (default mixing * dielectric matrix)
  average eigenvalue GAMMA=   1.6664
  1.6664

 Free energy of the ion-electron system (eV)
  ---------------------------------------------------
  alpha Z        PSCENC =       253.99581917
  Ewald energy   TEWEN  =     -9969.68631375
  -Hartree energ DENC   =     -4811.21072201
  -exchange      EXHF   =         0.00000000
  -V(xc)+E(xc)   XCENC  =       746.12333498
  PAW double counting   =     20739.53667578   -20562.76024026
  entropy T*S    EENTRO =         0.00000000
  eigenvalues    EBANDS =     -2014.32374074
  atomic energy  EATOM  =     15501.99929693
  Solvation  Ediel_sol  =         0.00000000
  ---------------------------------------------------
  free energy    TOTEN  =      -116.32588990 eV

  energy without entropy =     -116.32588990  energy(sigma->0) =     -116.32588990


--------------------------------------------------------------------------------------------------------




--------------------------------------- Iteration      1(   7)  ---------------------------------------


    POTLOK:  cpu time      0.4328: real time      0.4480
    SETDIJ:  cpu time      8.3092: real time      8.3233
     EDDAV:  cpu time     62.7435: real time     62.8674
 BZINTS: Fermi energy:    0.739838;  336.000000 electrons
         Band energy:-0.186795E+04;  BLOECHL correction:    0.000000
       DOS:  cpu time      0.0267: real time      0.0268
    CHARGE:  cpu time     11.8026: real time     11.8180
    MIXING:  cpu time      0.0066: real time      0.0066
    --------------------------------------------
      LOOP:  cpu time     83.3214: real time     83.4900

 eigenvalue-minimisations  : 10144
 total energy-change (2. order) :-0.1114157E+02  (-0.2696109E+01)
 number of electron     335.9999997 magnetization      19.7213061
 augmentation part      -47.3164396 magnetization      20.9269942

 Broyden mixing:
  rms(total) = 0.13986E+01    rms(broyden)= 0.13986E+01
  rms(prec ) = 0.14022E+01
  weight for this iteration     100.00

 eigenvalues of (default mixing * dielectric matrix)
  average eigenvalue GAMMA=   1.4857
  0.7903  2.1810

 Free energy of the ion-electron system (eV)
  ---------------------------------------------------
  alpha Z        PSCENC =       253.99581917
  Ewald energy   TEWEN  =     -9969.68631375
  -Hartree energ DENC   =     -4970.65057306
  -exchange      EXHF   =         0.00000000
  -V(xc)+E(xc)   XCENC  =       751.45851617
  PAW double counting   =     37047.47424548   -36874.11139238
  entropy T*S    EENTRO =         0.00000000
  eigenvalues    EBANDS =     -1867.94706021
  atomic energy  EATOM  =     15501.99929693
  Solvation  Ediel_sol  =         0.00000000
  ---------------------------------------------------
  free energy    TOTEN  =      -127.46746164 eV

  energy without entropy =     -127.46746164  energy(sigma->0) =     -127.46746164


--------------------------------------------------------------------------------------------------------




--------------------------------------- Iteration      1(   8)  ---------------------------------------


    POTLOK:  cpu time      0.4467: real time      0.4477
    SETDIJ:  cpu time      7.1844: real time      7.2058
     EDDAV:  cpu time     64.2664: real time     64.3349
 BZINTS: Fermi energy:    0.707506;  336.000000 electrons
         Band energy:-0.185539E+04;  BLOECHL correction:    0.000000
       DOS:  cpu time      0.0279: real time      0.0280
    CHARGE:  cpu time      9.8869: real time      9.8977
    MIXING:  cpu time      0.0100: real time      0.0100
    --------------------------------------------
      LOOP:  cpu time     81.8223: real time     81.9240

 eigenvalue-minimisations  :  9312
 total energy-change (2. order) :-0.4274128E+02  (-0.1978329E+01)
 number of electron     335.9999997 magnetization      16.0628487
 augmentation part      -47.0116552 magnetization      17.1074573

 Broyden mixing:
  rms(total) = 0.78206E+00    rms(broyden)= 0.78206E+00
  rms(prec ) = 0.78721E+00
  weight for this iteration     100.00

 eigenvalues of (default mixing * dielectric matrix)
  average eigenvalue GAMMA=   1.3385
  2.4899  0.9420  0.5835

 Free energy of the ion-electron system (eV)
  ---------------------------------------------------
  alpha Z        PSCENC =       253.99581917
  Ewald energy   TEWEN  =     -9969.68631375
  -Hartree energ DENC   =     -5000.29367659
  -exchange      EXHF   =         0.00000000
  -V(xc)+E(xc)   XCENC  =       726.56907830
  PAW double counting   =     40197.54247702   -40024.94683776
  entropy T*S    EENTRO =         0.00000000
  eigenvalues    EBANDS =     -1855.38858629
  atomic energy  EATOM  =     15501.99929693
  Solvation  Ediel_sol  =         0.00000000
  ---------------------------------------------------
  free energy    TOTEN  =      -170.20874297 eV

  energy without entropy =     -170.20874297  energy(sigma->0) =     -170.20874297


--------------------------------------------------------------------------------------------------------




--------------------------------------- Iteration      1(   9)  ---------------------------------------


    POTLOK:  cpu time      0.4714: real time      0.4728
    SETDIJ:  cpu time      3.7826: real time      3.7843
     EDDAV:  cpu time     65.1297: real time     65.6240
 BZINTS: Fermi energy:    0.629875;  336.000000 electrons
         Band energy:-0.186664E+04;  BLOECHL correction:    0.000000
       DOS:  cpu time      0.0268: real time      0.0268
    CHARGE:  cpu time      5.6378: real time      5.6447
    MIXING:  cpu time      0.0106: real time      0.0106
    --------------------------------------------
      LOOP:  cpu time     75.0590: real time     75.5633

 eigenvalue-minimisations  : 10240
 total energy-change (2. order) :-0.1673679E+02  (-0.6402363E+00)
 number of electron     335.9999997 magnetization      11.5326588
 augmentation part      -46.9153992 magnetization      12.3704912

 Broyden mixing:
  rms(total) = 0.43625E+00    rms(broyden)= 0.43625E+00
  rms(prec ) = 0.44830E+00
  weight for this iteration     100.00

 eigenvalues of (default mixing * dielectric matrix)
  average eigenvalue GAMMA=   1.3245
  2.5744  1.3009  0.7113  0.7113

 Free energy of the ion-electron system (eV)
  ---------------------------------------------------
  alpha Z        PSCENC =       253.99581917
  Ewald energy   TEWEN  =     -9969.68631375
  -Hartree energ DENC   =     -4996.48591605
  -exchange      EXHF   =         0.00000000
  -V(xc)+E(xc)   XCENC  =       717.25269887
  PAW double counting   =     40976.59490860   -40803.98092888
  entropy T*S    EENTRO =         0.00000000
  eigenvalues    EBANDS =     -1866.63509868
  atomic energy  EATOM  =     15501.99929693
  Solvation  Ediel_sol  =         0.00000000
  ---------------------------------------------------
  free energy    TOTEN  =      -186.94553379 eV

  energy without entropy =     -186.94553379  energy(sigma->0) =     -186.94553379


--------------------------------------------------------------------------------------------------------




--------------------------------------- Iteration      1(  10)  ---------------------------------------


    POTLOK:  cpu time      0.4579: real time      0.4593
    SETDIJ:  cpu time      2.4470: real time      2.4486
     EDDAV:  cpu time     66.1248: real time     66.7492
 BZINTS: Fermi energy:    0.476606;  336.000000 electrons
         Band energy:-0.190113E+04;  BLOECHL correction:    0.000000
       DOS:  cpu time      0.0267: real time      0.0268
    CHARGE:  cpu time      7.0087: real time      7.0177
    MIXING:  cpu time      0.0125: real time      0.0125
    --------------------------------------------
      LOOP:  cpu time     76.0776: real time     76.7140

 eigenvalue-minimisations  :  9984
 total energy-change (2. order) :-0.2007500E+02  (-0.1303221E+01)
 number of electron     335.9999997 magnetization       5.3095087
 augmentation part      -46.8734302 magnetization       5.8442518

 Broyden mixing:
  rms(total) = 0.32430E+00    rms(broyden)= 0.32429E+00
  rms(prec ) = 0.33726E+00
  weight for this iteration     100.00

 eigenvalues of (default mixing * dielectric matrix)
  average eigenvalue GAMMA=   1.4488
  2.4861  2.4861  0.9415  0.7283  0.6020

 Free energy of the ion-electron system (eV)
  ---------------------------------------------------
  alpha Z        PSCENC =       253.99581917
  Ewald energy   TEWEN  =     -9969.68631375
  -Hartree energ DENC   =     -4971.13764357
  -exchange      EXHF   =         0.00000000
  -V(xc)+E(xc)   XCENC  =       705.67046983
  PAW double counting   =     40986.94370340   -40813.67547158
  entropy T*S    EENTRO =         0.00000000
  eigenvalues    EBANDS =     -1901.13039285
  atomic energy  EATOM  =     15501.99929693
  Solvation  Ediel_sol  =         0.00000000
  ---------------------------------------------------
  free energy    TOTEN  =      -207.02053242 eV

  energy without entropy =     -207.02053242  energy(sigma->0) =     -207.02053242


--------------------------------------------------------------------------------------------------------




--------------------------------------- Iteration      1(  11)  ---------------------------------------


    POTLOK:  cpu time      0.4608: real time      0.4616
    SETDIJ:  cpu time      9.6515: real time      9.6664
     EDDAV:  cpu time     67.2375: real time     67.5432
 BZINTS: Fermi energy:    0.258575;  336.000000 electrons
         Band energy:-0.195850E+04;  BLOECHL correction:    0.000000
       DOS:  cpu time      0.0296: real time      0.0297
    CHARGE:  cpu time      9.2483: real time      9.2599
    MIXING:  cpu time      0.0097: real time      0.0097
    --------------------------------------------
      LOOP:  cpu time     86.6375: real time     86.9705

 eigenvalue-minimisations  :  9952
 total energy-change (2. order) :-0.1784813E+02  (-0.2164144E+01)
 number of electron     335.9999997 magnetization       3.5766444
 augmentation part      -46.9050785 magnetization       3.7600884

 Broyden mixing:
  rms(total) = 0.18667E+00    rms(broyden)= 0.18667E+00
  rms(prec ) = 0.20037E+00
  weight for this iteration     100.00

 eigenvalues of (default mixing * dielectric matrix)
  average eigenvalue GAMMA=   1.4663
  2.7965  2.7965  1.0265  0.8893  0.6991  0.5899

 Free energy of the ion-electron system (eV)
  ---------------------------------------------------
  alpha Z        PSCENC =       253.99581917
  Ewald energy   TEWEN  =     -9969.68631375
  -Hartree energ DENC   =     -4921.56987156
  -exchange      EXHF   =         0.00000000
  -V(xc)+E(xc)   XCENC  =       694.56108185
  PAW double counting   =     40414.42708669   -40240.09946229
  entropy T*S    EENTRO =         0.00000000
  eigenvalues    EBANDS =     -1958.49630111
  atomic energy  EATOM  =     15501.99929693
  Solvation  Ediel_sol  =         0.00000000
  ---------------------------------------------------
  free energy    TOTEN  =      -224.86866407 eV

  energy without entropy =     -224.86866407  energy(sigma->0) =     -224.86866407


--------------------------------------------------------------------------------------------------------




--------------------------------------- Iteration      1(  12)  ---------------------------------------


    POTLOK:  cpu time      0.4584: real time      0.4595
    SETDIJ:  cpu time      2.7175: real time      2.7204
     EDDAV:  cpu time     68.3302: real time     68.6510
 BZINTS: Fermi energy:    0.185608;  336.000000 electrons
         Band energy:-0.197913E+04;  BLOECHL correction:    0.000000
       DOS:  cpu time      0.0275: real time      0.0280
    CHARGE:  cpu time     10.7922: real time     10.8375
    MIXING:  cpu time      0.0103: real time      0.0103
    --------------------------------------------
      LOOP:  cpu time     82.3361: real time     82.7067

 eigenvalue-minimisations  : 10048
 total energy-change (2. order) :-0.3389866E+01  (-0.3879395E+00)
 number of electron     335.9999997 magnetization       2.3927741
 augmentation part      -46.9150721 magnetization       2.4760525

 Broyden mixing:
  rms(total) = 0.15983E+00    rms(broyden)= 0.15983E+00
  rms(prec ) = 0.17238E+00
  weight for this iteration     100.00

 eigenvalues of (default mixing * dielectric matrix)
  average eigenvalue GAMMA=   1.4914
  3.1003  3.1003  1.0548  1.0548  0.7809  0.7809  0.5677

 Free energy of the ion-electron system (eV)
  ---------------------------------------------------
  alpha Z        PSCENC =       253.99581917
  Ewald energy   TEWEN  =     -9969.68631375
  -Hartree energ DENC   =     -4902.10770564
  -exchange      EXHF   =         0.00000000
  -V(xc)+E(xc)   XCENC  =       692.10835344
  PAW double counting   =     39982.62040384   -39808.05620530
  entropy T*S    EENTRO =         0.00000000
  eigenvalues    EBANDS =     -1979.13217889
  atomic energy  EATOM  =     15501.99929693
  Solvation  Ediel_sol  =         0.00000000
  ---------------------------------------------------
  free energy    TOTEN  =      -228.25853019 eV

  energy without entropy =     -228.25853019  energy(sigma->0) =     -228.25853019


--------------------------------------------------------------------------------------------------------




--------------------------------------- Iteration      1(  13)  ---------------------------------------


    POTLOK:  cpu time      2.2677: real time      2.2831
    SETDIJ:  cpu time      7.7468: real time      7.7791
     EDDAV:  cpu time     70.3146: real time     70.8101
 BZINTS: Fermi energy:    0.117153;  336.000000 electrons
         Band energy:-0.200161E+04;  BLOECHL correction:    0.000000
       DOS:  cpu time      0.0269: real time      0.0270
    CHARGE:  cpu time     14.0740: real time     14.1512
    MIXING:  cpu time      0.0123: real time      0.0123
    --------------------------------------------
      LOOP:  cpu time     94.4424: real time     95.0629

 eigenvalue-minimisations  :  9568
 total energy-change (2. order) :-0.1056180E+01  (-0.1340202E+00)
 number of electron     335.9999997 magnetization       0.8901137
 augmentation part      -46.9733987 magnetization       0.9161471

 Broyden mixing:
  rms(total) = 0.93124E-01    rms(broyden)= 0.93124E-01
  rms(prec ) = 0.99947E-01
  weight for this iteration     100.00

 eigenvalues of (default mixing * dielectric matrix)
  average eigenvalue GAMMA=   1.5511
  3.3216  3.3216  1.5822  1.2850  0.9270  0.6995  0.6995  0.5721

 Free energy of the ion-electron system (eV)
  ---------------------------------------------------
  alpha Z        PSCENC =       253.99581917
  Ewald energy   TEWEN  =     -9969.68631375
  -Hartree energ DENC   =     -4878.93714102
  -exchange      EXHF   =         0.00000000
  -V(xc)+E(xc)   XCENC  =       690.12221593
  PAW double counting   =     39161.32630002   -38986.52193182
  entropy T*S    EENTRO =         0.00000000
  eigenvalues    EBANDS =     -2001.61295534
  atomic energy  EATOM  =     15501.99929693
  Solvation  Ediel_sol  =         0.00000000
  ---------------------------------------------------
  free energy    TOTEN  =      -229.31470989 eV

  energy without entropy =     -229.31470989  energy(sigma->0) =     -229.31470989


--------------------------------------------------------------------------------------------------------




--------------------------------------- Iteration      1(  14)  ---------------------------------------


    POTLOK:  cpu time      0.4590: real time      0.4644
    SETDIJ:  cpu time      9.5827: real time      9.6364
     EDDAV:  cpu time     64.0230: real time     65.5439
 BZINTS: Fermi energy:    0.081524;  336.000000 electrons
         Band energy:-0.201209E+04;  BLOECHL correction:    0.000000
       DOS:  cpu time      0.0278: real time      0.0279
    CHARGE:  cpu time      6.7596: real time      6.9973
    MIXING:  cpu time      2.0859: real time      2.1533
    --------------------------------------------
      LOOP:  cpu time     82.9379: real time     84.8233

 eigenvalue-minimisations  :  8992
 total energy-change (2. order) :-0.6527890E-01  (-0.1628441E-01)
 number of electron     335.9999997 magnetization       0.4182087
 augmentation part      -47.0005148 magnetization       0.4252268

 Broyden mixing:
  rms(total) = 0.43784E-01    rms(broyden)= 0.43783E-01
  rms(prec ) = 0.46490E-01
  weight for this iteration     100.00

 eigenvalues of (default mixing * dielectric matrix)
  average eigenvalue GAMMA=   1.5782
  4.1292  2.5565  2.5565  1.0965  1.0965  0.7711  0.7711  0.5746  0.6517

 Free energy of the ion-electron system (eV)
  ---------------------------------------------------
  alpha Z        PSCENC =       253.99581917
  Ewald energy   TEWEN  =     -9969.68631375
  -Hartree energ DENC   =     -4867.56266455
  -exchange      EXHF   =         0.00000000
  -V(xc)+E(xc)   XCENC  =       689.20870799
  PAW double counting   =     39099.72339085   -38924.96407416
  entropy T*S    EENTRO =         0.00000000
  eigenvalues    EBANDS =     -2012.09415127
  atomic energy  EATOM  =     15501.99929693
  Solvation  Ediel_sol  =         0.00000000
  ---------------------------------------------------
  free energy    TOTEN  =      -229.37998878 eV

  energy without entropy =     -229.37998878  energy(sigma->0) =     -229.37998878


--------------------------------------------------------------------------------------------------------




--------------------------------------- Iteration      1(  15)  ---------------------------------------


    POTLOK:  cpu time      0.4334: real time      0.4693
    SETDIJ:  cpu time      8.7035: real time      9.0056
     EDDAV:  cpu time     70.6769: real time     73.5489
 BZINTS: Fermi energy:    0.079708;  336.000000 electrons
         Band energy:-0.201180E+04;  BLOECHL correction:    0.000000
       DOS:  cpu time      0.0293: real time      0.0294
    CHARGE:  cpu time      8.9941: real time      9.3853
    MIXING:  cpu time      0.0103: real time      0.0103
    --------------------------------------------
      LOOP:  cpu time     88.8475: real time     92.4489

 eigenvalue-minimisations  :  9664
 total energy-change (2. order) : 0.1265009E-02  (-0.2078310E-02)
 number of electron     335.9999997 magnetization       0.1723063
 augmentation part      -46.9943974 magnetization       0.1765979

 Broyden mixing:
  rms(total) = 0.20231E-01    rms(broyden)= 0.20230E-01
  rms(prec ) = 0.21809E-01
  weight for this iteration     100.00

 eigenvalues of (default mixing * dielectric matrix)
  average eigenvalue GAMMA=   1.5645
  4.5527  2.5274  2.5274  1.3339  0.9967  0.9967  0.7585  0.7585  0.6240  0.5690

 Free energy of the ion-electron system (eV)
  ---------------------------------------------------
  alpha Z        PSCENC =       253.99581917
  Ewald energy   TEWEN  =     -9969.68631375
  -Hartree energ DENC   =     -4867.72984935
  -exchange      EXHF   =         0.00000000
  -V(xc)+E(xc)   XCENC  =       689.17008249
  PAW double counting   =     39185.36505602   -39010.69296200
  entropy T*S    EENTRO =         0.00000000
  eigenvalues    EBANDS =     -2011.79985328
  atomic energy  EATOM  =     15501.99929693
  Solvation  Ediel_sol  =         0.00000000
  ---------------------------------------------------
  free energy    TOTEN  =      -229.37872377 eV

  energy without entropy =     -229.37872377  energy(sigma->0) =     -229.37872377


--------------------------------------------------------------------------------------------------------




--------------------------------------- Iteration      1(  16)  ---------------------------------------


    POTLOK:  cpu time      0.4518: real time      0.4558
    SETDIJ:  cpu time      9.5873: real time      9.9815
     EDDAV:  cpu time     65.7255: real time     68.4059
 BZINTS: Fermi energy:    0.078045;  336.000000 electrons
         Band energy:-0.201227E+04;  BLOECHL correction:    0.000000
       DOS:  cpu time      0.0270: real time      0.0567
    CHARGE:  cpu time      7.1138: real time      7.3623
    MIXING:  cpu time      0.0120: real time      0.0120
    --------------------------------------------
      LOOP:  cpu time     82.9175: real time     86.2742

 eigenvalue-minimisations  :  9088
 total energy-change (2. order) : 0.3111183E-02  (-0.5522446E-03)
 number of electron     335.9999997 magnetization       0.0697690
 augmentation part      -46.9932578 magnetization       0.0705652

 Broyden mixing:
  rms(total) = 0.12349E-01    rms(broyden)= 0.12349E-01
  rms(prec ) = 0.13362E-01
  weight for this iteration     100.00

 eigenvalues of (default mixing * dielectric matrix)
  average eigenvalue GAMMA=   1.5464
  4.7577  2.4278  2.4278  1.8396  0.9957  0.9957  0.9224  0.7279  0.7279  0.5804
  0.6068

 Free energy of the ion-electron system (eV)
  ---------------------------------------------------
  alpha Z        PSCENC =       253.99581917
  Ewald energy   TEWEN  =     -9969.68631375
  -Hartree energ DENC   =     -4867.16727654
  -exchange      EXHF   =         0.00000000
  -V(xc)+E(xc)   XCENC  =       689.10169098
  PAW double counting   =     39155.41799305   -38980.76978717
  entropy T*S    EENTRO =         0.00000000
  eigenvalues    EBANDS =     -2012.26703525
  atomic energy  EATOM  =     15501.99929693
  Solvation  Ediel_sol  =         0.00000000
  ---------------------------------------------------
  free energy    TOTEN  =      -229.37561259 eV

  energy without entropy =     -229.37561259  energy(sigma->0) =     -229.37561259


--------------------------------------------------------------------------------------------------------




--------------------------------------- Iteration      1(  17)  ---------------------------------------


    POTLOK:  cpu time      0.4436: real time      0.4451
    SETDIJ:  cpu time     10.3096: real time     10.6810
     EDDAV:  cpu time     60.5734: real time     62.7452
 BZINTS: Fermi energy:    0.079789;  336.000000 electrons
         Band energy:-0.201134E+04;  BLOECHL correction:    0.000000
       DOS:  cpu time      0.0277: real time      0.0277
    CHARGE:  cpu time      8.2010: real time      8.2901
    MIXING:  cpu time      0.0105: real time      0.0105
    --------------------------------------------
      LOOP:  cpu time     79.5656: real time     82.1996

 eigenvalue-minimisations  :  9504
 total energy-change (2. order) :-0.5020450E-03  (-0.1193249E-03)
 number of electron     335.9999997 magnetization       0.0178126
 augmentation part      -46.9881924 magnetization       0.0182087

 Broyden mixing:
  rms(total) = 0.49310E-02    rms(broyden)= 0.49310E-02
  rms(prec ) = 0.55336E-02
  weight for this iteration     100.00

 eigenvalues of (default mixing * dielectric matrix)
  average eigenvalue GAMMA=   1.5758
  4.9482  2.6012  2.6012  2.2006  1.1772  0.9961  0.9961  0.7616  0.7616  0.6813
  0.5867  0.5979

 Free energy of the ion-electron system (eV)
  ---------------------------------------------------
  alpha Z        PSCENC =       253.99581917
  Ewald energy   TEWEN  =     -9969.68631375
  -Hartree energ DENC   =     -4868.12830428
  -exchange      EXHF   =         0.00000000
  -V(xc)+E(xc)   XCENC  =       689.16150461
  PAW double counting   =     39196.27064350   -39021.64671513
  entropy T*S    EENTRO =         0.00000000
  eigenvalues    EBANDS =     -2011.34204569
  atomic energy  EATOM  =     15501.99929693
  Solvation  Ediel_sol  =         0.00000000
  ---------------------------------------------------
  free energy    TOTEN  =      -229.37611464 eV

  energy without entropy =     -229.37611464  energy(sigma->0) =     -229.37611464


--------------------------------------------------------------------------------------------------------




--------------------------------------- Iteration      1(  18)  ---------------------------------------


    POTLOK:  cpu time      0.4215: real time      0.4365
    SETDIJ:  cpu time      7.7189: real time      7.7829
     EDDAV:  cpu time     69.6457: real time     70.3498
 BZINTS: Fermi energy:    0.081177;  336.000000 electrons
         Band energy:-0.201082E+04;  BLOECHL correction:    0.000000
       DOS:  cpu time      0.0270: real time      0.0272
    CHARGE:  cpu time     13.6572: real time     13.7341
    MIXING:  cpu time      0.0157: real time      0.0157
    --------------------------------------------
      LOOP:  cpu time     91.4860: real time     92.3463

 eigenvalue-minimisations  :  9536
 total energy-change (2. order) :-0.1155720E-03  (-0.3970655E-04)
 number of electron     335.9999997 magnetization       0.0051353
 augmentation part      -46.9848481 magnetization       0.0056755

 Broyden mixing:
  rms(total) = 0.44579E-02    rms(broyden)= 0.44579E-02
  rms(prec ) = 0.47110E-02
  weight for this iteration     100.00

 eigenvalues of (default mixing * dielectric matrix)
  average eigenvalue GAMMA=   1.5443
  5.0022  2.6447  2.6447  2.2634  1.1300  1.1300  0.9906  0.9906  0.7251  0.7251
  0.5781  0.6444  0.6067

 Free energy of the ion-electron system (eV)
  ---------------------------------------------------
  alpha Z        PSCENC =       253.99581917
  Ewald energy   TEWEN  =     -9969.68631375
  -Hartree energ DENC   =     -4868.67407762
  -exchange      EXHF   =         0.00000000
  -V(xc)+E(xc)   XCENC  =       689.19693082
  PAW double counting   =     39225.12961069   -39050.52056343
  entropy T*S    EENTRO =         0.00000000
  eigenvalues    EBANDS =     -2010.81693302
  atomic energy  EATOM  =     15501.99929693
  Solvation  Ediel_sol  =         0.00000000
  ---------------------------------------------------
  free energy    TOTEN  =      -229.37623021 eV

  energy without entropy =     -229.37623021  energy(sigma->0) =     -229.37623021


--------------------------------------------------------------------------------------------------------




--------------------------------------- Iteration      1(  19)  ---------------------------------------


    POTLOK:  cpu time      0.4349: real time      0.4413
    SETDIJ:  cpu time     12.1826: real time     12.2523
     EDDAV:  cpu time     67.5423: real time     68.0440
 BZINTS: Fermi energy:    0.080187;  336.000000 electrons
         Band energy:-0.201108E+04;  BLOECHL correction:    0.000000
       DOS:  cpu time      0.0279: real time      0.0280
    CHARGE:  cpu time     11.4869: real time     11.5646
    MIXING:  cpu time      0.0103: real time      0.0103
    --------------------------------------------
      LOOP:  cpu time     91.6849: real time     92.3405

 eigenvalue-minimisations  :  9728
 total energy-change (2. order) :-0.6197282E-05  (-0.6231887E-05)
 number of electron     335.9999997 magnetization      -0.0005353
 augmentation part      -46.9856813 magnetization      -0.0002941

 Broyden mixing:
  rms(total) = 0.20222E-02    rms(broyden)= 0.20221E-02
  rms(prec ) = 0.21975E-02
  weight for this iteration     100.00

 eigenvalues of (default mixing * dielectric matrix)
  average eigenvalue GAMMA=   1.5453
  5.0453  2.7066  2.7066  2.1097  1.4076  1.4076  1.0326  1.0326  0.8582  0.7537
  0.7537  0.5795  0.6096  0.6307

 Free energy of the ion-electron system (eV)
  ---------------------------------------------------
  alpha Z        PSCENC =       253.99581917
  Ewald energy   TEWEN  =     -9969.68631375
  -Hartree energ DENC   =     -4868.39954756
  -exchange      EXHF   =         0.00000000
  -V(xc)+E(xc)   XCENC  =       689.17999779
  PAW double counting   =     39223.74719083   -39049.13500258
  entropy T*S    EENTRO =         0.00000000
  eigenvalues    EBANDS =     -2011.07767723
  atomic energy  EATOM  =     15501.99929693
  Solvation  Ediel_sol  =         0.00000000
  ---------------------------------------------------
  free energy    TOTEN  =      -229.37623641 eV

  energy without entropy =     -229.37623641  energy(sigma->0) =     -229.37623641


--------------------------------------------------------------------------------------------------------




--------------------------------------- Iteration      1(  20)  ---------------------------------------


    POTLOK:  cpu time      0.4596: real time      0.4664
    SETDIJ:  cpu time      2.6208: real time      2.6370
     EDDAV:  cpu time     74.3087: real time     74.8135
 BZINTS: Fermi energy:    0.079871;  336.000000 electrons
         Band energy:-0.201122E+04;  BLOECHL correction:    0.000000
       DOS:  cpu time      0.0274: real time      0.0275
    CHARGE:  cpu time     10.0228: real time     10.0938
    MIXING:  cpu time      0.0139: real time      0.0139
    --------------------------------------------
      LOOP:  cpu time     87.4532: real time     88.0520

 eigenvalue-minimisations  :  9184
 total energy-change (2. order) :-0.1056863E-04  (-0.3467789E-05)
 number of electron     335.9999997 magnetization      -0.0016413
 augmentation part      -46.9862085 magnetization      -0.0015626

 Broyden mixing:
  rms(total) = 0.95372E-03    rms(broyden)= 0.95359E-03
  rms(prec ) = 0.10132E-02
  weight for this iteration     100.00

 eigenvalues of (default mixing * dielectric matrix)
  average eigenvalue GAMMA=   1.5468
  5.0952  2.7078  2.7078  2.0983  2.0983  1.2297  1.2297  0.9903  0.9903  0.7801
  0.7328  0.7328  0.5775  0.6159  0.6159

 Free energy of the ion-electron system (eV)
  ---------------------------------------------------
  alpha Z        PSCENC =       253.99581917
  Ewald energy   TEWEN  =     -9969.68631375
  -Hartree energ DENC   =     -4868.25704329
  -exchange      EXHF   =         0.00000000
  -V(xc)+E(xc)   XCENC  =       689.17300236
  PAW double counting   =     39228.93044615   -39054.31635599
  entropy T*S    EENTRO =         0.00000000
  eigenvalues    EBANDS =     -2011.21509856
  atomic energy  EATOM  =     15501.99929693
  Solvation  Ediel_sol  =         0.00000000
  ---------------------------------------------------
  free energy    TOTEN  =      -229.37624697 eV

  energy without entropy =     -229.37624697  energy(sigma->0) =     -229.37624697


--------------------------------------------------------------------------------------------------------




--------------------------------------- Iteration      1(  21)  ---------------------------------------


    POTLOK:  cpu time      0.4363: real time      0.4373
    SETDIJ:  cpu time     12.1970: real time     12.2772
     EDDAV:  cpu time     62.7871: real time     63.3156
 BZINTS: Fermi energy:    0.079849;  336.000000 electrons
         Band energy:-0.201127E+04;  BLOECHL correction:    0.000000
       DOS:  cpu time      0.0269: real time      0.0270
    CHARGE:  cpu time     11.8835: real time     11.9695
    MIXING:  cpu time      0.0156: real time      0.0156
    --------------------------------------------
      LOOP:  cpu time     87.3465: real time     88.0422

 eigenvalue-minimisations  :  9280
 total energy-change (2. order) : 0.1147808E-05  (-0.8888872E-06)
 number of electron     335.9999997 magnetization      -0.0013501
 augmentation part      -46.9864051 magnetization      -0.0013541

 Broyden mixing:
  rms(total) = 0.42492E-03    rms(broyden)= 0.42465E-03
  rms(prec ) = 0.44713E-03
  weight for this iteration     100.00

 eigenvalues of (default mixing * dielectric matrix)
  average eigenvalue GAMMA=   1.5118
  5.0970  2.6678  2.6678  2.5705  1.6145  1.3984  1.1560  1.1560  0.9278  0.9278
  0.7392  0.7392  0.7251  0.5773  0.6126  0.6126

 Free energy of the ion-electron system (eV)
  ---------------------------------------------------
  alpha Z        PSCENC =       253.99581917
  Ewald energy   TEWEN  =     -9969.68631375
  -Hartree energ DENC   =     -4868.19731151
  -exchange      EXHF   =         0.00000000
  -V(xc)+E(xc)   XCENC  =       689.16934097
  PAW double counting   =     39228.36383378   -39053.74892390
  entropy T*S    EENTRO =         0.00000000
  eigenvalues    EBANDS =     -2011.27198753
  atomic energy  EATOM  =     15501.99929693
  Solvation  Ediel_sol  =         0.00000000
  ---------------------------------------------------
  free energy    TOTEN  =      -229.37624583 eV

  energy without entropy =     -229.37624583  energy(sigma->0) =     -229.37624583


--------------------------------------------------------------------------------------------------------




--------------------------------------- Iteration      1(  22)  ---------------------------------------


    POTLOK:  cpu time      0.4375: real time      0.4512
    SETDIJ:  cpu time      7.3140: real time      7.3570
     EDDAV:  cpu time     73.5610: real time     73.9171
 BZINTS: Fermi energy:    0.079697;  336.000000 electrons
         Band energy:-0.201129E+04;  BLOECHL correction:    0.000000
       DOS:  cpu time      0.0268: real time      0.0269
    CHARGE:  cpu time     13.3440: real time     13.3475
    MIXING:  cpu time      0.0112: real time      0.0112
    --------------------------------------------
      LOOP:  cpu time     94.6944: real time     95.1108

 eigenvalue-minimisations  :  9792
 total energy-change (2. order) : 0.4514659E-06  (-0.1420089E-06)
 number of electron     335.9999997 magnetization      -0.0004755
 augmentation part      -46.9864742 magnetization      -0.0004971

 Broyden mixing:
  rms(total) = 0.23129E-03    rms(broyden)= 0.23080E-03
  rms(prec ) = 0.24548E-03
  weight for this iteration     100.00

 eigenvalues of (default mixing * dielectric matrix)
  average eigenvalue GAMMA=   1.5006
  5.0913  2.6563  2.6563  2.6242  1.6713  1.4416  1.4416  1.0826  1.0826  0.9006
  0.9006  0.7422  0.7422  0.6731  0.5783  0.6126  0.6126

 Free energy of the ion-electron system (eV)
  ---------------------------------------------------
  alpha Z        PSCENC =       253.99581917
  Ewald energy   TEWEN  =     -9969.68631375
  -Hartree energ DENC   =     -4868.17558399
  -exchange      EXHF   =         0.00000000
  -V(xc)+E(xc)   XCENC  =       689.16775420
  PAW double counting   =     39226.95132092   -39052.33610499
  entropy T*S    EENTRO =         0.00000000
  eigenvalues    EBANDS =     -2011.29243387
  atomic energy  EATOM  =     15501.99929693
  Solvation  Ediel_sol  =         0.00000000
  ---------------------------------------------------
  free energy    TOTEN  =      -229.37624537 eV

  energy without entropy =     -229.37624537  energy(sigma->0) =     -229.37624537


--------------------------------------------------------------------------------------------------------




--------------------------------------- Iteration      1(  23)  ---------------------------------------


    POTLOK:  cpu time      0.4302: real time      0.4311
    SETDIJ:  cpu time      7.9667: real time      7.9854
     EDDAV:  cpu time     75.5848: real time     75.6846
 BZINTS: Fermi energy:    0.079757;  336.000000 electrons
         Band energy:-0.201129E+04;  BLOECHL correction:    0.000000
       DOS:  cpu time      0.0269: real time      0.0270
    CHARGE:  cpu time      6.5014: real time      6.5071
    MIXING:  cpu time      0.0176: real time      0.0176
    --------------------------------------------
      LOOP:  cpu time     90.5276: real time     90.6527

 eigenvalue-minimisations  :  9216
 total energy-change (2. order) :-0.2232809E-06  (-0.5751853E-07)
 number of electron     335.9999997 magnetization      -0.0002599
 augmentation part      -46.9864478 magnetization      -0.0002562

 Broyden mixing:
[...]

  length of vectors
    10.314108670 16.788494411 10.846477853     0.097707938  0.059564603  0.092912216


 FORCES acting on ions
    electron-ion (+dipol)            ewald-force                    non-local-force                 convergence-correction
 -----------------------------------------------------------------------------------------------
   0.986E+02 -.105E+03 -.125E+02   -.104E+03 0.113E+03 0.112E+02   0.495E+01 -.888E+01 0.132E+01   0.171E-05 -.448E-06 0.688E-06
   0.987E+02 -.105E+03 -.126E+02   -.104E+03 0.113E+03 0.112E+02   0.495E+01 -.888E+01 0.132E+01   0.170E-05 -.486E-06 0.760E-06
   -.122E+02 0.423E+02 -.127E+03   0.124E+02 -.476E+02 0.135E+03   -.229E+00 0.524E+01 -.701E+01   0.267E-07 0.441E-07 -.139E-05
   -.124E+02 0.420E+02 -.127E+03   0.126E+02 -.472E+02 0.134E+03   -.246E+00 0.519E+01 -.705E+01   0.153E-06 0.152E-06 -.137E-05
   -.211E+02 -.902E+02 0.981E+02   0.198E+02 0.989E+02 -.103E+03   0.134E+01 -.874E+01 0.530E+01   -.115E-06 -.260E-06 0.205E-05
   -.211E+02 -.902E+02 0.981E+02   0.198E+02 0.989E+02 -.103E+03   0.134E+01 -.874E+01 0.530E+01   0.172E-09 -.265E-06 0.206E-05
   -.109E+03 0.951E+02 0.639E+01   0.114E+03 -.101E+03 -.426E+01   -.531E+01 0.592E+01 -.214E+01   -.170E-05 -.173E-06 0.730E-06
   -.108E+03 0.950E+02 0.625E+01   0.114E+03 -.101E+03 -.414E+01   -.534E+01 0.592E+01 -.212E+01   -.174E-05 -.660E-07 0.699E-06
   0.137E+03 -.540E+02 -.186E+02   -.143E+03 0.595E+02 0.192E+02   0.680E+01 -.552E+01 -.558E+00   0.154E-05 -.157E-06 -.926E-06
   0.136E+03 -.540E+02 -.187E+02   -.143E+03 0.595E+02 0.193E+02   0.680E+01 -.552E+01 -.558E+00   0.162E-05 -.904E-07 -.975E-06
   -.136E+03 0.540E+02 0.187E+02   0.143E+03 -.595E+02 -.193E+02   -.680E+01 0.552E+01 0.558E+00   -.164E-05 -.825E-07 0.107E-05
   -.136E+03 0.540E+02 0.187E+02   0.143E+03 -.595E+02 -.193E+02   -.680E+01 0.552E+01 0.558E+00   -.154E-05 -.163E-06 0.107E-05
   0.108E+03 -.950E+02 -.623E+01   -.114E+03 0.101E+03 0.411E+01   0.534E+01 -.592E+01 0.212E+01   0.149E-05 0.397E-07 -.641E-06
   0.108E+03 -.950E+02 -.625E+01   -.114E+03 0.101E+03 0.413E+01   0.534E+01 -.592E+01 0.212E+01   0.177E-05 -.864E-07 -.640E-06
   -.123E+02 -.420E+02 0.127E+03   0.126E+02 0.472E+02 -.134E+03   -.246E+00 -.519E+01 0.705E+01   0.174E-06 -.119E-06 0.977E-06
   -.124E+02 -.420E+02 0.127E+03   0.126E+02 0.472E+02 -.134E+03   -.246E+00 -.519E+01 0.705E+01   0.703E-07 -.123E-06 0.110E-05
   0.212E+02 -.902E+02 0.982E+02   -.198E+02 0.990E+02 -.104E+03   -.134E+01 -.874E+01 0.531E+01   0.146E-07 0.195E-06 0.189E-05
   0.211E+02 -.902E+02 0.981E+02   -.198E+02 0.989E+02 -.103E+03   -.134E+01 -.874E+01 0.530E+01   0.148E-06 0.222E-06 0.189E-05
   -.994E+02 -.105E+03 -.124E+02   0.104E+03 0.114E+03 0.111E+02   -.495E+01 -.886E+01 0.127E+01   -.166E-05 -.594E-07 0.644E-06
   -.986E+02 -.105E+03 -.125E+02   0.104E+03 0.113E+03 0.112E+02   -.495E+01 -.888E+01 0.132E+01   -.169E-05 0.134E-07 0.692E-06
   -.136E+03 -.539E+02 -.187E+02   0.143E+03 0.595E+02 0.192E+02   -.680E+01 -.552E+01 -.558E+00   -.147E-05 0.109E-06 -.100E-05
   -.136E+03 -.539E+02 -.187E+02   0.143E+03 0.595E+02 0.192E+02   -.680E+01 -.552E+01 -.558E+00   -.166E-05 0.150E-06 -.102E-05
   0.124E+02 0.420E+02 -.127E+03   -.126E+02 -.472E+02 0.134E+03   0.246E+00 0.519E+01 -.705E+01   -.161E-06 -.107E-06 -.134E-05
   0.124E+02 0.420E+02 -.127E+03   -.126E+02 -.472E+02 0.134E+03   0.246E+00 0.519E+01 -.705E+01   -.209E-08 -.170E-06 -.137E-05
   -.109E+03 -.950E+02 -.615E+01   0.114E+03 0.101E+03 0.404E+01   -.534E+01 -.592E+01 0.212E+01   -.182E-05 0.802E-07 -.644E-06
   -.108E+03 -.950E+02 -.625E+01   0.114E+03 0.101E+03 0.413E+01   -.534E+01 -.592E+01 0.212E+01   -.156E-05 0.159E-06 -.653E-06
   0.987E+02 0.105E+03 0.126E+02   -.104E+03 -.114E+03 -.113E+02   0.495E+01 0.888E+01 -.132E+01   0.157E-05 0.510E-06 -.915E-06
   0.986E+02 0.105E+03 0.125E+02   -.104E+03 -.113E+03 -.112E+02   0.495E+01 0.888E+01 -.132E+01   0.177E-05 0.427E-06 -.858E-06
   -.987E+02 0.105E+03 0.126E+02   0.104E+03 -.113E+03 -.112E+02   -.495E+01 0.888E+01 -.132E+01   -.173E-05 -.210E-07 -.805E-06
   -.986E+02 0.105E+03 0.125E+02   0.104E+03 -.113E+03 -.112E+02   -.495E+01 0.888E+01 -.132E+01   -.155E-05 0.515E-07 -.863E-06
   0.728E+02 0.961E+02 0.632E+02   -.756E+02 -.106E+03 -.653E+02   0.274E+01 0.971E+01 0.207E+01   0.818E-06 0.145E-06 0.376E-06
   0.728E+02 0.961E+02 0.632E+02   -.755E+02 -.106E+03 -.653E+02   0.274E+01 0.971E+01 0.207E+01   0.868E-06 0.113E-06 0.468E-06
   0.218E+02 -.938E+02 -.889E+02   -.205E+02 0.100E+03 0.939E+02   -.133E+01 -.628E+01 -.509E+01   0.198E-06 0.132E-06 -.120E-05
   0.218E+02 -.938E+02 -.889E+02   -.205E+02 0.100E+03 0.940E+02   -.133E+01 -.628E+01 -.509E+01   0.322E-06 0.183E-07 -.134E-05
   -.211E+02 0.902E+02 -.980E+02   0.198E+02 -.989E+02 0.103E+03   0.134E+01 0.874E+01 -.530E+01   -.446E-07 0.286E-06 -.170E-05
   -.211E+02 0.902E+02 -.981E+02   0.198E+02 -.989E+02 0.103E+03   0.134E+01 0.874E+01 -.530E+01   -.968E-07 0.279E-06 -.181E-05
   -.218E+02 0.938E+02 0.891E+02   0.205E+02 -.100E+03 -.941E+02   0.134E+01 0.628E+01 0.509E+01   -.365E-06 -.194E-06 0.166E-05
   -.218E+02 0.938E+02 0.889E+02   0.205E+02 -.100E+03 -.940E+02   0.133E+01 0.628E+01 0.509E+01   -.280E-06 -.585E-07 0.160E-05
   0.211E+02 0.902E+02 -.980E+02   -.198E+02 -.989E+02 0.103E+03   -.134E+01 0.874E+01 -.530E+01   0.913E-07 -.170E-06 -.154E-05
   0.211E+02 0.902E+02 -.980E+02   -.198E+02 -.989E+02 0.103E+03   -.134E+01 0.874E+01 -.530E+01   0.979E-07 -.212E-06 -.165E-05
   0.732E+02 -.966E+02 -.636E+02   -.760E+02 0.106E+03 0.657E+02   0.271E+01 -.964E+01 -.212E+01   0.775E-06 -.111E-06 -.660E-06
   0.728E+02 -.961E+02 -.633E+02   -.755E+02 0.106E+03 0.653E+02   0.274E+01 -.971E+01 -.207E+01   0.941E-06 -.143E-06 -.690E-06
   0.137E+03 0.539E+02 0.188E+02   -.143E+03 -.595E+02 -.194E+02   0.678E+01 0.554E+01 0.541E+00   0.153E-05 0.113E-06 0.101E-05
   0.136E+03 0.540E+02 0.187E+02   -.143E+03 -.595E+02 -.193E+02   0.680E+01 0.552E+01 0.558E+00   0.167E-05 0.131E-06 0.101E-05
   0.108E+03 0.950E+02 0.625E+01   -.114E+03 -.101E+03 -.413E+01   0.534E+01 0.592E+01 -.212E+01   0.170E-05 0.176E-07 0.715E-06
   0.108E+03 0.950E+02 0.625E+01   -.114E+03 -.101E+03 -.413E+01   0.534E+01 0.592E+01 -.212E+01   0.165E-05 0.187E-07 0.697E-06
   -.728E+02 -.961E+02 -.633E+02   0.755E+02 0.106E+03 0.654E+02   -.274E+01 -.971E+01 -.207E+01   -.930E-06 -.699E-06 -.665E-06
   -.728E+02 -.961E+02 -.633E+02   0.755E+02 0.106E+03 0.653E+02   -.274E+01 -.971E+01 -.207E+01   -.827E-06 -.672E-06 -.632E-06
   -.218E+02 -.938E+02 -.889E+02   0.205E+02 0.100E+03 0.940E+02   0.133E+01 -.628E+01 -.509E+01   -.211E-06 0.127E-06 -.124E-05
   -.218E+02 -.938E+02 -.889E+02   0.205E+02 0.100E+03 0.939E+02   0.133E+01 -.628E+01 -.509E+01   -.345E-06 0.125E-06 -.137E-05
   0.218E+02 0.938E+02 0.889E+02   -.205E+02 -.100E+03 -.940E+02   -.133E+01 0.628E+01 0.509E+01   0.230E-06 -.377E-07 0.156E-05
   0.218E+02 0.938E+02 0.889E+02   -.205E+02 -.100E+03 -.940E+02   -.133E+01 0.628E+01 0.509E+01   0.384E-06 -.112E-06 0.163E-05
   -.727E+02 0.962E+02 0.632E+02   0.755E+02 -.106E+03 -.653E+02   -.274E+01 0.971E+01 0.207E+01   -.792E-06 0.685E-06 0.350E-06
   -.728E+02 0.962E+02 0.632E+02   0.755E+02 -.106E+03 -.653E+02   -.274E+01 0.971E+01 0.207E+01   -.932E-06 0.705E-06 0.444E-06
   0.124E+02 -.419E+02 0.127E+03   -.126E+02 0.471E+02 -.134E+03   0.246E+00 -.519E+01 0.705E+01   -.137E-06 0.158E-06 0.938E-06
   0.124E+02 -.420E+02 0.127E+03   -.126E+02 0.472E+02 -.134E+03   0.246E+00 -.519E+01 0.705E+01   -.843E-07 0.904E-07 0.109E-05
 -----------------------------------------------------------------------------------------------
   0.249E-02 -.146E+00 0.103E+00   -.497E-13 -.249E-12 0.853E-13   -.249E-02 0.146E+00 -.103E+00   -.534E-07 0.107E-07 -.552E-07


 POSITION                                       TOTAL-FORCE (eV/Angst)
 -----------------------------------------------------------------------------------
      7.84031      7.96182     -7.59135         0.002459     -0.001211      0.000958
     16.23455      7.96182     -7.59135         0.002473     -0.001209      0.000980
      3.16872      2.44122     -6.02930         0.005299     -0.027494      0.080627
     11.56297      2.44282     -6.01943         0.002156     -0.000899     -0.002447
      1.76685      7.82725    -10.10485        -0.000078      0.000060     -0.000416
     10.16110      7.82725    -10.10485        -0.000076      0.000024     -0.000464
      5.05050      1.12562     -8.40433         0.006584     -0.018553     -0.010996
     13.44475      1.12562     -8.40433         0.001548     -0.000644     -0.000696
      5.13205      1.09979     -2.45651        -0.000098      0.000429     -0.000390
     13.52630      1.09979     -2.45651        -0.000114      0.000398     -0.000325
      3.26219      7.47505     -8.62356         0.000101     -0.000395      0.000271
     11.65644      7.47505     -8.62356         0.000090     -0.000461      0.000280
      3.34375      7.44923     -2.67574        -0.001758      0.000463      0.000578
     11.73799      7.44923     -2.67574        -0.001583      0.000637      0.000659
      7.36585      0.97835     -4.87422         0.002122      0.000744      0.002502
     15.76010      0.97835     -4.87422         0.002114      0.000738      0.002504
      2.43027      2.67356     -9.91842        -0.003858     -0.000389     -0.000177
     10.82452      2.67356     -9.91842         0.000095      0.000046     -0.000488
      4.75106      2.80814     -7.40493         0.022381      0.023086     -0.030655
     13.14531      2.80814     -7.40493        -0.002461     -0.001296      0.000883
      7.45932      6.25348     -2.64294         0.000063      0.000512     -0.000354
     15.85356      6.25348     -2.64294         0.000159      0.000480     -0.000229
      1.02840      7.59650     -6.20585        -0.002249     -0.000871     -0.002461
      9.42265      7.59650     -6.20585        -0.002157     -0.000915     -0.002527
      0.85338      2.29554     -2.48931         0.001637      0.000512      0.000660
      9.24762      2.29554     -2.48931         0.001580      0.000606      0.000754
      3.64318      5.76671     -3.67515         0.002605      0.001556     -0.000672
     12.03743      5.76671     -3.67515         0.002498      0.001258     -0.000929
      0.55394      0.61303     -3.48872        -0.002247      0.001384     -0.001052
      8.94819      0.61303     -3.48872        -0.002415      0.001346     -0.001039
      5.79350     -0.03143     -4.03202        -0.001320      0.001851      0.000212
     14.18775     -0.03143     -4.03202        -0.001301      0.001889      0.000211
      4.85766      7.53946     -1.03917        -0.003863      0.001923     -0.000326
     13.25190      7.53946     -1.03917        -0.003894      0.001985     -0.000311
      5.96398      5.90128     -1.16165        -0.000114     -0.000045      0.000472
     14.35822      5.90128     -1.16165        -0.000063      0.000013      0.000476
      3.53659      1.03539    -10.04090         0.006182      0.001572     -0.000791
     11.93084      1.03539    -10.04090         0.003938     -0.002032      0.000312
      6.62739      0.74760     -0.97522         0.000045      0.000046      0.000377
     15.02164      0.74760     -0.97522         0.000110      0.000050      0.000466
      1.59638      3.45260     -6.86163        -0.020623      0.016757     -0.022902
      9.99063      3.45260     -6.86163        -0.001183     -0.001758     -0.000266
      0.93493      2.32137     -8.43713        -0.011916     -0.001516     -0.017269
      9.32918      2.32137     -8.43713        -0.000166     -0.000497      0.000289
      7.54087      6.27930     -8.59076        -0.001571     -0.000645     -0.000691
     15.93512      6.27930     -8.59076        -0.001605     -0.000737     -0.000721
      2.60074      8.60628     -7.04805         0.001285     -0.001920     -0.000293
     10.99499      8.60628     -7.04805         0.001218     -0.001766     -0.000235
      7.73371      2.38578     -0.85274         0.003866      0.002067     -0.000196
     16.12796      2.38578     -0.85274         0.003975      0.002035     -0.000260
      0.66053      6.18907    -10.22733        -0.003891     -0.002189      0.000323
      9.05478      6.18907    -10.22733        -0.003912     -0.002073      0.000270
      6.79787      5.12225     -4.21845         0.001354      0.001694      0.000420
     15.19211      5.12225     -4.21845         0.001122      0.001754      0.000310
      5.22552      6.13203     -5.06065        -0.002342      0.000684      0.002359
     13.61977      6.13203     -5.06065        -0.002198      0.000916      0.002426
 -----------------------------------------------------------------------------------
    total drift:                                0.000000      0.000001     -0.000004


--------------------------------------------------------------------------------------------------------



  FREE ENERGIE OF THE ION-ELECTRON SYSTEM (eV)
  ---------------------------------------------------
  free  energy   TOTEN  =      -229.37624540 eV

  energy  without entropy=     -229.37624540  energy(sigma->0) =     -229.37624540



--------------------------------------------------------------------------------------------------------


    POTLOK:  cpu time      5.4389: real time      5.4600


--------------------------------------------------------------------------------------------------------


     LOOP+:  cpu time   2873.7975: real time   2900.7021
    4ORBIT:  cpu time      0.0000: real time      0.0000



 total charge

# of ion       s       p       d       tot
------------------------------------------
    1        1.376   2.247   0.000   3.623
    2        1.376   2.247   0.000   3.623
    3        1.376   2.261   0.000   3.637
    4        1.376   2.258   0.000   3.635
    5        1.376   2.247   0.000   3.623
    6        1.376   2.247   0.000   3.623
    7        1.375   2.263   0.000   3.638
    8        1.375   2.262   0.000   3.638
    9        1.377   2.257   0.000   3.634
   10        1.377   2.257   0.000   3.634
   11        1.377   2.257   0.000   3.634
   12        1.377   2.257   0.000   3.634
   13        1.375   2.262   0.000   3.638
   14        1.375   2.262   0.000   3.638
   15        1.376   2.258   0.000   3.635
   16        1.376   2.258   0.000   3.635
   17        1.376   2.247   0.000   3.622
   18        1.376   2.247   0.000   3.623
   19        1.375   2.249   0.000   3.624
   20        1.376   2.247   0.000   3.623
   21        1.377   2.257   0.000   3.634
   22        1.377   2.257   0.000   3.634
   23        1.376   2.258   0.000   3.635
   24        1.376   2.258   0.000   3.635
   25        1.375   2.262   0.000   3.638
   26        1.375   2.262   0.000   3.638
   27        1.376   2.247   0.000   3.623
   28        1.376   2.247   0.000   3.623
   29        1.376   2.247   0.000   3.623
   30        1.376   2.247   0.000   3.623
   31        1.376   2.254   0.000   3.630
   32        1.376   2.254   0.000   3.630
   33        1.375   2.263   0.000   3.638
   34        1.375   2.263   0.000   3.638
   35        1.376   2.247   0.000   3.622
   36        1.376   2.247   0.000   3.622
   37        1.375   2.263   0.000   3.638
   38        1.375   2.263   0.000   3.638
   39        1.376   2.247   0.000   3.623
   40        1.376   2.247   0.000   3.623
   41        1.375   2.256   0.000   3.631
   42        1.376   2.254   0.000   3.630
   43        1.377   2.258   0.000   3.634
   44        1.377   2.257   0.000   3.634
   45        1.375   2.262   0.000   3.638
   46        1.375   2.262   0.000   3.638
   47        1.376   2.254   0.000   3.630
   48        1.376   2.254   0.000   3.630
   49        1.375   2.263   0.000   3.638
   50        1.375   2.263   0.000   3.638
   51        1.375   2.263   0.000   3.638
   52        1.375   2.263   0.000   3.638
   53        1.376   2.254   0.000   3.630
   54        1.376   2.254   0.000   3.630
   55        1.376   2.258   0.000   3.635
   56        1.376   2.258   0.000   3.635
--------------------------------------------------
tot         77.048 126.319   0.000 203.368



 magnetization (x)

# of ion       s       p       d       tot
------------------------------------------
    1        0.000   0.000   0.000   0.000
    2        0.000   0.000   0.000   0.000
    3        0.000   0.000   0.000   0.000
    4        0.000   0.000   0.000   0.000
    5        0.000   0.000   0.000   0.000
    6        0.000   0.000   0.000   0.000
    7        0.000   0.000   0.000   0.000
    8        0.000   0.000   0.000   0.000
    9        0.000   0.000   0.000   0.000
   10        0.000   0.000   0.000   0.000
   11        0.000   0.000   0.000   0.000
   12        0.000   0.000   0.000   0.000
   13        0.000   0.000   0.000   0.000
   14        0.000   0.000   0.000   0.000
   15        0.000   0.000   0.000   0.000
   16        0.000   0.000   0.000   0.000
   17        0.000  -0.000   0.000   0.000
   18        0.000   0.000   0.000   0.000
   19        0.000   0.000   0.000   0.000
   20        0.000   0.000   0.000   0.000
   21        0.000   0.000   0.000   0.000
   22        0.000   0.000   0.000   0.000
   23        0.000   0.000   0.000   0.000
   24        0.000   0.000   0.000   0.000
   25        0.000   0.000   0.000   0.000
   26        0.000   0.000   0.000   0.000
   27        0.000   0.000   0.000   0.000
   28        0.000   0.000   0.000   0.000
   29        0.000   0.000   0.000   0.000
   30        0.000   0.000   0.000   0.000
   31        0.000   0.000   0.000   0.000
   32        0.000   0.000   0.000   0.000
   33        0.000   0.000   0.000   0.000
   34        0.000   0.000   0.000   0.000
   35        0.000   0.000   0.000   0.000
   36        0.000   0.000   0.000   0.000
   37        0.000   0.000   0.000   0.000
   38        0.000   0.000   0.000   0.000
   39        0.000   0.000   0.000   0.000
   40        0.000   0.000   0.000   0.000
   41        0.000   0.000   0.000   0.000
   42        0.000   0.000   0.000   0.000
   43        0.000   0.000   0.000   0.000
   44        0.000   0.000   0.000   0.000
   45        0.000   0.000   0.000   0.000
   46        0.000   0.000   0.000   0.000
   47        0.000   0.000   0.000   0.000
   48        0.000   0.000   0.000   0.000
   49        0.000   0.000   0.000   0.000
   50        0.000   0.000   0.000   0.000
   51        0.000   0.000   0.000   0.000
   52        0.000   0.000   0.000   0.000
   53        0.000   0.000   0.000   0.000
   54        0.000   0.000   0.000   0.000
   55        0.000   0.000   0.000   0.000
   56        0.000   0.000   0.000   0.000
--------------------------------------------------
tot          0.000   0.000   0.000   0.000

 BZINTS: Fermi energy:    0.079694;  336.000000 electrons
         Band energy:-0.201130E+04;  BLOECHL correction:    0.000000

 total amount of memory used by VASP MPI-rank0   322725. kBytes
=======================================================================

   base      :      30000. kBytes
   nonl-proj :      70692. kBytes
   fftplans  :      34504. kBytes
   grid      :      83442. kBytes
   one-center:        344. kBytes
   wavefun   :     103743. kBytes

  
  
 General timing and accounting informations for this job:
 ========================================================
  
                  Total CPU time used (sec):     2924.239
                            User time (sec):     2922.313
                          System time (sec):        1.926
                         Elapsed time (sec):     2953.537
  
                   Maximum memory used (kb):      598612.
                   Average memory used (kb):          N/A
  
                          Minor page faults:       884855
                          Major page faults:           61
                 Voluntary context switches:         2554
