  56  56   0   0
  0.2191357E+02  0.1201986E-08  0.7599376E-09  0.1359937E-08  0.5000000E-15
   1.0000000000000000E-004
  CAR 
 unknown system                          
     10.14483122    -22.88750785  301      1.57018654      1.00000000
    -22.888  0.0000E+00  0.0000E+00
    -22.777  0.0000E+00  0.0000E+00
    -22.667  0.0000E+00  0.0000E+00
    -22.557  0.0000E+00  0.0000E+00
    -22.447  0.0000E+00  0.0000E+00
    -22.337  0.0000E+00  0.0000E+00
    -22.227  0.0000E+00  0.0000E+00
    -22.117  0.0000E+00  0.0000E+00
    -22.007  0.0000E+00  0.0000E+00
    -21.897  0.0000E+00  0.0000E+00
    -21.786  0.0000E+00  0.0000E+00
    -21.676  0.5042E-16  0.5551E-17
    -21.566  0.1085E-06  0.1195E-07
    -21.456  0.2250E-01  0.2477E-02
    -21.346  0.1629E+01  0.1818E+00
    -21.236  0.3514E+01  0.5688E+00
    -21.126  0.5490E+01  0.1173E+01
    -21.016  0.2134E+01  0.1408E+01
    -20.906  0.2888E+00  0.1440E+01
    -20.795  0.1126E-03  0.1440E+01
    -20.685  0.7977E-11  0.1440E+01
    -20.575  0.0000E+00  0.1440E+01
    -20.465  0.0000E+00  0.1440E+01
    -20.355  0.0000E+00  0.1440E+01
    -20.245  0.0000E+00  0.1440E+01
    -20.135  0.0000E+00  0.1440E+01
    -20.025  0.0000E+00  0.1440E+01
    -19.915  0.0000E+00  0.1440E+01
    -19.804  0.0000E+00  0.1440E+01
    -19.694  0.0000E+00  0.1440E+01
    -19.584  0.0000E+00  0.1440E+01
    -19.474  0.0000E+00  0.1440E+01
    -19.364  0.0000E+00  0.1440E+01
    -19.254  0.0000E+00  0.1440E+01
    -19.144  0.0000E+00  0.1440E+01
    -19.034  0.0000E+00  0.1440E+01
    -18.924  0.0000E+00  0.1440E+01
    -18.814  0.0000E+00  0.1440E+01
    -18.703  0.0000E+00  0.1440E+01
    -18.593  0.0000E+00  0.1440E+01
    -18.483  0.0000E+00  0.1440E+01
    -18.373  0.0000E+00  0.1440E+01
    -18.263  0.0000E+00  0.1440E+01
    -18.153  0.0000E+00  0.1440E+01
    -18.043  0.0000E+00  0.1440E+01
    -17.933  0.0000E+00  0.1440E+01
    -17.823  0.0000E+00  0.1440E+01
    -17.712  0.0000E+00  0.1440E+01
    -17.602  0.0000E+00  0.1440E+01
    -17.492  0.0000E+00  0.1440E+01
    -17.382  0.0000E+00  0.1440E+01
    -17.272  0.0000E+00  0.1440E+01
    -17.162  0.0000E+00  0.1440E+01
    -17.052  0.0000E+00  0.1440E+01
    -16.942  0.0000E+00  0.1440E+01
    -16.832  0.0000E+00  0.1440E+01
    -16.721  0.0000E+00  0.1440E+01
    -16.611  0.0000E+00  0.1440E+01
    -16.501  0.0000E+00  0.1440E+01
    -16.391  0.0000E+00  0.1440E+01
    -16.281  0.0000E+00  0.1440E+01
    -16.171  0.0000E+00  0.1440E+01
    -16.061  0.0000E+00  0.1440E+01
    -15.951  0.0000E+00  0.1440E+01
    -15.841  0.0000E+00  0.1440E+01
    -15.731  0.0000E+00  0.1440E+01
    -15.620  0.0000E+00  0.1440E+01
    -15.510  0.0000E+00  0.1440E+01
    -15.400  0.0000E+00  0.1440E+01
    -15.290  0.0000E+00  0.1440E+01
    -15.180  0.0000E+00  0.1440E+01
    -15.070  0.0000E+00  0.1440E+01
    -14.960  0.0000E+00  0.1440E+01
    -14.850  0.0000E+00  0.1440E+01
    -14.740  0.0000E+00  0.1440E+01
    -14.629  0.0000E+00  0.1440E+01
    -14.519  0.0000E+00  0.1440E+01
    -14.409  0.0000E+00  0.1440E+01
    -14.299  0.0000E+00  0.1440E+01
    -14.189  0.0000E+00  0.1440E+01
    -14.079  0.0000E+00  0.1440E+01
    -13.969  0.0000E+00  0.1440E+01
    -13.859  0.0000E+00  0.1440E+01
    -13.749  0.0000E+00  0.1440E+01
    -13.638  0.0000E+00  0.1440E+01
    -13.528  0.0000E+00  0.1440E+01
    -13.418  0.0000E+00  0.1440E+01
    -13.308  0.0000E+00  0.1440E+01
    -13.198  0.0000E+00  0.1440E+01
    -13.088  0.0000E+00  0.1440E+01
    -12.978  0.0000E+00  0.1440E+01
    -12.868  0.0000E+00  0.1440E+01
    -12.758  0.0000E+00  0.1440E+01
    -12.647  0.0000E+00  0.1440E+01
    -12.537  0.0000E+00  0.1440E+01
    -12.427  0.0000E+00  0.1440E+01
    -12.317  0.0000E+00  0.1440E+01
    -12.207  0.0000E+00  0.1440E+01
    -12.097  0.0000E+00  0.1440E+01
    -11.987  0.0000E+00  0.1440E+01
    -11.877  0.0000E+00  0.1440E+01
    -11.767  0.0000E+00  0.1440E+01
    -11.657  0.0000E+00  0.1440E+01
    -11.546  0.0000E+00  0.1440E+01
    -11.436  0.0000E+00  0.1440E+01
    -11.326  0.0000E+00  0.1440E+01
    -11.216  0.0000E+00  0.1440E+01
    -11.106  0.0000E+00  0.1440E+01
    -10.996  0.2291E-08  0.1440E+01
    -10.886  0.9035E-03  0.1440E+01
    -10.776  0.1343E+00  0.1455E+01
    -10.666  0.2298E+00  0.1480E+01
    -10.555  0.2411E+00  0.1507E+01
    -10.445  0.1203E+00  0.1520E+01
    -10.335  0.1262E-03  0.1520E+01
    -10.225  0.2084E-10  0.1520E+01
    -10.115  0.4786E-08  0.1520E+01
    -10.005  0.1730E-02  0.1520E+01
     -9.895  0.2316E+00  0.1546E+01
     -9.785  0.1441E+00  0.1562E+01
     -9.675  0.4624E+00  0.1612E+01
     -9.564  0.3493E+00  0.1651E+01
     -9.454  0.4822E+00  0.1704E+01
     -9.344  0.3721E+00  0.1745E+01
     -9.234  0.7147E+00  0.1824E+01
     -9.124  0.6779E+00  0.1898E+01
     -9.014  0.1964E+00  0.1920E+01
     -8.904  0.2469E-03  0.1920E+01
     -8.794  0.6664E-10  0.1920E+01
     -8.684  0.0000E+00  0.1920E+01
     -8.573  0.0000E+00  0.1920E+01
     -8.463  0.0000E+00  0.1920E+01
     -8.353  0.0000E+00  0.1920E+01
     -8.243  0.0000E+00  0.1920E+01
     -8.133  0.0000E+00  0.1920E+01
     -8.023  0.0000E+00  0.1920E+01
     -7.913  0.0000E+00  0.1920E+01
     -7.803  0.0000E+00  0.1920E+01
     -7.693  0.0000E+00  0.1920E+01
     -7.583  0.0000E+00  0.1920E+01
     -7.472  0.0000E+00  0.1920E+01
     -7.362  0.0000E+00  0.1920E+01
     -7.252  0.0000E+00  0.1920E+01
     -7.142  0.0000E+00  0.1920E+01
     -7.032  0.0000E+00  0.1920E+01
     -6.922  0.0000E+00  0.1920E+01
     -6.812  0.0000E+00  0.1920E+01
     -6.702  0.0000E+00  0.1920E+01
     -6.592  0.0000E+00  0.1920E+01
     -6.481  0.0000E+00  0.1920E+01
     -6.371  0.0000E+00  0.1920E+01
     -6.261  0.0000E+00  0.1920E+01
     -6.151  0.0000E+00  0.1920E+01
     -6.041  0.0000E+00  0.1920E+01
     -5.931  0.0000E+00  0.1920E+01
     -5.821  0.0000E+00  0.1920E+01
     -5.711  0.0000E+00  0.1920E+01
     -5.601  0.0000E+00  0.1920E+01
     -5.490  0.0000E+00  0.1920E+01
     -5.380  0.0000E+00  0.1920E+01
     -5.270  0.0000E+00  0.1920E+01
     -5.160  0.0000E+00  0.1920E+01
     -5.050  0.0000E+00  0.1920E+01
     -4.940  0.0000E+00  0.1920E+01
     -4.830  0.0000E+00  0.1920E+01
     -4.720  0.0000E+00  0.1920E+01
     -4.610  0.0000E+00  0.1920E+01
     -4.500  0.0000E+00  0.1920E+01
     -4.389  0.0000E+00  0.1920E+01
     -4.279  0.0000E+00  0.1920E+01
     -4.169  0.0000E+00  0.1920E+01
     -4.059  0.0000E+00  0.1920E+01
     -3.949  0.0000E+00  0.1920E+01
     -3.839  0.0000E+00  0.1920E+01
     -3.729  0.0000E+00  0.1920E+01
     -3.619  0.0000E+00  0.1920E+01
     -3.509  0.0000E+00  0.1920E+01
     -3.398  0.5042E-17  0.1920E+01
     -3.288  0.1228E-07  0.1920E+01
     -3.178  0.1949E-02  0.1920E+01
     -3.068  0.1280E+00  0.1934E+01
     -2.958  0.3404E+00  0.1972E+01
     -2.848  0.4145E+00  0.2017E+01
     -2.738  0.5269E+00  0.2075E+01
     -2.628  0.4148E-01  0.2080E+01
     -2.518  0.4285E-05  0.2080E+01
     -2.407  0.4739E-13  0.2080E+01
     -2.297  0.0000E+00  0.2080E+01
     -2.187  0.0000E+00  0.2080E+01
     -2.077  0.0000E+00  0.2080E+01
     -1.967  0.5536E-14  0.2080E+01
     -1.857  0.8128E-06  0.2080E+01
     -1.747  0.1423E-01  0.2082E+01
     -1.637  0.2171E+00  0.2105E+01
     -1.527  0.2900E+00  0.2137E+01
     -1.416  0.4594E+00  0.2188E+01
     -1.306  0.2791E+00  0.2219E+01
     -1.196  0.4353E+00  0.2267E+01
     -1.086  0.3834E+00  0.2309E+01
     -0.976  0.9231E-01  0.2319E+01
     -0.866  0.1790E+00  0.2339E+01
     -0.756  0.2364E+00  0.2365E+01
     -0.646  0.3735E+00  0.2406E+01
     -0.536  0.3288E+00  0.2442E+01
     -0.426  0.2145E+00  0.2466E+01
     -0.315  0.5485E+00  0.2526E+01
     -0.205  0.5717E+00  0.2589E+01
     -0.095  0.5557E+00  0.2650E+01
      0.015  0.5087E+00  0.2706E+01
      0.125  0.3389E+00  0.2744E+01
      0.235  0.3098E+00  0.2778E+01
      0.345  0.3330E+00  0.2814E+01
      0.455  0.4181E+00  0.2860E+01
      0.565  0.4694E+00  0.2912E+01
      0.676  0.5152E+00  0.2969E+01
      0.786  0.6462E+00  0.3040E+01
      0.896  0.8178E+00  0.3130E+01
      1.006  0.5929E+00  0.3195E+01
      1.116  0.5317E+00  0.3254E+01
      1.226  0.5347E+00  0.3313E+01
      1.336  0.3869E+00  0.3355E+01
      1.446  0.4282E-01  0.3360E+01
      1.556  0.1475E-04  0.3360E+01
      1.667  0.8335E-12  0.3360E+01
      1.777  0.0000E+00  0.3360E+01
      1.887  0.0000E+00  0.3360E+01
      1.997  0.0000E+00  0.3360E+01
      2.107  0.0000E+00  0.3360E+01
      2.217  0.0000E+00  0.3360E+01
      2.327  0.0000E+00  0.3360E+01
      2.437  0.0000E+00  0.3360E+01
      2.547  0.0000E+00  0.3360E+01
      2.658  0.0000E+00  0.3360E+01
      2.768  0.0000E+00  0.3360E+01
      2.878  0.0000E+00  0.3360E+01
      2.988  0.0000E+00  0.3360E+01
      3.098  0.0000E+00  0.3360E+01
      3.208  0.0000E+00  0.3360E+01
      3.318  0.0000E+00  0.3360E+01
      3.428  0.0000E+00  0.3360E+01
      3.538  0.0000E+00  0.3360E+01
      3.648  0.0000E+00  0.3360E+01
      3.759  0.0000E+00  0.3360E+01
      3.869  0.0000E+00  0.3360E+01
      3.979  0.1497E-13  0.3360E+01
      4.089  0.1399E-05  0.3360E+01
      4.199  0.1327E-01  0.3361E+01
      4.309  0.7576E-01  0.3370E+01
      4.419  0.1784E-02  0.3370E+01
      4.529  0.1032E-07  0.3370E+01
      4.639  0.0000E+00  0.3370E+01
      4.750  0.0000E+00  0.3370E+01
      4.860  0.0000E+00  0.3370E+01
      4.970  0.0000E+00  0.3370E+01
      5.080  0.0000E+00  0.3370E+01
      5.190  0.3635E-08  0.3370E+01
      5.300  0.1104E-02  0.3370E+01
      5.410  0.1025E+00  0.3381E+01
      5.520  0.5145E+00  0.3438E+01
      5.630  0.1607E+00  0.3456E+01
      5.741  0.1985E+00  0.3478E+01
      5.851  0.4445E+00  0.3527E+01
      5.961  0.1877E+00  0.3547E+01
      6.071  0.2784E+00  0.3578E+01
      6.181  0.2148E+00  0.3602E+01
      6.291  0.4285E+00  0.3649E+01
      6.401  0.4603E+00  0.3699E+01
      6.511  0.4580E+00  0.3750E+01
      6.621  0.5756E+00  0.3813E+01
      6.731  0.6688E-01  0.3821E+01
      6.842  0.2680E+00  0.3850E+01
      6.952  0.4114E+00  0.3895E+01
      7.062  0.1007E+00  0.3906E+01
      7.172  0.3381E+00  0.3944E+01
      7.282  0.3222E+00  0.3979E+01
      7.392  0.1725E+00  0.3998E+01
      7.502  0.3847E+00  0.4040E+01
      7.612  0.5268E+00  0.4099E+01
      7.722  0.3075E+00  0.4132E+01
      7.833  0.3130E+00  0.4167E+01
      7.943  0.4949E+00  0.4221E+01
      8.053  0.4315E+00  0.4269E+01
      8.163  0.2725E+00  0.4299E+01
      8.273  0.3595E+00  0.4338E+01
      8.383  0.2644E+00  0.4368E+01
      8.493  0.4438E+00  0.4416E+01
      8.603  0.4136E+00  0.4462E+01
      8.713  0.1597E+00  0.4480E+01
      8.824  0.4303E-02  0.4480E+01
      8.934  0.3131E-07  0.4480E+01
      9.044  0.0000E+00  0.4480E+01
      9.154  0.0000E+00  0.4480E+01
      9.264  0.0000E+00  0.4480E+01
      9.374  0.0000E+00  0.4480E+01
      9.484  0.0000E+00  0.4480E+01
      9.594  0.0000E+00  0.4480E+01
      9.704  0.0000E+00  0.4480E+01
      9.815  0.0000E+00  0.4480E+01
      9.925  0.0000E+00  0.4480E+01
     10.035  0.0000E+00  0.4480E+01
     10.145  0.0000E+00  0.4480E+01
