       N       E                     dE             d eps       ncg     rms          rms(c)
DAV:   1     0.288112909153E+04    0.28811E+04   -0.13678E+05   896   0.126E+03
DAV:   2     0.128515412173E+03   -0.27526E+04   -0.26260E+04   960   0.352E+02
DAV:   3    -0.222495292487E+03   -0.35101E+03   -0.34703E+03  1024   0.139E+02
DAV:   4    -0.239309921808E+03   -0.16815E+02   -0.16696E+02  1120   0.308E+01
DAV:   5    -0.239952131947E+03   -0.64221E+00   -0.64142E+00  1248   0.594E+00    0.253E+01
DAV:   6    -0.228445583167E+03    0.11507E+02   -0.20389E+01  1088   0.661E+00    0.169E+01
DAV:   7    -0.227201347857E+03    0.12442E+01   -0.93113E+00  1216   0.463E+00    0.949E+00
DAV:   8    -0.227240521323E+03   -0.39173E-01   -0.97696E-01  1056   0.214E+00    0.306E+00
DAV:   9    -0.227226052624E+03    0.14469E-01   -0.69535E-02  1024   0.687E-01    0.113E+00
DAV:  10    -0.227232082054E+03   -0.60294E-02   -0.13602E-02  1120   0.207E-01    0.681E-01
DAV:  11    -0.227237419468E+03   -0.53374E-02   -0.94684E-03  1056   0.183E-01    0.174E-01
DAV:  12    -0.227237816750E+03   -0.39728E-03   -0.10042E-03  1088   0.722E-02    0.188E-01
DAV:  13    -0.227237826250E+03   -0.95008E-05   -0.12366E-04  1024   0.279E-02    0.903E-02
DAV:  14    -0.227237935138E+03   -0.10889E-03   -0.16000E-04   896   0.290E-02    0.371E-02
DAV:  15    -0.227237957380E+03   -0.22242E-04   -0.70689E-05  1056   0.164E-02    0.292E-02
DAV:  16    -0.227237964840E+03   -0.74605E-05   -0.67473E-06   832   0.816E-03
   1 F= -.22723796E+03 E0= -.22723796E+03  d E =-.227238E+03
       N       E                     dE             d eps       ncg     rms          rms(c)
DAV:   1    -0.228253431225E+03   -0.10155E+01   -0.25156E+01  1216   0.190E+01    0.718E+00
DAV:   2    -0.227527277092E+03    0.72615E+00   -0.13711E+00  1120   0.332E+00    0.309E+00
DAV:   3    -0.227368349561E+03    0.15893E+00   -0.34640E-01  1152   0.162E+00    0.126E+00
DAV:   4    -0.227350836316E+03    0.17513E-01   -0.92555E-03  1216   0.239E-01    0.792E-01
DAV:   5    -0.227343062261E+03    0.77741E-02   -0.19246E-03  1216   0.134E-01    0.186E-01
DAV:   6    -0.227342998530E+03    0.63731E-04   -0.23166E-04  1024   0.554E-02    0.544E-02
DAV:   7    -0.227343000150E+03   -0.16208E-05   -0.38580E-05   928   0.154E-02
   2 F= -.22734300E+03 E0= -.22734300E+03  d E =-.105035E+00
       N       E                     dE             d eps       ncg     rms          rms(c)
DAV:   1    -0.227361655736E+03   -0.18657E-01   -0.43247E-01  1184   0.244E+00    0.969E-01
DAV:   2    -0.227348866316E+03    0.12789E-01   -0.24164E-02  1152   0.435E-01    0.413E-01
DAV:   3    -0.227346137657E+03    0.27287E-02   -0.60621E-03  1152   0.210E-01    0.178E-01
DAV:   4    -0.227345881049E+03    0.25661E-03   -0.16051E-04  1184   0.305E-02    0.114E-01
DAV:   5    -0.227345779801E+03    0.10125E-03   -0.39080E-05  1024   0.210E-02    0.249E-02
DAV:   6    -0.227345782358E+03   -0.25570E-05   -0.47804E-06   640   0.927E-03
   3 F= -.22734578E+03 E0= -.22734578E+03  d E =-.107818E+00
       N       E                     dE             d eps       ncg     rms          rms(c)
DAV:   1    -0.227345995462E+03   -0.21566E-03   -0.58173E-03  1216   0.284E-01    0.112E-01
DAV:   2    -0.227345816187E+03    0.17928E-03   -0.32690E-04  1152   0.509E-02    0.477E-02
DAV:   3    -0.227345780719E+03    0.35467E-04   -0.83002E-05  1120   0.248E-02    0.204E-02
DAV:   4    -0.227345781121E+03   -0.40225E-06   -0.17308E-06   640   0.360E-03
   4 F= -.22734578E+03 E0= -.22734578E+03  d E =-.107816E+00
       N       E                     dE             d eps       ncg     rms          rms(c)
DAV:   1    -0.227384406073E+03   -0.38625E-01   -0.15927E+00   960   0.368E+00    0.129E+00
DAV:   2    -0.227369384467E+03    0.15022E-01   -0.11397E-01  1088   0.875E-01    0.647E-01
DAV:   3    -0.227364804406E+03    0.45801E-02   -0.77735E-03  1120   0.243E-01    0.363E-01
DAV:   4    -0.227363057850E+03    0.17466E-02   -0.25683E-03  1088   0.131E-01    0.157E-01
DAV:   5    -0.227362876793E+03    0.18106E-03   -0.30539E-04  1024   0.394E-02    0.632E-02
DAV:   6    -0.227362847062E+03    0.29731E-04   -0.23574E-05   896   0.137E-02    0.447E-02
DAV:   7    -0.227362843401E+03    0.36613E-05   -0.33304E-06   640   0.668E-03
   5 F= -.22736284E+03 E0= -.22736284E+03  d E =-.170623E-01
       N       E                     dE             d eps       ncg     rms          rms(c)
DAV:   1    -0.227397904888E+03   -0.35058E-01   -0.20631E+00   960   0.419E+00    0.147E+00
DAV:   2    -0.227378344688E+03    0.19560E-01   -0.14743E-01  1088   0.997E-01    0.734E-01
DAV:   3    -0.227372419060E+03    0.59256E-02   -0.10090E-02  1120   0.276E-01    0.413E-01
DAV:   4    -0.227370172882E+03    0.22462E-02   -0.33168E-03  1088   0.149E-01    0.179E-01
DAV:   5    -0.227369944474E+03    0.22841E-03   -0.39434E-04  1120   0.449E-02    0.719E-02
DAV:   6    -0.227369907857E+03    0.36617E-04   -0.30720E-05   960   0.149E-02    0.499E-02
DAV:   7    -0.227369903060E+03    0.47965E-05   -0.38000E-06   640   0.713E-03
   6 F= -.22736990E+03 E0= -.22736990E+03  d E =-.241219E-01
       N       E                     dE             d eps       ncg     rms          rms(c)
DAV:   1    -0.227377866810E+03   -0.79590E-02   -0.87231E-01   960   0.216E+00    0.823E-01
DAV:   2    -0.227376943927E+03    0.92288E-03   -0.52811E-02  1056   0.532E-01    0.335E-01
DAV:   3    -0.227375354808E+03    0.15891E-02   -0.24822E-03  1120   0.143E-01    0.207E-01
DAV:   4    -0.227374711999E+03    0.64281E-03   -0.13021E-03  1088   0.842E-02    0.919E-02
DAV:   5    -0.227374676643E+03    0.35356E-04   -0.23527E-04  1024   0.354E-02    0.581E-02
DAV:   6    -0.227374667835E+03    0.88089E-05   -0.26416E-05   928   0.116E-02
   7 F= -.22737467E+03 E0= -.22737467E+03  d E =-.476477E-02
