 vasp.6.3.2 27Jun22 (build Jun 14 2024 17:29:11) complex                         
 executed on             LinuxGNU date 2026.03.29  20:46:43
 running on   32 total cores
 distrk:  each k-point on   32 cores,    1 groups
 distr:  one band on NCORE=   1 cores,   32 groups


--------------------------------------------------------------------------------------------------------


 INCAR:
   EDIFF = 1e-05
   EDIFFG = -0.05
   ENCUT = 400.0
   IBRION = 2
   ISIF = 3
   ISMEAR = 0
   LCHARG = False
   LREAL = Auto
   LWAVE = False
   NSW = 100
   SIGMA = 0.05

 POTCAR:    PAW_PBE Na_pv 19Sep2006               
 POTCAR:    PAW_PBE Al 04Jan2001                  
 POTCAR:    PAW_PBE S 06Sep2000                   
 -----------------------------------------------------------------------------
|                                                                             |
|           W    W    AA    RRRRR   N    N  II  N    N   GGGG   !!!           |
|           W    W   A  A   R    R  NN   N  II  NN   N  G    G  !!!           |
|           W    W  A    A  R    R  N N  N  II  N N  N  G       !!!           |
|           W WW W  AAAAAA  RRRRR   N  N N  II  N  N N  G  GGG   !            |
|           WW  WW  A    A  R   R   N   NN  II  N   NN  G    G                |
|           W    W  A    A  R    R  N    N  II  N    N   GGGG   !!!           |
|                                                                             |
|     For optimal performance we recommend to set                             |
|       NCORE = 2 up to number-of-cores-per-socket                            |
|     NCORE specifies how many cores store one orbital (NPAR=cpu/NCORE).      |
|     This setting can greatly improve the performance of VASP for DFT.       |
|     The default, NCORE=1 might be grossly inefficient on modern             |
|     multi-core architectures or massively parallel machines. Do your        |
|     own testing! More info at https://www.vasp.at/wiki/index.php/NCORE      |
|     Unfortunately you need to use the default for GW and RPA                |
|     calculations (for HF NCORE is supported but not extensively tested      |
|     yet).                                                                   |
|                                                                             |
 -----------------------------------------------------------------------------

 POTCAR:    PAW_PBE Na_pv 19Sep2006               
   SHA256 =  6a2f546d9e11350984debacf3dc457d8cffc0868e817d445faca461816a32b94 Na_pv/POTCAR          
   COPYR  = (c) Copyright 19Sep2006 Georg Kresse                                                    
   COPYR  = This file is part of the software VASP. Any use, copying, and all other rights are regul
   COPYR  = If you do not have a valid VASP license, you may not use, copy or distribute this file. 
   VRHFIN =Na: p6s1                                                                                 
   LEXCH  = PE                                                                                      
   EATOM  =   766.0439 eV,   56.3026 Ry                                                             
                                                                                                    
   TITEL  = PAW_PBE Na_pv 19Sep2006                                                                 
   LULTRA =        F    use ultrasoft PP ?                                                          
   IUNSCR =        1    unscreen: 0-lin 1-nonlin 2-no                                               
   RPACOR =    1.800    partial core radius                                                         
   POMASS =   22.990; ZVAL   =    7.000    mass and valenz                                          
   RCORE  =    2.200    outmost cutoff radius                                                       
   RWIGS  =    2.200; RWIGS  =    1.164    wigner-seitz radius (au A)                               
   ENMAX  =  259.561; ENMIN  =  194.671 eV                                                          
   ICORE  =        2    local potential                                                             
   LCOR   =        T    correct aug charges                                                         
   LPAW   =        T    paw PP                                                                      
   EAUG   =  368.056                                                                                
   DEXC   =    0.000                                                                                
   RMAX   =    2.245    core radius for proj-oper                                                   
   RAUG   =    1.300    factor for augmentation sphere                                              
   RDEP   =    2.259    radius for radial grids                                                     
   RDEPT  =    1.738    core radius for aug-charge                                                  
                                                                                                    
   Atomic configuration                                                                             
    5 entries                                                                                       
     n  l   j            E        occ.                                                              
     1  0  0.50     -1033.6933   2.0000                                                             
     2  0  0.50       -56.7526   2.0000                                                             
     2  1  1.50       -28.6721   6.0000                                                             
     3  0  0.50        -2.7440   1.0000                                                             
     3  2  1.50        -1.3606   0.0000                                                             
   Description                                                                                      
     l       E           TYP  RCUT    TYP  RCUT                                                     
     1    -28.6720912     23  2.000                                                                 
     1      6.8029130     23  2.000                                                                 
     0     -2.7439560     23  2.200                                                                 
     0     34.0145650     23  2.200                                                                 
     2     -1.3605826     23  2.200                                                                 
  local pseudopotential read in
  partial core-charges read in
  partial kinetic energy density read in
  atomic valenz-charges read in
  non local Contribution for L=           1  read in
    real space projection operators read in
  non local Contribution for L=           1  read in
    real space projection operators read in
  non local Contribution for L=           0  read in
    real space projection operators read in
  non local Contribution for L=           0  read in
    real space projection operators read in
    PAW grid and wavefunctions read in

   number of l-projection  operators is LMAX  =           4
   number of lm-projection operators is LMMAX =           8

 POTCAR:    PAW_PBE Al 04Jan2001                  
   SHA256 =  17880443556af62b473fe41b62a467bd001ad55d2cabe504a3f22e34d4e9db96 Al/POTCAR             
   COPYR  = (c) Copyright 04Jan2001 Georg Kresse                                                    
   COPYR  = This file is part of the software VASP. Any use, copying, and all other rights are regul
   COPYR  = If you do not have a valid VASP license, you may not use, copy or distribute this file. 
   VRHFIN =Al: s2p1                                                                                 
   LEXCH  = PE                                                                                      
   EATOM  =    53.5387 eV,    3.9350 Ry                                                             
                                                                                                    
   TITEL  = PAW_PBE Al 04Jan2001                                                                    
   LULTRA =        F    use ultrasoft PP ?                                                          
   IUNSCR =        1    unscreen: 0-lin 1-nonlin 2-no                                               
   RPACOR =    1.500    partial core radius                                                         
   POMASS =   26.981; ZVAL   =    3.000    mass and valenz                                          
   RCORE  =    1.900    outmost cutoff radius                                                       
   RWIGS  =    2.650; RWIGS  =    1.402    wigner-seitz radius (au A)                               
   ENMAX  =  240.300; ENMIN  =  180.225 eV                                                          
   ICORE  =        2    local potential                                                             
   LCOR   =        T    correct aug charges                                                         
   LPAW   =        T    paw PP                                                                      
   EAUG   =  291.052                                                                                
   DEXC   =    0.000                                                                                
   RMAX   =    1.939    core radius for proj-oper                                                   
   RAUG   =    1.300    factor for augmentation sphere                                              
   RDEP   =    1.966    radius for radial grids                                                     
   RDEPT  =    1.856    core radius for aug-charge                                                  
                                                                                                    
   Atomic configuration                                                                             
    6 entries                                                                                       
     n  l   j            E        occ.                                                              
     1  0  0.50     -1511.1048   2.0000                                                             
     2  0  0.50      -108.1629   2.0000                                                             
     2  1  1.50       -69.6402   6.0000                                                             
     3  0  0.50        -7.7528   2.0000                                                             
     3  1  1.50        -2.7121   1.0000                                                             
     3  2  2.50        -2.7212   0.0000                                                             
   Description                                                                                      
     l       E           TYP  RCUT    TYP  RCUT                                                     
     0     -7.7528455     23  1.900                                                                 
     0     -3.3096929     23  1.900                                                                 
     1     -2.7120682     23  1.900                                                                 
     1     13.6058260     23  1.900                                                                 
     2     -2.7211652      7  1.900                                                                 
  local pseudopotential read in
  partial core-charges read in
  partial kinetic energy density read in
  atomic valenz-charges read in
  non local Contribution for L=           0  read in
    real space projection operators read in
  non local Contribution for L=           0  read in
    real space projection operators read in
  non local Contribution for L=           1  read in
    real space projection operators read in
  non local Contribution for L=           1  read in
    real space projection operators read in
    PAW grid and wavefunctions read in

   number of l-projection  operators is LMAX  =           4
   number of lm-projection operators is LMMAX =           8

 POTCAR:    PAW_PBE S 06Sep2000                   
   SHA256 =  0fc7481fb0695f01bdc6462160264c5c84044ae9ec85a907d398b887a2bc3132 S/POTCAR              
   COPYR  = (c) Copyright 06Sep2000 Georg Kresse                                                    
   COPYR  = This file is part of the software VASP. Any use, copying, and all other rights are regul
   COPYR  = If you do not have a valid VASP license, you may not use, copy or distribute this file. 
   VRHFIN =S : s2p4                                                                                 
   LEXCH  = PE                                                                                      
   EATOM  =   276.8230 eV,   20.3459 Ry                                                             
                                                                                                    
   TITEL  = PAW_PBE S 06Sep2000                                                                     
   LULTRA =        F    use ultrasoft PP ?                                                          
   IUNSCR =        1    unscreen: 0-lin 1-nonlin 2-no                                               
   RPACOR =    1.500    partial core radius                                                         
   POMASS =   32.066; ZVAL   =    6.000    mass and valenz                                          
   RCORE  =    1.900    outmost cutoff radius                                                       
   RWIGS  =    2.200; RWIGS  =    1.164    wigner-seitz radius (au A)                               
   ENMAX  =  258.689; ENMIN  =  194.016 eV                                                          
   ICORE  =        2    local potential                                                             
   LCOR   =        T    correct aug charges                                                         
   LPAW   =        T    paw PP                                                                      
   EAUG   =  335.092                                                                                
   DEXC   =    0.000                                                                                
   RMAX   =    1.942    core radius for proj-oper                                                   
   RAUG   =    1.300    factor for augmentation sphere                                              
   RDEP   =    1.954    radius for radial grids                                                     
   RDEPT  =    1.744    core radius for aug-charge                                                  
                                                                                                    
   Atomic configuration                                                                             
    6 entries                                                                                       
     n  l   j            E        occ.                                                              
     1  0  0.50     -2405.8406   2.0000                                                             
     2  0  0.50      -211.7007   2.0000                                                             
     2  1  1.50      -156.4958   6.0000                                                             
     3  0  0.50       -17.2562   2.0000                                                             
     3  1  0.50        -7.0085   4.0000                                                             
     3  2  1.50        -6.8029   0.0000                                                             
   Description                                                                                      
     l       E           TYP  RCUT    TYP  RCUT                                                     
     0    -17.2561641     23  1.900                                                                 
     0    -15.8743224     23  1.900                                                                 
     1     -7.0085400     23  1.900                                                                 
     1     -2.7779785     23  1.900                                                                 
     2     -6.8029130     23  1.900                                                                 
  local pseudopotential read in
  partial core-charges read in
  partial kinetic energy density read in
  atomic valenz-charges read in
  non local Contribution for L=           0  read in
    real space projection operators read in
  non local Contribution for L=           0  read in
    real space projection operators read in
  non local Contribution for L=           1  read in
    real space projection operators read in
  non local Contribution for L=           1  read in
    real space projection operators read in
    PAW grid and wavefunctions read in

   number of l-projection  operators is LMAX  =           4
   number of lm-projection operators is LMMAX =           8

 Optimization of the real space projectors (new method)

 maximal supplied QI-value         = 17.01
 optimisation between [QCUT,QGAM] = [ 10.20, 20.41] = [ 29.16,116.64] Ry 
 Optimized for a Real-space Cutoff    1.30 Angstroem

   l    n(q)    QCUT    max X(q) W(low)/X(q) W(high)/X(q)  e(spline) 
   1      7    10.205     4.940    0.23E-03    0.84E-03    0.11E-06
   1      7    10.205     6.253    0.40E-03    0.13E-02    0.18E-06
   0      8    10.205    37.438    0.23E-03    0.37E-03    0.42E-07
   0      8    10.205     9.606    0.16E-03    0.26E-03    0.31E-07
 Optimization of the real space projectors (new method)

 maximal supplied QI-value         = 19.84
 optimisation between [QCUT,QGAM] = [ 10.12, 20.44] = [ 28.68,116.96] Ry 
 Optimized for a Real-space Cutoff    1.23 Angstroem

   l    n(q)    QCUT    max X(q) W(low)/X(q) W(high)/X(q)  e(spline) 
   0      7    10.119   176.870    0.49E-04    0.18E-03    0.39E-07
   0      7    10.119   105.762    0.46E-04    0.18E-03    0.38E-07
   1      7    10.119    55.370    0.30E-03    0.37E-03    0.12E-06
   1      7    10.119    20.208    0.27E-03    0.35E-03    0.11E-06
 Optimization of the real space projectors (new method)

 maximal supplied QI-value         = 19.84
 optimisation between [QCUT,QGAM] = [ 10.12, 20.44] = [ 28.68,116.96] Ry 
 Optimized for a Real-space Cutoff    1.23 Angstroem

   l    n(q)    QCUT    max X(q) W(low)/X(q) W(high)/X(q)  e(spline) 
   0      7    10.119   187.594    0.62E-04    0.28E-03    0.52E-07
   0      7    10.119   164.243    0.61E-04    0.28E-03    0.52E-07
   1      7    10.119    67.533    0.45E-03    0.63E-03    0.13E-06
   1      7    10.119    50.729    0.44E-03    0.62E-03    0.12E-06
  PAW_PBE Na_pv 19Sep2006               :
 energy of atom  1       EATOM= -766.0439
 kinetic energy error for atom=    0.0103 (will be added to EATOM!!)
  PAW_PBE Al 04Jan2001                  :
 energy of atom  2       EATOM=  -53.5387
 kinetic energy error for atom=    0.0005 (will be added to EATOM!!)
  PAW_PBE S 06Sep2000                   :
 energy of atom  3       EATOM= -276.8230
 kinetic energy error for atom=    0.0046 (will be added to EATOM!!)


 POSCAR: Na24 Al8 S24
  positions in direct lattice
  No initial velocities read in
 exchange correlation table for  LEXCH =        8
   RHO(1)=    0.500       N(1)  =     2000
   RHO(2)=  100.500       N(2)  =     4000



--------------------------------------------------------------------------------------------------------


 ion  position               nearest neighbor table
   1  0.983  0.082  0.806-
   2  0.752  0.995  0.014-  53 2.74
   3  0.807  0.534  0.760-  53 2.76  43 2.77
   4  0.737  0.919  0.526-  39 2.75  50 2.77
   5  0.913  0.111  0.365-  46 2.77
   6  0.237  0.581  0.474-  41 2.75  35 2.77
   7  0.827  0.503  0.244-
   8  0.263  0.081  0.474-  45 2.75  40 2.77
   9  0.748  0.495  0.014-  43 2.74
  10  0.413  0.389  0.635-  54 2.77
  11  0.252  0.505  0.986-  55 2.74
  12  0.248  0.005  0.986-  34 2.74
  13  0.763  0.419  0.526-  49 2.75  47 2.77
  14  0.193  0.466  0.240-  34 2.76  55 2.77
  15  0.017  0.918  0.194-
  16  0.587  0.611  0.365-  56 2.77
  17  0.327  0.997  0.756-
  18  0.087  0.889  0.635-  51 2.77
  19  0.307  0.966  0.240-  55 2.76  34 2.77
  20  0.173  0.497  0.756-
  21  0.483  0.418  0.194-
  22  0.693  0.034  0.760-  43 2.76  53 2.77
  23  0.517  0.582  0.806-
  24  0.673  0.003  0.244-
  25  0.007  0.326  0.073-  34 2.21  44 2.21  52 2.30  37 2.30  32 3.06
  26  0.021  0.320  0.566-  45 2.20  50 2.22  51 2.29  46 2.31  31 3.07
  27  0.521  0.180  0.434-  49 2.20  35 2.22  56 2.29  54 2.31  28 3.07
  28  0.479  0.820  0.566-  41 2.20  47 2.22  54 2.29  56 2.31  27 3.07
  29  0.507  0.174  0.927-  43 2.21  33 2.21  48 2.30  42 2.30  30 3.06
  30  0.493  0.826  0.073-  55 2.21  38 2.21  42 2.30  48 2.30  29 3.06
  31  0.979  0.680  0.434-  39 2.20  40 2.22  46 2.29  51 2.31  26 3.07
  32  0.993  0.674  0.927-  53 2.21  36 2.21  37 2.30  52 2.30  25 3.06
  33  0.359  0.310  0.854-  29 2.21
  34  0.167  0.202  0.123-  25 2.21  12 2.74  14 2.76  19 2.77
  35  0.390  0.380  0.387-  27 2.22   6 2.77
  36  0.141  0.810  0.854-  32 2.21
  37  0.003  0.619  0.097-  32 2.30  25 2.30
  38  0.641  0.690  0.146-  30 2.21
  39  0.815  0.762  0.370-  31 2.20   4 2.75
  40  0.110  0.880  0.387-  31 2.22   8 2.77
  41  0.315  0.738  0.630-  28 2.20   6 2.75
  42  0.503  0.881  0.903-  30 2.30  29 2.30
  43  0.667  0.298  0.877-  29 2.21   9 2.74  22 2.76   3 2.77
  44  0.859  0.190  0.146-  25 2.21
  45  0.185  0.238  0.630-  26 2.20   8 2.75
  46  0.033  0.410  0.396-  31 2.29  26 2.31   5 2.77
  47  0.610  0.620  0.613-  28 2.22  13 2.77
  48  0.497  0.119  0.097-  29 2.30  30 2.30
  49  0.685  0.262  0.370-  27 2.20  13 2.75
  50  0.890  0.120  0.613-  26 2.22   4 2.77
  51  0.967  0.590  0.604-  26 2.29  31 2.31  18 2.77
  52  0.997  0.381  0.903-  25 2.30  32 2.30
  53  0.833  0.798  0.877-  32 2.21   2 2.74   3 2.76  22 2.77
  54  0.533  0.090  0.604-  28 2.29  27 2.31  10 2.77
  55  0.333  0.702  0.123-  30 2.21  11 2.74  19 2.76  14 2.77
  56  0.467  0.910  0.396-  27 2.29  28 2.31  16 2.77

  LATTYP: Found a simple monoclinic cell.
 ALAT       =     7.5993758600
 B/A-ratio  =     1.5816899179
 C/A-ratio  =     1.7895371634
 COS(beta)  =    -0.1552035122
  
  Lattice vectors:
  
 A1 = (   0.0000000000,   7.5072905615,   1.1794498240)
 A2 = (  12.0198561800,   0.0000000000,   0.0000000000)
 A3 = (   0.0000000000,   0.0000000000, -13.5993655200)


Analysis of symmetry for initial positions (statically):
=====================================================================
 Subroutine PRICEL returns:
 Original cell was already a primitive cell.
 

 Routine SETGRP: Setting up the symmetry group for a 
 simple monoclinic supercell.


 Subroutine GETGRP returns: Found  4 space group operations
 (whereof  2 operations were pure point group operations)
 out of a pool of  4 trial point group operations.


The static configuration has the point symmetry S_2 .
 The point group associated with its full space group is C_2h.


Analysis of symmetry for dynamics (positions and initial velocities):
=====================================================================
 Subroutine PRICEL returns:
 Original cell was already a primitive cell.
 

 Routine SETGRP: Setting up the symmetry group for a 
 simple monoclinic supercell.


 Subroutine GETGRP returns: Found  4 space group operations
 (whereof  2 operations were pure point group operations)
 out of a pool of  4 trial point group operations.


The dynamic configuration has the point symmetry S_2 .
 The point group associated with its full space group is C_2h.


 Subroutine INISYM returns: Found  4 space group operations
 (whereof  2 operations are pure point group operations),
 and found     1 'primitive' translations


----------------------------------------------------------------------------------------

                                     Primitive cell                                     

  volume of cell :    1227.1599

  direct lattice vectors                    reciprocal lattice vectors
    12.019856180  0.000000000  0.000000000     0.083195671  0.000000000 -0.000000000
    -0.000000000  7.507290561  1.179449824     0.000000000  0.133203849  0.000000000
     0.000000000  0.000000000 13.599365520    -0.000000000 -0.011552543  0.073532842

  length of vectors
    12.019856180  7.599375860 13.599365520     0.083195671  0.133203849  0.074434805

  position of ions in fractional coordinates (direct lattice)
     0.982941640  0.081911370  0.805933300
     0.752231090  0.994830720  0.013742760
     0.807125440  0.534064900  0.759792880
     0.737317530  0.919149700  0.525843650
     0.913176440  0.111118010  0.364742210
     0.237317530  0.580850300  0.474156350
     0.826608490  0.503473580  0.243588890
     0.262682470  0.080850300  0.474156350
     0.747768910  0.494830720  0.013742760
     0.413176440  0.388881990  0.635257790
     0.252231090  0.505169280  0.986257240
     0.247768910  0.005169280  0.986257240
     0.762682470  0.419149700  0.525843650
     0.192874560  0.465935100  0.240207120
     0.017058360  0.918088630  0.194066700
     0.586823560  0.611118010  0.364742210
     0.326608490  0.996526420  0.756411110
     0.086823560  0.888881990  0.635257790
     0.307125440  0.965935100  0.240207120
     0.173391510  0.496526420  0.756411110
     0.482941640  0.418088630  0.194066700
     0.692874560  0.034064900  0.759792880
     0.517058360  0.581911370  0.805933300
     0.673391510  0.003473580  0.243588890
     0.006704860  0.325880130  0.073372870
     0.021461010  0.319941260  0.565710190
     0.521461010  0.180058740  0.434289810
     0.478538990  0.819941260  0.565710190
     0.506704860  0.174119870  0.926627130
     0.493295140  0.825880130  0.073372870
     0.978538990  0.680058740  0.434289810
     0.993295140  0.674119870  0.926627130
     0.358781190  0.310064010  0.853628160
     0.167318940  0.202319740  0.123361880
     0.389910490  0.379585950  0.387305560
     0.141218810  0.810064010  0.853628160
     0.002887080  0.619017270  0.097374470
     0.641218810  0.689935990  0.146371840
     0.815132650  0.762137530  0.370229720
     0.110089510  0.879585950  0.387305560
     0.315132650  0.737862470  0.629770280
     0.502887080  0.880982730  0.902625530
     0.667318940  0.297680260  0.876638120
     0.858781190  0.189935990  0.146371840
     0.184867350  0.237862470  0.629770280
     0.032654370  0.409515280  0.395967930
     0.610089510  0.620414050  0.612694440
     0.497112920  0.119017270  0.097374470
     0.684867350  0.262137530  0.370229720
     0.889910490  0.120414050  0.612694440
     0.967345630  0.590484720  0.604032070
     0.997112920  0.380982730  0.902625530
     0.832681060  0.797680260  0.876638120
     0.532654370  0.090484720  0.604032070
     0.332681060  0.702319740  0.123361880
     0.467345630  0.909515280  0.395967930

  ion indices of the primitive-cell ions
   primitive index   ion index
                 1           1
                 2           2
                 3           3
                 4           4
                 5           5
                 6           6
                 7           7
                 8           8
                 9           9
                10          10
                11          11
                12          12
                13          13
                14          14
                15          15
                16          16
                17          17
                18          18
                19          19
                20          20
                21          21
                22          22
                23          23
                24          24
                25          25
                26          26
                27          27
                28          28
                29          29
                30          30
                31          31
                32          32
                33          33
                34          34
                35          35
                36          36
                37          37
                38          38
                39          39
                40          40
                41          41
                42          42
                43          43
                44          44
                45          45
                46          46
                47          47
                48          48
                49          49
                50          50
                51          51
                52          52
                53          53
                54          54
                55          55
                56          56

----------------------------------------------------------------------------------------



 KPOINTS: pymatgen with grid density = 500 / numbe

Automatic generation of k-mesh.
 Grid dimensions read from file:
 generate k-points for:    1    2    1

 Generating k-lattice:

  Cartesian coordinates                     Fractional coordinates (reciprocal lattice)
     0.083195671  0.000000000 -0.000000000     1.000000000  0.000000000  0.000000000
     0.000000000  0.066601925  0.000000000     0.000000000  0.500000000  0.000000000
    -0.000000000 -0.011552543  0.073532842     0.000000000 -0.000000000  1.000000000

  Length of vectors
     0.083195671  0.066601925  0.074434805

  Shift w.r.t. Gamma in fractional coordinates (k-lattice)
     0.000000000  0.000000000  0.000000000

 
 Subroutine IBZKPT returns following result:
 ===========================================
 
 Found      2 irreducible k-points:
 
 Following reciprocal coordinates:
            Coordinates               Weight
  0.000000  0.000000  0.000000      1.000000
  0.000000  0.500000  0.000000      1.000000
 
 Following cartesian coordinates:
            Coordinates               Weight
  0.000000  0.000000  0.000000      1.000000
  0.000000  0.066602  0.000000      1.000000
 


--------------------------------------------------------------------------------------------------------




 Dimension of arrays:
   k-points           NKPTS =      2   k-points in BZ     NKDIM =      2   number of bands    NBANDS=    224
   number of dos      NEDOS =    301   number of ions     NIONS =     56
   non local maximal  LDIM  =      4   non local SUM 2l+1 LMDIM =      8
   total plane-waves  NPLWV = 168000
   max r-space proj   IRMAX =   1313   max aug-charges    IRDMAX=   5527
   dimension x,y,z NGX =    60 NGY =   40 NGZ =   70
   dimension x,y,z NGXF=   120 NGYF=   80 NGZF=  140
   support grid    NGXF=   120 NGYF=   80 NGZF=  140
   ions per type =              24   8  24
   NGX,Y,Z   is equivalent  to a cutoff of   8.30,  8.75,  8.56 a.u.
   NGXF,Y,Z  is equivalent  to a cutoff of  16.60, 17.50, 17.11 a.u.

 SYSTEM =  unknown system                          
 POSCAR =  Na24 Al8 S24                            

 Startparameter for this run:
   NWRITE =      2    write-flag & timer
   PREC   = normal    normal or accurate (medium, high low for compatibility)
   ISTART =      0    job   : 0-new  1-cont  2-samecut
   ICHARG =      2    charge: 1-file 2-atom 10-const
   ISPIN  =      1    spin polarized calculation?
   LNONCOLLINEAR =      F non collinear calculations
   LSORBIT =      F    spin-orbit coupling
   INIWAV =      1    electr: 0-lowe 1-rand  2-diag
   LASPH  =      F    aspherical Exc in radial PAW
 Electronic Relaxation 1
   ENCUT  =  400.0 eV  29.40 Ry    5.42 a.u.  19.60 12.39 22.18*2*pi/ulx,y,z
   ENINI  =  400.0     initial cutoff
   ENAUG  =  368.1 eV  augmentation charge cutoff
   NELM   =     60;   NELMIN=  2; NELMDL= -5     # of ELM steps 
   EDIFF  = 0.1E-04   stopping-criterion for ELM
   LREAL  =      T    real-space projection
   NLSPLINE    = F    spline interpolate recip. space projectors
   LCOMPAT=      F    compatible to vasp.4.4
   GGA_COMPAT  = T    GGA compatible to vasp.4.4-vasp.4.6
   LMAXPAW     = -100 max onsite density
   LMAXMIX     =    2 max onsite mixed and CHGCAR
   VOSKOWN=      0    Vosko Wilk Nusair interpolation
   ROPT   =   -0.00050  -0.00050  -0.00050
 Ionic relaxation
   EDIFFG = -.5E-01   stopping-criterion for IOM
   NSW    =    100    number of steps for IOM
   NBLOCK =      1;   KBLOCK =    100    inner block; outer block 
   IBRION =      2    ionic relax: 0-MD 1-quasi-New 2-CG
   NFREE  =      1    steps in history (QN), initial steepest desc. (CG)
   ISIF   =      3    stress and relaxation
   IWAVPR =     11    prediction:  0-non 1-charg 2-wave 3-comb
   ISYM   =      2    0-nonsym 1-usesym 2-fastsym
   LCORR  =      T    Harris-Foulkes like correction to forces

   POTIM  = 0.5000    time-step for ionic-motion
   TEIN   =    0.0    initial temperature
   TEBEG  =    0.0;   TEEND  =   0.0 temperature during run
   SMASS  =  -3.00    Nose mass-parameter (am)
   estimated Nose-frequenzy (Omega)   =  0.10E-29 period in steps = 0.13E+47 mass=  -0.330E-26a.u.
   SCALEE = 1.0000    scale energy and forces
   NPACO  =    256;   APACO  = 10.0  distance and # of slots for P.C.
   PSTRESS=    0.0 pullay stress

  Mass of Ions in am
   POMASS =  22.99 26.98 32.07
  Ionic Valenz
   ZVAL   =   7.00  3.00  6.00
  Atomic Wigner-Seitz radii
   RWIGS  =  -1.00 -1.00 -1.00
  virtual crystal weights 
   VCA    =   1.00  1.00  1.00
   NELECT =     336.0000    total number of electrons
   NUPDOWN=      -1.0000    fix difference up-down

 DOS related values:
   EMIN   =  10.00;   EMAX   =-10.00  energy-range for DOS
   EFERMI =   0.00
   ISMEAR =     0;   SIGMA  =   0.05  broadening in eV -4-tet -1-fermi 0-gaus

 Electronic relaxation 2 (details)
   IALGO  =     38    algorithm
   LDIAG  =      T    sub-space diagonalisation (order eigenvalues)
   LSUBROT=      F    optimize rotation matrix (better conditioning)
   TURBO    =      0    0=normal 1=particle mesh
   IRESTART =      0    0=no restart 2=restart with 2 vectors
   NREBOOT  =      0    no. of reboots
   NMIN     =      0    reboot dimension
   EREF     =   0.00    reference energy to select bands
   IMIX   =      4    mixing-type and parameters
     AMIX     =   0.40;   BMIX     =  1.00
     AMIX_MAG =   1.60;   BMIX_MAG =  1.00
     AMIN     =   0.10
     WC   =   100.;   INIMIX=   1;  MIXPRE=   1;  MAXMIX= -45

 Intra band minimization:
   WEIMIN = 0.0010     energy-eigenvalue tresh-hold
   EBREAK =  0.11E-07  absolut break condition
   DEPER  =   0.30     relativ break condition  

   TIME   =   0.40     timestep for ELM

  volume/ion in A,a.u.               =      21.91       147.88
  Fermi-wavevector in a.u.,A,eV,Ry     =   1.063051  2.008876 15.375645  1.130078
  Thomas-Fermi vector in A             =   2.198523

 Write flags
   LWAVE        =      F    write WAVECAR
   LDOWNSAMPLE  =      F    k-point downsampling of WAVECAR
   LCHARG       =      F    write CHGCAR
   LVTOT        =      F    write LOCPOT, total local potential
   LVHAR        =      F    write LOCPOT, Hartree potential only
   LELF         =      F    write electronic localiz. function (ELF)
   LORBIT       =      0    0 simple, 1 ext, 2 COOP (PROOUT), +10 PAW based schemes


 Dipole corrections
   LMONO  =      F    monopole corrections only (constant potential shift)
   LDIPOL =      F    correct potential (dipole corrections)
   IDIPOL =      0    1-x, 2-y, 3-z, 4-all directions 
   EPSILON=  1.0000000 bulk dielectric constant

 Exchange correlation treatment:
   GGA     =    --    GGA type
   LEXCH   =     8    internal setting for exchange type
   LIBXC   =     F    Libxc                    
   VOSKOWN =     0    Vosko Wilk Nusair interpolation
   LHFCALC =     F    Hartree Fock is set to
   LHFONE  =     F    Hartree Fock one center treatment
   AEXX    =    0.0000 exact exchange contribution

 Linear response parameters
   LEPSILON=     F    determine dielectric tensor
   LRPA    =     F    only Hartree local field effects (RPA)
   LNABLA  =     F    use nabla operator in PAW spheres
   LVEL    =     F    velocity operator in full k-point grid
   CSHIFT  =0.1000    complex shift for real part using Kramers Kronig
   OMEGAMAX=  -1.0    maximum frequency
   DEG_THRESHOLD= 0.2000000E-02 threshold for treating states as degnerate
   RTIME   =   -0.100 relaxation time in fs
  (WPLASMAI=    0.000 imaginary part of plasma frequency in eV, 0.658/RTIME)
   DFIELD  = 0.0000000 0.0000000 0.0000000 field for delta impulse in time

  Optional k-point grid parameters
   LKPOINTS_OPT  =     F    use optional k-point grid
   KPOINTS_OPT_MODE=     1    mode for optional k-point grid

 Orbital magnetization related:
   ORBITALMAG=     F  switch on orbital magnetization
   LCHIMAG   =     F  perturbation theory with respect to B field
   DQ        =  0.001000  dq finite difference perturbation B field
   LLRAUG    =     F  two centre corrections for induced B field



--------------------------------------------------------------------------------------------------------


 conjugate gradient relaxation of ions
 charge density and potential will be updated during run
 non-spin polarized calculation
 Variant of blocked Davidson
 Davidson routine will perform the subspace rotation
 perform sub-space diagonalisation
    after iterative eigenvector-optimisation
 modified Broyden-mixing scheme, WC =      100.0
 initial mixing is a Kerker type mixing with AMIX =  0.4000 and BMIX =      1.0000
 Hartree-type preconditioning will be used
 using additional bands           56
 real space projection scheme for non local part
 use partial core corrections
 calculate Harris-corrections to forces   (improved forces if not selfconsistent)
 use gradient corrections 
 use of overlap-Matrix (Vanderbilt PP)
 Gauss-broadening in eV      SIGMA  =   0.05


--------------------------------------------------------------------------------------------------------


  energy-cutoff  :      400.00
  volume of cell :     1227.16
      direct lattice vectors                 reciprocal lattice vectors
    12.019856180  0.000000000  0.000000000     0.083195671  0.000000000 -0.000000000
    -0.000000000  7.507290561  1.179449824     0.000000000  0.133203849  0.000000000
     0.000000000  0.000000000 13.599365520    -0.000000000 -0.011552543  0.073532842

  length of vectors
    12.019856180  7.599375860 13.599365520     0.083195671  0.133203849  0.074434805



 k-points in units of 2pi/SCALE and weight: pymatgen with grid density = 500 / numbe
   0.00000000  0.00000000  0.00000000       0.500
   0.00000000  0.06660192  0.00000000       0.500

 k-points in reciprocal lattice and weights: pymatgen with grid density = 500 / numbe
   0.00000000  0.00000000  0.00000000       0.500
   0.00000000  0.50000000  0.00000000       0.500

 position of ions in fractional coordinates (direct lattice) 
   0.98294164  0.08191137  0.80593330
   0.75223109  0.99483072  0.01374276
   0.80712544  0.53406490  0.75979288
   0.73731753  0.91914970  0.52584365
   0.91317644  0.11111801  0.36474221
   0.23731753  0.58085030  0.47415635
   0.82660849  0.50347358  0.24358889
   0.26268247  0.08085030  0.47415635
   0.74776891  0.49483072  0.01374276
   0.41317644  0.38888199  0.63525779
   0.25223109  0.50516928  0.98625724
   0.24776891  0.00516928  0.98625724
   0.76268247  0.41914970  0.52584365
   0.19287456  0.46593510  0.24020712
   0.01705836  0.91808863  0.19406670
   0.58682356  0.61111801  0.36474221
   0.32660849  0.99652642  0.75641111
   0.08682356  0.88888199  0.63525779
   0.30712544  0.96593510  0.24020712
   0.17339151  0.49652642  0.75641111
   0.48294164  0.41808863  0.19406670
   0.69287456  0.03406490  0.75979288
   0.51705836  0.58191137  0.80593330
   0.67339151  0.00347358  0.24358889
   0.00670486  0.32588013  0.07337287
   0.02146101  0.31994126  0.56571019
   0.52146101  0.18005874  0.43428981
   0.47853899  0.81994126  0.56571019
   0.50670486  0.17411987  0.92662713
   0.49329514  0.82588013  0.07337287
   0.97853899  0.68005874  0.43428981
   0.99329514  0.67411987  0.92662713
   0.35878119  0.31006401  0.85362816
   0.16731894  0.20231974  0.12336188
   0.38991049  0.37958595  0.38730556
   0.14121881  0.81006401  0.85362816
   0.00288708  0.61901727  0.09737447
   0.64121881  0.68993599  0.14637184
   0.81513265  0.76213753  0.37022972
   0.11008951  0.87958595  0.38730556
   0.31513265  0.73786247  0.62977028
   0.50288708  0.88098273  0.90262553
   0.66731894  0.29768026  0.87663812
   0.85878119  0.18993599  0.14637184
   0.18486735  0.23786247  0.62977028
   0.03265437  0.40951528  0.39596793
   0.61008951  0.62041405  0.61269444
   0.49711292  0.11901727  0.09737447
   0.68486735  0.26213753  0.37022972
   0.88991049  0.12041405  0.61269444
   0.96734563  0.59048472  0.60403207
   0.99711292  0.38098273  0.90262553
   0.83268106  0.79768026  0.87663812
   0.53265437  0.09048472  0.60403207
   0.33268106  0.70231974  0.12336188
   0.46734563  0.90951528  0.39596793

 position of ions in cartesian coordinates  (Angst):
  11.81481715  0.61493245 11.05679188
   9.04170952  7.46848327  1.36024573
   9.70153171  4.00938038 10.96260385
   8.86245067  6.90032387  8.23523095
  10.97624948  0.83419519  5.09132075
   2.85252258  4.36061197  7.13330930
   9.93571517  3.77972246  3.90647618
   3.15740551  0.60696669  6.54358439
   8.98807475  3.71483799  0.77052082
   4.96632139  2.91945009  9.09776968
   3.03178143  3.79245257 14.00829452
   2.97814666  0.03880729 13.41856961
   9.16733360  3.14667859  7.64550604
   2.31832447  3.49791018  3.81621150
   0.20503903  6.89235811  3.72202346
   7.05353479  4.58784047  5.68104566
   3.92578708  7.48121339 11.46206408
   1.04360670  6.67309537  9.68749459
   3.69160362  7.25155546  4.40593641
   2.08414101  3.72756811 10.87233917
   5.80488906  3.13871283  3.13229855
   8.32825256  0.25573510 10.37287893
   6.21496712  4.36857774 11.64651679
   8.09406910  0.02607717  3.31675127
   0.08059145  2.44647682  1.38218374
   0.25795825  2.40189200  8.07065431
   6.26788634  1.35175328  6.11843612
   5.75196984  6.15553728  8.66037923
   6.09051954  1.30716846 12.80690669
   5.92933664  6.20012210  1.97190865
  11.76189793  5.10539856  6.70816103
  11.93926473  5.06081374 13.39663160
   4.31249830  2.32774062 11.97450631
   2.01114959  1.51887307  1.91626928
   4.68666801  2.84966202  5.71481246
   1.69742979  6.08138590 12.56423122
   0.03470229  4.64714251  2.05433082
   7.70735788  5.17954995  2.80430904
   9.79777722  5.72158789  5.93379226
   1.32326008  6.60330730  6.30453737
   3.78784913  5.53934796  9.43474799
   6.04463038  6.61379333 13.31420944
   8.02107768  2.23477221 12.27282115
  10.32242639  1.42590467  2.21458412
   2.22207896  1.78570268  8.84502308
   0.39250083  3.07435020  5.86791534
   7.33318817  4.65762854  9.06400288
   5.97522580  0.89349723  1.46460591
   8.23200705  1.96794260  5.34406735
  10.69659610  0.90398326  8.47427797
  11.62735535  4.43294037  8.91090000
  11.98515389  2.86014805 12.72448452
  10.00870659  5.98841749 12.86254606
   6.40242892  0.67929508  8.32117509
   3.99877850  5.27251836  2.50599419
   5.61742726  6.82799548  6.45764025



--------------------------------------------------------------------------------------------------------


 k-point   1 :   0.0000 0.0000 0.0000  plane waves:   22297
 k-point   2 :   0.0000 0.5000 0.0000  plane waves:   22334

 maximum and minimum number of plane-waves per node :     22334    22297

 maximum number of plane-waves:     22334
 maximum index in each direction: 
   IXMAX=   19   IYMAX=   12   IZMAX=   22
   IXMIN=  -19   IYMIN=  -12   IZMIN=  -22


 serial   3D FFT for wavefunctions
 parallel 3D FFT for charge:
    minimum data exchange during FFTs selected (reduces bandwidth)


 total amount of memory used by VASP MPI-rank0    52723. kBytes
=======================================================================

   base      :      30000. kBytes
   nonlr-proj:       5595. kBytes
   fftplans  :       2197. kBytes
   grid      :       9656. kBytes
   one-center:        172. kBytes
   wavefun   :       5103. kBytes

     INWAV:  cpu time      0.0000: real time      0.0002
 Broyden mixing: mesh for mixing (old mesh)
   NGX = 39   NGY = 25   NGZ = 45
  (NGX  =120   NGY  = 80   NGZ  =140)
  gives a total of  43875 points

 initial charge density was supplied:
 charge density of overlapping atoms calculated
 number of electron     336.0000000 magnetization 
 keeping initial charge density in first step


--------------------------------------------------------------------------------------------------------


 Maximum index for non-local projection operator         1236
 Maximum index for augmentation-charges          370 (set IRDMAX)


--------------------------------------------------------------------------------------------------------


 First call to EWALD:  gamma=   0.166
 Maximum number of real-space cells 3x 4x 2
 Maximum number of reciprocal cells 3x 2x 3

    FEWALD:  cpu time      0.0022: real time      0.0023


--------------------------------------- Iteration      1(   1)  ---------------------------------------


    POTLOK:  cpu time      0.0433: real time      0.0440
    SETDIJ:  cpu time      0.0036: real time      0.0039
     EDDAV:  cpu time      1.0275: real time      1.0284
       DOS:  cpu time      0.0006: real time      0.0007
    --------------------------------------------
      LOOP:  cpu time      1.0750: real time      1.0770

 eigenvalue-minimisations  :   896
 total energy-change (2. order) : 0.2881129E+04  (-0.1367763E+05)
 number of electron     336.0000000 magnetization 
 augmentation part      336.0000000 magnetization 

 Free energy of the ion-electron system (eV)
  ---------------------------------------------------
  alpha Z        PSCENC =       449.09140806
  Ewald energy   TEWEN  =    -14862.51599121
  -Hartree energ DENC   =     -6562.45018200
  -exchange      EXHF   =         0.00000000
  -V(xc)+E(xc)   XCENC  =       675.11087069
  PAW double counting   =     17805.56903204   -19599.11333004
  entropy T*S    EENTRO =        -0.00243986
  eigenvalues    EBANDS =      -481.31304201
  atomic energy  EATOM  =     25456.75276585
  Solvation  Ediel_sol  =         0.00000000
  ---------------------------------------------------
  free energy    TOTEN  =      2881.12909153 eV

  energy without entropy =     2881.13153139  energy(sigma->0) =     2881.13031146


--------------------------------------------------------------------------------------------------------




--------------------------------------- Iteration      1(   2)  ---------------------------------------


     EDDAV:  cpu time      1.1088: real time      1.1099
       DOS:  cpu time      0.0002: real time      0.0003
    --------------------------------------------
      LOOP:  cpu time      1.1090: real time      1.1102

 eigenvalue-minimisations  :   960
 total energy-change (2. order) :-0.2752614E+04  (-0.2626017E+04)
 number of electron     336.0000000 magnetization 
 augmentation part      336.0000000 magnetization 

 Free energy of the ion-electron system (eV)
  ---------------------------------------------------
  alpha Z        PSCENC =       449.09140806
  Ewald energy   TEWEN  =    -14862.51599121
  -Hartree energ DENC   =     -6562.45018200
  -exchange      EXHF   =         0.00000000
  -V(xc)+E(xc)   XCENC  =       675.11087069
  PAW double counting   =     17805.56903204   -19599.11333004
  entropy T*S    EENTRO =        -0.00000000
  eigenvalues    EBANDS =     -3233.92916123
  atomic energy  EATOM  =     25456.75276585
  Solvation  Ediel_sol  =         0.00000000
  ---------------------------------------------------
  free energy    TOTEN  =       128.51541217 eV

  energy without entropy =      128.51541217  energy(sigma->0) =      128.51541217


--------------------------------------------------------------------------------------------------------




--------------------------------------- Iteration      1(   3)  ---------------------------------------


     EDDAV:  cpu time      1.1748: real time      1.1756
       DOS:  cpu time      0.0002: real time      0.0003
    --------------------------------------------
      LOOP:  cpu time      1.1750: real time      1.1759

 eigenvalue-minimisations  :  1024
 total energy-change (2. order) :-0.3510107E+03  (-0.3470278E+03)
 number of electron     336.0000000 magnetization 
 augmentation part      336.0000000 magnetization 

 Free energy of the ion-electron system (eV)
  ---------------------------------------------------
  alpha Z        PSCENC =       449.09140806
  Ewald energy   TEWEN  =    -14862.51599121
  -Hartree energ DENC   =     -6562.45018200
  -exchange      EXHF   =         0.00000000
  -V(xc)+E(xc)   XCENC  =       675.11087069
  PAW double counting   =     17805.56903204   -19599.11333004
  entropy T*S    EENTRO =        -0.00000000
  eigenvalues    EBANDS =     -3584.93986589
  atomic energy  EATOM  =     25456.75276585
  Solvation  Ediel_sol  =         0.00000000
  ---------------------------------------------------
  free energy    TOTEN  =      -222.49529249 eV

  energy without entropy =     -222.49529249  energy(sigma->0) =     -222.49529249


--------------------------------------------------------------------------------------------------------




--------------------------------------- Iteration      1(   4)  ---------------------------------------


     EDDAV:  cpu time      1.2883: real time      1.2912
       DOS:  cpu time      0.0002: real time      0.0003
    --------------------------------------------
      LOOP:  cpu time      1.2885: real time      1.2915

 eigenvalue-minimisations  :  1120
 total energy-change (2. order) :-0.1681463E+02  (-0.1669648E+02)
 number of electron     336.0000000 magnetization 
 augmentation part      336.0000000 magnetization 

 Free energy of the ion-electron system (eV)
  ---------------------------------------------------
  alpha Z        PSCENC =       449.09140806
  Ewald energy   TEWEN  =    -14862.51599121
  -Hartree energ DENC   =     -6562.45018200
  -exchange      EXHF   =         0.00000000
  -V(xc)+E(xc)   XCENC  =       675.11087069
  PAW double counting   =     17805.56903204   -19599.11333004
  entropy T*S    EENTRO =        -0.00000000
  eigenvalues    EBANDS =     -3601.75449521
  atomic energy  EATOM  =     25456.75276585
  Solvation  Ediel_sol  =         0.00000000
  ---------------------------------------------------
  free energy    TOTEN  =      -239.30992181 eV

  energy without entropy =     -239.30992181  energy(sigma->0) =     -239.30992181


--------------------------------------------------------------------------------------------------------




--------------------------------------- Iteration      1(   5)  ---------------------------------------


     EDDAV:  cpu time      1.4180: real time      1.4212
       DOS:  cpu time      0.0002: real time      0.0003
    CHARGE:  cpu time      0.0671: real time      0.0674
    MIXING:  cpu time      0.0014: real time      0.0015
    --------------------------------------------
      LOOP:  cpu time      1.4867: real time      1.4905

 eigenvalue-minimisations  :  1248
 total energy-change (2. order) :-0.6422101E+00  (-0.6414233E+00)
 number of electron     336.0000203 magnetization 
 augmentation part       86.0595554 magnetization 

 Broyden mixing:
  rms(total) = 0.25329E+01    rms(broyden)= 0.25328E+01
  rms(prec ) = 0.28637E+01
  weight for this iteration     100.00

 Free energy of the ion-electron system (eV)
  ---------------------------------------------------
  alpha Z        PSCENC =       449.09140806
  Ewald energy   TEWEN  =    -14862.51599121
  -Hartree energ DENC   =     -6562.45018200
  -exchange      EXHF   =         0.00000000
  -V(xc)+E(xc)   XCENC  =       675.11087069
  PAW double counting   =     17805.56903204   -19599.11333004
  entropy T*S    EENTRO =        -0.00000000
  eigenvalues    EBANDS =     -3602.39670535
  atomic energy  EATOM  =     25456.75276585
  Solvation  Ediel_sol  =         0.00000000
  ---------------------------------------------------
  free energy    TOTEN  =      -239.95213195 eV

  energy without entropy =     -239.95213195  energy(sigma->0) =     -239.95213195


--------------------------------------------------------------------------------------------------------




--------------------------------------- Iteration      1(   6)  ---------------------------------------


    POTLOK:  cpu time      0.0286: real time      0.0288
    SETDIJ:  cpu time      0.0029: real time      0.0029
     EDDAV:  cpu time      1.2460: real time      1.2479
       DOS:  cpu time      0.0002: real time      0.0004
    CHARGE:  cpu time      0.0678: real time      0.0678
    MIXING:  cpu time      0.0011: real time      0.0011
    --------------------------------------------
      LOOP:  cpu time      1.3467: real time      1.3489

 eigenvalue-minimisations  :  1088
 total energy-change (2. order) : 0.1150655E+02  (-0.2038921E+01)
 number of electron     336.0000200 magnetization 
 augmentation part       87.0606315 magnetization 

 Broyden mixing:
  rms(total) = 0.16889E+01    rms(broyden)= 0.16889E+01
  rms(prec ) = 0.17794E+01
  weight for this iteration     100.00

 eigenvalues of (default mixing * dielectric matrix)
  average eigenvalue GAMMA=   1.9050
  1.9050

 Free energy of the ion-electron system (eV)
  ---------------------------------------------------
  alpha Z        PSCENC =       449.09140806
  Ewald energy   TEWEN  =    -14862.51599121
  -Hartree energ DENC   =     -6634.11012654
  -exchange      EXHF   =         0.00000000
  -V(xc)+E(xc)   XCENC  =       685.03408835
  PAW double counting   =     20364.20656905   -22156.02231401
  entropy T*S    EENTRO =        -0.00000000
  eigenvalues    EBANDS =     -3530.88198272
  atomic energy  EATOM  =     25456.75276585
  Solvation  Ediel_sol  =         0.00000000
  ---------------------------------------------------
  free energy    TOTEN  =      -228.44558317 eV

  energy without entropy =     -228.44558317  energy(sigma->0) =     -228.44558317


--------------------------------------------------------------------------------------------------------




--------------------------------------- Iteration      1(   7)  ---------------------------------------


    POTLOK:  cpu time      0.0289: real time      0.0291
    SETDIJ:  cpu time      0.0029: real time      0.0029
     EDDAV:  cpu time      1.3885: real time      1.3901
       DOS:  cpu time      0.0002: real time      0.0005
    CHARGE:  cpu time      0.0659: real time      0.0659
    MIXING:  cpu time      0.0010: real time      0.0010
    --------------------------------------------
      LOOP:  cpu time      1.4874: real time      1.4895

 eigenvalue-minimisations  :  1216
 total energy-change (2. order) : 0.1244235E+01  (-0.9311255E+00)
 number of electron     336.0000197 magnetization 
 augmentation part       87.6853201 magnetization 

 Broyden mixing:
  rms(total) = 0.94946E+00    rms(broyden)= 0.94946E+00
  rms(prec ) = 0.96754E+00
  weight for this iteration     100.00

 eigenvalues of (default mixing * dielectric matrix)
  average eigenvalue GAMMA=   2.2712
  1.3727  3.1696

 Free energy of the ion-electron system (eV)
  ---------------------------------------------------
  alpha Z        PSCENC =       449.09140806
  Ewald energy   TEWEN  =    -14862.51599121
  -Hartree energ DENC   =     -6673.42778080
  -exchange      EXHF   =         0.00000000
  -V(xc)+E(xc)   XCENC  =       692.84191385
  PAW double counting   =     24602.41323170   -26399.08728905
  entropy T*S    EENTRO =        -0.00000000
  eigenvalues    EBANDS =     -3493.26960626
  atomic energy  EATOM  =     25456.75276585
  Solvation  Ediel_sol  =         0.00000000
  ---------------------------------------------------
  free energy    TOTEN  =      -227.20134786 eV

  energy without entropy =     -227.20134786  energy(sigma->0) =     -227.20134786


--------------------------------------------------------------------------------------------------------




--------------------------------------- Iteration      1(   8)  ---------------------------------------


    POTLOK:  cpu time      0.0288: real time      0.0292
    SETDIJ:  cpu time      0.0029: real time      0.0029
     EDDAV:  cpu time      4.6383: real time      4.6448
       DOS:  cpu time      0.0002: real time      0.0004
    CHARGE:  cpu time      0.0657: real time      0.0657
    MIXING:  cpu time      0.0010: real time      0.0010
    --------------------------------------------
      LOOP:  cpu time      4.7369: real time      4.7439

 eigenvalue-minimisations  :  1056
 total energy-change (2. order) :-0.3917347E-01  (-0.9769564E-01)
 number of electron     336.0000198 magnetization 
 augmentation part       87.5104032 magnetization 

 Broyden mixing:
  rms(total) = 0.30607E+00    rms(broyden)= 0.30607E+00
  rms(prec ) = 0.30927E+00
  weight for this iteration     100.00

 eigenvalues of (default mixing * dielectric matrix)
  average eigenvalue GAMMA=   1.6178
  2.5223  1.1656  1.1656

 Free energy of the ion-electron system (eV)
  ---------------------------------------------------
  alpha Z        PSCENC =       449.09140806
  Ewald energy   TEWEN  =    -14862.51599121
  -Hartree energ DENC   =     -6657.72588752
  -exchange      EXHF   =         0.00000000
  -V(xc)+E(xc)   XCENC  =       694.55417125
  PAW double counting   =     28823.54996734   -30627.24169401
  entropy T*S    EENTRO =        -0.00000000
  eigenvalues    EBANDS =     -3503.70526108
  atomic energy  EATOM  =     25456.75276585
  Solvation  Ediel_sol  =         0.00000000
  ---------------------------------------------------
  free energy    TOTEN  =      -227.24052132 eV

  energy without entropy =     -227.24052132  energy(sigma->0) =     -227.24052132


--------------------------------------------------------------------------------------------------------




--------------------------------------- Iteration      1(   9)  ---------------------------------------


    POTLOK:  cpu time      0.0287: real time      0.0293
    SETDIJ:  cpu time      0.0028: real time      0.0028
     EDDAV:  cpu time      1.1753: real time      1.1758
       DOS:  cpu time      0.0002: real time      0.0002
    CHARGE:  cpu time      0.0656: real time      0.0657
    MIXING:  cpu time      0.0011: real time      0.0011
    --------------------------------------------
      LOOP:  cpu time      1.2737: real time      1.2749

 eigenvalue-minimisations  :  1024
 total energy-change (2. order) : 0.1446870E-01  (-0.6953476E-02)
 number of electron     336.0000198 magnetization 
 augmentation part       87.5404215 magnetization 

 Broyden mixing:
  rms(total) = 0.11335E+00    rms(broyden)= 0.11335E+00
  rms(prec ) = 0.11648E+00
  weight for this iteration     100.00

 eigenvalues of (default mixing * dielectric matrix)
  average eigenvalue GAMMA=   1.4322
  2.5894  1.1721  1.1721  0.7952

 Free energy of the ion-electron system (eV)
  ---------------------------------------------------
  alpha Z        PSCENC =       449.09140806
  Ewald energy   TEWEN  =    -14862.51599121
  -Hartree energ DENC   =     -6661.35076992
  -exchange      EXHF   =         0.00000000
  -V(xc)+E(xc)   XCENC  =       694.28339267
  PAW double counting   =     27716.55263448   -29518.51450426
  entropy T*S    EENTRO =        -0.00000000
  eigenvalues    EBANDS =     -3501.52498829
  atomic energy  EATOM  =     25456.75276585
  Solvation  Ediel_sol  =         0.00000000
  ---------------------------------------------------
  free energy    TOTEN  =      -227.22605262 eV

  energy without entropy =     -227.22605262  energy(sigma->0) =     -227.22605262


--------------------------------------------------------------------------------------------------------




--------------------------------------- Iteration      1(  10)  ---------------------------------------


    POTLOK:  cpu time      0.0287: real time      0.0293
    SETDIJ:  cpu time      0.0028: real time      0.0028
     EDDAV:  cpu time      1.2772: real time      1.2780
       DOS:  cpu time      0.0002: real time      0.0004
    CHARGE:  cpu time      0.0656: real time      0.0656
    MIXING:  cpu time      0.0011: real time      0.0011
    --------------------------------------------
      LOOP:  cpu time      1.3756: real time      1.3773

 eigenvalue-minimisations  :  1120
 total energy-change (2. order) :-0.6029431E-02  (-0.1360156E-02)
 number of electron     336.0000198 magnetization 
 augmentation part       87.5521460 magnetization 

 Broyden mixing:
  rms(total) = 0.68089E-01    rms(broyden)= 0.68089E-01
  rms(prec ) = 0.70476E-01
  weight for this iteration     100.00

 eigenvalues of (default mixing * dielectric matrix)
  average eigenvalue GAMMA=   1.6861
  2.5762  2.5762  1.1515  1.1515  0.9749

 Free energy of the ion-electron system (eV)
  ---------------------------------------------------
  alpha Z        PSCENC =       449.09140806
  Ewald energy   TEWEN  =    -14862.51599121
  -Hartree energ DENC   =     -6661.37593051
  -exchange      EXHF   =         0.00000000
  -V(xc)+E(xc)   XCENC  =       694.39066839
  PAW double counting   =     27672.74886606   -29474.77454487
  entropy T*S    EENTRO =        -0.00000000
  eigenvalues    EBANDS =     -3501.54932383
  atomic energy  EATOM  =     25456.75276585
  Solvation  Ediel_sol  =         0.00000000
  ---------------------------------------------------
  free energy    TOTEN  =      -227.23208205 eV

  energy without entropy =     -227.23208205  energy(sigma->0) =     -227.23208205


--------------------------------------------------------------------------------------------------------




--------------------------------------- Iteration      1(  11)  ---------------------------------------


    POTLOK:  cpu time      0.0295: real time      0.0298
    SETDIJ:  cpu time      0.0029: real time      0.0029
     EDDAV:  cpu time      1.1999: real time      1.2005
       DOS:  cpu time      0.0002: real time      0.0004
    CHARGE:  cpu time      0.0657: real time      0.0658
    MIXING:  cpu time      0.0010: real time      0.0010
    --------------------------------------------
      LOOP:  cpu time      1.2992: real time      1.3004

 eigenvalue-minimisations  :  1056
 total energy-change (2. order) :-0.5337414E-02  (-0.9468381E-03)
 number of electron     336.0000198 magnetization 
 augmentation part       87.5418426 magnetization 

 Broyden mixing:
  rms(total) = 0.17401E-01    rms(broyden)= 0.17401E-01
  rms(prec ) = 0.18517E-01
  weight for this iteration     100.00

 eigenvalues of (default mixing * dielectric matrix)
  average eigenvalue GAMMA=   1.5966
  2.6446  2.6446  1.3239  1.1175  0.9244  0.9244

 Free energy of the ion-electron system (eV)
  ---------------------------------------------------
  alpha Z        PSCENC =       449.09140806
  Ewald energy   TEWEN  =    -14862.51599121
  -Hartree energ DENC   =     -6660.11581799
  -exchange      EXHF   =         0.00000000
  -V(xc)+E(xc)   XCENC  =       694.35883499
  PAW double counting   =     27520.75736469   -29322.92884953
  entropy T*S    EENTRO =        -0.00000000
  eigenvalues    EBANDS =     -3502.63713433
  atomic energy  EATOM  =     25456.75276585
  Solvation  Ediel_sol  =         0.00000000
  ---------------------------------------------------
  free energy    TOTEN  =      -227.23741947 eV

  energy without entropy =     -227.23741947  energy(sigma->0) =     -227.23741947


--------------------------------------------------------------------------------------------------------




--------------------------------------- Iteration      1(  12)  ---------------------------------------


    POTLOK:  cpu time      0.0286: real time      0.0289
    SETDIJ:  cpu time      0.0029: real time      0.0029
     EDDAV:  cpu time      4.6395: real time      4.6462
       DOS:  cpu time      0.0002: real time      0.0004
    CHARGE:  cpu time      0.0659: real time      0.0659
    MIXING:  cpu time      0.0011: real time      0.0011
    --------------------------------------------
      LOOP:  cpu time      4.7382: real time      4.7453

 eigenvalue-minimisations  :  1088
 total energy-change (2. order) :-0.3972812E-03  (-0.1004189E-03)
 number of electron     336.0000198 magnetization 
 augmentation part       87.5459748 magnetization 

 Broyden mixing:
  rms(total) = 0.18795E-01    rms(broyden)= 0.18795E-01
  rms(prec ) = 0.19200E-01
  weight for this iteration     100.00

 eigenvalues of (default mixing * dielectric matrix)
  average eigenvalue GAMMA=   1.5447
  2.5275  2.5275  1.2219  1.2219  1.2522  1.2522  0.8097

 Free energy of the ion-electron system (eV)
  ---------------------------------------------------
  alpha Z        PSCENC =       449.09140806
  Ewald energy   TEWEN  =    -14862.51599121
  -Hartree energ DENC   =     -6660.62071799
  -exchange      EXHF   =         0.00000000
  -V(xc)+E(xc)   XCENC  =       694.42011421
  PAW double counting   =     27499.34561027   -29301.56329336
  entropy T*S    EENTRO =        -0.00000000
  eigenvalues    EBANDS =     -3502.14771258
  atomic energy  EATOM  =     25456.75276585
  Solvation  Ediel_sol  =         0.00000000
  ---------------------------------------------------
  free energy    TOTEN  =      -227.23781675 eV

  energy without entropy =     -227.23781675  energy(sigma->0) =     -227.23781675


--------------------------------------------------------------------------------------------------------




--------------------------------------- Iteration      1(  13)  ---------------------------------------


    POTLOK:  cpu time      0.0286: real time      0.0289
    SETDIJ:  cpu time      0.0029: real time      0.0029
     EDDAV:  cpu time      1.1805: real time      1.1811
       DOS:  cpu time      0.0002: real time      0.0004
    CHARGE:  cpu time      0.0654: real time      0.0654
    MIXING:  cpu time      0.0012: real time      0.0012
    --------------------------------------------
      LOOP:  cpu time      1.2789: real time      1.2800

 eigenvalue-minimisations  :  1024
 total energy-change (2. order) :-0.9500814E-05  (-0.1236556E-04)
 number of electron     336.0000198 magnetization 
 augmentation part       87.5457111 magnetization 

 Broyden mixing:
  rms(total) = 0.90340E-02    rms(broyden)= 0.90340E-02
  rms(prec ) = 0.95849E-02
  weight for this iteration     100.00

 eigenvalues of (default mixing * dielectric matrix)
  average eigenvalue GAMMA=   1.5642
  2.6564  2.6564  1.5120  1.5120  1.2865  0.9899  0.9500  0.9500

 Free energy of the ion-electron system (eV)
  ---------------------------------------------------
  alpha Z        PSCENC =       449.09140806
  Ewald energy   TEWEN  =    -14862.51599121
  -Hartree energ DENC   =     -6660.76839545
  -exchange      EXHF   =         0.00000000
  -V(xc)+E(xc)   XCENC  =       694.41871675
  PAW double counting   =     27491.05894657   -29293.31714884
  entropy T*S    EENTRO =        -0.00000000
  eigenvalues    EBANDS =     -3501.95812798
  atomic energy  EATOM  =     25456.75276585
  Solvation  Ediel_sol  =         0.00000000
  ---------------------------------------------------
  free energy    TOTEN  =      -227.23782625 eV

  energy without entropy =     -227.23782625  energy(sigma->0) =     -227.23782625


--------------------------------------------------------------------------------------------------------




--------------------------------------- Iteration      1(  14)  ---------------------------------------


    POTLOK:  cpu time      0.0288: real time      0.0291
    SETDIJ:  cpu time      0.0028: real time      0.0028
     EDDAV:  cpu time      1.0603: real time      1.0609
       DOS:  cpu time      0.0002: real time      0.0004
    CHARGE:  cpu time      0.0650: real time      0.0650
    MIXING:  cpu time      0.0012: real time      0.0012
    --------------------------------------------
      LOOP:  cpu time      1.1583: real time      1.1595

 eigenvalue-minimisations  :   896
 total energy-change (2. order) :-0.1088873E-03  (-0.1600033E-04)
 number of electron     336.0000198 magnetization 
 augmentation part       87.5453068 magnetization 

 Broyden mixing:
  rms(total) = 0.37076E-02    rms(broyden)= 0.37076E-02
  rms(prec ) = 0.39674E-02
  weight for this iteration     100.00

 eigenvalues of (default mixing * dielectric matrix)
  average eigenvalue GAMMA=   1.5389
  2.6630  2.4438  1.7340  1.7340  1.2001  1.2001  1.0416  1.0416  0.7916

 Free energy of the ion-electron system (eV)
  ---------------------------------------------------
  alpha Z        PSCENC =       449.09140806
  Ewald energy   TEWEN  =    -14862.51599121
  -Hartree energ DENC   =     -6660.84875167
  -exchange      EXHF   =         0.00000000
  -V(xc)+E(xc)   XCENC  =       694.42842828
  PAW double counting   =     27485.11971856   -29287.40860787
  entropy T*S    EENTRO =        -0.00000000
  eigenvalues    EBANDS =     -3501.85690514
  atomic energy  EATOM  =     25456.75276585
  Solvation  Ediel_sol  =         0.00000000
  ---------------------------------------------------
  free energy    TOTEN  =      -227.23793514 eV

  energy without entropy =     -227.23793514  energy(sigma->0) =     -227.23793514


--------------------------------------------------------------------------------------------------------




--------------------------------------- Iteration      1(  15)  ---------------------------------------


    POTLOK:  cpu time      0.0286: real time      0.0288
    SETDIJ:  cpu time      0.0028: real time      0.0028
     EDDAV:  cpu time      1.1997: real time      1.2006
       DOS:  cpu time      0.0002: real time      0.0004
    CHARGE:  cpu time      0.0659: real time      0.0659
    MIXING:  cpu time      0.0012: real time      0.0012
    --------------------------------------------
      LOOP:  cpu time      1.2983: real time      1.2997

 eigenvalue-minimisations  :  1056
 total energy-change (2. order) :-0.2224219E-04  (-0.7068876E-05)
 number of electron     336.0000198 magnetization 
 augmentation part       87.5442377 magnetization 

 Broyden mixing:
  rms(total) = 0.29188E-02    rms(broyden)= 0.29188E-02
  rms(prec ) = 0.30105E-02
  weight for this iteration     100.00

 eigenvalues of (default mixing * dielectric matrix)
  average eigenvalue GAMMA=   1.5852
  2.8972  2.4074  2.4074  1.4783  1.4783  1.5717  0.9476  0.9476  0.8584  0.8584

 Free energy of the ion-electron system (eV)
  ---------------------------------------------------
  alpha Z        PSCENC =       449.09140806
  Ewald energy   TEWEN  =    -14862.51599121
  -Hartree energ DENC   =     -6660.83056655
  -exchange      EXHF   =         0.00000000
  -V(xc)+E(xc)   XCENC  =       694.43199741
  PAW double counting   =     27493.44592053   -29295.75107510
  entropy T*S    EENTRO =        -0.00000000
  eigenvalues    EBANDS =     -3501.86241637
  atomic energy  EATOM  =     25456.75276585
  Solvation  Ediel_sol  =         0.00000000
  ---------------------------------------------------
  free energy    TOTEN  =      -227.23795738 eV

  energy without entropy =     -227.23795738  energy(sigma->0) =     -227.23795738


--------------------------------------------------------------------------------------------------------




--------------------------------------- Iteration      1(  16)  ---------------------------------------


    POTLOK:  cpu time      0.0286: real time      0.0288
    SETDIJ:  cpu time      0.0028: real time      0.0028
     EDDAV:  cpu time      1.0123: real time      1.0131
       DOS:  cpu time      0.0002: real time      0.0003
    --------------------------------------------
      LOOP:  cpu time      1.0438: real time      1.0450

 eigenvalue-minimisations  :   832
 total energy-change (2. order) :-0.7460523E-05  (-0.6747257E-06)
 number of electron     336.0000198 magnetization 
 augmentation part       87.5442377 magnetization 

 Free energy of the ion-electron system (eV)
  ---------------------------------------------------
  alpha Z        PSCENC =       449.09140806
  Ewald energy   TEWEN  =    -14862.51599121
  -Hartree energ DENC   =     -6660.85107925
  -exchange      EXHF   =         0.00000000
  -V(xc)+E(xc)   XCENC  =       694.43268731
  PAW double counting   =     27494.50223937   -29296.80855626
  entropy T*S    EENTRO =        -0.00000000
  eigenvalues    EBANDS =     -3501.84143871
  atomic energy  EATOM  =     25456.75276585
  Solvation  Ediel_sol  =         0.00000000
  ---------------------------------------------------
  free energy    TOTEN  =      -227.23796484 eV

  energy without entropy =     -227.23796484  energy(sigma->0) =     -227.23796484


--------------------------------------------------------------------------------------------------------




 average (electrostatic) potential at core
  the test charge radii are     0.9254  1.0406  0.9698
  (the norm of the test charge is              1.0000)
       1 -46.7955       2 -46.6269       3 -46.9126       4 -46.7661       5 -46.8111
       6 -46.7661       7 -46.7270       8 -46.7661       9 -46.6269      10 -46.8111
      11 -46.6269      12 -46.6269      13 -46.7661      14 -46.9126      15 -46.7955
      16 -46.8111      17 -46.7270      18 -46.8111      19 -46.9126      20 -46.7270
      21 -46.7955      22 -46.9126      23 -46.7955      24 -46.7270      25 -77.6244
      26 -77.7307      27 -77.7307      28 -77.7307      29 -77.6244      30 -77.6244
      31 -77.7307      32 -77.6244      33 -87.8136      34 -87.7138      35 -87.8980
      36 -87.8136      37 -88.3125      38 -87.8136      39 -87.8626      40 -87.8980
      41 -87.8626      42 -88.3125      43 -87.7138      44 -87.8136      45 -87.8626
      46 -88.4868      47 -87.8980      48 -88.3125      49 -87.8626      50 -87.8980
      51 -88.4868      52 -88.3125      53 -87.7138      54 -88.4868      55 -87.7138
      56 -88.4868



 E-fermi :   1.7362     XC(G=0):  -8.3278     alpha+bet : -9.0147

 Fermi energy:         1.7361920646

 k-point     1 :       0.0000    0.0000    0.0000
  band No.  band energies     occupation 
      1     -21.1232      2.00000
      2     -21.1232      2.00000
      3     -21.1190      2.00000
      4     -21.1190      2.00000
      5     -21.1093      2.00000
      6     -21.1092      2.00000
      7     -21.1088      2.00000
      8     -21.1088      2.00000
      9     -21.0963      2.00000
     10     -21.0963      2.00000
     11     -21.0929      2.00000
     12     -21.0929      2.00000
     13     -21.0421      2.00000
     14     -21.0419      2.00000
     15     -21.0416      2.00000
     16     -21.0415      2.00000
     17     -21.0202      2.00000
     18     -21.0196      2.00000
     19     -21.0193      2.00000
     20     -21.0188      2.00000
     21     -20.9984      2.00000
     22     -20.9973      2.00000
     23     -20.9970      2.00000
     24     -20.9968      2.00000
     25     -20.9927      2.00000
     26     -20.9918      2.00000
     27     -20.9916      2.00000
     28     -20.9915      2.00000
     29     -20.9882      2.00000
     30     -20.9875      2.00000
     31     -20.9866      2.00000
     32     -20.9860      2.00000
     33     -20.9848      2.00000
     34     -20.9848      2.00000
     35     -20.9847      2.00000
     36     -20.9845      2.00000
     37     -20.9797      2.00000
     38     -20.9797      2.00000
     39     -20.9796      2.00000
     40     -20.9795      2.00000
     41     -20.9625      2.00000
     42     -20.9625      2.00000
     43     -20.9624      2.00000
     44     -20.9620      2.00000
     45     -20.9478      2.00000
     46     -20.9478      2.00000
     47     -20.9472      2.00000
     48     -20.9471      2.00000
     49     -20.9451      2.00000
     50     -20.9450      2.00000
     51     -20.9283      2.00000
     52     -20.9283      2.00000
     53     -20.9208      2.00000
     54     -20.9208      2.00000
     55     -20.9199      2.00000
     56     -20.9198      2.00000
     57     -20.9017      2.00000
     58     -20.9017      2.00000
     59     -20.8985      2.00000
     60     -20.8985      2.00000
     61     -20.8501      2.00000
     62     -20.8500      2.00000
     63     -20.8479      2.00000
     64     -20.8478      2.00000
     65     -20.8245      2.00000
     66     -20.8244      2.00000
     67     -20.8223      2.00000
     68     -20.8222      2.00000
     69     -20.8023      2.00000
     70     -20.8023      2.00000
     71     -20.7843      2.00000
     72     -20.7843      2.00000
     73     -10.7062      2.00000
     74     -10.6467      2.00000
     75     -10.4970      2.00000
     76     -10.4456      2.00000
     77      -9.8015      2.00000
     78      -9.7700      2.00000
     79      -9.6050      2.00000
     80      -9.5633      2.00000
     81      -9.5258      2.00000
     82      -9.5090      2.00000
     83      -9.4015      2.00000
     84      -9.3994      2.00000
     85      -9.3695      2.00000
     86      -9.2884      2.00000
     87      -9.2426      2.00000
     88      -9.1960      2.00000
     89      -9.1804      2.00000
     90      -9.1373      2.00000
     91      -9.0904      2.00000
     92      -9.0891      2.00000
     93      -9.0485      2.00000
     94      -8.9900      2.00000
     95      -8.9856      2.00000
     96      -8.9656      2.00000
     97      -2.9770      2.00000
     98      -2.9333      2.00000
     99      -2.9053      2.00000
    100      -2.8043      2.00000
    101      -2.7117      2.00000
    102      -2.6851      2.00000
    103      -2.6829      2.00000
    104      -2.6399      2.00000
    105      -1.5996      2.00000
    106      -1.5743      2.00000
    107      -1.5473      2.00000
    108      -1.4418      2.00000
    109      -1.3415      2.00000
    110      -1.2954      2.00000
    111      -1.2233      2.00000
    112      -1.1510      2.00000
    113      -1.1461      2.00000
    114      -1.0546      2.00000
    115      -0.9937      2.00000
    116      -0.8764      2.00000
    117      -0.8032      2.00000
    118      -0.7927      2.00000
    119      -0.6634      2.00000
    120      -0.5409      2.00000
    121      -0.5347      2.00000
    122      -0.3382      2.00000
    123      -0.2462      2.00000
    124      -0.2171      2.00000
    125      -0.1972      2.00000
    126      -0.1424      2.00000
    127      -0.1408      2.00000
    128      -0.1339      2.00000
    129      -0.1036      2.00000
    130      -0.0829      2.00000
    131      -0.0484      2.00000
    132      -0.0456      2.00000
    133       0.0575      2.00000
    134       0.0859      2.00000
    135       0.0922      2.00000
    136       0.1786      2.00000
    137       0.2787      2.00000
    138       0.3247      2.00000
    139       0.3489      2.00000
    140       0.3606      2.00000
    141       0.4097      2.00000
    142       0.4765      2.00000
    143       0.6158      2.00000
    144       0.6291      2.00000
    145       0.6312      2.00000
    146       0.7950      2.00000
    147       0.8172      2.00000
    148       0.8374      2.00000
    149       0.8838      2.00000
    150       0.9015      2.00000
    151       0.9468      2.00000
    152       0.9674      2.00000
    153       1.0120      2.00000
    154       1.0374      2.00000
    155       1.0528      2.00000
    156       1.0551      2.00000
    157       1.0799      2.00000
    158       1.1729      2.00000
    159       1.1914      2.00000
    160       1.2217      2.00000
    161       1.2447      2.00000
    162       1.2760      2.00000
    163       1.3089      2.00000
    164       1.3165      2.00000
    165       1.4137      2.00000
[...]
    201       7.4004      0.00000
    202       7.4004      0.00000
    203       7.5104      0.00000
    204       7.5104      0.00000
    205       7.5761      0.00000
    206       7.5761      0.00000
    207       7.6981      0.00000
    208       7.6981      0.00000
    209       7.8746      0.00000
    210       7.8746      0.00000
    211       7.9698      0.00000
    212       7.9698      0.00000
    213       8.0630      0.00000
    214       8.0630      0.00000
    215       8.1703      0.00000
    216       8.1703      0.00000
    217       8.2286      0.00000
    218       8.2286      0.00000
    219       8.4401      0.00000
    220       8.4401      0.00000
    221       8.5056      0.00000
    222       8.5056      0.00000
    223       8.6433      0.00000
    224       8.6434      0.00000


--------------------------------------------------------------------------------------------------------


 soft charge-density along one line, spin component           1
         0         1         2         3         4         5         6         7         8         9
 total charge-density along one line

 pseudopotential strength for first ion, spin component:           1
-25.326  -0.001   0.001   2.551   0.000  -0.000   0.008   0.026
 -0.001 -25.335   0.008   0.000   2.555  -0.003   0.003   0.009
  0.001   0.008 -25.333  -0.000  -0.003   2.554   0.002   0.006
  2.551   0.000  -0.000   6.574  -0.000  -0.000  -0.001   0.000
  0.000   2.555  -0.003  -0.000   6.573   0.001  -0.000  -0.000
 -0.000  -0.003   2.554  -0.000   0.001   6.573  -0.000   0.000
  0.008   0.003   0.002  -0.001  -0.000  -0.000   1.432   7.008
  0.026   0.009   0.006   0.000  -0.000   0.000   7.008  34.055
 total augmentation occupancy for first ion, spin component:           1
  2.001   0.000  -0.000  -0.002   0.000  -0.000  -0.027   0.009
  0.000   2.001  -0.000   0.000  -0.001  -0.001  -0.009   0.003
 -0.000  -0.000   2.001  -0.000  -0.001  -0.001  -0.006   0.002
 -0.002   0.000  -0.000   0.020  -0.000  -0.001  -0.017  -0.000
  0.000  -0.001  -0.001  -0.000   0.017   0.003  -0.007  -0.000
 -0.000  -0.001  -0.001  -0.001   0.003   0.016  -0.004  -0.000
 -0.027  -0.009  -0.006  -0.017  -0.007  -0.004   0.471  -0.001
  0.009   0.003   0.002  -0.000  -0.000  -0.000  -0.001   0.000


------------------------ aborting loop because EDIFF is reached ----------------------------------------


    CHARGE:  cpu time      0.0655: real time      0.0655
    FORLOC:  cpu time      0.0090: real time      0.0090
    FORNL :  cpu time      0.2418: real time      0.2419
    STRESS:  cpu time      0.7161: real time      0.7166
    FORCOR:  cpu time      0.0348: real time      0.0348
    FORHAR:  cpu time      0.0140: real time      0.0140
    MIXING:  cpu time      0.0008: real time      0.0008
    OFIELD:  cpu time      0.0000: real time      0.0000

  FORCE on cell =-STRESS in cart. coord.  units (eV):
  Direction    XX          YY          ZZ          XY          YZ          ZX
  --------------------------------------------------------------------------------------
  Alpha Z   435.42075   435.42075   435.42075
  Ewald   -4969.25786 -4753.93389 -4982.41306     0.00000   101.57465    -0.00000
  Hartree  2157.29138  2346.31128  2237.46698     0.00000   115.63300    -0.00000
  E(xc)   -1494.72098 -1493.68058 -1494.03098     0.00000     0.08929     0.00000
  Local   -1328.99579 -1730.46799 -1397.75704    -0.00000  -228.08836    -0.00000
  n-local  1363.82218  1358.05498  1347.47557    -0.00000    -1.51033     0.00000
  augment   586.52876   589.84922   586.73197     0.00000     0.59681    -0.00000
  Kinetic  3249.75058  3248.14089  3267.09029    -0.00000    11.78698    -0.00000
  Fock        0.00000     0.00000     0.00000     0.00000     0.00000     0.00000
  -------------------------------------------------------------------------------------
  Total      -0.16099    -0.30534    -0.01551     0.00000     0.08203    -0.00000
  in kB      -0.20379    -0.38651    -0.01964     0.00000     0.10384    -0.00000
  external pressure =       -0.20 kB  Pullay stress =        0.00 kB


 VOLUME and BASIS-vectors are now :
 -----------------------------------------------------------------------------
  energy-cutoff  :      400.00
  volume of cell :     1265.69
      direct lattice vectors                 reciprocal lattice vectors
    12.182820328 -0.000000000  0.000000000     0.082082800  0.000000000 -0.000000000
    -0.000000000  7.567469321  1.197063940     0.000000000  0.132161791 -0.000108847
     0.000000000  0.011308293 13.730452437    -0.000000000 -0.011522280  0.072840302

  length of vectors
    12.182820328  7.661563417 13.730457094     0.082082800  0.132161836  0.073746000


 FORCES acting on ions
    electron-ion (+dipol)            ewald-force                    non-local-force                 convergence-correction
 -----------------------------------------------------------------------------------------------
   0.119E+02 -.217E+02 -.533E+02   -.123E+02 0.197E+02 0.527E+02   0.437E+00 0.202E+01 0.689E+00   -.196E-02 -.792E-04 0.138E-02
   -.285E+02 0.121E+01 0.511E+01   0.292E+02 -.998E+00 -.627E+01   -.666E+00 -.207E+00 0.115E+01   -.142E-02 0.313E-03 -.142E-02
   -.453E+00 0.609E+01 0.372E+01   0.374E+00 -.471E+01 -.146E+01   0.811E-01 -.136E+01 -.226E+01   -.344E-03 -.557E-03 0.157E-02
   -.708E+01 0.984E+01 -.412E+02   0.750E+01 -.106E+02 0.401E+02   -.413E+00 0.749E+00 0.106E+01   -.872E-03 -.502E-03 0.170E-02
   -.343E+02 -.104E+02 0.176E+01   0.346E+02 0.992E+01 -.228E+01   -.224E+00 0.506E+00 0.531E+00   0.255E-03 0.127E-02 -.600E-03
   -.708E+01 -.984E+01 0.412E+02   0.750E+01 0.106E+02 -.401E+02   -.413E+00 -.749E+00 -.106E+01   -.872E-03 0.502E-03 -.170E-02
   -.256E+02 -.139E+02 0.335E+02   0.247E+02 0.143E+02 -.331E+02   0.909E+00 -.464E+00 -.337E+00   0.584E-03 0.881E-03 -.206E-02
   0.708E+01 -.984E+01 0.412E+02   -.750E+01 0.106E+02 -.401E+02   0.413E+00 -.749E+00 -.106E+01   0.872E-03 0.502E-03 -.170E-02
   0.285E+02 0.121E+01 0.511E+01   -.292E+02 -.998E+00 -.627E+01   0.666E+00 -.207E+00 0.115E+01   0.142E-02 0.313E-03 -.142E-02
   -.343E+02 0.104E+02 -.176E+01   0.346E+02 -.992E+01 0.228E+01   -.224E+00 -.506E+00 -.531E+00   0.255E-03 -.127E-02 0.600E-03
   -.285E+02 -.121E+01 -.511E+01   0.292E+02 0.998E+00 0.627E+01   -.666E+00 0.207E+00 -.115E+01   -.142E-02 -.313E-03 0.142E-02
   0.285E+02 -.121E+01 -.511E+01   -.292E+02 0.998E+00 0.627E+01   0.666E+00 0.207E+00 -.115E+01   0.142E-02 -.313E-03 0.142E-02
   0.708E+01 0.984E+01 -.412E+02   -.750E+01 -.106E+02 0.401E+02   0.413E+00 0.749E+00 0.106E+01   0.872E-03 -.502E-03 0.170E-02
   0.453E+00 -.609E+01 -.372E+01   -.374E+00 0.471E+01 0.146E+01   -.811E-01 0.136E+01 0.226E+01   0.344E-03 0.557E-03 -.157E-02
   -.119E+02 0.217E+02 0.533E+02   0.123E+02 -.197E+02 -.527E+02   -.437E+00 -.202E+01 -.689E+00   0.196E-02 0.792E-04 -.138E-02
   0.343E+02 -.104E+02 0.176E+01   -.346E+02 0.992E+01 -.228E+01   0.224E+00 0.506E+00 0.531E+00   -.255E-03 0.127E-02 -.600E-03
   -.256E+02 0.139E+02 -.335E+02   0.247E+02 -.143E+02 0.331E+02   0.909E+00 0.464E+00 0.337E+00   0.584E-03 -.881E-03 0.206E-02
   0.343E+02 0.104E+02 -.176E+01   -.346E+02 -.992E+01 0.228E+01   0.224E+00 -.506E+00 -.531E+00   -.255E-03 -.127E-02 0.600E-03
   -.453E+00 -.609E+01 -.372E+01   0.374E+00 0.471E+01 0.146E+01   0.811E-01 0.136E+01 0.226E+01   -.344E-03 0.557E-03 -.157E-02
   0.256E+02 0.139E+02 -.335E+02   -.247E+02 -.143E+02 0.331E+02   -.909E+00 0.464E+00 0.337E+00   -.584E-03 -.881E-03 0.206E-02
   0.119E+02 0.217E+02 0.533E+02   -.123E+02 -.197E+02 -.527E+02   0.437E+00 -.202E+01 -.689E+00   -.196E-02 0.792E-04 -.138E-02
   0.453E+00 0.609E+01 0.372E+01   -.374E+00 -.471E+01 -.146E+01   -.811E-01 -.136E+01 -.226E+01   0.344E-03 -.557E-03 0.157E-02
   -.119E+02 -.217E+02 -.533E+02   0.123E+02 0.197E+02 0.527E+02   -.437E+00 0.202E+01 0.689E+00   0.196E-02 -.792E-04 0.138E-02
   0.256E+02 -.139E+02 0.335E+02   -.247E+02 0.143E+02 -.331E+02   -.909E+00 -.464E+00 -.337E+00   -.584E-03 0.881E-03 -.206E-02
   -.535E+00 0.100E+02 0.107E+02   0.787E+00 -.110E+02 -.980E+01   -.255E+00 0.928E+00 -.868E+00   0.304E-03 0.286E-03 -.969E-04
   0.339E+01 0.338E+01 -.252E+01   -.306E+01 -.429E+01 0.351E+01   -.324E+00 0.911E+00 -.995E+00   -.178E-03 0.539E-04 0.167E-03
   0.339E+01 -.338E+01 0.252E+01   -.306E+01 0.429E+01 -.351E+01   -.324E+00 -.911E+00 0.995E+00   -.178E-03 -.539E-04 -.167E-03
   -.339E+01 0.338E+01 -.252E+01   0.306E+01 -.429E+01 0.351E+01   0.324E+00 0.911E+00 -.995E+00   0.178E-03 0.539E-04 0.167E-03
   -.535E+00 -.100E+02 -.107E+02   0.787E+00 0.110E+02 0.980E+01   -.255E+00 -.928E+00 0.868E+00   0.304E-03 -.286E-03 0.969E-04
   0.535E+00 0.100E+02 0.107E+02   -.787E+00 -.110E+02 -.980E+01   0.255E+00 0.928E+00 -.868E+00   -.304E-03 0.286E-03 -.969E-04
   -.339E+01 -.338E+01 0.252E+01   0.306E+01 0.429E+01 -.351E+01   0.324E+00 -.911E+00 0.995E+00   0.178E-03 -.539E-04 -.167E-03
   0.535E+00 -.100E+02 -.107E+02   -.787E+00 0.110E+02 0.980E+01   0.255E+00 -.928E+00 0.868E+00   -.304E-03 -.286E-03 0.969E-04
   0.343E+00 -.454E+01 -.351E+02   -.120E+01 0.470E+01 0.345E+02   0.870E+00 -.158E+00 0.572E+00   -.442E-03 -.436E-03 0.490E-03
   -.911E+01 0.769E+01 0.450E+01   0.102E+02 -.782E+01 -.451E+01   -.109E+01 0.117E+00 -.208E-02   0.172E-02 0.577E-04 0.319E-03
   0.179E+02 -.186E+02 0.258E+02   -.184E+02 0.195E+02 -.262E+02   0.490E+00 -.851E+00 0.323E+00   -.667E-03 0.969E-04 -.107E-02
   -.343E+00 -.454E+01 -.351E+02   0.120E+01 0.470E+01 0.345E+02   -.870E+00 -.158E+00 0.572E+00   0.442E-03 -.436E-03 0.490E-03
   -.966E+01 -.398E+02 -.732E+01   0.964E+01 0.401E+02 0.798E+01   0.342E-01 -.297E+00 -.635E+00   0.417E-03 -.580E-03 -.955E-03
   -.343E+00 0.454E+01 0.351E+02   0.120E+01 -.470E+01 -.345E+02   -.870E+00 0.158E+00 -.572E+00   0.442E-03 0.436E-03 -.490E-03
   -.670E+01 0.136E+01 0.195E+02   0.588E+01 -.123E+01 -.202E+02   0.831E+00 -.150E+00 0.653E+00   -.734E-03 0.162E-03 -.997E-03
   -.179E+02 -.186E+02 0.258E+02   0.184E+02 0.195E+02 -.262E+02   -.490E+00 -.851E+00 0.323E+00   0.667E-03 0.969E-04 -.107E-02
   -.670E+01 -.136E+01 -.195E+02   0.588E+01 0.123E+01 0.202E+02   0.831E+00 0.150E+00 -.653E+00   -.734E-03 -.162E-03 0.997E-03
   -.966E+01 0.398E+02 0.732E+01   0.964E+01 -.401E+02 -.798E+01   0.342E-01 0.297E+00 0.635E+00   0.417E-03 0.580E-03 0.955E-03
   -.911E+01 -.769E+01 -.450E+01   0.102E+02 0.782E+01 0.451E+01   -.109E+01 -.117E+00 0.208E-02   0.172E-02 -.577E-04 -.319E-03
   0.343E+00 0.454E+01 0.351E+02   -.120E+01 -.470E+01 -.345E+02   0.870E+00 0.158E+00 -.572E+00   -.442E-03 0.436E-03 -.490E-03
   0.670E+01 -.136E+01 -.195E+02   -.588E+01 0.123E+01 0.202E+02   -.831E+00 0.150E+00 -.653E+00   0.734E-03 -.162E-03 0.997E-03
   -.182E+02 0.114E+02 0.432E+02   0.185E+02 -.117E+02 -.441E+02   -.311E+00 0.278E+00 0.877E+00   0.963E-04 0.318E-03 -.399E-03
   -.179E+02 0.186E+02 -.258E+02   0.184E+02 -.195E+02 0.262E+02   -.490E+00 0.851E+00 -.323E+00   0.667E-03 -.969E-04 0.107E-02
   0.966E+01 -.398E+02 -.732E+01   -.964E+01 0.401E+02 0.798E+01   -.342E-01 -.297E+00 -.635E+00   -.417E-03 -.580E-03 -.955E-03
   0.670E+01 0.136E+01 0.195E+02   -.588E+01 -.123E+01 -.202E+02   -.831E+00 -.150E+00 0.653E+00   0.734E-03 0.162E-03 -.997E-03
   0.179E+02 0.186E+02 -.258E+02   -.184E+02 -.195E+02 0.262E+02   0.490E+00 0.851E+00 -.323E+00   -.667E-03 -.969E-04 0.107E-02
   0.182E+02 -.114E+02 -.432E+02   -.185E+02 0.117E+02 0.441E+02   0.311E+00 -.278E+00 -.877E+00   -.963E-04 -.318E-03 0.399E-03
   0.966E+01 0.398E+02 0.732E+01   -.964E+01 -.401E+02 -.798E+01   -.342E-01 0.297E+00 0.635E+00   -.417E-03 0.580E-03 0.955E-03
   0.911E+01 -.769E+01 -.450E+01   -.102E+02 0.782E+01 0.451E+01   0.109E+01 -.117E+00 0.208E-02   -.172E-02 -.577E-04 -.319E-03
   -.182E+02 -.114E+02 -.432E+02   0.185E+02 0.117E+02 0.441E+02   -.311E+00 -.278E+00 -.877E+00   0.963E-04 -.318E-03 0.399E-03
   0.911E+01 0.769E+01 0.450E+01   -.102E+02 -.782E+01 -.451E+01   0.109E+01 0.117E+00 -.208E-02   -.172E-02 0.577E-04 0.319E-03
   0.182E+02 0.114E+02 0.432E+02   -.185E+02 -.117E+02 -.441E+02   0.311E+00 0.278E+00 0.877E+00   -.963E-04 0.318E-03 -.399E-03
 -----------------------------------------------------------------------------------------------
   0.283E-10 -.228E-10 0.405E-10   0.121E-12 0.124E-13 -.142E-13   0.167E-15 0.111E-15 0.333E-15   -.635E-13 0.640E-12 0.258E-11


 POSITION                                       TOTAL-FORCE (eV/Angst)
 -----------------------------------------------------------------------------------
     11.97167      0.62977     11.16596        -0.010677      0.002953      0.008572
      9.16441      7.53039      1.37650         0.002163      0.007745     -0.010619
      9.83256      4.05445     11.07124         0.001908      0.016564      0.007680
      8.98204      6.96157      8.31762        -0.001413      0.005335     -0.011470
     11.12299      0.83915      5.14482         0.000026     -0.010695      0.013381
      2.89063      4.40094      7.20843        -0.001413     -0.005335      0.011470
     10.07077      3.81709      3.94743        -0.007683      0.017105     -0.002624
      3.20078      0.61721      6.60989         0.001413     -0.005335      0.011470
      9.10982      3.74665      0.77796        -0.002163      0.007745     -0.010619
      5.03158      2.95589      9.18416         0.000026      0.010695     -0.013381
      3.07300      3.83212     14.14955         0.002163     -0.007745      0.010619
      3.01841      0.04839     13.55102        -0.002163     -0.007745      0.010619
      9.29219      3.17783      7.71909         0.001413      0.005335     -0.011470
      2.35026      3.52433      3.85628        -0.001908     -0.016564     -0.007680
      0.21115      6.94900      3.76155         0.010677     -0.002953     -0.008572
      7.15124      4.62289      5.74336        -0.000026     -0.010695      0.013381
      3.97936      7.54542     11.57862        -0.007683     -0.017105      0.002624
      1.05983      6.73963      9.78269        -0.000026      0.010695     -0.013381
      3.74115      7.30806      4.45481         0.001908     -0.016564     -0.007680
      2.11205      3.76169     10.98008         0.007683     -0.017105      0.002624
      5.88026      3.16527      3.16302        -0.010677     -0.002953     -0.008572
      8.44167      0.27071     10.47271        -0.001908      0.016564      0.007680
      6.30256      4.41351     11.76450         0.010677      0.002953      0.008572
      8.20346      0.03336      3.34890         0.007683      0.017105     -0.002624
      0.08239      2.46674      1.39693        -0.002777     -0.002893      0.003254
      0.26131      2.42821      8.14909         0.008533      0.003732     -0.002934
      6.35272      1.36683      6.17989         0.008533     -0.003732      0.002934
      5.83010      6.21195      8.74763        -0.008533      0.003732     -0.002934
      6.17380      1.32831     12.93205        -0.002777      0.002893     -0.003254
      6.00902      6.25047      1.99546         0.002777     -0.002893      0.003254
     11.92151      5.15057      6.77842        -0.008533     -0.003732      0.002934
     12.10043      5.11204     13.53058         0.002777      0.002893     -0.003254
      4.37829      2.35104     12.08986         0.016035      0.002282     -0.012263
      2.03174      1.53548      1.93268        -0.010939     -0.010690     -0.009292
      4.75639      2.87253      5.77112         0.003497      0.005639     -0.001358
      1.71312      6.13478     12.68840        -0.016035      0.002282     -0.012263
      0.03562      4.67985      2.06802         0.008302      0.027814      0.019818
      7.80453      5.22774      2.83765        -0.016035     -0.002282      0.012263
      9.93852      5.76624      5.99838         0.015795     -0.015355      0.014643
      1.33502      6.65627      6.36965        -0.003497      0.005639     -0.001358
      3.84711      5.59628      9.52767         0.015795      0.015355     -0.014643
      6.12703      6.68266     13.45803         0.008302     -0.027814     -0.019818
      8.12315      2.25957     12.39631        -0.010939      0.010690      0.009292
     10.46970      1.44400      2.23912         0.016035     -0.002282      0.012263
      2.24430      1.81254      8.92913        -0.015795      0.015355     -0.014643
      0.39700      3.10925      5.93548         0.016471     -0.015820     -0.017874
      7.42643      4.70624      9.15640        -0.003497     -0.005639      0.001358
      6.05579      0.89612      1.46949        -0.008302      0.027814      0.019818
      8.33571      1.98250      5.39985        -0.015795     -0.015355      0.014643
     10.84780      0.92251      8.55787         0.003497     -0.005639      0.001358
     11.78582      4.46953      8.99204        -0.016471      0.015820      0.017874
     12.14720      2.89892     12.85950        -0.008302     -0.027814     -0.019818
     10.15108      6.04330     12.99484         0.010939      0.010690      0.009292
      6.48841      0.68579      8.39351         0.016471      0.015820      0.017874
      4.05967      5.31921      2.53121         0.010939     -0.010690     -0.009292
      5.69441      6.89298      6.53401        -0.016471     -0.015820     -0.017874
 -----------------------------------------------------------------------------------
    total drift:                                0.000000     -0.000000      0.000000


--------------------------------------------------------------------------------------------------------



  FREE ENERGIE OF THE ION-ELECTRON SYSTEM (eV)
  ---------------------------------------------------
  free  energy   TOTEN  =      -227.37466783 eV

  energy  without entropy=     -227.37466783  energy(sigma->0) =     -227.37466783

 d Force = 0.3477402E-02[-0.253E-03, 0.721E-02]  d Energy = 0.4764774E-02-0.129E-02
 d Force =-0.2026815E+01[-0.207E+01,-0.198E+01]  d Ewald  =-0.9884552E+01 0.786E+01


--------------------------------------------------------------------------------------------------------


    POTLOK:  cpu time      0.0340: real time      0.0340


--------------------------------------------------------------------------------------------------------


 Conjugate gradient step on ions:
 trial-energy change:   -0.004765  1 .order   -0.004539   -0.009518    0.000440
  (g-gl).g = 0.777E-02      g.g   = 0.791E-02  gl.gl    = 0.227E-01
 g(Force)  = 0.605E-02   g(Stress)= 0.186E-02 ortho     = 0.233E-03
 gamma     =   0.34250
 trial     =   1.19144
 opt step  =   1.14489  (harmonic =   1.13880) maximal distance =0.00500141
 next E    =  -227.374676   (d E  =  -0.00477)


--------------------------------------------------------------------------------------------------------


  
 reached required accuracy - stopping structural energy minimisation
     LOOP+:  cpu time      8.6949: real time      8.7057
    4ORBIT:  cpu time      0.0000: real time      0.0000

 total amount of memory used by VASP MPI-rank0    52723. kBytes
=======================================================================

   base      :      30000. kBytes
   nonlr-proj:       5595. kBytes
   fftplans  :       2197. kBytes
   grid      :       9656. kBytes
   one-center:        172. kBytes
   wavefun   :       5103. kBytes

  
  
 General timing and accounting informations for this job:
 ========================================================
  
                  Total CPU time used (sec):       94.032
                            User time (sec):       88.332
                          System time (sec):        5.699
                         Elapsed time (sec):       94.665
  
                   Maximum memory used (kb):      145112.
                   Average memory used (kb):          N/A
  
                          Minor page faults:       566513
                          Major page faults:          117
                 Voluntary context switches:         1451
