  79  79   0   0
  0.2352942E+02  0.1210264E-08  0.7093817E-09  0.2165102E-08  0.0000000E+00
   1.0000000000000000E-004
  CAR 
 NEB                                     
      9.00602468    -23.91080292  301      0.88214498      1.00000000
    -23.911  0.0000E+00  0.0000E+00
    -23.801  0.0000E+00  0.0000E+00
    -23.691  0.0000E+00  0.0000E+00
    -23.582 -0.2461E-30 -0.2700E-31
    -23.472 -0.1719E-26 -0.1887E-27
    -23.362 -0.6487E-23 -0.7120E-24
    -23.252 -0.1338E-19 -0.1469E-20
    -23.143 -0.1508E-16 -0.1656E-17
    -23.033 -0.8994E-14 -0.9885E-15
    -22.923 -0.3002E-11 -0.3304E-12
    -22.814 -0.5447E-09 -0.6010E-10
    -22.704 -0.5357E-07 -0.5938E-08
    -22.594 -0.2840E-05 -0.3176E-06
    -22.484 -0.8041E-04 -0.9140E-05
    -22.375 -0.1193E-02 -0.1400E-03
    -22.265 -0.8902E-02 -0.1117E-02
    -22.155 -0.2947E-01 -0.4351E-02
    -22.046 -0.1385E-01 -0.5870E-02
    -21.936  0.1843E+00  0.1435E-01
    -21.826  0.6816E+00  0.8913E-01
    -21.716  0.1404E+01  0.2432E+00
    -21.607  0.1877E+01  0.4491E+00
    -21.497  0.1653E+01  0.6305E+00
    -21.387  0.9723E+00  0.7371E+00
    -21.277  0.3362E+00  0.7740E+00
    -21.168  0.5609E-01  0.7802E+00
    -21.058  0.8780E-02  0.7811E+00
    -20.948 -0.3087E-02  0.7808E+00
    -20.839 -0.5283E-02  0.7802E+00
    -20.729 -0.1823E-02  0.7800E+00
    -20.619 -0.2623E-03  0.7800E+00
    -20.509 -0.1826E-04  0.7800E+00
    -20.400 -0.6512E-06  0.7800E+00
    -20.290 -0.1224E-07  0.7800E+00
    -20.180 -0.1228E-09  0.7800E+00
    -20.071 -0.6641E-12  0.7800E+00
    -19.961 -0.1956E-14  0.7800E+00
    -19.851  0.0000E+00  0.7800E+00
    -19.741  0.0000E+00  0.7800E+00
    -19.632  0.0000E+00  0.7800E+00
    -19.522  0.0000E+00  0.7800E+00
    -19.412  0.0000E+00  0.7800E+00
    -19.302  0.0000E+00  0.7800E+00
    -19.193  0.0000E+00  0.7800E+00
    -19.083  0.0000E+00  0.7800E+00
    -18.973  0.0000E+00  0.7800E+00
    -18.864  0.0000E+00  0.7800E+00
    -18.754  0.0000E+00  0.7800E+00
    -18.644  0.0000E+00  0.7800E+00
    -18.534  0.0000E+00  0.7800E+00
    -18.425  0.0000E+00  0.7800E+00
    -18.315  0.0000E+00  0.7800E+00
    -18.205  0.0000E+00  0.7800E+00
    -18.095  0.0000E+00  0.7800E+00
    -17.986  0.0000E+00  0.7800E+00
    -17.876  0.0000E+00  0.7800E+00
    -17.766  0.0000E+00  0.7800E+00
    -17.657  0.0000E+00  0.7800E+00
    -17.547  0.0000E+00  0.7800E+00
    -17.437  0.0000E+00  0.7800E+00
    -17.327  0.0000E+00  0.7800E+00
    -17.218  0.0000E+00  0.7800E+00
    -17.108  0.0000E+00  0.7800E+00
    -16.998  0.0000E+00  0.7800E+00
    -16.889  0.0000E+00  0.7800E+00
    -16.779  0.0000E+00  0.7800E+00
    -16.669  0.0000E+00  0.7800E+00
    -16.559  0.0000E+00  0.7800E+00
    -16.450  0.0000E+00  0.7800E+00
    -16.340  0.0000E+00  0.7800E+00
    -16.230  0.0000E+00  0.7800E+00
    -16.120  0.0000E+00  0.7800E+00
    -16.011  0.0000E+00  0.7800E+00
    -15.901  0.0000E+00  0.7800E+00
    -15.791  0.0000E+00  0.7800E+00
    -15.682  0.0000E+00  0.7800E+00
    -15.572  0.0000E+00  0.7800E+00
    -15.462  0.0000E+00  0.7800E+00
    -15.352  0.0000E+00  0.7800E+00
    -15.243  0.0000E+00  0.7800E+00
    -15.133  0.0000E+00  0.7800E+00
    -15.023  0.0000E+00  0.7800E+00
    -14.914  0.0000E+00  0.7800E+00
    -14.804  0.0000E+00  0.7800E+00
    -14.694  0.0000E+00  0.7800E+00
    -14.584  0.0000E+00  0.7800E+00
    -14.475  0.0000E+00  0.7800E+00
    -14.365  0.0000E+00  0.7800E+00
    -14.255  0.0000E+00  0.7800E+00
    -14.145  0.0000E+00  0.7800E+00
    -14.036  0.0000E+00  0.7800E+00
    -13.926  0.0000E+00  0.7800E+00
    -13.816  0.0000E+00  0.7800E+00
    -13.707  0.0000E+00  0.7800E+00
    -13.597  0.0000E+00  0.7800E+00
    -13.487  0.0000E+00  0.7800E+00
    -13.377  0.0000E+00  0.7800E+00
    -13.268  0.0000E+00  0.7800E+00
    -13.158  0.0000E+00  0.7800E+00
    -13.048  0.0000E+00  0.7800E+00
    -12.939  0.0000E+00  0.7800E+00
    -12.829  0.0000E+00  0.7800E+00
    -12.719  0.0000E+00  0.7800E+00
    -12.609  0.0000E+00  0.7800E+00
    -12.500  0.0000E+00  0.7800E+00
    -12.390  0.0000E+00  0.7800E+00
    -12.280 -0.4638E-32  0.7800E+00
    -12.170 -0.3752E-28  0.7800E+00
    -12.061 -0.1632E-24  0.7800E+00
    -11.951 -0.3875E-21  0.7800E+00
    -11.841 -0.5027E-18  0.7800E+00
    -11.732 -0.3460E-15  0.7800E+00
    -11.622 -0.1329E-12  0.7800E+00
    -11.512 -0.2785E-10  0.7800E+00
    -11.402 -0.3175E-08  0.7800E+00
    -11.293 -0.1964E-06  0.7800E+00
    -11.183 -0.6549E-05  0.7800E+00
    -11.073 -0.1160E-03  0.7800E+00
    -10.964 -0.1054E-02  0.7799E+00
    -10.854 -0.4372E-02  0.7794E+00
    -10.744 -0.3545E-02  0.7790E+00
    -10.634  0.3044E-01  0.7823E+00
    -10.525  0.1066E+00  0.7940E+00
    -10.415  0.1573E+00  0.8113E+00
    -10.305  0.1298E+00  0.8256E+00
    -10.195  0.5932E-01  0.8321E+00
    -10.086  0.6067E-03  0.8321E+00
     -9.976  0.2887E-02  0.8324E+00
     -9.866  0.1199E+00  0.8456E+00
     -9.757  0.3296E+00  0.8818E+00
     -9.647  0.4640E+00  0.9327E+00
     -9.537  0.3836E+00  0.9748E+00
     -9.427  0.1712E+00  0.9935E+00
     -9.318  0.2041E-01  0.9958E+00
     -9.208 -0.1452E-01  0.9942E+00
     -9.098 -0.6609E-02  0.9935E+00
     -8.989 -0.1136E-02  0.9933E+00
     -8.879 -0.9585E-04  0.9933E+00
     -8.769 -0.4225E-05  0.9933E+00
     -8.659 -0.9941E-07  0.9933E+00
     -8.550 -0.1261E-08  0.9933E+00
     -8.440 -0.8672E-11  0.9933E+00
     -8.330 -0.3241E-13  0.9933E+00
     -8.220 -0.6746E-16  0.9933E+00
     -8.111  0.0000E+00  0.9933E+00
     -8.001  0.0000E+00  0.9933E+00
     -7.891  0.0000E+00  0.9933E+00
     -7.782  0.0000E+00  0.9933E+00
     -7.672  0.0000E+00  0.9933E+00
     -7.562  0.0000E+00  0.9933E+00
     -7.452  0.0000E+00  0.9933E+00
     -7.343  0.0000E+00  0.9933E+00
     -7.233  0.0000E+00  0.9933E+00
     -7.123  0.0000E+00  0.9933E+00
     -7.013  0.0000E+00  0.9933E+00
     -6.904  0.0000E+00  0.9933E+00
     -6.794  0.0000E+00  0.9933E+00
     -6.684  0.0000E+00  0.9933E+00
     -6.575  0.0000E+00  0.9933E+00
     -6.465  0.0000E+00  0.9933E+00
     -6.355  0.0000E+00  0.9933E+00
     -6.245  0.0000E+00  0.9933E+00
     -6.136  0.0000E+00  0.9933E+00
     -6.026  0.0000E+00  0.9933E+00
     -5.916  0.0000E+00  0.9933E+00
     -5.807  0.0000E+00  0.9933E+00
     -5.697  0.0000E+00  0.9933E+00
     -5.587  0.0000E+00  0.9933E+00
     -5.477  0.0000E+00  0.9933E+00
     -5.368  0.0000E+00  0.9933E+00
     -5.258  0.0000E+00  0.9933E+00
     -5.148  0.0000E+00  0.9933E+00
     -5.038  0.0000E+00  0.9933E+00
     -4.929 -0.8415E-30  0.9933E+00
     -4.819 -0.4727E-26  0.9933E+00
     -4.709 -0.1445E-22  0.9933E+00
     -4.600 -0.2407E-19  0.9933E+00
     -4.490 -0.2184E-16  0.9933E+00
     -4.380 -0.1043E-13  0.9933E+00
     -4.270 -0.2784E-11  0.9933E+00
     -4.161 -0.4027E-09  0.9933E+00
     -4.051 -0.3153E-07  0.9933E+00
     -3.941 -0.1332E-05  0.9933E+00
     -3.832 -0.3014E-04  0.9933E+00
     -3.722 -0.3594E-03  0.9933E+00
     -3.612 -0.2142E-02  0.9931E+00
     -3.502 -0.5023E-02  0.9925E+00
     -3.393  0.6038E-02  0.9932E+00
     -3.283  0.5837E-01  0.9996E+00
     -3.173  0.1292E+00  0.1014E+01
     -3.063  0.1434E+00  0.1029E+01
     -2.954  0.9938E-01  0.1040E+01
     -2.844  0.4975E-01  0.1046E+01
     -2.734  0.1284E-01  0.1047E+01
     -2.625 -0.2387E-02  0.1047E+01
     -2.515 -0.2339E-02  0.1047E+01
     -2.405 -0.5359E-03  0.1047E+01
     -2.295 -0.7797E-04  0.1047E+01
     -2.186 -0.3399E-03  0.1047E+01
     -2.076 -0.2537E-02  0.1046E+01
     -1.966 -0.8442E-02  0.1045E+01
     -1.857 -0.1371E-02  0.1045E+01
     -1.747  0.6819E-01  0.1053E+01
     -1.637  0.1993E+00  0.1075E+01
     -1.527  0.2867E+00  0.1106E+01
     -1.418  0.2824E+00  0.1137E+01
     -1.308  0.2521E+00  0.1165E+01
     -1.198  0.2171E+00  0.1189E+01
     -1.088  0.1350E+00  0.1203E+01
     -0.979  0.3315E-01  0.1207E+01
     -0.869 -0.1141E-01  0.1206E+01
     -0.759  0.4080E-01  0.1210E+01
     -0.650  0.1661E+00  0.1228E+01
     -0.540  0.2424E+00  0.1255E+01
     -0.430  0.2252E+00  0.1280E+01
     -0.320  0.2091E+00  0.1303E+01
     -0.211  0.2310E+00  0.1328E+01
     -0.101  0.2600E+00  0.1357E+01
      0.009  0.2551E+00  0.1385E+01
      0.118  0.2330E+00  0.1410E+01
      0.228  0.2528E+00  0.1438E+01
      0.338  0.2994E+00  0.1471E+01
      0.448  0.3504E+00  0.1509E+01
      0.557  0.3830E+00  0.1551E+01
      0.667  0.3426E+00  0.1589E+01
      0.777  0.2455E+00  0.1616E+01
      0.887  0.1334E+00  0.1630E+01
      0.996  0.3854E-01  0.1635E+01
      1.106 -0.3529E-02  0.1634E+01
      1.216 -0.5989E-02  0.1634E+01
      1.325 -0.1670E-02  0.1633E+01
      1.435 -0.2116E-03  0.1633E+01
      1.545 -0.1374E-04  0.1633E+01
      1.655 -0.4736E-06  0.1633E+01
      1.764 -0.8795E-08  0.1633E+01
      1.874 -0.8852E-10  0.1633E+01
      1.984 -0.4844E-12  0.1633E+01
      2.093 -0.1444E-14  0.1633E+01
      2.203 -0.2691E-20  0.1633E+01
      2.313 -0.2924E-17  0.1633E+01
      2.423 -0.1671E-14  0.1633E+01
      2.532 -0.5309E-12  0.1633E+01
      2.642 -0.9092E-10  0.1633E+01
      2.752 -0.8346E-08  0.1633E+01
      2.862 -0.4067E-06  0.1633E+01
      2.971 -0.1034E-04  0.1633E+01
      3.081 -0.1320E-03  0.1633E+01
      3.191 -0.7676E-03  0.1633E+01
      3.300 -0.1243E-02  0.1633E+01
      3.410  0.4838E-02  0.1634E+01
      3.520  0.2058E-01  0.1636E+01
      3.630  0.2631E-01  0.1639E+01
      3.739  0.1240E-01  0.1640E+01
      3.849  0.3346E-03  0.1640E+01
      3.959 -0.2097E-02  0.1640E+01
      4.069 -0.2875E-02  0.1640E+01
      4.178  0.2107E-02  0.1640E+01
      4.288  0.2705E-01  0.1643E+01
      4.398  0.5236E-01  0.1649E+01
      4.507  0.3877E-01  0.1653E+01
      4.617  0.8057E-02  0.1654E+01
      4.727 -0.5007E-02  0.1653E+01
      4.837 -0.2983E-02  0.1653E+01
      4.946  0.1898E-01  0.1655E+01
      5.056  0.5589E-01  0.1661E+01
      5.166  0.7207E-01  0.1669E+01
      5.275  0.7846E-01  0.1678E+01
      5.385  0.1059E+00  0.1689E+01
      5.495  0.1450E+00  0.1705E+01
      5.605  0.1873E+00  0.1726E+01
      5.714  0.2077E+00  0.1748E+01
      5.824  0.1860E+00  0.1769E+01
      5.934  0.1434E+00  0.1785E+01
      6.044  0.1226E+00  0.1798E+01
      6.153  0.1380E+00  0.1813E+01
      6.263  0.1571E+00  0.1830E+01
      6.373  0.1483E+00  0.1847E+01
      6.482  0.1409E+00  0.1862E+01
      6.592  0.1713E+00  0.1881E+01
      6.702  0.1969E+00  0.1903E+01
      6.812  0.1947E+00  0.1924E+01
      6.921  0.1773E+00  0.1943E+01
      7.031  0.1191E+00  0.1956E+01
      7.141  0.4028E-01  0.1961E+01
      7.250 -0.8796E-03  0.1961E+01
      7.360 -0.5069E-02  0.1960E+01
      7.470 -0.1547E-02  0.1960E+01
      7.580 -0.2093E-03  0.1960E+01
      7.689 -0.1447E-04  0.1960E+01
      7.799 -0.5308E-06  0.1960E+01
      7.909 -0.1048E-07  0.1960E+01
      8.019 -0.1119E-09  0.1960E+01
      8.128 -0.6486E-12  0.1960E+01
      8.238 -0.2037E-14  0.1960E+01
      8.348  0.0000E+00  0.1960E+01
      8.457  0.0000E+00  0.1960E+01
      8.567  0.0000E+00  0.1960E+01
      8.677  0.0000E+00  0.1960E+01
      8.787  0.0000E+00  0.1960E+01
      8.896  0.0000E+00  0.1960E+01
      9.006  0.0000E+00  0.1960E+01
