       N       E                     dE             d eps       ncg     rms          rms(c)
DAV:   1     0.464634505786E+04    0.46463E+04   -0.20040E+05   636   0.140E+03
DAV:   2     0.336280562365E+03   -0.43101E+04   -0.41607E+04   636   0.401E+02
DAV:   3    -0.285272430681E+03   -0.62155E+03   -0.61476E+03   702   0.165E+02
DAV:   4    -0.321265225785E+03   -0.35993E+02   -0.35721E+02   672   0.368E+01
DAV:   5    -0.322828655623E+03   -0.15634E+01   -0.15615E+01   852   0.802E+00    0.268E+01
RMM:   6    -0.305007509938E+03    0.17821E+02   -0.31202E+01   639   0.590E+00    0.178E+01
RMM:   7    -0.304198989857E+03    0.80852E+00   -0.37402E+01   627   0.544E+00    0.112E+01
RMM:   8    -0.303725447873E+03    0.47354E+00   -0.27480E+00   732   0.286E+00    0.652E+00
RMM:   9    -0.303835699484E+03   -0.11025E+00   -0.26717E+00   642   0.187E+00    0.309E+00
RMM:  10    -0.303579809872E+03    0.25589E+00   -0.28227E-01   685   0.104E+00    0.221E+00
RMM:  11    -0.303513430849E+03    0.66379E-01   -0.11544E-01   745   0.487E-01    0.140E+00
RMM:  12    -0.303501783925E+03    0.11647E-01   -0.62730E-02   762   0.283E-01    0.799E-01
RMM:  13    -0.303502536920E+03   -0.75300E-03   -0.19124E-02   693   0.164E-01    0.602E-01
RMM:  14    -0.303507486809E+03   -0.49499E-02   -0.13014E-02   617   0.176E-01    0.220E-01
RMM:  15    -0.303508173255E+03   -0.68645E-03   -0.56184E-03   665   0.102E-01    0.363E-01
RMM:  16    -0.303507562008E+03    0.61125E-03   -0.19516E-03   677   0.691E-02    0.232E-01
RMM:  17    -0.303507302366E+03    0.25964E-03   -0.14141E-03   636   0.499E-02    0.714E-02
RMM:  18    -0.303507372938E+03   -0.70572E-04   -0.37087E-04   631   0.311E-02    0.519E-02
RMM:  19    -0.303507333168E+03    0.39770E-04   -0.86304E-05   569   0.155E-02    0.264E-02
RMM:  20    -0.303507332144E+03    0.10234E-05   -0.47768E-05   473   0.105E-02
   1 F= -.30350733E+03 E0= -.30354928E+03  d E =-.303507E+03
       N       E                     dE             d eps       ncg     rms          rms(c)
DAV:   1    -0.303507319911E+03    0.13257E-04   -0.15805E-05   360   0.112E-02    0.101E-02
RMM:   2    -0.303507327977E+03   -0.80662E-05   -0.16678E-05   394   0.596E-03
   2 F= -.30350733E+03 E0= -.30354931E+03  d E =0.416706E-05
       N       E                     dE             d eps       ncg     rms          rms(c)
DAV:   1    -0.303507319352E+03    0.55905E-06   -0.53501E-05   396   0.107E-02    0.592E-03
RMM:   2    -0.303507320382E+03   -0.10298E-05   -0.26111E-06   326   0.306E-03
   3 F= -.30350732E+03 E0= -.30354933E+03  d E =0.759545E-05
       N       E                     dE             d eps       ncg     rms          rms(c)
DAV:   1    -0.303507319828E+03   -0.47600E-06   -0.76026E-06   420   0.462E-03    0.402E-03
RMM:   2    -0.303507320943E+03   -0.11153E-05   -0.36307E-07   194   0.153E-03
   4 F= -.30350732E+03 E0= -.30354932E+03  d E =-.561478E-06
       N       E                     dE             d eps       ncg     rms          rms(c)
DAV:   1    -0.303507319827E+03    0.98225E-09   -0.69213E-06   384   0.385E-03    0.198E-03
RMM:   2    -0.303507319953E+03   -0.12543E-06   -0.19167E-07   115   0.124E-03
   5 F= -.30350732E+03 E0= -.30354932E+03  d E =0.990804E-06
       N       E                     dE             d eps       ncg     rms          rms(c)
DAV:   1    -0.303507319914E+03   -0.86788E-07   -0.10334E-06   384   0.165E-03    0.146E-03
RMM:   2    -0.303507320028E+03   -0.11401E-06   -0.40477E-08    77   0.909E-04
   6 F= -.30350732E+03 E0= -.30354932E+03  d E =-.753644E-07
       N       E                     dE             d eps       ncg     rms          rms(c)
DAV:   1    -0.303507319908E+03    0.61918E-08   -0.80484E-07   360   0.139E-03    0.787E-04
RMM:   2    -0.303507319914E+03   -0.62209E-08   -0.46292E-10    45   0.711E-04
   7 F= -.30350732E+03 E0= -.30354932E+03  d E =0.113978E-06
       N       E                     dE             d eps       ncg     rms          rms(c)
DAV:   1    -0.303507319917E+03   -0.93714E-08   -0.20938E-07   348   0.758E-04    0.755E-04
RMM:   2    -0.303507319929E+03   -0.12369E-07    0.23854-221    42   0.493E-04
   8 F= -.30350732E+03 E0= -.30354932E+03  d E =-.155196E-07
       N       E                     dE             d eps       ncg     rms          rms(c)
DAV:   1    -0.303507319908E+03    0.95388E-08   -0.16636E-07   348   0.722E-04    0.390E-04
RMM:   2    -0.303507319907E+03    0.80036E-09    0.26153-254    29   0.328E-04
   9 F= -.30350732E+03 E0= -.30354932E+03  d E =0.227083E-07
       N       E                     dE             d eps       ncg     rms          rms(c)
DAV:   1    -0.303507319904E+03    0.39217E-08   -0.47946E-08   348   0.357E-04    0.323E-04
RMM:   2    -0.303507319903E+03    0.10696E-08    0.79529-260    28   0.233E-04
  10 F= -.30350732E+03 E0= -.30354932E+03  d E =0.419095E-08
       N       E                     dE             d eps       ncg     rms          rms(c)
DAV:   1    -0.303507319898E+03    0.54279E-08   -0.25595E-08   348   0.284E-04    0.199E-04
RMM:   2    -0.303507319899E+03   -0.87311E-09    0.98813-323    20   0.155E-04
  11 F= -.30350732E+03 E0= -.30354932E+03  d E =0.348518E-08
       N       E                     dE             d eps       ncg     rms          rms(c)
DAV:   1    -0.303507319897E+03    0.12951E-08   -0.14016E-08   348   0.191E-04    0.150E-04
RMM:   2    -0.303507319896E+03    0.13897E-08    0.49407-323    20   0.132E-04
  12 F= -.30350732E+03 E0= -.30354932E+03  d E =0.355794E-08
       N       E                     dE             d eps       ncg     rms          rms(c)
DAV:   1    -0.303507319896E+03    0.10550E-08   -0.60703E-09   348   0.139E-04    0.152E-04
RMM:   2    -0.303507319895E+03    0.10696E-08    0.49407-323    18   0.897E-05
  13 F= -.30350732E+03 E0= -.30354932E+03  d E =0.734872E-09
       N       E                     dE             d eps       ncg     rms          rms(c)
DAV:   1    -0.303507319893E+03    0.26921E-08   -0.64989E-09   324   0.136E-04    0.762E-05
RMM:   2    -0.303507319893E+03   -0.26921E-09    0.00000E+00    14   0.668E-05
  14 F= -.30350732E+03 E0= -.30354932E+03  d E =0.135333E-08
       N       E                     dE             d eps       ncg     rms          rms(c)
DAV:   1    -0.303507319892E+03    0.69122E-09   -0.19172E-09   312   0.750E-05    0.832E-05
RMM:   2    -0.303507319892E+03    0.13824E-09    0.00000E+00    14   0.498E-05
  15 F= -.30350732E+03 E0= -.30354932E+03  d E =0.109867E-08
       N       E                     dE             d eps       ncg     rms          rms(c)
DAV:   1    -0.303507319893E+03   -0.32742E-09   -0.13711E-09   312   0.615E-05    0.615E-05
RMM:   2    -0.303507319892E+03    0.66939E-09    0.00000E+00    14   0.349E-05
  16 F= -.30350732E+03 E0= -.30354932E+03  d E =0.203727E-09
       N       E                     dE             d eps       ncg     rms          rms(c)
DAV:   1    -0.303507319891E+03    0.14697E-08   -0.20655E-09   312   0.647E-05    0.366E-05
RMM:   2    -0.303507319892E+03   -0.49477E-09    0.00000E+00    14   0.332E-05
  17 F= -.30350732E+03 E0= -.30354932E+03  d E =0.305590E-09
       N       E                     dE             d eps       ncg     rms          rms(c)
DAV:   1    -0.303507319892E+03   -0.60390E-09   -0.31106E-10   312   0.351E-05    0.336E-05
RMM:   2    -0.303507319892E+03    0.26193E-09    0.00000E+00    13   0.219E-05
  18 F= -.30350732E+03 E0= -.30354932E+03  d E =0.152795E-09
       N       E                     dE             d eps       ncg     rms          rms(c)
DAV:   1    -0.303507319892E+03    0.72760E-10   -0.68234E-10   312   0.352E-05    0.159E-05
RMM:   2    -0.303507319892E+03    0.23283E-09    0.00000E+00    13   0.198E-05
  19 F= -.30350732E+03 E0= -.30354932E+03  d E =0.436557E-10
       N       E                     dE             d eps       ncg     rms          rms(c)
DAV:   1    -0.303507319891E+03    0.13388E-08    0.67224E-12   312   0.192E-05    0.262E-05
RMM:   2    -0.303507319892E+03   -0.98953E-09    0.00000E+00    13   0.131E-05
  20 F= -.30350732E+03 E0= -.30354932E+03  d E =0.116415E-09
       N       E                     dE             d eps       ncg     rms          rms(c)
DAV:   1    -0.303507319892E+03   -0.14115E-08   -0.39957E-10   312   0.216E-05    0.142E-05
RMM:   2    -0.303507319892E+03    0.26921E-09    0.00000E+00    12   0.953E-06
  21 F= -.30350732E+03 E0= -.30354932E+03  d E =-.152795E-09
       N       E                     dE             d eps       ncg     rms          rms(c)
DAV:   1    -0.303507319892E+03    0.42201E-09   -0.81029E-11   312   0.137E-05    0.717E-06
RMM:   2    -0.303507319891E+03    0.21828E-10    0.00000E+00    10   0.862E-06
  22 F= -.30350732E+03 E0= -.30354932E+03  d E =0.174623E-09
       N       E                     dE             d eps       ncg     rms          rms(c)
DAV:   1    -0.303507319891E+03    0.46566E-09    0.34249E-11   312   0.844E-06    0.176E-05
RMM:   2    -0.303507319891E+03   -0.24011E-09    0.00000E+00    10   0.550E-06
  23 F= -.30350732E+03 E0= -.30354932E+03  d E =0.203727E-09
       N       E                     dE             d eps       ncg     rms          rms(c)
DAV:   1    -0.303507319891E+03    0.22555E-09   -0.18698E-10   312   0.117E-05    0.115E-05
RMM:   2    -0.303507319891E+03   -0.62573E-09    0.00000E+00    10   0.483E-06
  24 F= -.30350732E+03 E0= -.30354932E+03  d E =-.160071E-09
       N       E                     dE             d eps       ncg     rms          rms(c)
DAV:   1    -0.303507319892E+03   -0.16225E-08   -0.35453E-10   312   0.145E-05    0.383E-06
RMM:   2    -0.303507319891E+03    0.10405E-08    0.00000E+00     9   0.391E-06
  25 F= -.30350732E+03 E0= -.30354932E+03  d E =0.436557E-10
       N       E                     dE             d eps       ncg     rms          rms(c)
DAV:   1    -0.303507319891E+03    0.13169E-08    0.15202E-10   312   0.429E-06    0.347E-06
RMM:   2    -0.303507319891E+03   -0.32014E-09    0.00000E+00     9   0.265E-06
  26 F= -.30350732E+03 E0= -.30354932E+03  d E =-.436557E-10
       N       E                     dE             d eps       ncg     rms          rms(c)
DAV:   1    -0.303507319890E+03    0.91677E-09   -0.10523E-10   312   0.458E-06    0.150E-06
RMM:   2    -0.303507319891E+03   -0.12369E-08    0.00000E+00     8   0.226E-06
  27 F= -.30350732E+03 E0= -.30354932E+03  d E =0.000000E+00
       N       E                     dE             d eps       ncg     rms          rms(c)
DAV:   1    -0.303507319891E+03   -0.11787E-08    0.46885E-12   312   0.222E-06    0.248E-06
RMM:   2    -0.303507319891E+03    0.36380E-10    0.00000E+00     7   0.149E-06
  28 F= -.30350732E+03 E0= -.30354932E+03  d E =0.945874E-10
       N       E                     dE             d eps       ncg     rms          rms(c)
DAV:   1    -0.303507319890E+03    0.16080E-08    0.20526E-10   312   0.266E-06    0.124E-06
RMM:   2    -0.303507319891E+03   -0.17171E-08    0.00000E+00     7   0.114E-06
  29 F= -.30350732E+03 E0= -.30354932E+03  d E =-.145519E-09
       N       E                     dE             d eps       ncg     rms          rms(c)
DAV:   1    -0.303507319892E+03   -0.18190E-08    0.46447E-11   312   0.124E-06    0.131E-06
RMM:   2    -0.303507319891E+03    0.24011E-09    0.00000E+00     6   0.925E-07
  30 F= -.30350732E+03 E0= -.30354932E+03  d E =0.138243E-09
       N       E                     dE             d eps       ncg     rms          rms(c)
DAV:   1    -0.303507319891E+03    0.28376E-09   -0.20583E-10   312   0.109E-06    0.865E-07
RMM:   2    -0.303507319891E+03   -0.29104E-10    0.00000E+00     5   0.612E-07
  31 F= -.30350732E+03 E0= -.30354932E+03  d E =0.145519E-10
       N       E                     dE             d eps       ncg     rms          rms(c)
DAV:   1    -0.303507319892E+03   -0.35652E-09   -0.22292E-10   312   0.855E-07    0.617E-07
RMM:   2    -0.303507319891E+03    0.21828E-09    0.00000E+00     5   0.574E-07
  32 F= -.30350732E+03 E0= -.30354932E+03  d E =-.109139E-09
       N       E                     dE             d eps       ncg     rms          rms(c)
DAV:   1    -0.303507319892E+03   -0.51659E-09    0.44570E-13   312   0.585E-07    0.107E-06
RMM:   2    -0.303507319891E+03    0.83674E-09    0.00000E+00     5   0.452E-07
  33 F= -.30350732E+03 E0= -.30354932E+03  d E =0.101863E-09
       N       E                     dE             d eps       ncg     rms          rms(c)
DAV:   1    -0.303507319892E+03    0.61846E-09   -0.79897E-11   312   0.786E-07    0.530E-07
RMM:   2    -0.303507319891E+03    0.20373E-09    0.00000E+00     5   0.324E-07
  34 F= -.30350732E+03 E0= -.30354932E+03  d E =-.145519E-10
       N       E                     dE             d eps       ncg     rms          rms(c)
DAV:   1    -0.303507319892E+03   -0.10914E-09    0.74055E-11   312   0.542E-07    0.216E-07
RMM:   2    -0.303507319891E+03    0.43656E-09    0.00000E+00     5   0.280E-07
  35 F= -.30350732E+03 E0= -.30354932E+03  d E =0.123691E-09
       N       E                     dE             d eps       ncg     rms          rms(c)
DAV:   1    -0.303507319892E+03    0.72760E-11   -0.47142E-11   312   0.278E-07    0.324E-07
RMM:   2    -0.303507319891E+03    0.26921E-09    0.00000E+00     5   0.179E-07
  36 F= -.30350732E+03 E0= -.30354932E+03  d E =-.160071E-09
       N       E                     dE             d eps       ncg     rms          rms(c)
DAV:   1    -0.303507319892E+03   -0.45111E-09    0.79417E-11   312   0.250E-07    0.203E-07
RMM:   2    -0.303507319891E+03    0.84401E-09    0.00000E+00     5   0.136E-07
  37 F= -.30350732E+03 E0= -.30354932E+03  d E =0.123691E-09
       N       E                     dE             d eps       ncg     rms          rms(c)
DAV:   1    -0.303507319891E+03    0.14261E-08   -0.18841E-11   312   0.204E-07    0.951E-08
RMM:   2    -0.303507319891E+03   -0.66939E-09    0.00000E+00     4   0.132E-07
  38 F= -.30350732E+03 E0= -.30354932E+03  d E =-.873115E-10
       N       E                     dE             d eps       ncg     rms          rms(c)
DAV:   1    -0.303507319892E+03   -0.98225E-09    0.17014E-10   312   0.127E-07    0.269E-07
RMM:   2    -0.303507319891E+03    0.21100E-09    0.00000E+00     3   0.805E-08
  39 F= -.30350732E+03 E0= -.30354932E+03  d E =-.101863E-09
       N       E                     dE             d eps       ncg     rms          rms(c)
DAV:   1    -0.303507319892E+03    0.29104E-10   -0.55378E-12   312   0.179E-07    0.191E-07
RMM:   2    -0.303507319891E+03    0.15280E-09    0.00000E+00     3   0.769E-08
  40 F= -.30350732E+03 E0= -.30354932E+03  d E =-.291038E-10
       N       E                     dE             d eps       ncg     rms          rms(c)
DAV:   1    -0.303507319891E+03    0.40018E-09    0.35184E-11   312   0.250E-07    0.680E-08
RMM:   2    -0.303507319891E+03   -0.72760E-10    0.00000E+00     3   0.623E-08
  41 F= -.30350732E+03 E0= -.30354932E+03  d E =0.174623E-09
       N       E                     dE             d eps       ncg     rms          rms(c)
DAV:   1    -0.303507319891E+03    0.87311E-10    0.19689E-10   312   0.726E-08    0.572E-08
RMM:   2    -0.303507319891E+03   -0.15280E-09    0.00000E+00     3   0.430E-08
  42 F= -.30350732E+03 E0= -.30354932E+03  d E =0.727596E-11
       N       E                     dE             d eps       ncg     rms          rms(c)
DAV:   1    -0.303507319891E+03    0.58935E-09   -0.17079E-10   312   0.822E-08    0.214E-08
RMM:   2    -0.303507319891E+03   -0.83674E-09    0.00000E+00     3   0.367E-08
  43 F= -.30350732E+03 E0= -.30354932E+03  d E =-.945874E-10
       N       E                     dE             d eps       ncg     rms          rms(c)
DAV:   1    -0.303507319891E+03   -0.82946E-09    0.12956E-10   312   0.371E-08    0.279E-08
RMM:   2    -0.303507319891E+03    0.36380E-10    0.00000E+00     3   0.246E-08
  44 F= -.30350732E+03 E0= -.30354932E+03  d E =0.436557E-10
       N       E                     dE             d eps       ncg     rms          rms(c)
DAV:   1    -0.303507319891E+03    0.38563E-09   -0.92100E-11   312   0.393E-08    0.125E-08
RMM:   2    -0.303507319891E+03   -0.41473E-09    0.00000E+00     3   0.176E-08
  45 F= -.30350732E+03 E0= -.30354932E+03  d E =-.654836E-10
       N       E                     dE             d eps       ncg     rms          rms(c)
DAV:   1    -0.303507319892E+03   -0.80036E-09    0.21524E-10   312   0.179E-08    0.187E-08
RMM:   2    -0.303507319891E+03    0.33469E-09    0.00000E+00     3   0.138E-08
  46 F= -.30350732E+03 E0= -.30354932E+03  d E =-.509317E-10
       N       E                     dE             d eps       ncg     rms          rms(c)
DAV:   1    -0.303507319889E+03    0.24738E-08   -0.20415E-11   312   0.201E-08    0.998E-09
RMM:   2    -0.303507319891E+03   -0.21173E-08    0.00000E+00     3   0.837E-09
  47 F= -.30350732E+03 E0= -.30354932E+03  d E =0.218279E-10
       N       E                     dE             d eps       ncg     rms          rms(c)
DAV:   1    -0.303507319890E+03   -0.81491E-09    0.12039E-10   312   0.116E-08    0.510E-09
RMM:   2    -0.303507319891E+03   -0.11642E-08    0.00000E+00     3   0.777E-09
  48 F= -.30350732E+03 E0= -.30354932E+03  d E =0.138243E-09
       N       E                     dE             d eps       ncg     rms          rms(c)
DAV:   1    -0.303507319892E+03   -0.21828E-08    0.22178E-11   312   0.764E-09    0.145E-08
RMM:   2    -0.303507319891E+03    0.87311E-09    0.00000E+00     2   0.505E-09
  49 F= -.30350732E+03 E0= -.30354932E+03  d E =-.145519E-09
       N       E                     dE             d eps       ncg     rms          rms(c)
DAV:   1    -0.303507319892E+03    0.10914E-09    0.14499E-10   312   0.104E-08    0.930E-09
RMM:   2    -0.303507319891E+03    0.73487E-09    0.00000E+00     2   0.443E-09
  50 F= -.30350732E+03 E0= -.30354932E+03  d E =-.291038E-10
       N       E                     dE             d eps       ncg     rms          rms(c)
DAV:   1    -0.303507319891E+03    0.89494E-09   -0.17027E-11   312   0.124E-08    0.260E-09
RMM:   2    -0.303507319891E+03   -0.13824E-09    0.00000E+00     2   0.336E-09
  51 F= -.30350732E+03 E0= -.30354932E+03  d E =0.218279E-10
       N       E                     dE             d eps       ncg     rms          rms(c)
DAV:   1    -0.303507319891E+03    0.21828E-09    0.21374E-11   312   0.369E-09    0.226E-09
RMM:   2    -0.303507319891E+03   -0.34197E-09    0.00000E+00     2   0.229E-09
  52 F= -.30350732E+03 E0= -.30354932E+03  d E =0.145519E-10
       N       E                     dE             d eps       ncg     rms          rms(c)
DAV:   1    -0.303507319893E+03   -0.19936E-08    0.68587E-11   312   0.347E-09    0.963E-10
RMM:   2    -0.303507319891E+03    0.16371E-08    0.00000E+00     2   0.187E-09
  53 F= -.30350732E+03 E0= -.30354932E+03  d E =-.145519E-10
       N       E                     dE             d eps       ncg     rms          rms(c)
DAV:   1    -0.303507319891E+03    0.22192E-08    0.74191E-11   312   0.184E-09    0.195E-09
RMM:   2    -0.303507319891E+03   -0.57480E-09    0.00000E+00     2   0.130E-09
  54 F= -.30350732E+03 E0= -.30354932E+03  d E =0.727596E-11
       N       E                     dE             d eps       ncg     rms          rms(c)
DAV:   1    -0.303507319892E+03   -0.72032E-09    0.10855E-10   312   0.193E-09    0.135E-09
RMM:   2    -0.303507319891E+03    0.21100E-09    0.00000E+00     2   0.972E-10
  55 F= -.30350732E+03 E0= -.30354932E+03  d E =0.654836E-10
       N       E                     dE             d eps       ncg     rms          rms(c)
DAV:   1    -0.303507319892E+03    0.72760E-11    0.81990E-11   312   0.186E-09    0.992E-10
RMM:   2    -0.303507319892E+03    0.94587E-10    0.00000E+00     2   0.894E-10
  56 F= -.30350732E+03 E0= -.30354932E+03  d E =-.109139E-09
       N       E                     dE             d eps       ncg     rms          rms(c)
DAV:   1    -0.303507319891E+03    0.70577E-09    0.50599E-12   312   0.100E-09    0.107E-09
RMM:   2    -0.303507319891E+03   -0.57480E-09    0.00000E+00     2   0.638E-10
  57 F= -.30350732E+03 E0= -.30354932E+03  d E =0.363798E-10
       N       E                     dE             d eps       ncg     rms          rms(c)
DAV:   1    -0.303507319891E+03   -0.87311E-10    0.31788E-11   312   0.837E-10    0.876E-10
RMM:   2    -0.303507319892E+03   -0.53114E-09    0.00000E+00     2   0.482E-10
  58 F= -.30350732E+03 E0= -.30354932E+03  d E =-.436557E-10
       N       E                     dE             d eps       ncg     rms          rms(c)
DAV:   1    -0.303507319890E+03    0.56752E-09   -0.35140E-11   312   0.989E-10    0.509E-10
RMM:   2    -0.303507319891E+03   -0.98225E-09    0.00000E+00     2   0.420E-10
  59 F= -.30350732E+03 E0= -.30354932E+03  d E =0.116415E-09
       N       E                     dE             d eps       ncg     rms          rms(c)
DAV:   1    -0.303507319890E+03    0.58935E-09    0.46681E-11   312   0.575E-10    0.568E-10
RMM:   2    -0.303507319891E+03   -0.16080E-08    0.00000E+00     2   0.359E-10
  60 F= -.30350732E+03 E0= -.30354932E+03  d E =-.363798E-10
       N       E                     dE             d eps       ncg     rms          rms(c)
DAV:   1    -0.303507319891E+03   -0.74215E-09    0.13541E-10   312   0.526E-10    0.385E-10
RMM:   2    -0.303507319891E+03   -0.88039E-09    0.00000E+00     2   0.305E-10
  61 F= -.30350732E+03 E0= -.30354932E+03  d E =-.145519E-10
       N       E                     dE             d eps       ncg     rms          rms(c)
DAV:   1    -0.303507319891E+03   -0.45111E-09    0.15326E-10   312   0.386E-10    0.493E-10
RMM:   2    -0.303507319891E+03   -0.37107E-09    0.00000E+00     2   0.279E-10
  62 F= -.30350732E+03 E0= -.30354932E+03  d E =0.582077E-10
       N       E                     dE             d eps       ncg     rms          rms(c)
DAV:   1    -0.303507319892E+03   -0.13169E-08    0.18148E-11   312   0.411E-10    0.408E-10
RMM:   2    -0.303507319892E+03    0.82946E-09    0.00000E+00     2   0.198E-10
  63 F= -.30350732E+03 E0= -.30354932E+03  d E =-.116415E-09
       N       E                     dE             d eps       ncg     rms          rms(c)
DAV:   1    -0.303507319891E+03    0.13461E-08    0.50074E-11   312   0.364E-10    0.406E-10
RMM:   2    -0.303507319891E+03   -0.35652E-09    0.00000E+00     2   0.153E-10
  64 F= -.30350732E+03 E0= -.30354932E+03  d E =0.160071E-09
       N       E                     dE             d eps       ncg     rms          rms(c)
DAV:   1    -0.303507319891E+03   -0.42201E-09   -0.66284E-11   312   0.317E-10    0.267E-10
RMM:   2    -0.303507319891E+03    0.14552E-10    0.00000E+00     2   0.130E-10
  65 F= -.30350732E+03 E0= -.30354932E+03  d E =-.509317E-10
       N       E                     dE             d eps       ncg     rms          rms(c)
DAV:   1    -0.303507319891E+03    0.72032E-09   -0.79750E-12   312   0.254E-10    0.249E-10
RMM:   2    -0.303507319891E+03   -0.66939E-09    0.00000E+00     2   0.126E-10
  66 F= -.30350732E+03 E0= -.30354932E+03  d E =0.363798E-10
       N       E                     dE             d eps       ncg     rms          rms(c)
DAV:   1    -0.303507319891E+03   -0.78580E-09   -0.62116E-11   312   0.202E-10    0.334E-10
RMM:   2    -0.303507319891E+03    0.10186E-09    0.00000E+00     2   0.135E-10
  67 F= -.30350732E+03 E0= -.30354932E+03  d E =-.145519E-10
       N       E                     dE             d eps       ncg     rms          rms(c)
DAV:   1    -0.303507319892E+03   -0.84401E-09   -0.83175E-11   312   0.334E-10    0.259E-10
RMM:   2    -0.303507319891E+03    0.92405E-09    0.00000E+00     2   0.115E-10
  68 F= -.30350732E+03 E0= -.30354932E+03  d E =-.218279E-10
       N       E                     dE             d eps       ncg     rms          rms(c)
DAV:   1    -0.303507319891E+03    0.15134E-08    0.12175E-10   312   0.254E-10    0.209E-10
RMM:   2    -0.303507319891E+03   -0.58208E-09    0.00000E+00     2   0.114E-10
  69 F= -.30350732E+03 E0= -.30354932E+03  d E =0.727596E-11
       N       E                     dE             d eps       ncg     rms          rms(c)
DAV:   1    -0.303507319892E+03   -0.11569E-08    0.10287E-10   312   0.207E-10    0.352E-10
RMM:   2    -0.303507319891E+03    0.54570E-09    0.00000E+00     2   0.125E-10
  70 F= -.30350732E+03 E0= -.30354932E+03  d E =-.291038E-10
       N       E                     dE             d eps       ncg     rms          rms(c)
DAV:   1    -0.303507319892E+03   -0.23283E-09   -0.87406E-12   312   0.283E-10    0.315E-10
RMM:   2    -0.303507319891E+03    0.80763E-09    0.00000E+00     2   0.979E-11
  71 F= -.30350732E+03 E0= -.30354932E+03  d E =0.291038E-10
       N       E                     dE             d eps       ncg     rms          rms(c)
DAV:   1    -0.303507319892E+03   -0.72760E-10   -0.60938E-11   312   0.256E-10    0.268E-10
RMM:   2    -0.303507319891E+03    0.82946E-09    0.00000E+00     2   0.997E-11
  72 F= -.30350732E+03 E0= -.30354932E+03  d E =-.509317E-10
       N       E                     dE             d eps       ncg     rms          rms(c)
DAV:   1    -0.303507319892E+03    0.29104E-09    0.66148E-11   312   0.241E-10    0.227E-10
RMM:   2    -0.303507319892E+03    0.44383E-09    0.00000E+00     2   0.880E-11
  73 F= -.30350732E+03 E0= -.30354932E+03  d E =-.945874E-10
       N       E                     dE             d eps       ncg     rms          rms(c)
DAV:   1    -0.303507319892E+03    0.34925E-09    0.29569E-11   312   0.152E-10    0.277E-10
RMM:   2    -0.303507319891E+03    0.17462E-09    0.00000E+00     2   0.892E-11
  74 F= -.30350732E+03 E0= -.30354932E+03  d E =0.800355E-10
       N       E                     dE             d eps       ncg     rms          rms(c)
DAV:   1    -0.303507319892E+03   -0.10186E-09    0.10234E-10   312   0.201E-10    0.254E-10
RMM:   2    -0.303507319891E+03    0.32742E-09    0.00000E+00     2   0.989E-11
  75 F= -.30350732E+03 E0= -.30354932E+03  d E =0.509317E-10
       N       E                     dE             d eps       ncg     rms          rms(c)
DAV:   1    -0.303507319892E+03   -0.43656E-09    0.95053E-11   312   0.278E-10    0.230E-10
RMM:   2    -0.303507319891E+03    0.69849E-09    0.00000E+00     2   0.985E-11
  76 F= -.30350732E+03 E0= -.30354932E+03  d E =-.654836E-10
       N       E                     dE             d eps       ncg     rms          rms(c)
DAV:   1    -0.303507319891E+03    0.13533E-08   -0.91888E-11   312   0.191E-10    0.370E-10
RMM:   2    -0.303507319891E+03   -0.59663E-09    0.00000E+00     2   0.101E-10
  77 F= -.30350732E+03 E0= -.30354932E+03  d E =0.582077E-10
       N       E                     dE             d eps       ncg     rms          rms(c)
DAV:   1    -0.303507319893E+03   -0.24957E-08   -0.28526E-11   312   0.290E-10    0.312E-10
RMM:   2    -0.303507319891E+03    0.18190E-08    0.00000E+00     2   0.940E-11
  78 F= -.30350732E+03 E0= -.30354932E+03  d E =-.800355E-10
       N       E                     dE             d eps       ncg     rms          rms(c)
DAV:   1    -0.303507319891E+03    0.21391E-08    0.26646E-10   312   0.347E-10    0.230E-10
RMM:   2    -0.303507319891E+03   -0.26193E-09    0.00000E+00     2   0.945E-11
  79 F= -.30350732E+03 E0= -.30354932E+03  d E =0.582077E-10
       N       E                     dE             d eps       ncg     rms          rms(c)
DAV:   1    -0.303507319892E+03   -0.75670E-09    0.22075E-10   312   0.217E-10    0.208E-10
RMM:   2    -0.303507319891E+03    0.42928E-09    0.00000E+00     2   0.805E-11
  80 F= -.30350732E+03 E0= -.30354932E+03  d E =-.654836E-10
       N       E                     dE             d eps       ncg     rms          rms(c)
DAV:   1    -0.303507319891E+03    0.56025E-09   -0.30771E-11   312   0.157E-10    0.236E-10
RMM:   2    -0.303507319891E+03   -0.21828E-10    0.00000E+00     2   0.751E-11
  81 F= -.30350732E+03 E0= -.30354932E+03  d E =0.109139E-09
       N       E                     dE             d eps       ncg     rms          rms(c)
DAV:   1    -0.303507319891E+03   -0.72760E-11    0.76035E-11   312   0.150E-10    0.267E-10
RMM:   2    -0.303507319891E+03    0.21828E-10    0.00000E+00     2   0.962E-11
  82 F= -.30350732E+03 E0= -.30354932E+03  d E =0.363798E-10
       N       E                     dE             d eps       ncg     rms          rms(c)
DAV:   1    -0.303507319891E+03    0.73487E-09    0.76437E-11   312   0.253E-10    0.269E-10
RMM:   2    -0.303507319891E+03   -0.80763E-09    0.00000E+00     2   0.105E-10
  83 F= -.30350732E+03 E0= -.30354932E+03  d E =-.945874E-10
       N       E                     dE             d eps       ncg     rms          rms(c)
DAV:   1    -0.303507319892E+03   -0.10550E-08    0.54223E-11   312   0.224E-10    0.267E-10
RMM:   2    -0.303507319891E+03    0.23283E-09    0.00000E+00     2   0.109E-10
  84 F= -.30350732E+03 E0= -.30354932E+03  d E =-.145519E-10
       N       E                     dE             d eps       ncg     rms          rms(c)
DAV:   1    -0.303507319891E+03    0.27649E-09   -0.12297E-10   312   0.254E-10    0.297E-10
RMM:   2    -0.303507319891E+03   -0.36380E-10    0.00000E+00     2   0.107E-10
  85 F= -.30350732E+03 E0= -.30354932E+03  d E =0.727596E-11
       N       E                     dE             d eps       ncg     rms          rms(c)
DAV:   1    -0.303507319892E+03   -0.63301E-09   -0.84073E-11   312   0.299E-10    0.341E-10
RMM:   2    -0.303507319891E+03    0.62573E-09    0.00000E+00     2   0.107E-10
  86 F= -.30350732E+03 E0= -.30354932E+03  d E =0.291038E-10
       N       E                     dE             d eps       ncg     rms          rms(c)
DAV:   1    -0.303507319891E+03    0.15134E-08   -0.17794E-10   312   0.335E-10    0.281E-10
RMM:   2    -0.303507319892E+03   -0.97498E-09    0.00000E+00     2   0.114E-10
  87 F= -.30350732E+03 E0= -.30354932E+03  d E =-.873115E-10
       N       E                     dE             d eps       ncg     rms          rms(c)
DAV:   1    -0.303507319892E+03   -0.13824E-08    0.14233E-10   312   0.294E-10    0.286E-10
RMM:   2    -0.303507319892E+03    0.41473E-09    0.00000E+00     2   0.954E-11
  88 F= -.30350732E+03 E0= -.30354932E+03  d E =0.727596E-11
       N       E                     dE             d eps       ncg     rms          rms(c)
DAV:   1    -0.303507319893E+03   -0.10768E-08   -0.25127E-11   312   0.195E-10    0.254E-10
RMM:   2    -0.303507319891E+03    0.15934E-08    0.00000E+00     2   0.951E-11
  89 F= -.30350732E+03 E0= -.30354932E+03  d E =0.101863E-09
       N       E                     dE             d eps       ncg     rms          rms(c)
DAV:   1    -0.303507319892E+03    0.11569E-08    0.37402E-11   312   0.243E-10    0.284E-10
RMM:   2    -0.303507319892E+03    0.32014E-09    0.00000E+00     2   0.115E-10
  90 F= -.30350732E+03 E0= -.30354932E+03  d E =-.116415E-09
       N       E                     dE             d eps       ncg     rms          rms(c)
DAV:   1    -0.303507319892E+03   -0.53842E-09   -0.12523E-10   312   0.275E-10    0.199E-10
RMM:   2    -0.303507319891E+03    0.89494E-09    0.00000E+00     2   0.993E-11
  91 F= -.30350732E+03 E0= -.30354932E+03  d E =0.363798E-10
       N       E                     dE             d eps       ncg     rms          rms(c)
DAV:   1    -0.303507319892E+03    0.84401E-09    0.16160E-12   312   0.217E-10    0.329E-10
RMM:   2    -0.303507319891E+03    0.65484E-10    0.00000E+00     2   0.116E-10
  92 F= -.30350732E+03 E0= -.30354932E+03  d E =0.145519E-10
       N       E                     dE             d eps       ncg     rms          rms(c)
DAV:   1    -0.303507319892E+03   -0.16007E-09    0.51049E-13   312   0.219E-10    0.295E-10
RMM:   2    -0.303507319891E+03    0.30559E-09    0.00000E+00     2   0.985E-11
  93 F= -.30350732E+03 E0= -.30354932E+03  d E =0.800355E-10
       N       E                     dE             d eps       ncg     rms          rms(c)
DAV:   1    -0.303507319890E+03    0.16298E-08    0.95227E-11   312   0.271E-10    0.312E-10
RMM:   2    -0.303507319891E+03   -0.14043E-08    0.00000E+00     2   0.120E-10
  94 F= -.30350732E+03 E0= -.30354932E+03  d E =-.800355E-10
       N       E                     dE             d eps       ncg     rms          rms(c)
DAV:   1    -0.303507319891E+03   -0.12515E-08    0.10831E-11   312   0.287E-10    0.347E-10
RMM:   2    -0.303507319892E+03   -0.21100E-09    0.00000E+00     2   0.105E-10
  95 F= -.30350732E+03 E0= -.30354932E+03  d E =-.582077E-10
       N       E                     dE             d eps       ncg     rms          rms(c)
DAV:   1    -0.303507319891E+03    0.14552E-09    0.11272E-10   312   0.303E-10    0.275E-10
RMM:   2    -0.303507319891E+03   -0.26193E-09    0.00000E+00     2   0.990E-11
  96 F= -.30350732E+03 E0= -.30354932E+03  d E =0.945874E-10
       N       E                     dE             d eps       ncg     rms          rms(c)
DAV:   1    -0.303507319891E+03   -0.43656E-10   -0.18628E-10   312   0.151E-10    0.335E-10
RMM:   2    -0.303507319891E+03   -0.15280E-09    0.00000E+00     2   0.850E-11
  97 F= -.30350732E+03 E0= -.30354932E+03  d E =0.654836E-10
       N       E                     dE             d eps       ncg     rms          rms(c)
DAV:   1    -0.303507319891E+03   -0.25466E-09   -0.12630E-10   312   0.123E-10    0.227E-10
RMM:   2    -0.303507319891E+03    0.10186E-09    0.00000E+00     2   0.801E-11
  98 F= -.30350732E+03 E0= -.30354932E+03  d E =0.000000E+00
       N       E                     dE             d eps       ncg     rms          rms(c)
DAV:   1    -0.303507319891E+03    0.24738E-09    0.11215E-10   312   0.162E-10    0.354E-10
RMM:   2    -0.303507319891E+03   -0.23283E-09    0.00000E+00     2   0.977E-11
  99 F= -.30350732E+03 E0= -.30354932E+03  d E =-.873115E-10
       N       E                     dE             d eps       ncg     rms          rms(c)
DAV:   1    -0.303507319892E+03   -0.12369E-08    0.10555E-10   312   0.323E-10    0.355E-10
RMM:   2    -0.303507319891E+03    0.96043E-09    0.00000E+00     2   0.106E-10
 100 F= -.30350732E+03 E0= -.30354932E+03  d E =-.436557E-10
       N       E                     dE             d eps       ncg     rms          rms(c)
DAV:   1    -0.303507319892E+03    0.88039E-09   -0.48999E-11   312   0.402E-10    0.460E-10
RMM:   2    -0.303507319891E+03    0.94587E-10    0.00000E+00     2   0.128E-10
 101 F= -.30350732E+03 E0= -.30354932E+03  d E =0.145519E-10
       N       E                     dE             d eps       ncg     rms          rms(c)
DAV:   1    -0.303507319891E+03    0.47294E-09    0.97437E-11   312   0.465E-10    0.319E-10
RMM:   2    -0.303507319891E+03   -0.29831E-09    0.00000E+00     2   0.958E-11
 102 F= -.30350732E+03 E0= -.30354932E+03  d E =0.800355E-10
       N       E                     dE             d eps       ncg     rms          rms(c)
DAV:   1    -0.303507319892E+03   -0.46566E-09   -0.52714E-11   312   0.261E-10    0.194E-10
RMM:   2    -0.303507319891E+03    0.18190E-09    0.00000E+00     2   0.834E-11
 103 F= -.30350732E+03 E0= -.30354932E+03  d E =0.145519E-10
       N       E                     dE             d eps       ncg     rms          rms(c)
DAV:   1    -0.303507319892E+03   -0.72760E-11   -0.68564E-11   312   0.150E-10    0.249E-10
RMM:   2    -0.303507319891E+03    0.14552E-09    0.00000E+00     2   0.775E-11
 104 F= -.30350732E+03 E0= -.30354932E+03  d E =-.436557E-10
       N       E                     dE             d eps       ncg     rms          rms(c)
DAV:   1    -0.303507319891E+03    0.83674E-09    0.12884E-10   312   0.200E-10    0.257E-10
RMM:   2    -0.303507319891E+03   -0.63301E-09    0.00000E+00     2   0.824E-11
 105 F= -.30350732E+03 E0= -.30354932E+03  d E =0.582077E-10
       N       E                     dE             d eps       ncg     rms          rms(c)
DAV:   1    -0.303507319892E+03   -0.10114E-08   -0.69971E-11   312   0.110E-10    0.284E-10
RMM:   2    -0.303507319891E+03    0.25466E-09    0.00000E+00     2   0.796E-11
 106 F= -.30350732E+03 E0= -.30354932E+03  d E =-.123691E-09
       N       E                     dE             d eps       ncg     rms          rms(c)
DAV:   1    -0.303507319892E+03    0.13824E-09   -0.23096E-11   312   0.198E-10    0.286E-10
RMM:   2    -0.303507319891E+03    0.18917E-09    0.00000E+00     2   0.870E-11
 107 F= -.30350732E+03 E0= -.30354932E+03  d E =0.727596E-10
       N       E                     dE             d eps       ncg     rms          rms(c)
DAV:   1    -0.303507319891E+03    0.24738E-09   -0.83739E-11   312   0.184E-10    0.345E-10
RMM:   2    -0.303507319891E+03   -0.94587E-10    0.00000E+00     2   0.101E-10
 108 F= -.30350732E+03 E0= -.30354932E+03  d E =-.363798E-10
       N       E                     dE             d eps       ncg     rms          rms(c)
DAV:   1    -0.303507319891E+03    0.44383E-09   -0.66817E-11   312   0.240E-10    0.461E-10
RMM:   2    -0.303507319891E+03   -0.48021E-09    0.00000E+00     2   0.119E-10
 109 F= -.30350732E+03 E0= -.30354932E+03  d E =0.582077E-10
       N       E                     dE             d eps       ncg     rms          rms(c)
DAV:   1    -0.303507319892E+03   -0.99681E-09    0.21449E-10   312   0.396E-10    0.262E-10
RMM:   2    -0.303507319891E+03    0.42928E-09    0.00000E+00     2   0.109E-10
 110 F= -.30350732E+03 E0= -.30354932E+03  d E =-.873115E-10
       N       E                     dE             d eps       ncg     rms          rms(c)
DAV:   1    -0.303507319891E+03    0.60390E-09    0.16156E-10   312   0.352E-10    0.319E-10
RMM:   2    -0.303507319892E+03   -0.18917E-09    0.00000E+00     2   0.119E-10
 111 F= -.30350732E+03 E0= -.30354932E+03  d E =-.145519E-10
       N       E                     dE             d eps       ncg     rms          rms(c)
DAV:   1    -0.303507319891E+03   -0.14552E-09    0.71118E-12   312   0.362E-10    0.256E-10
RMM:   2    -0.303507319891E+03    0.15280E-09    0.00000E+00     2   0.118E-10
 112 F= -.30350732E+03 E0= -.30354932E+03  d E =0.196451E-09
       N       E                     dE             d eps       ncg     rms          rms(c)
DAV:   1    -0.303507319891E+03    0.88767E-09    0.93826E-11   312   0.335E-10    0.387E-10
RMM:   2    -0.303507319891E+03   -0.89494E-09    0.00000E+00     2   0.148E-10
 113 F= -.30350732E+03 E0= -.30354932E+03  d E =-.160071E-09
       N       E                     dE             d eps       ncg     rms          rms(c)
DAV:   1    -0.303507319892E+03   -0.12296E-08    0.66880E-11   312   0.457E-10    0.292E-10
RMM:   2    -0.303507319891E+03    0.42201E-09    0.00000E+00     2   0.985E-11
 114 F= -.30350732E+03 E0= -.30354932E+03  d E =0.873115E-10
       N       E                     dE             d eps       ncg     rms          rms(c)
DAV:   1    -0.303507319891E+03    0.88767E-09    0.11476E-10   312   0.249E-10    0.424E-10
RMM:   2    -0.303507319891E+03   -0.46566E-09    0.00000E+00     2   0.111E-10
 115 F= -.30350732E+03 E0= -.30354932E+03  d E =0.000000E+00
       N       E                     dE             d eps       ncg     rms          rms(c)
DAV:   1    -0.303507319892E+03   -0.60390E-09    0.43007E-11   300   0.354E-10    0.263E-10
RMM:   2    -0.303507319891E+03    0.72760E-10    0.00000E+00     1   0.967E-11
 116 F= -.30350732E+03 E0= -.30354932E+03  d E =-.654836E-10
       N       E                     dE             d eps       ncg     rms          rms(c)
DAV:   1    -0.303507319890E+03    0.12660E-08    0.19505E-10   294   0.314E-10    0.320E-10
RMM:   2    -0.303507319891E+03   -0.11569E-08    0.00000E+00     1   0.112E-10
 117 F= -.30350732E+03 E0= -.30354932E+03  d E =0.363798E-10
       N       E                     dE             d eps       ncg     rms          rms(c)
DAV:   1    -0.303507319892E+03   -0.13097E-08   -0.34353E-11   294   0.338E-10    0.255E-10
RMM:   2    -0.303507319891E+03    0.17462E-09    0.00000E+00     2   0.819E-11
 118 F= -.30350732E+03 E0= -.30354932E+03  d E =0.218279E-10
       N       E                     dE             d eps       ncg     rms          rms(c)
DAV:   1    -0.303507319892E+03   -0.50204E-09    0.32269E-11   294   0.238E-10    0.277E-10
RMM:   2    -0.303507319891E+03    0.60390E-09    0.00000E+00     1   0.102E-10
 119 F= -.30350732E+03 E0= -.30354932E+03  d E =-.727596E-10
       N       E                     dE             d eps       ncg     rms          rms(c)
DAV:   1    -0.303507319891E+03    0.13606E-08    0.32106E-11   294   0.221E-10    0.268E-10
RMM:   2    -0.303507319891E+03   -0.66939E-09    0.00000E+00     1   0.907E-11
 120 F= -.30350732E+03 E0= -.30354932E+03  d E =0.873115E-10
       N       E                     dE             d eps       ncg     rms          rms(c)
DAV:   1    -0.303507319891E+03   -0.12369E-09    0.64928E-12   294   0.252E-10    0.207E-10
RMM:   2    -0.303507319891E+03   -0.64028E-09    0.00000E+00     1   0.701E-11
 121 F= -.30350732E+03 E0= -.30354932E+03  d E =-.945874E-10
       N       E                     dE             d eps       ncg     rms          rms(c)
DAV:   1    -0.303507319891E+03   -0.35652E-09    0.36194E-11   294   0.165E-10    0.230E-10
RMM:   2    -0.303507319891E+03   -0.19645E-09    0.00000E+00     1   0.655E-11
 122 F= -.30350732E+03 E0= -.30354932E+03  d E =0.873115E-10
       N       E                     dE             d eps       ncg     rms          rms(c)
DAV:   1    -0.303507319892E+03   -0.61846E-09    0.10650E-10   294   0.207E-10    0.307E-10
RMM:   2    -0.303507319891E+03    0.40018E-09    0.00000E+00     1   0.963E-11
 123 F= -.30350732E+03 E0= -.30354932E+03  d E =-.218279E-10
       N       E                     dE             d eps       ncg     rms          rms(c)
DAV:   1    -0.303507319892E+03   -0.29104E-09   -0.63622E-11   294   0.277E-10    0.326E-10
RMM:   2    -0.303507319891E+03    0.65484E-09    0.00000E+00     1   0.988E-11
 124 F= -.30350732E+03 E0= -.30354932E+03  d E =-.363798E-10
       N       E                     dE             d eps       ncg     rms          rms(c)
DAV:   1    -0.303507319892E+03    0.18190E-09   -0.55239E-12   294   0.278E-10    0.278E-10
RMM:   2    -0.303507319891E+03    0.55297E-09    0.00000E+00     1   0.803E-11
 125 F= -.30350732E+03 E0= -.30354932E+03  d E =0.800355E-10
       N       E                     dE             d eps       ncg     rms          rms(c)
DAV:   1    -0.303507319890E+03    0.18335E-08   -0.22072E-10   294   0.293E-10    0.255E-10
RMM:   2    -0.303507319891E+03   -0.12878E-08    0.00000E+00     1   0.791E-11
 126 F= -.30350732E+03 E0= -.30354932E+03  d E =-.727596E-11
       N       E                     dE             d eps       ncg     rms          rms(c)
DAV:   1    -0.303507319890E+03   -0.40018E-09   -0.28216E-10   294   0.126E-10    0.279E-10
RMM:   2    -0.303507319892E+03   -0.10259E-08    0.00000E+00     1   0.734E-11
 127 F= -.30350732E+03 E0= -.30354932E+03  d E =-.138243E-09
       N       E                     dE             d eps       ncg     rms          rms(c)
DAV:   1    -0.303507319891E+03   -0.77853E-09   -0.10627E-11   294   0.178E-10    0.317E-10
RMM:   2    -0.303507319891E+03   -0.10914E-09    0.00000E+00     1   0.955E-11
 128 F= -.30350732E+03 E0= -.30354932E+03  d E =0.138243E-09
       N       E                     dE             d eps       ncg     rms          rms(c)
DAV:   1    -0.303507319891E+03    0.14552E-10    0.35950E-11   294   0.261E-10    0.349E-10
RMM:   2    -0.303507319891E+03   -0.22555E-09    0.00000E+00     1   0.104E-10
 129 F= -.30350732E+03 E0= -.30354932E+03  d E =-.101863E-09
       N       E                     dE             d eps       ncg     rms          rms(c)
DAV:   1    -0.303507319891E+03   -0.19645E-09   -0.63564E-11   294   0.301E-10    0.387E-10
RMM:   2    -0.303507319892E+03   -0.80036E-10    0.00000E+00     1   0.972E-11
 130 F= -.30350732E+03 E0= -.30354932E+03  d E =-.509317E-10
       N       E                     dE             d eps       ncg     rms          rms(c)
DAV:   1    -0.303507319892E+03   -0.24011E-09    0.15453E-11   294   0.319E-10    0.289E-10
RMM:   2    -0.303507319891E+03    0.24738E-09    0.00000E+00     1   0.992E-11
 131 F= -.30350732E+03 E0= -.30354932E+03  d E =0.873115E-10
       N       E                     dE             d eps       ncg     rms          rms(c)
DAV:   1    -0.303507319891E+03    0.23283E-09   -0.81127E-11   294   0.372E-10    0.254E-10
RMM:   2    -0.303507319891E+03   -0.50932E-10    0.00000E+00     1   0.100E-10
 132 F= -.30350732E+03 E0= -.30354932E+03  d E =-.654836E-10
       N       E                     dE             d eps       ncg     rms          rms(c)
DAV:   1    -0.303507319890E+03    0.10114E-08   -0.14327E-11   294   0.290E-10    0.248E-10
RMM:   2    -0.303507319891E+03   -0.92405E-09    0.00000E+00     1   0.754E-11
 133 F= -.30350732E+03 E0= -.30354932E+03  d E =0.138243E-09
       N       E                     dE             d eps       ncg     rms          rms(c)
DAV:   1    -0.303507319890E+03    0.78580E-09    0.41285E-11   294   0.175E-10    0.245E-10
RMM:   2    -0.303507319891E+03   -0.17535E-08    0.00000E+00     1   0.739E-11
 134 F= -.30350732E+03 E0= -.30354932E+03  d E =-.436557E-10
       N       E                     dE             d eps       ncg     rms          rms(c)
DAV:   1    -0.303507319892E+03   -0.21682E-08   -0.12225E-10   294   0.149E-10    0.346E-10
RMM:   2    -0.303507319891E+03    0.44383E-09    0.00000E+00     1   0.110E-10
 135 F= -.30350732E+03 E0= -.30354932E+03  d E =0.291038E-10
       N       E                     dE             d eps       ncg     rms          rms(c)
DAV:   1    -0.303507319891E+03    0.94587E-09   -0.40481E-11   294   0.365E-10    0.330E-10
RMM:   2    -0.303507319891E+03   -0.53114E-09    0.00000E+00     1   0.103E-10
 136 F= -.30350732E+03 E0= -.30354932E+03  d E =-.291038E-10
       N       E                     dE             d eps       ncg     rms          rms(c)
DAV:   1    -0.303507319891E+03    0.33469E-09    0.11974E-10   294   0.309E-10    0.244E-10
RMM:   2    -0.303507319891E+03   -0.90949E-09    0.00000E+00     1   0.812E-11
 137 F= -.30350732E+03 E0= -.30354932E+03  d E =-.436557E-10
       N       E                     dE             d eps       ncg     rms          rms(c)
DAV:   1    -0.303507319892E+03   -0.16153E-08   -0.37728E-11   294   0.224E-10    0.298E-10
RMM:   2    -0.303507319891E+03    0.74942E-09    0.00000E+00     1   0.943E-11
 138 F= -.30350732E+03 E0= -.30354932E+03  d E =0.436557E-10
       N       E                     dE             d eps       ncg     rms          rms(c)
DAV:   1    -0.303507319891E+03    0.11205E-08    0.83262E-11   294   0.353E-10    0.235E-10
RMM:   2    -0.303507319891E+03   -0.46566E-09    0.00000E+00     1   0.918E-11
 139 F= -.30350732E+03 E0= -.30354932E+03  d E =-.945874E-10
       N       E                     dE             d eps       ncg     rms          rms(c)
DAV:   1    -0.303507319893E+03   -0.15280E-08   -0.55833E-13   294   0.249E-10    0.280E-10
RMM:   2    -0.303507319891E+03    0.11496E-08    0.00000E+00     1   0.924E-11
 140 F= -.30350732E+03 E0= -.30354932E+03  d E =0.873115E-10
       N       E                     dE             d eps       ncg     rms          rms(c)
DAV:   1    -0.303507319891E+03    0.14334E-08    0.65605E-11   294   0.288E-10    0.171E-10
RMM:   2    -0.303507319891E+03   -0.37107E-09    0.00000E+00     1   0.728E-11
 141 F= -.30350732E+03 E0= -.30354932E+03  d E =-.873115E-10
       N       E                     dE             d eps       ncg     rms          rms(c)
DAV:   1    -0.303507319890E+03    0.63301E-09   -0.12811E-10   294   0.120E-10    0.275E-10
RMM:   2    -0.303507319892E+03   -0.10332E-08    0.00000E+00     1   0.755E-11
 142 F= -.30350732E+03 E0= -.30354932E+03  d E =-.291038E-10
       N       E                     dE             d eps       ncg     rms          rms(c)
DAV:   1    -0.303507319892E+03   -0.12005E-08    0.95233E-11   294   0.205E-10    0.202E-10
RMM:   2    -0.303507319891E+03    0.29104E-09    0.00000E+00     1   0.723E-11
 143 F= -.30350732E+03 E0= -.30354932E+03  d E =0.123691E-09
       N       E                     dE             d eps       ncg     rms          rms(c)
DAV:   1    -0.303507319892E+03    0.14552E-09   -0.29098E-11   294   0.183E-10    0.283E-10
RMM:   2    -0.303507319891E+03    0.10186E-09    0.00000E+00     1   0.896E-11
 144 F= -.30350732E+03 E0= -.30354932E+03  d E =-.436557E-10
       N       E                     dE             d eps       ncg     rms          rms(c)
DAV:   1    -0.303507319891E+03    0.42201E-09    0.16702E-11   294   0.261E-10    0.298E-10
RMM:   2    -0.303507319892E+03   -0.40018E-09    0.00000E+00     1   0.984E-11
 145 F= -.30350732E+03 E0= -.30354932E+03  d E =-.800355E-10
       N       E                     dE             d eps       ncg     rms          rms(c)
DAV:   1    -0.303507319893E+03   -0.16298E-08    0.88977E-11   294   0.276E-10    0.306E-10
RMM:   2    -0.303507319891E+03    0.14043E-08    0.00000E+00     1   0.102E-10
 146 F= -.30350732E+03 E0= -.30354932E+03  d E =0.174623E-09
       N       E                     dE             d eps       ncg     rms          rms(c)
DAV:   1    -0.303507319892E+03    0.12078E-08    0.97217E-11   294   0.351E-10    0.178E-10
RMM:   2    -0.303507319892E+03    0.36380E-10    0.00000E+00     1   0.942E-11
 147 F= -.30350732E+03 E0= -.30354932E+03  d E =-.160071E-09
       N       E                     dE             d eps       ncg     rms          rms(c)
DAV:   1    -0.303507319891E+03    0.32742E-09    0.32712E-12   294   0.165E-10    0.372E-10
RMM:   2    -0.303507319891E+03   -0.26921E-09    0.00000E+00     1   0.947E-11
 148 F= -.30350732E+03 E0= -.30354932E+03  d E =0.218279E-10
       N       E                     dE             d eps       ncg     rms          rms(c)
DAV:   1    -0.303507319890E+03    0.12806E-08    0.99148E-11   294   0.247E-10    0.259E-10
RMM:   2    -0.303507319891E+03   -0.14988E-08    0.00000E+00     1   0.793E-11
 149 F= -.30350732E+03 E0= -.30354932E+03  d E =0.509317E-10
       N       E                     dE             d eps       ncg     rms          rms(c)
DAV:   1    -0.303507319892E+03   -0.23938E-08    0.29807E-11   294   0.173E-10    0.235E-10
RMM:   2    -0.303507319891E+03    0.97498E-09    0.00000E+00     1   0.784E-11
 150 F= -.30350732E+03 E0= -.30354932E+03  d E =0.800355E-10
       N       E                     dE             d eps       ncg     rms          rms(c)
DAV:   1    -0.303507319891E+03    0.12005E-08   -0.38802E-11   294   0.212E-10    0.335E-10
RMM:   2    -0.303507319891E+03   -0.29104E-09    0.00000E+00     1   0.100E-10
 151 F= -.30350732E+03 E0= -.30354932E+03  d E =-.654836E-10
       N       E                     dE             d eps       ncg     rms          rms(c)
DAV:   1    -0.303507319892E+03   -0.74215E-09   -0.90999E-11   294   0.270E-10    0.340E-10
RMM:   2    -0.303507319892E+03    0.36380E-09    0.00000E+00     1   0.979E-11
 152 F= -.30350732E+03 E0= -.30354932E+03  d E =-.873115E-10
       N       E                     dE             d eps       ncg     rms          rms(c)
DAV:   1    -0.303507319892E+03    0.14552E-09   -0.48374E-11   294   0.231E-10    0.304E-10
RMM:   2    -0.303507319891E+03    0.26193E-09    0.00000E+00     1   0.103E-10
 153 F= -.30350732E+03 E0= -.30354932E+03  d E =0.436557E-10
       N       E                     dE             d eps       ncg     rms          rms(c)
DAV:   1    -0.303507319892E+03   -0.35652E-09    0.17235E-10   294   0.345E-10    0.189E-10
RMM:   2    -0.303507319891E+03    0.59663E-09    0.00000E+00     1   0.907E-11
 154 F= -.30350732E+03 E0= -.30354932E+03  d E =-.218279E-10
       N       E                     dE             d eps       ncg     rms          rms(c)
DAV:   1    -0.303507319891E+03    0.10768E-08   -0.66929E-11   294   0.169E-10    0.308E-10
RMM:   2    -0.303507319891E+03   -0.42928E-09    0.00000E+00     1   0.899E-11
 155 F= -.30350732E+03 E0= -.30354932E+03  d E =0.509317E-10
       N       E                     dE             d eps       ncg     rms          rms(c)
DAV:   1    -0.303507319892E+03   -0.12806E-08   -0.40812E-11   294   0.201E-10    0.233E-10
RMM:   2    -0.303507319891E+03    0.94587E-09    0.00000E+00     1   0.744E-11
 156 F= -.30350732E+03 E0= -.30354932E+03  d E =0.945874E-10
       N       E                     dE             d eps       ncg     rms          rms(c)
DAV:   1    -0.303507319892E+03    0.49477E-09   -0.12637E-10   294   0.196E-10    0.284E-10
RMM:   2    -0.303507319891E+03    0.37107E-09    0.00000E+00     1   0.912E-11
 157 F= -.30350732E+03 E0= -.30354932E+03  d E =-.800355E-10
       N       E                     dE             d eps       ncg     rms          rms(c)
DAV:   1    -0.303507319892E+03   -0.50932E-10   -0.49918E-11   294   0.270E-10    0.234E-10
RMM:   2    -0.303507319891E+03    0.48749E-09    0.00000E+00     1   0.829E-11
 158 F= -.30350732E+03 E0= -.30354932E+03  d E =0.654836E-10
       N       E                     dE             d eps       ncg     rms          rms(c)
DAV:   1    -0.303507319892E+03    0.14552E-09   -0.15769E-11   294   0.221E-10    0.218E-10
RMM:   2    -0.303507319891E+03    0.32014E-09    0.00000E+00     1   0.858E-11
 159 F= -.30350732E+03 E0= -.30354932E+03  d E =-.218279E-10
       N       E                     dE             d eps       ncg     rms          rms(c)
DAV:   1    -0.303507319891E+03    0.27649E-09   -0.35599E-11   294   0.144E-10    0.308E-10
RMM:   2    -0.303507319892E+03   -0.94587E-10    0.00000E+00     1   0.787E-11
 160 F= -.30350732E+03 E0= -.30354932E+03  d E =-.138243E-09
       N       E                     dE             d eps       ncg     rms          rms(c)
DAV:   1    -0.303507319891E+03    0.43656E-10    0.12535E-10   294   0.152E-10    0.255E-10
RMM:   2    -0.303507319891E+03    0.14552E-10    0.00000E+00     1   0.870E-11
 161 F= -.30350732E+03 E0= -.30354932E+03  d E =0.152795E-09
       N       E                     dE             d eps       ncg     rms          rms(c)
DAV:   1    -0.303507319891E+03    0.43656E-10    0.58489E-11   294   0.197E-10    0.358E-10
RMM:   2    -0.303507319891E+03   -0.14552E-09    0.00000E+00     1   0.874E-11
 162 F= -.30350732E+03 E0= -.30354932E+03  d E =-.116415E-09
       N       E                     dE             d eps       ncg     rms          rms(c)
DAV:   1    -0.303507319891E+03    0.72760E-10   -0.25756E-13   294   0.284E-10    0.258E-10
RMM:   2    -0.303507319891E+03   -0.22555E-09    0.00000E+00     1   0.905E-11
 163 F= -.30350732E+03 E0= -.30354932E+03  d E =-.727596E-11
       N       E                     dE             d eps       ncg     rms          rms(c)
DAV:   1    -0.303507319890E+03    0.12296E-08   -0.18535E-10   294   0.281E-10    0.235E-10
RMM:   2    -0.303507319891E+03   -0.14043E-08    0.00000E+00     1   0.877E-11
 164 F= -.30350732E+03 E0= -.30354932E+03  d E =0.509317E-10
       N       E                     dE             d eps       ncg     rms          rms(c)
DAV:   1    -0.303507319892E+03   -0.15498E-08    0.62644E-11   294   0.224E-10    0.251E-10
RMM:   2    -0.303507319891E+03    0.15280E-09    0.00000E+00     1   0.912E-11
 165 F= -.30350732E+03 E0= -.30354932E+03  d E =0.727596E-11
       N       E                     dE             d eps       ncg     rms          rms(c)
DAV:   1    -0.303507319891E+03    0.94587E-10   -0.53280E-12   294   0.213E-10    0.276E-10
RMM:   2    -0.303507319891E+03    0.36380E-10    0.00000E+00     1   0.101E-10
 166 F= -.30350732E+03 E0= -.30354932E+03  d E =-.218279E-10
       N       E                     dE             d eps       ncg     rms          rms(c)
DAV:   1    -0.303507319891E+03    0.91677E-09   -0.28585E-11   294   0.238E-10    0.326E-10
RMM:   2    -0.303507319892E+03   -0.94587E-09    0.00000E+00     1   0.917E-11
 167 F= -.30350732E+03 E0= -.30354932E+03  d E =-.654836E-10
       N       E                     dE             d eps       ncg     rms          rms(c)
DAV:   1    -0.303507319893E+03   -0.23356E-08    0.73866E-11   294   0.218E-10    0.293E-10
RMM:   2    -0.303507319891E+03    0.15134E-08    0.00000E+00     1   0.927E-11
 168 F= -.30350732E+03 E0= -.30354932E+03  d E =0.123691E-09
       N       E                     dE             d eps       ncg     rms          rms(c)
DAV:   1    -0.303507319891E+03    0.19936E-08   -0.36366E-11   294   0.284E-10    0.179E-10
RMM:   2    -0.303507319891E+03   -0.53114E-09    0.00000E+00     1   0.716E-11
 169 F= -.30350732E+03 E0= -.30354932E+03  d E =-.509317E-10
       N       E                     dE             d eps       ncg     rms          rms(c)
DAV:   1    -0.303507319891E+03   -0.10914E-09   -0.37033E-11   294   0.120E-10    0.309E-10
RMM:   2    -0.303507319892E+03   -0.48749E-09    0.00000E+00     1   0.925E-11
 170 F= -.30350732E+03 E0= -.30354932E+03  d E =-.654836E-10
       N       E                     dE             d eps       ncg     rms          rms(c)
DAV:   1    -0.303507319893E+03   -0.15280E-08    0.19281E-10   294   0.230E-10    0.258E-10
RMM:   2    -0.303507319892E+03    0.10405E-08    0.00000E+00     1   0.954E-11
 171 F= -.30350732E+03 E0= -.30354932E+03  d E =0.000000E+00
       N       E                     dE             d eps       ncg     rms          rms(c)
DAV:   1    -0.303507319891E+03    0.14115E-08   -0.23366E-11   294   0.287E-10    0.278E-10
RMM:   2    -0.303507319891E+03   -0.27649E-09    0.00000E+00     1   0.787E-11
 172 F= -.30350732E+03 E0= -.30354932E+03  d E =0.945874E-10
       N       E                     dE             d eps       ncg     rms          rms(c)
DAV:   1    -0.303507319892E+03   -0.41473E-09    0.20217E-10   294   0.220E-10    0.289E-10
RMM:   2    -0.303507319891E+03    0.23283E-09    0.00000E+00     1   0.965E-11
 173 F= -.30350732E+03 E0= -.30354932E+03  d E =0.945874E-10
       N       E                     dE             d eps       ncg     rms          rms(c)
DAV:   1    -0.303507319892E+03   -0.59663E-09   -0.15380E-10   294   0.240E-10    0.251E-10
RMM:   2    -0.303507319891E+03    0.69849E-09    0.00000E+00     1   0.784E-11
 174 F= -.30350732E+03 E0= -.30354932E+03  d E =-.130967E-09
       N       E                     dE             d eps       ncg     rms          rms(c)
DAV:   1    -0.303507319891E+03    0.94587E-09   -0.56536E-11   294   0.199E-10    0.236E-10
RMM:   2    -0.303507319891E+03   -0.19645E-09    0.00000E+00     1   0.700E-11
 175 F= -.30350732E+03 E0= -.30354932E+03  d E =0.509317E-10
       N       E                     dE             d eps       ncg     rms          rms(c)
DAV:   1    -0.303507319893E+03   -0.16953E-08   -0.84572E-11   294   0.144E-10    0.234E-10
RMM:   2    -0.303507319891E+03    0.14552E-08    0.00000E+00     1   0.750E-11
 176 F= -.30350732E+03 E0= -.30354932E+03  d E =-.436557E-10
       N       E                     dE             d eps       ncg     rms          rms(c)
DAV:   1    -0.303507319893E+03    0.13824E-09    0.14379E-10   294   0.190E-10    0.200E-10
RMM:   2    -0.303507319892E+03    0.12587E-08    0.00000E+00     1   0.793E-11
 177 F= -.30350732E+03 E0= -.30354932E+03  d E =-.582077E-10
       N       E                     dE             d eps       ncg     rms          rms(c)
DAV:   1    -0.303507319891E+03    0.14261E-08   -0.60775E-11   294   0.187E-10    0.296E-10
RMM:   2    -0.303507319891E+03   -0.10186E-09    0.00000E+00     1   0.102E-10
 178 F= -.30350732E+03 E0= -.30354932E+03  d E =0.654836E-10
       N       E                     dE             d eps       ncg     rms          rms(c)
DAV:   1    -0.303507319892E+03   -0.53842E-09    0.26494E-11   294   0.289E-10    0.291E-10
RMM:   2    -0.303507319891E+03    0.50204E-09    0.00000E+00     1   0.913E-11
 179 F= -.30350732E+03 E0= -.30354932E+03  d E =0.654836E-10
       N       E                     dE             d eps       ncg     rms          rms(c)
DAV:   1    -0.303507319891E+03    0.53114E-09   -0.16757E-11   294   0.147E-10    0.281E-10
RMM:   2    -0.303507319891E+03   -0.94587E-10    0.00000E+00     1   0.849E-11
 180 F= -.30350732E+03 E0= -.30354932E+03  d E =-.654836E-10
       N       E                     dE             d eps       ncg     rms          rms(c)
DAV:   1    -0.303507319891E+03   -0.10914E-09    0.14263E-11   294   0.280E-10    0.241E-10
RMM:   2    -0.303507319891E+03    0.87311E-10    0.00000E+00     1   0.865E-11
 181 F= -.30350732E+03 E0= -.30354932E+03  d E =0.727596E-10
       N       E                     dE             d eps       ncg     rms          rms(c)
DAV:   1    -0.303507319892E+03   -0.53114E-09    0.40198E-11   294   0.229E-10    0.262E-10
RMM:   2    -0.303507319891E+03    0.58208E-09    0.00000E+00     1   0.822E-11
 182 F= -.30350732E+03 E0= -.30354932E+03  d E =-.363798E-10
       N       E                     dE             d eps       ncg     rms          rms(c)
DAV:   1    -0.303507319891E+03    0.87311E-09    0.25972E-11   294   0.231E-10    0.387E-10
RMM:   2    -0.303507319891E+03   -0.25466E-09    0.00000E+00     1   0.120E-10
 183 F= -.30350732E+03 E0= -.30354932E+03  d E =0.363798E-10
       N       E                     dE             d eps       ncg     rms          rms(c)
DAV:   1    -0.303507319891E+03    0.54570E-09   -0.30079E-11   294   0.489E-10    0.275E-10
RMM:   2    -0.303507319891E+03   -0.85856E-09    0.00000E+00     1   0.875E-11
 184 F= -.30350732E+03 E0= -.30354932E+03  d E =-.582077E-10
       N       E                     dE             d eps       ncg     rms          rms(c)
DAV:   1    -0.303507319891E+03   -0.66939E-09   -0.71690E-11   294   0.149E-10    0.308E-10
RMM:   2    -0.303507319891E+03   -0.16007E-09    0.00000E+00     1   0.979E-11
 185 F= -.30350732E+03 E0= -.30354932E+03  d E =0.291038E-10
       N       E                     dE             d eps       ncg     rms          rms(c)
DAV:   1    -0.303507319893E+03   -0.16880E-08   -0.88142E-11   294   0.294E-10    0.238E-10
RMM:   2    -0.303507319891E+03    0.14843E-08    0.00000E+00     1   0.762E-11
 186 F= -.30350732E+03 E0= -.30354932E+03  d E =-.436557E-10
       N       E                     dE             d eps       ncg     rms          rms(c)
DAV:   1    -0.303507319891E+03    0.17753E-08   -0.89240E-11   294   0.158E-10    0.269E-10
RMM:   2    -0.303507319891E+03   -0.27649E-09    0.00000E+00     1   0.820E-11
 187 F= -.30350732E+03 E0= -.30354932E+03  d E =0.145519E-10
       N       E                     dE             d eps       ncg     rms          rms(c)
DAV:   1    -0.303507319890E+03    0.97498E-09    0.80894E-11   294   0.256E-10    0.225E-10
RMM:   2    -0.303507319891E+03   -0.12806E-08    0.00000E+00     1   0.851E-11
 188 F= -.30350732E+03 E0= -.30354932E+03  d E =-.291038E-10
       N       E                     dE             d eps       ncg     rms          rms(c)
DAV:   1    -0.303507319892E+03   -0.17026E-08    0.60381E-11   294   0.197E-10    0.399E-10
RMM:   2    -0.303507319891E+03    0.54570E-09    0.00000E+00     1   0.125E-10
 189 F= -.30350732E+03 E0= -.30354932E+03  d E =0.123691E-09
       N       E                     dE             d eps       ncg     rms          rms(c)
DAV:   1    -0.303507319892E+03    0.10186E-09   -0.10732E-10   294   0.422E-10    0.365E-10
RMM:   2    -0.303507319891E+03    0.34925E-09    0.00000E+00     1   0.124E-10
 190 F= -.30350732E+03 E0= -.30354932E+03  d E =-.945874E-10
       N       E                     dE             d eps       ncg     rms          rms(c)
DAV:   1    -0.303507319891E+03    0.51659E-09    0.58650E-14   294   0.449E-10    0.272E-10
RMM:   2    -0.303507319891E+03   -0.21828E-09    0.00000E+00     1   0.918E-11
 191 F= -.30350732E+03 E0= -.30354932E+03  d E =-.509317E-10
       N       E                     dE             d eps       ncg     rms          rms(c)
DAV:   1    -0.303507319891E+03    0.32014E-09    0.29682E-10   294   0.241E-10    0.232E-10
RMM:   2    -0.303507319891E+03   -0.53114E-09    0.00000E+00     1   0.770E-11
 192 F= -.30350732E+03 E0= -.30354932E+03  d E =0.727596E-11
       N       E                     dE             d eps       ncg     rms          rms(c)
DAV:   1    -0.303507319892E+03   -0.13315E-08    0.16402E-10   294   0.187E-10    0.372E-10
RMM:   2    -0.303507319891E+03    0.86584E-09    0.00000E+00     1   0.110E-10
 193 F= -.30350732E+03 E0= -.30354932E+03  d E =0.654836E-10
       N       E                     dE             d eps       ncg     rms          rms(c)
DAV:   1    -0.303507319892E+03    0.67666E-09    0.33037E-11   294   0.332E-10    0.307E-10
RMM:   2    -0.303507319891E+03    0.18190E-09    0.00000E+00     1   0.119E-10
 194 F= -.30350732E+03 E0= -.30354932E+03  d E =-.727596E-11
       N       E                     dE             d eps       ncg     rms          rms(c)
DAV:   1    -0.303507319892E+03    0.00000E+00   -0.10298E-10   294   0.324E-10    0.273E-10
RMM:   2    -0.303507319891E+03    0.17462E-09    0.00000E+00     1   0.904E-11
 195 F= -.30350732E+03 E0= -.30354932E+03  d E =-.727596E-11
       N       E                     dE             d eps       ncg     rms          rms(c)
DAV:   1    -0.303507319892E+03   -0.77125E-09   -0.21094E-10   294   0.173E-10    0.379E-10
RMM:   2    -0.303507319891E+03    0.90222E-09    0.00000E+00     1   0.109E-10
 196 F= -.30350732E+03 E0= -.30354932E+03  d E =-.436557E-10
       N       E                     dE             d eps       ncg     rms          rms(c)
DAV:   1    -0.303507319891E+03    0.92405E-09   -0.52746E-12   294   0.321E-10    0.478E-10
RMM:   2    -0.303507319891E+03    0.72760E-10    0.00000E+00     1   0.121E-10
 197 F= -.30350732E+03 E0= -.30354932E+03  d E =0.945874E-10
       N       E                     dE             d eps       ncg     rms          rms(c)
DAV:   1    -0.303507319891E+03    0.66939E-09   -0.89861E-11   294   0.437E-10    0.366E-10
RMM:   2    -0.303507319892E+03   -0.74215E-09    0.00000E+00     1   0.110E-10
 198 F= -.30350732E+03 E0= -.30354932E+03  d E =-.145519E-09
       N       E                     dE             d eps       ncg     rms          rms(c)
DAV:   1    -0.303507319891E+03    0.19645E-09    0.13163E-10   294   0.354E-10    0.240E-10
RMM:   2    -0.303507319892E+03   -0.96043E-09    0.00000E+00     1   0.925E-11
 199 F= -.30350732E+03 E0= -.30354932E+03  d E =-.218279E-10
       N       E                     dE             d eps       ncg     rms          rms(c)
DAV:   1    -0.303507319893E+03   -0.20809E-08    0.25454E-12   294   0.283E-10    0.248E-10
RMM:   2    -0.303507319892E+03    0.11496E-08    0.00000E+00     1   0.916E-11
 200 F= -.30350732E+03 E0= -.30354932E+03  d E =0.291038E-10
       N       E                     dE             d eps       ncg     rms          rms(c)
DAV:   1    -0.303507319891E+03    0.16298E-08    0.18083E-10   294   0.211E-10    0.201E-10
RMM:   2    -0.303507319891E+03   -0.47294E-09    0.00000E+00     1   0.862E-11
 201 F= -.30350732E+03 E0= -.30354932E+03  d E =0.727596E-11
       N       E                     dE             d eps       ncg     rms          rms(c)
DAV:   1    -0.303507319891E+03    0.80036E-10   -0.55750E-11   294   0.184E-10    0.277E-10
RMM:   2    -0.303507319891E+03   -0.42928E-09    0.00000E+00     1   0.104E-10
 202 F= -.30350732E+03 E0= -.30354932E+03  d E =0.123691E-09
       N       E                     dE             d eps       ncg     rms          rms(c)
DAV:   1    -0.303507319891E+03    0.32014E-09    0.80916E-11   294   0.224E-10    0.205E-10
RMM:   2    -0.303507319891E+03   -0.77853E-09    0.00000E+00     1   0.944E-11
 203 F= -.30350732E+03 E0= -.30354932E+03  d E =-.291038E-10
       N       E                     dE             d eps       ncg     rms          rms(c)
DAV:   1    -0.303507319890E+03    0.45111E-09   -0.92736E-11   294   0.163E-10    0.251E-10
RMM:   2    -0.303507319891E+03   -0.11714E-08    0.00000E+00     1   0.727E-11
 204 F= -.30350732E+03 E0= -.30354932E+03  d E =0.582077E-10
       N       E                     dE             d eps       ncg     rms          rms(c)
DAV:   1    -0.303507319891E+03   -0.12878E-08    0.34313E-11   294   0.181E-10    0.240E-10
RMM:   2    -0.303507319891E+03    0.10186E-09    0.00000E+00     1   0.599E-11
 205 F= -.30350732E+03 E0= -.30354932E+03  d E =-.145519E-10
       N       E                     dE             d eps       ncg     rms          rms(c)
DAV:   1    -0.303507319892E+03   -0.50204E-09   -0.92633E-11   294   0.138E-10    0.265E-10
RMM:   2    -0.303507319891E+03    0.48749E-09    0.00000E+00     1   0.706E-11
 206 F= -.30350732E+03 E0= -.30354932E+03  d E =-.116415E-09
       N       E                     dE             d eps       ncg     rms          rms(c)
DAV:   1    -0.303507319890E+03    0.21537E-08    0.11985E-10   294   0.181E-10    0.253E-10
RMM:   2    -0.303507319891E+03   -0.16007E-08    0.00000E+00     1   0.785E-11
 207 F= -.30350732E+03 E0= -.30354932E+03  d E =0.654836E-10
       N       E                     dE             d eps       ncg     rms          rms(c)
DAV:   1    -0.303507319891E+03   -0.15061E-08    0.12517E-10   294   0.940E-11    0.291E-10
RMM:   2    -0.303507319891E+03   -0.10914E-09    0.00000E+00     1   0.691E-11
 208 F= -.30350732E+03 E0= -.30354932E+03  d E =-.145519E-10
       N       E                     dE             d eps       ncg     rms          rms(c)
DAV:   1    -0.303507319891E+03    0.58935E-09    0.31832E-11   294   0.178E-10    0.372E-10
RMM:   2    -0.303507319891E+03   -0.70577E-09    0.00000E+00     1   0.102E-10
 209 F= -.30350732E+03 E0= -.30354932E+03  d E =-.727596E-11
       N       E                     dE             d eps       ncg     rms          rms(c)
DAV:   1    -0.303507319890E+03    0.32742E-09    0.52013E-11   294   0.408E-10    0.208E-10
RMM:   2    -0.303507319891E+03   -0.10623E-08    0.00000E+00     1   0.856E-11
 210 F= -.30350732E+03 E0= -.30354932E+03  d E =-.291038E-10
       N       E                     dE             d eps       ncg     rms          rms(c)
DAV:   1    -0.303507319892E+03   -0.12224E-08   -0.20906E-11   294   0.200E-10    0.262E-10
RMM:   2    -0.303507319891E+03    0.17462E-09    0.00000E+00     1   0.971E-11
 211 F= -.30350732E+03 E0= -.30354932E+03  d E =0.145519E-10
       N       E                     dE             d eps       ncg     rms          rms(c)
DAV:   1    -0.303507319891E+03    0.32742E-09   -0.12806E-11   294   0.233E-10    0.302E-10
RMM:   2    -0.303507319891E+03   -0.65484E-10    0.00000E+00     1   0.988E-11
 212 F= -.30350732E+03 E0= -.30354932E+03  d E =0.873115E-10
       N       E                     dE             d eps       ncg     rms          rms(c)
DAV:   1    -0.303507319891E+03    0.14552E-09    0.18004E-11   294   0.304E-10    0.276E-10
RMM:   2    -0.303507319891E+03   -0.33469E-09    0.00000E+00     1   0.916E-11
 213 F= -.30350732E+03 E0= -.30354932E+03  d E =-.123691E-09
       N       E                     dE             d eps       ncg     rms          rms(c)
DAV:   1    -0.303507319891E+03    0.59663E-09    0.66179E-11   294   0.220E-10    0.271E-10
RMM:   2    -0.303507319891E+03   -0.79308E-09    0.00000E+00     1   0.912E-11
 214 F= -.30350732E+03 E0= -.30354932E+03  d E =0.138243E-09
       N       E                     dE             d eps       ncg     rms          rms(c)
DAV:   1    -0.303507319893E+03   -0.23647E-08    0.30085E-12   294   0.274E-10    0.332E-10
RMM:   2    -0.303507319891E+03    0.15061E-08    0.00000E+00     1   0.927E-11
 215 F= -.30350732E+03 E0= -.30354932E+03  d E =-.654836E-10
       N       E                     dE             d eps       ncg     rms          rms(c)
DAV:   1    -0.303507319892E+03    0.58208E-09   -0.11553E-10   294   0.218E-10    0.245E-10
RMM:   2    -0.303507319891E+03    0.88039E-09    0.00000E+00     1   0.814E-11
 216 F= -.30350732E+03 E0= -.30354932E+03  d E =-.436557E-10
       N       E                     dE             d eps       ncg     rms          rms(c)
DAV:   1    -0.303507319892E+03    0.65484E-09    0.87020E-11   294   0.183E-10    0.388E-10
RMM:   2    -0.303507319891E+03    0.20373E-09    0.00000E+00     1   0.105E-10
 217 F= -.30350732E+03 E0= -.30354932E+03  d E =-.218279E-10
       N       E                     dE             d eps       ncg     rms          rms(c)
DAV:   1    -0.303507319890E+03    0.13388E-08   -0.38831E-11   294   0.254E-10    0.346E-10
RMM:   2    -0.303507319891E+03   -0.10914E-08    0.00000E+00     1   0.838E-11
 218 F= -.30350732E+03 E0= -.30354932E+03  d E =0.436557E-10
       N       E                     dE             d eps       ncg     rms          rms(c)
DAV:   1    -0.303507319892E+03   -0.16953E-08   -0.14589E-10   294   0.215E-10    0.221E-10
RMM:   2    -0.303507319891E+03    0.67666E-09    0.00000E+00     1   0.903E-11
 219 F= -.30350732E+03 E0= -.30354932E+03  d E =0.727596E-10
       N       E                     dE             d eps       ncg     rms          rms(c)
DAV:   1    -0.303507319890E+03    0.15571E-08   -0.41924E-11   294   0.145E-10    0.255E-10
RMM:   2    -0.303507319891E+03   -0.90222E-09    0.00000E+00     1   0.782E-11
 220 F= -.30350732E+03 E0= -.30354932E+03  d E =-.218279E-10
       N       E                     dE             d eps       ncg     rms          rms(c)
DAV:   1    -0.303507319892E+03   -0.14770E-08   -0.12486E-10   294   0.136E-10    0.277E-10
RMM:   2    -0.303507319891E+03    0.51659E-09    0.00000E+00     1   0.861E-11
 221 F= -.30350732E+03 E0= -.30354932E+03  d E =-.582077E-10
       N       E                     dE             d eps       ncg     rms          rms(c)
DAV:   1    -0.303507319892E+03   -0.36380E-10   -0.47307E-11   294   0.275E-10    0.224E-10
RMM:   2    -0.303507319892E+03    0.47294E-09    0.00000E+00     1   0.850E-11
 222 F= -.30350732E+03 E0= -.30354932E+03  d E =-.800355E-10
       N       E                     dE             d eps       ncg     rms          rms(c)
DAV:   1    -0.303507319892E+03    0.35652E-09    0.13493E-11   294   0.209E-10    0.427E-10
RMM:   2    -0.303507319891E+03    0.21828E-09    0.00000E+00     1   0.129E-10
 223 F= -.30350732E+03 E0= -.30354932E+03  d E =0.101863E-09
       N       E                     dE             d eps       ncg     rms          rms(c)
DAV:   1    -0.303507319891E+03    0.64028E-09   -0.11946E-11   294   0.446E-10    0.222E-10
RMM:   2    -0.303507319891E+03   -0.44383E-09    0.00000E+00     1   0.979E-11
 224 F= -.30350732E+03 E0= -.30354932E+03  d E =-.218279E-10
       N       E                     dE             d eps       ncg     rms          rms(c)
DAV:   1    -0.303507319891E+03    0.58208E-10    0.16434E-10   294   0.274E-10    0.244E-10
RMM:   2    -0.303507319891E+03   -0.49477E-09    0.00000E+00     1   0.109E-10
 225 F= -.30350732E+03 E0= -.30354932E+03  d E =0.727596E-11
       N       E                     dE             d eps       ncg     rms          rms(c)
DAV:   1    -0.303507319892E+03   -0.84401E-09    0.14596E-10   294   0.292E-10    0.444E-10
RMM:   2    -0.303507319891E+03    0.35652E-09    0.00000E+00     1   0.144E-10
 226 F= -.30350732E+03 E0= -.30354932E+03  d E =0.727596E-11
       N       E                     dE             d eps       ncg     rms          rms(c)
DAV:   1    -0.303507319891E+03    0.10041E-08   -0.45117E-11   294   0.453E-10    0.439E-10
RMM:   2    -0.303507319891E+03   -0.58208E-09    0.00000E+00     1   0.137E-10
 227 F= -.30350732E+03 E0= -.30354932E+03  d E =0.654836E-10
       N       E                     dE             d eps       ncg     rms          rms(c)
DAV:   1    -0.303507319891E+03    0.26193E-09   -0.23476E-10   294   0.458E-10    0.269E-10
RMM:   2    -0.303507319891E+03   -0.83674E-09    0.00000E+00     1   0.895E-11
 228 F= -.30350732E+03 E0= -.30354932E+03  d E =0.727596E-11
       N       E                     dE             d eps       ncg     rms          rms(c)
DAV:   1    -0.303507319891E+03   -0.87311E-10    0.89934E-12   294   0.260E-10    0.291E-10
RMM:   2    -0.303507319891E+03   -0.77125E-09    0.00000E+00     1   0.817E-11
 229 F= -.30350732E+03 E0= -.30354932E+03  d E =-.218279E-10
       N       E                     dE             d eps       ncg     rms          rms(c)
DAV:   1    -0.303507319891E+03    0.50932E-10    0.15925E-10   294   0.246E-10    0.227E-10
RMM:   2    -0.303507319891E+03   -0.88767E-09    0.00000E+00     1   0.863E-11
 230 F= -.30350732E+03 E0= -.30354932E+03  d E =-.654836E-10
       N       E                     dE             d eps       ncg     rms          rms(c)
DAV:   1    -0.303507319892E+03   -0.98953E-09   -0.10131E-10   294   0.175E-10    0.287E-10
RMM:   2    -0.303507319891E+03    0.80036E-10    0.00000E+00     1   0.904E-11
 231 F= -.30350732E+03 E0= -.30354932E+03  d E =-.218279E-10
       N       E                     dE             d eps       ncg     rms          rms(c)
DAV:   1    -0.303507319892E+03   -0.50932E-10    0.41568E-11   294   0.251E-10    0.245E-10
RMM:   2    -0.303507319891E+03    0.13097E-09    0.00000E+00     1   0.989E-11
 232 F= -.30350732E+03 E0= -.30354932E+03  d E =0.000000E+00
       N       E                     dE             d eps       ncg     rms          rms(c)
DAV:   1    -0.303507319892E+03   -0.14552E-09    0.17585E-10   294   0.231E-10    0.209E-10
RMM:   2    -0.303507319891E+03    0.26193E-09    0.00000E+00     1   0.814E-11
 233 F= -.30350732E+03 E0= -.30354932E+03  d E =-.145519E-10
       N       E                     dE             d eps       ncg     rms          rms(c)
DAV:   1    -0.303507319892E+03   -0.42201E-09    0.45390E-11   294   0.206E-10    0.357E-10
RMM:   2    -0.303507319891E+03    0.72760E-09    0.00000E+00     1   0.113E-10
 234 F= -.30350732E+03 E0= -.30354932E+03  d E =0.436557E-10
       N       E                     dE             d eps       ncg     rms          rms(c)
DAV:   1    -0.303507319891E+03    0.13242E-08   -0.21068E-11   294   0.309E-10    0.279E-10
RMM:   2    -0.303507319891E+03   -0.57480E-09    0.00000E+00     1   0.975E-11
 235 F= -.30350732E+03 E0= -.30354932E+03  d E =0.218279E-10
       N       E                     dE             d eps       ncg     rms          rms(c)
DAV:   1    -0.303507319892E+03   -0.13752E-08   -0.18226E-10   294   0.323E-10    0.239E-10
RMM:   2    -0.303507319891E+03    0.77853E-09    0.00000E+00     1   0.928E-11
 236 F= -.30350732E+03 E0= -.30354932E+03  d E =-.218279E-10
       N       E                     dE             d eps       ncg     rms          rms(c)
DAV:   1    -0.303507319893E+03   -0.30559E-09    0.10350E-10   294   0.226E-10    0.249E-10
RMM:   2    -0.303507319891E+03    0.11423E-08    0.00000E+00     1   0.801E-11
 237 F= -.30350732E+03 E0= -.30354932E+03  d E =0.582077E-10
       N       E                     dE             d eps       ncg     rms          rms(c)
DAV:   1    -0.303507319892E+03    0.82946E-09   -0.62947E-11   294   0.153E-10    0.307E-10
RMM:   2    -0.303507319891E+03    0.29831E-09    0.00000E+00     1   0.809E-11
 238 F= -.30350732E+03 E0= -.30354932E+03  d E =-.145519E-10
       N       E                     dE             d eps       ncg     rms          rms(c)
DAV:   1    -0.303507319892E+03   -0.94587E-10   -0.45826E-11   294   0.241E-10    0.248E-10
RMM:   2    -0.303507319891E+03    0.33469E-09    0.00000E+00     1   0.861E-11
 239 F= -.30350732E+03 E0= -.30354932E+03  d E =-.582077E-10
       N       E                     dE             d eps       ncg     rms          rms(c)
DAV:   1    -0.303507319892E+03   -0.43656E-10   -0.12155E-10   294   0.175E-10    0.269E-10
RMM:   2    -0.303507319891E+03    0.32742E-09    0.00000E+00     1   0.947E-11
 240 F= -.30350732E+03 E0= -.30354932E+03  d E =-.509317E-10
       N       E                     dE             d eps       ncg     rms          rms(c)
DAV:   1    -0.303507319891E+03    0.41473E-09    0.21705E-11   294   0.232E-10    0.304E-10
RMM:   2    -0.303507319891E+03    0.43656E-10    0.00000E+00     1   0.105E-10
 241 F= -.30350732E+03 E0= -.30354932E+03  d E =0.130967E-09
       N       E                     dE             d eps       ncg     rms          rms(c)
DAV:   1    -0.303507319891E+03   -0.36380E-10   -0.85747E-11   294   0.265E-10    0.271E-10
RMM:   2    -0.303507319891E+03    0.00000E+00    0.00000E+00     1   0.902E-11
 242 F= -.30350732E+03 E0= -.30354932E+03  d E =-.800355E-10
       N       E                     dE             d eps       ncg     rms          rms(c)
DAV:   1    -0.303507319891E+03    0.15280E-09   -0.32068E-11   294   0.203E-10    0.327E-10
RMM:   2    -0.303507319891E+03   -0.13097E-09    0.00000E+00     1   0.884E-11
 243 F= -.30350732E+03 E0= -.30354932E+03  d E =0.218279E-10
       N       E                     dE             d eps       ncg     rms          rms(c)
DAV:   1    -0.303507319891E+03    0.16007E-09   -0.14644E-10   294   0.194E-10    0.306E-10
RMM:   2    -0.303507319891E+03   -0.24011E-09    0.00000E+00     1   0.974E-11
 244 F= -.30350732E+03 E0= -.30354932E+03  d E =0.509317E-10
       N       E                     dE             d eps       ncg     rms          rms(c)
DAV:   1    -0.303507319891E+03   -0.13097E-09   -0.31374E-11   294   0.328E-10    0.265E-10
RMM:   2    -0.303507319891E+03   -0.21100E-09    0.00000E+00     1   0.913E-11
 245 F= -.30350732E+03 E0= -.30354932E+03  d E =-.101863E-09
       N       E                     dE             d eps       ncg     rms          rms(c)
DAV:   1    -0.303507319892E+03   -0.37835E-09   -0.50497E-11   294   0.284E-10    0.277E-10
RMM:   2    -0.303507319891E+03    0.18190E-09    0.00000E+00     1   0.957E-11
 246 F= -.30350732E+03 E0= -.30354932E+03  d E =0.145519E-10
       N       E                     dE             d eps       ncg     rms          rms(c)
DAV:   1    -0.303507319892E+03   -0.13824E-09   -0.43390E-12   294   0.256E-10    0.386E-10
RMM:   2    -0.303507319891E+03    0.37107E-09    0.00000E+00     1   0.108E-10
 247 F= -.30350732E+03 E0= -.30354932E+03  d E =0.509317E-10
       N       E                     dE             d eps       ncg     rms          rms(c)
DAV:   1    -0.303507319892E+03   -0.50204E-09    0.55175E-11   294   0.343E-10    0.255E-10
RMM:   2    -0.303507319891E+03    0.86584E-09    0.00000E+00     1   0.966E-11
 248 F= -.30350732E+03 E0= -.30354932E+03  d E =-.727596E-11
       N       E                     dE             d eps       ncg     rms          rms(c)
DAV:   1    -0.303507319892E+03    0.20373E-09   -0.20347E-11   294   0.321E-10    0.260E-10
RMM:   2    -0.303507319891E+03    0.61118E-09    0.00000E+00     1   0.106E-10
 249 F= -.30350732E+03 E0= -.30354932E+03  d E =-.509317E-10
       N       E                     dE             d eps       ncg     rms          rms(c)
DAV:   1    -0.303507319892E+03    0.18190E-09    0.59989E-11   294   0.242E-10    0.248E-10
RMM:   2    -0.303507319892E+03    0.36380E-09    0.00000E+00     1   0.957E-11
 250 F= -.30350732E+03 E0= -.30354932E+03  d E =-.654836E-10
       N       E                     dE             d eps       ncg     rms          rms(c)
DAV:   1    -0.303507319891E+03    0.10186E-08    0.12222E-10   294   0.256E-10    0.205E-10
RMM:   2    -0.303507319891E+03   -0.56752E-09    0.00000E+00     1   0.788E-11
 251 F= -.30350732E+03 E0= -.30354932E+03  d E =0.873115E-10
       N       E                     dE             d eps       ncg     rms          rms(c)
DAV:   1    -0.303507319893E+03   -0.16371E-08   -0.26942E-11   294   0.128E-10    0.307E-10
RMM:   2    -0.303507319891E+03    0.10987E-08    0.00000E+00     1   0.757E-11
 252 F= -.30350732E+03 E0= -.30354932E+03  d E =0.291038E-10
       N       E                     dE             d eps       ncg     rms          rms(c)
DAV:   1    -0.303507319891E+03    0.10987E-08    0.20209E-11   294   0.180E-10    0.315E-10
RMM:   2    -0.303507319891E+03   -0.14552E-10    0.00000E+00     1   0.111E-10
 253 F= -.30350732E+03 E0= -.30354932E+03  d E =-.145519E-10
       N       E                     dE             d eps       ncg     rms          rms(c)
DAV:   1    -0.303507319891E+03    0.39290E-09   -0.30888E-11   294   0.381E-10    0.345E-10
RMM:   2    -0.303507319891E+03   -0.47294E-09    0.00000E+00     1   0.118E-10
 254 F= -.30350732E+03 E0= -.30354932E+03  d E =-.654836E-10
       N       E                     dE             d eps       ncg     rms          rms(c)
DAV:   1    -0.303507319893E+03   -0.15571E-08   -0.17261E-10   294   0.343E-10    0.229E-10
RMM:   2    -0.303507319891E+03    0.12224E-08    0.00000E+00     1   0.869E-11
 255 F= -.30350732E+03 E0= -.30354932E+03  d E =0.138243E-09
       N       E                     dE             d eps       ncg     rms          rms(c)
DAV:   1    -0.303507319891E+03    0.14770E-08   -0.70298E-11   294   0.212E-10    0.283E-10
RMM:   2    -0.303507319891E+03   -0.37835E-09    0.00000E+00     1   0.993E-11
 256 F= -.30350732E+03 E0= -.30354932E+03  d E =-.123691E-09
       N       E                     dE             d eps       ncg     rms          rms(c)
DAV:   1    -0.303507319890E+03    0.67666E-09   -0.50462E-11   294   0.296E-10    0.356E-10
RMM:   2    -0.303507319891E+03   -0.10041E-08    0.00000E+00     1   0.109E-10
 257 F= -.30350732E+03 E0= -.30354932E+03  d E =0.509317E-10
       N       E                     dE             d eps       ncg     rms          rms(c)
DAV:   1    -0.303507319892E+03   -0.17899E-08    0.22719E-11   294   0.337E-10    0.180E-10
RMM:   2    -0.303507319891E+03    0.85856E-09    0.00000E+00     1   0.940E-11
 258 F= -.30350732E+03 E0= -.30354932E+03  d E =0.727596E-10
       N       E                     dE             d eps       ncg     rms          rms(c)
DAV:   1    -0.303507319891E+03    0.81491E-09   -0.14841E-10   294   0.141E-10    0.294E-10
RMM:   2    -0.303507319891E+03   -0.50932E-10    0.00000E+00     1   0.816E-11
 259 F= -.30350732E+03 E0= -.30354932E+03  d E =-.945874E-10
       N       E                     dE             d eps       ncg     rms          rms(c)
DAV:   1    -0.303507319891E+03    0.66939E-09    0.10039E-10   294   0.161E-10    0.303E-10
RMM:   2    -0.303507319891E+03   -0.72032E-09    0.00000E+00     1   0.881E-11
 260 F= -.30350732E+03 E0= -.30354932E+03  d E =0.000000E+00
       N       E                     dE             d eps       ncg     rms          rms(c)
DAV:   1    -0.303507319892E+03   -0.98953E-09   -0.13596E-11   294   0.248E-10    0.294E-10
RMM:   2    -0.303507319891E+03    0.37107E-09    0.00000E+00     1   0.917E-11
 261 F= -.30350732E+03 E0= -.30354932E+03  d E =0.101863E-09
       N       E                     dE             d eps       ncg     rms          rms(c)
DAV:   1    -0.303507319892E+03   -0.72760E-11   -0.51383E-11   294   0.331E-10    0.293E-10
RMM:   2    -0.303507319891E+03    0.30559E-09    0.00000E+00     1   0.102E-10
 262 F= -.30350732E+03 E0= -.30354932E+03  d E =-.727596E-10
       N       E                     dE             d eps       ncg     rms          rms(c)
DAV:   1    -0.303507319891E+03    0.64028E-09   -0.95073E-11   294   0.337E-10    0.360E-10
RMM:   2    -0.303507319891E+03   -0.32742E-09    0.00000E+00     1   0.987E-11
 263 F= -.30350732E+03 E0= -.30354932E+03  d E =0.727596E-11
       N       E                     dE             d eps       ncg     rms          rms(c)
DAV:   1    -0.303507319891E+03   -0.21100E-09   -0.53544E-11   294   0.297E-10    0.217E-10
RMM:   2    -0.303507319891E+03   -0.19645E-09    0.00000E+00     1   0.871E-11
 264 F= -.30350732E+03 E0= -.30354932E+03  d E =-.800355E-10
       N       E                     dE             d eps       ncg     rms          rms(c)
DAV:   1    -0.303507319893E+03   -0.13169E-08   -0.39177E-11   294   0.197E-10    0.370E-10
RMM:   2    -0.303507319891E+03    0.12587E-08    0.00000E+00     1   0.942E-11
 265 F= -.30350732E+03 E0= -.30354932E+03  d E =0.138243E-09
       N       E                     dE             d eps       ncg     rms          rms(c)
DAV:   1    -0.303507319892E+03    0.59663E-09   -0.19131E-10   294   0.212E-10    0.345E-10
RMM:   2    -0.303507319891E+03    0.65484E-09    0.00000E+00     1   0.114E-10
 266 F= -.30350732E+03 E0= -.30354932E+03  d E =-.727596E-11
       N       E                     dE             d eps       ncg     rms          rms(c)
DAV:   1    -0.303507319891E+03    0.93132E-09    0.59429E-11   294   0.367E-10    0.359E-10
RMM:   2    -0.303507319891E+03   -0.34197E-09    0.00000E+00     1   0.117E-10
 267 F= -.30350732E+03 E0= -.30354932E+03  d E =-.654836E-10
       N       E                     dE             d eps       ncg     rms          rms(c)
DAV:   1    -0.303507319892E+03   -0.85856E-09    0.22992E-11   294   0.392E-10    0.290E-10
RMM:   2    -0.303507319891E+03    0.51659E-09    0.00000E+00     1   0.113E-10
 268 F= -.30350732E+03 E0= -.30354932E+03  d E =0.000000E+00
       N       E                     dE             d eps       ncg     rms          rms(c)
DAV:   1    -0.303507319893E+03   -0.93132E-09   -0.68809E-11   294   0.142E-10    0.419E-10
RMM:   2    -0.303507319892E+03    0.13461E-08    0.00000E+00     1   0.124E-10
 269 F= -.30350732E+03 E0= -.30354932E+03  d E =-.101863E-09
       N       E                     dE             d eps       ncg     rms          rms(c)
DAV:   1    -0.303507319890E+03    0.24738E-08    0.75599E-11   294   0.387E-10    0.276E-10
RMM:   2    -0.303507319891E+03   -0.98953E-09    0.00000E+00     1   0.986E-11
 270 F= -.30350732E+03 E0= -.30354932E+03  d E =0.138243E-09
       N       E                     dE             d eps       ncg     rms          rms(c)
DAV:   1    -0.303507319891E+03   -0.80763E-09   -0.17815E-10   294   0.234E-10    0.279E-10
RMM:   2    -0.303507319891E+03   -0.17462E-09    0.00000E+00     1   0.918E-11
 271 F= -.30350732E+03 E0= -.30354932E+03  d E =0.727596E-11
       N       E                     dE             d eps       ncg     rms          rms(c)
DAV:   1    -0.303507319892E+03   -0.53842E-09   -0.20682E-10   294   0.232E-10    0.320E-10
RMM:   2    -0.303507319891E+03    0.30559E-09    0.00000E+00     1   0.983E-11
 272 F= -.30350732E+03 E0= -.30354932E+03  d E =-.582077E-10
       N       E                     dE             d eps       ncg     rms          rms(c)
DAV:   1    -0.303507319892E+03    0.50932E-10    0.25248E-11   294   0.250E-10    0.258E-10
RMM:   2    -0.303507319891E+03    0.21100E-09    0.00000E+00     1   0.946E-11
 273 F= -.30350732E+03 E0= -.30354932E+03  d E =-.436557E-10
       N       E                     dE             d eps       ncg     rms          rms(c)
DAV:   1    -0.303507319891E+03    0.77125E-09   -0.40276E-11   294   0.209E-10    0.242E-10
RMM:   2    -0.303507319891E+03   -0.50932E-09    0.00000E+00     1   0.907E-11
 274 F= -.30350732E+03 E0= -.30354932E+03  d E =0.509317E-10
       N       E                     dE             d eps       ncg     rms          rms(c)
DAV:   1    -0.303507319890E+03    0.71304E-09    0.50953E-11   294   0.205E-10    0.253E-10
RMM:   2    -0.303507319891E+03   -0.12151E-08    0.00000E+00     1   0.889E-11
 275 F= -.30350732E+03 E0= -.30354932E+03  d E =0.727596E-11
       N       E                     dE             d eps       ncg     rms          rms(c)
DAV:   1    -0.303507319893E+03   -0.22919E-08   -0.81366E-12   294   0.245E-10    0.325E-10
RMM:   2    -0.303507319892E+03    0.99681E-09    0.00000E+00     1   0.111E-10
 276 F= -.30350732E+03 E0= -.30354932E+03  d E =-.800355E-10
       N       E                     dE             d eps       ncg     rms          rms(c)
DAV:   1    -0.303507319892E+03    0.95315E-09   -0.74034E-11   294   0.239E-10    0.242E-10
RMM:   2    -0.303507319891E+03    0.13097E-09    0.00000E+00     1   0.863E-11
 277 F= -.30350732E+03 E0= -.30354932E+03  d E =0.873115E-10
       N       E                     dE             d eps       ncg     rms          rms(c)
DAV:   1    -0.303507319891E+03    0.94587E-09   -0.93331E-11   294   0.165E-10    0.319E-10
RMM:   2    -0.303507319892E+03   -0.90949E-09    0.00000E+00     1   0.838E-11
 278 F= -.30350732E+03 E0= -.30354932E+03  d E =-.945874E-10
       N       E                     dE             d eps       ncg     rms          rms(c)
DAV:   1    -0.303507319892E+03   -0.12806E-08    0.13835E-10   294   0.225E-10    0.310E-10
RMM:   2    -0.303507319891E+03    0.53114E-09    0.00000E+00     1   0.810E-11
 279 F= -.30350732E+03 E0= -.30354932E+03  d E =0.160071E-09
       N       E                     dE             d eps       ncg     rms          rms(c)
DAV:   1    -0.303507319892E+03    0.34925E-09    0.11848E-10   294   0.223E-10    0.295E-10
RMM:   2    -0.303507319891E+03    0.17462E-09    0.00000E+00     1   0.913E-11
 280 F= -.30350732E+03 E0= -.30354932E+03  d E =-.727596E-11
       N       E                     dE             d eps       ncg     rms          rms(c)
DAV:   1    -0.303507319892E+03   -0.12369E-09    0.12285E-11   294   0.339E-10    0.197E-10
RMM:   2    -0.303507319891E+03    0.29104E-09    0.00000E+00     1   0.829E-11
 281 F= -.30350732E+03 E0= -.30354932E+03  d E =-.727596E-11
       N       E                     dE             d eps       ncg     rms          rms(c)
DAV:   1    -0.303507319891E+03    0.86584E-09    0.11222E-10   294   0.159E-10    0.359E-10
RMM:   2    -0.303507319892E+03   -0.70577E-09    0.00000E+00     1   0.991E-11
 282 F= -.30350732E+03 E0= -.30354932E+03  d E =-.130967E-09
       N       E                     dE             d eps       ncg     rms          rms(c)
DAV:   1    -0.303507319891E+03   -0.62573E-09   -0.14143E-11   294   0.268E-10    0.366E-10
RMM:   2    -0.303507319891E+03   -0.36380E-10    0.00000E+00     1   0.135E-10
 283 F= -.30350732E+03 E0= -.30354932E+03  d E =0.436557E-10
       N       E                     dE             d eps       ncg     rms          rms(c)
DAV:   1    -0.303507319892E+03   -0.58935E-09   -0.24228E-11   294   0.455E-10    0.282E-10
RMM:   2    -0.303507319891E+03    0.51659E-09    0.00000E+00     1   0.100E-10
 284 F= -.30350732E+03 E0= -.30354932E+03  d E =-.363798E-10
       N       E                     dE             d eps       ncg     rms          rms(c)
DAV:   1    -0.303507319890E+03    0.19354E-08    0.49143E-11   294   0.309E-10    0.162E-10
RMM:   2    -0.303507319891E+03   -0.13242E-08    0.00000E+00     1   0.870E-11
 285 F= -.30350732E+03 E0= -.30354932E+03  d E =0.945874E-10
       N       E                     dE             d eps       ncg     rms          rms(c)
DAV:   1    -0.303507319892E+03   -0.23501E-08    0.89878E-11   294   0.136E-10    0.314E-10
RMM:   2    -0.303507319891E+03    0.10477E-08    0.00000E+00     1   0.784E-11
 286 F= -.30350732E+03 E0= -.30354932E+03  d E =0.218279E-10
       N       E                     dE             d eps       ncg     rms          rms(c)
DAV:   1    -0.303507319891E+03    0.14697E-08   -0.35785E-11   294   0.198E-10    0.295E-10
RMM:   2    -0.303507319891E+03   -0.49477E-09    0.00000E+00     1   0.110E-10
 287 F= -.30350732E+03 E0= -.30354932E+03  d E =-.727596E-10
       N       E                     dE             d eps       ncg     rms          rms(c)
DAV:   1    -0.303507319891E+03   -0.37107E-09   -0.48867E-11   294   0.357E-10    0.263E-10
RMM:   2    -0.303507319891E+03   -0.80036E-10    0.00000E+00     1   0.919E-11
 288 F= -.30350732E+03 E0= -.30354932E+03  d E =0.436557E-10
       N       E                     dE             d eps       ncg     rms          rms(c)
DAV:   1    -0.303507319890E+03    0.93860E-09   -0.11928E-10   294   0.322E-10    0.214E-10
RMM:   2    -0.303507319892E+03   -0.11350E-08    0.00000E+00     1   0.733E-11
 289 F= -.30350732E+03 E0= -.30354932E+03  d E =-.116415E-09
       N       E                     dE             d eps       ncg     rms          rms(c)
DAV:   1    -0.303507319892E+03   -0.18626E-08    0.14575E-10   294   0.228E-10    0.176E-10
RMM:   2    -0.303507319891E+03    0.82946E-09    0.00000E+00     1   0.848E-11
 290 F= -.30350732E+03 E0= -.30354932E+03  d E =0.101863E-09
       N       E                     dE             d eps       ncg     rms          rms(c)
DAV:   1    -0.303507319892E+03    0.30559E-09   -0.12046E-10   294   0.112E-10    0.349E-10
RMM:   2    -0.303507319892E+03    0.42928E-09    0.00000E+00     1   0.894E-11
 291 F= -.30350732E+03 E0= -.30354932E+03  d E =-.945874E-10
       N       E                     dE             d eps       ncg     rms          rms(c)
DAV:   1    -0.303507319892E+03    0.87311E-10    0.23269E-11   294   0.312E-10    0.227E-10
RMM:   2    -0.303507319891E+03    0.37107E-09    0.00000E+00     1   0.920E-11
 292 F= -.30350732E+03 E0= -.30354932E+03  d E =0.291038E-10
       N       E                     dE             d eps       ncg     rms          rms(c)
DAV:   1    -0.303507319891E+03    0.85856E-09    0.12505E-10   294   0.232E-10    0.255E-10
RMM:   2    -0.303507319891E+03   -0.44383E-09    0.00000E+00     1   0.818E-11
 293 F= -.30350732E+03 E0= -.30354932E+03  d E =0.436557E-10
       N       E                     dE             d eps       ncg     rms          rms(c)
DAV:   1    -0.303507319890E+03    0.12078E-08   -0.77057E-11   294   0.200E-10    0.295E-10
RMM:   2    -0.303507319891E+03   -0.15643E-08    0.00000E+00     1   0.893E-11
 294 F= -.30350732E+03 E0= -.30354932E+03  d E =0.873115E-10
       N       E                     dE             d eps       ncg     rms          rms(c)
DAV:   1    -0.303507319891E+03   -0.11787E-08    0.11291E-10   294   0.280E-10    0.333E-10
RMM:   2    -0.303507319891E+03   -0.47294E-09    0.00000E+00     1   0.105E-10
 295 F= -.30350732E+03 E0= -.30354932E+03  d E =-.873115E-10
       N       E                     dE             d eps       ncg     rms          rms(c)
DAV:   1    -0.303507319892E+03   -0.66939E-09    0.58628E-11   294   0.318E-10    0.218E-10
RMM:   2    -0.303507319891E+03    0.24738E-09    0.00000E+00     1   0.947E-11
 296 F= -.30350732E+03 E0= -.30354932E+03  d E =0.509317E-10
       N       E                     dE             d eps       ncg     rms          rms(c)
DAV:   1    -0.303507319893E+03   -0.89494E-09   -0.10918E-10   294   0.270E-10    0.287E-10
RMM:   2    -0.303507319892E+03    0.10332E-08    0.00000E+00     1   0.949E-11
 297 F= -.30350732E+03 E0= -.30354932E+03  d E =-.109139E-09
       N       E                     dE             d eps       ncg     rms          rms(c)
DAV:   1    -0.303507319892E+03    0.72032E-09    0.64287E-11   294   0.321E-10    0.302E-10
RMM:   2    -0.303507319891E+03    0.34197E-09    0.00000E+00     1   0.105E-10
 298 F= -.30350732E+03 E0= -.30354932E+03  d E =0.291038E-10
       N       E                     dE             d eps       ncg     rms          rms(c)
DAV:   1    -0.303507319891E+03    0.34925E-09   -0.16268E-11   294   0.321E-10    0.256E-10
RMM:   2    -0.303507319891E+03    0.21828E-10    0.00000E+00     1   0.857E-11
 299 F= -.30350732E+03 E0= -.30354932E+03  d E =0.291038E-10
       N       E                     dE             d eps       ncg     rms          rms(c)
DAV:   1    -0.303507319891E+03    0.88767E-09    0.66187E-11   294   0.212E-10    0.221E-10
RMM:   2    -0.303507319891E+03   -0.90949E-09    0.00000E+00     1   0.709E-11
 300 F= -.30350732E+03 E0= -.30354932E+03  d E =-.436557E-10
