 running on   32 total cores
 distrk:  each k-point on   32 cores,    1 groups
 distr:  one band on    1 cores,   32 groups
 vasp.6.3.2 27Jun22 (build Mar 25 2024 10:42:18) complex                         
 POSCAR found type information on POSCAR NaS 
 POSCAR found :  2 types and     112 ions
 -----------------------------------------------------------------------------
|                                                                             |
|           W    W    AA    RRRRR   N    N  II  N    N   GGGG   !!!           |
|           W    W   A  A   R    R  NN   N  II  NN   N  G    G  !!!           |
|           W    W  A    A  R    R  N N  N  II  N N  N  G       !!!           |
|           W WW W  AAAAAA  RRRRR   N  N N  II  N  N N  G  GGG   !            |
|           WW  WW  A    A  R   R   N   NN  II  N   NN  G    G                |
|           W    W  A    A  R    R  N    N  II  N    N   GGGG   !!!           |
|                                                                             |
|     You use a magnetic or noncollinear calculation, but did not specify     |
|     the initial magnetic moment with the MAGMOM tag. Note that a            |
|     default of 1 will be used for all atoms. This ferromagnetic setup       |
|     may break the symmetry of the crystal, in particular it may rule        |
|     out finding an antiferromagnetic solution. Thence, we recommend         |
|     setting the initial magnetic moment manually or verifying carefully     |
|     that this magnetic setup is desired.                                    |
|                                                                             |
 -----------------------------------------------------------------------------

 -----------------------------------------------------------------------------
|                                                                             |
|           W    W    AA    RRRRR   N    N  II  N    N   GGGG   !!!           |
|           W    W   A  A   R    R  NN   N  II  NN   N  G    G  !!!           |
|           W    W  A    A  R    R  N N  N  II  N N  N  G       !!!           |
|           W WW W  AAAAAA  RRRRR   N  N N  II  N  N N  G  GGG   !            |
|           WW  WW  A    A  R   R   N   NN  II  N   NN  G    G                |
|           W    W  A    A  R    R  N    N  II  N    N   GGGG   !!!           |
|                                                                             |
|     For optimal performance we recommend to set                             |
|       NCORE = 2 up to number-of-cores-per-socket                            |
|     NCORE specifies how many cores store one orbital (NPAR=cpu/NCORE).      |
|     This setting can greatly improve the performance of VASP for DFT.       |
|     The default, NCORE=1 might be grossly inefficient on modern             |
|     multi-core architectures or massively parallel machines. Do your        |
|     own testing! More info at https://www.vasp.at/wiki/index.php/NCORE      |
|     Unfortunately you need to use the default for GW and RPA                |
|     calculations (for HF NCORE is supported but not extensively tested      |
|     yet).                                                                   |
|                                                                             |
 -----------------------------------------------------------------------------

 -----------------------------------------------------------------------------
|                                                                             |
|               ----> ADVICE to this user running VASP <----                  |
|                                                                             |
|     You have a (more or less) 'large supercell' and for larger cells it     |
|     might be more efficient to use real-space projection operators.         |
|     Therefore, try LREAL= Auto in the INCAR file.                           |
|     Mind: For very accurate calculation, you might also keep the            |
|     reciprocal projection scheme (i.e. LREAL=.FALSE.).                      |
|                                                                             |
 -----------------------------------------------------------------------------

 LDA part: xc-table for Pade appr. of Perdew
 POSCAR, INCAR and KPOINTS ok, starting setup
 FFT: planning ... GRIDC
 FFT: planning ... GRID_SOFT
 FFT: planning ... GRID
 WAVECAR not read
 entering main loop
       N       E                     dE             d eps       ncg     rms          rms(c)
DAV:   1     0.643542154974E+04    0.64354E+04   -0.31019E+05 13888   0.140E+03
DAV:   2     0.487570476329E+03   -0.59479E+04   -0.55952E+04 15232   0.337E+02
DAV:   3    -0.366015350740E+03   -0.85359E+03   -0.83540E+03 17024   0.145E+02
DAV:   4    -0.408461638610E+03   -0.42446E+02   -0.41869E+02 16576   0.331E+01
DAV:   5    -0.410403269771E+03   -0.19416E+01   -0.19392E+01 18784   0.693E+00    0.947E+01
DAV:   6    -0.273202147955E+03    0.13720E+03   -0.35799E+02 14912   0.243E+01    0.561E+01
DAV:   7    -0.319805034706E+03   -0.46603E+02   -0.78519E+01 15328   0.125E+01    0.313E+01
DAV:   8    -0.372812910346E+03   -0.53008E+02   -0.45741E+01 14432   0.789E+00    0.141E+01
DAV:   9    -0.401054278929E+03   -0.28241E+02   -0.26658E+01 15584   0.514E+00    0.822E+00
DAV:  10    -0.423461148349E+03   -0.22407E+02   -0.32966E+01 15424   0.587E+00    0.422E+00
DAV:  11    -0.428066603636E+03   -0.46055E+01   -0.86335E+00 15424   0.328E+00    0.371E+00
DAV:  12    -0.428108070835E+03   -0.41467E-01   -0.48701E-01 15584   0.114E+00    0.283E+00
DAV:  13    -0.428383794907E+03   -0.27572E+00   -0.74184E-01 15808   0.992E-01    0.185E+00
DAV:  14    -0.428467928050E+03   -0.84133E-01   -0.94654E-02 14368   0.573E-01    0.791E-01
DAV:  15    -0.428474067309E+03   -0.61393E-02   -0.22289E-02 16032   0.207E-01    0.357E-01
DAV:  16    -0.428477074894E+03   -0.30076E-02   -0.71192E-03 15904   0.115E-01    0.177E-01
DAV:  17    -0.428477182164E+03   -0.10727E-03   -0.15477E-03 15328   0.583E-02    0.763E-02
DAV:  18    -0.428477238787E+03   -0.56623E-04   -0.48273E-04 14336   0.408E-02    0.565E-02
DAV:  19    -0.428477279636E+03   -0.40849E-04   -0.79006E-05 16448   0.145E-02    0.245E-02
DAV:  20    -0.428477285116E+03   -0.54800E-05   -0.39160E-05 14496   0.117E-02    0.811E-03
DAV:  21    -0.428477284801E+03    0.31484E-06   -0.82386E-06 14464   0.578E-03    0.725E-03
DAV:  22    -0.428477285481E+03   -0.68005E-06   -0.11759E-06 15936   0.211E-03    0.482E-03
DAV:  23    -0.428477285675E+03   -0.19386E-06   -0.31066E-07 15456   0.968E-04    0.210E-03
DAV:  24    -0.428477285323E+03    0.35234E-06   -0.19159E-07 14976   0.556E-04    0.438E-04
DAV:  25    -0.428477285312E+03    0.10557E-07   -0.27112E-08 13408   0.325E-04    0.267E-04
DAV:  26    -0.428477285357E+03   -0.44965E-07   -0.50542E-09 14048   0.127E-04    0.157E-04
DAV:  27    -0.428477285363E+03   -0.64101E-08   -0.21102E-09 11520   0.666E-05    0.105E-04
DAV:  28    -0.428477285353E+03    0.10776E-07   -0.76136E-10  8896   0.344E-05    0.470E-05
DAV:  29    -0.428477285335E+03    0.17266E-07   -0.63518E-11  8064   0.181E-05    0.350E-05
DAV:  30    -0.428477285345E+03   -0.94151E-08   -0.40731E-10  8064   0.127E-05    0.292E-05
DAV:  31    -0.428477285337E+03    0.77853E-08   -0.22188E-10  8064   0.714E-06    0.265E-05
DAV:  32    -0.428477285350E+03   -0.12777E-07    0.36740E-12  8064   0.446E-06    0.257E-05
DAV:  33    -0.428477285328E+03    0.21857E-07   -0.19718E-10  8064   0.287E-06    0.256E-05
DAV:  34    -0.428477285347E+03   -0.19485E-07   -0.23522E-10  8064   0.205E-06    0.256E-05
DAV:  35    -0.428477285348E+03   -0.50932E-09   -0.12282E-10  8064   0.131E-06
   1 F= -.42847729E+03 E0= -.42847729E+03  d E =0.000000E+00  mag=    -0.0000
