phonopy:
  version: "2.22.0"
  frequency_unit_conversion_factor: 15.633302
  symmetry_tolerance: 1.00000e-05
  configuration:
    create_displacements: ".true."
    dim: "3 3 1"

physical_unit:
  atomic_mass: "AMU"
  length: "angstrom"
  force_constants: "eV/angstrom^2"

space_group:
  type: "P6_3/mmc"
  number: 194
  Hall_symbol: "-P 6c 2c"

supercell_matrix:
- [   3,   0,   0 ]
- [   0,   3,   0 ]
- [   0,   0,   1 ]

primitive_cell:
  lattice:
  - [     2.255564470963634,    -3.906752263456229,     0.000000000000000 ] # a
  - [     2.255564470963634,     3.906752263456229,     0.000000000000000 ] # b
  - [     0.000000000000000,     0.000000000000000,    10.292596541176540 ] # c
  points:
  - symbol: Na # 1
    coordinates: [  0.000000000000000,  0.000000000000000,  0.000000000000000 ]
    mass: 22.989769
  - symbol: Na # 2
    coordinates: [  0.000000000000000,  0.000000000000000,  0.500000000000000 ]
    mass: 22.989769
  - symbol: Na # 3
    coordinates: [  0.333333333333336,  0.666666666666664,  0.250000000000000 ]
    mass: 22.989769
  - symbol: Na # 4
    coordinates: [  0.666666666666664,  0.333333333333336,  0.750000000000000 ]
    mass: 22.989769
  - symbol: S  # 5
    coordinates: [  0.333333333333336,  0.666666666666664,  0.644615105398446 ]
    mass: 32.065000
  - symbol: S  # 6
    coordinates: [  0.666666666666664,  0.333333333333336,  0.144615105398445 ]
    mass: 32.065000
  - symbol: S  # 7
    coordinates: [  0.666666666666664,  0.333333333333336,  0.355384894601554 ]
    mass: 32.065000
  - symbol: S  # 8
    coordinates: [  0.333333333333336,  0.666666666666664,  0.855384894601554 ]
    mass: 32.065000
  reciprocal_lattice: # without 2pi
  - [     0.221674000648887,    -0.127983543946976,     0.000000000000000 ] # a*
  - [     0.221674000648887,     0.127983543946976,     0.000000000000000 ] # b*
  - [     0.000000000000000,     0.000000000000000,     0.097157213536876 ] # c*

unit_cell:
  lattice:
  - [     2.255564470963634,    -3.906752263456229,    -0.000000000000000 ] # a
  - [     2.255564470963634,     3.906752263456229,     0.000000000000000 ] # b
  - [     0.000000000000000,    -0.000000000000000,    10.292596541176540 ] # c
  points:
  - symbol: Na # 1
    coordinates: [ -0.000000000000000,  0.000000000000000,  0.000000000000000 ]
    mass: 22.989769
    reduced_to: 1
  - symbol: Na # 2
    coordinates: [ -0.000000000000000,  0.000000000000000,  0.500000000000000 ]
    mass: 22.989769
    reduced_to: 2
  - symbol: Na # 3
    coordinates: [  0.333333333333336,  0.666666666666664,  0.250000000000000 ]
    mass: 22.989769
    reduced_to: 3
  - symbol: Na # 4
    coordinates: [  0.666666666666664,  0.333333333333336,  0.750000000000000 ]
    mass: 22.989769
    reduced_to: 4
  - symbol: S  # 5
    coordinates: [  0.333333333333336,  0.666666666666664,  0.644615105398446 ]
    mass: 32.065000
    reduced_to: 5
  - symbol: S  # 6
    coordinates: [  0.666666666666664,  0.333333333333336,  0.144615105398445 ]
    mass: 32.065000
    reduced_to: 6
  - symbol: S  # 7
    coordinates: [  0.666666666666664,  0.333333333333336,  0.355384894601554 ]
    mass: 32.065000
    reduced_to: 7
  - symbol: S  # 8
    coordinates: [  0.333333333333336,  0.666666666666664,  0.855384894601554 ]
    mass: 32.065000
    reduced_to: 8

supercell:
  lattice:
  - [     6.766693412890902,   -11.720256790368687,     0.000000000000000 ] # a
  - [     6.766693412890902,    11.720256790368687,     0.000000000000000 ] # b
  - [     0.000000000000000,     0.000000000000000,    10.292596541176540 ] # c
  points:
  - symbol: Na # 1
    coordinates: [  0.000000000000000,  0.000000000000000,  0.000000000000000 ]
    mass: 22.989769
    reduced_to: 1
  - symbol: Na # 2
    coordinates: [  0.333333333333333,  0.000000000000000,  0.000000000000000 ]
    mass: 22.989769
    reduced_to: 1
  - symbol: Na # 3
    coordinates: [  0.666666666666667,  0.000000000000000,  0.000000000000000 ]
    mass: 22.989769
    reduced_to: 1
  - symbol: Na # 4
    coordinates: [  0.000000000000000,  0.333333333333333,  0.000000000000000 ]
    mass: 22.989769
    reduced_to: 1
  - symbol: Na # 5
    coordinates: [  0.333333333333333,  0.333333333333333,  0.000000000000000 ]
    mass: 22.989769
    reduced_to: 1
  - symbol: Na # 6
    coordinates: [  0.666666666666667,  0.333333333333333,  0.000000000000000 ]
    mass: 22.989769
    reduced_to: 1
  - symbol: Na # 7
    coordinates: [  0.000000000000000,  0.666666666666667,  0.000000000000000 ]
    mass: 22.989769
    reduced_to: 1
  - symbol: Na # 8
    coordinates: [  0.333333333333333,  0.666666666666667,  0.000000000000000 ]
    mass: 22.989769
    reduced_to: 1
  - symbol: Na # 9
    coordinates: [  0.666666666666667,  0.666666666666667,  0.000000000000000 ]
    mass: 22.989769
    reduced_to: 1
  - symbol: Na # 10
    coordinates: [  0.000000000000000,  0.000000000000000,  0.500000000000000 ]
    mass: 22.989769
    reduced_to: 10
  - symbol: Na # 11
    coordinates: [  0.333333333333333,  0.000000000000000,  0.500000000000000 ]
    mass: 22.989769
    reduced_to: 10
  - symbol: Na # 12
    coordinates: [  0.666666666666667,  0.000000000000000,  0.500000000000000 ]
    mass: 22.989769
    reduced_to: 10
  - symbol: Na # 13
    coordinates: [  0.000000000000000,  0.333333333333333,  0.500000000000000 ]
    mass: 22.989769
    reduced_to: 10
  - symbol: Na # 14
    coordinates: [  0.333333333333333,  0.333333333333333,  0.500000000000000 ]
    mass: 22.989769
    reduced_to: 10
  - symbol: Na # 15
    coordinates: [  0.666666666666667,  0.333333333333333,  0.500000000000000 ]
    mass: 22.989769
    reduced_to: 10
  - symbol: Na # 16
    coordinates: [  0.000000000000000,  0.666666666666667,  0.500000000000000 ]
    mass: 22.989769
    reduced_to: 10
  - symbol: Na # 17
    coordinates: [  0.333333333333333,  0.666666666666667,  0.500000000000000 ]
    mass: 22.989769
    reduced_to: 10
  - symbol: Na # 18
    coordinates: [  0.666666666666667,  0.666666666666667,  0.500000000000000 ]
    mass: 22.989769
    reduced_to: 10
  - symbol: Na # 19
    coordinates: [  0.111111111111112,  0.222222222222221,  0.250000000000000 ]
    mass: 22.989769
    reduced_to: 19
  - symbol: Na # 20
    coordinates: [  0.444444444444445,  0.222222222222221,  0.250000000000000 ]
    mass: 22.989769
    reduced_to: 19
  - symbol: Na # 21
    coordinates: [  0.777777777777779,  0.222222222222221,  0.250000000000000 ]
    mass: 22.989769
    reduced_to: 19
  - symbol: Na # 22
    coordinates: [  0.111111111111112,  0.555555555555555,  0.250000000000000 ]
    mass: 22.989769
    reduced_to: 19
  - symbol: Na # 23
    coordinates: [  0.444444444444445,  0.555555555555555,  0.250000000000000 ]
    mass: 22.989769
    reduced_to: 19
  - symbol: Na # 24
    coordinates: [  0.777777777777779,  0.555555555555555,  0.250000000000000 ]
    mass: 22.989769
    reduced_to: 19
  - symbol: Na # 25
    coordinates: [  0.111111111111112,  0.888888888888888,  0.250000000000000 ]
    mass: 22.989769
    reduced_to: 19
  - symbol: Na # 26
    coordinates: [  0.444444444444445,  0.888888888888888,  0.250000000000000 ]
    mass: 22.989769
    reduced_to: 19
  - symbol: Na # 27
    coordinates: [  0.777777777777779,  0.888888888888888,  0.250000000000000 ]
    mass: 22.989769
    reduced_to: 19
  - symbol: Na # 28
    coordinates: [  0.222222222222221,  0.111111111111112,  0.750000000000000 ]
    mass: 22.989769
    reduced_to: 28
  - symbol: Na # 29
    coordinates: [  0.555555555555555,  0.111111111111112,  0.750000000000000 ]
    mass: 22.989769
    reduced_to: 28
  - symbol: Na # 30
    coordinates: [  0.888888888888888,  0.111111111111112,  0.750000000000000 ]
    mass: 22.989769
    reduced_to: 28
  - symbol: Na # 31
    coordinates: [  0.222222222222221,  0.444444444444445,  0.750000000000000 ]
    mass: 22.989769
    reduced_to: 28
  - symbol: Na # 32
    coordinates: [  0.555555555555555,  0.444444444444445,  0.750000000000000 ]
    mass: 22.989769
    reduced_to: 28
  - symbol: Na # 33
    coordinates: [  0.888888888888888,  0.444444444444445,  0.750000000000000 ]
    mass: 22.989769
    reduced_to: 28
  - symbol: Na # 34
    coordinates: [  0.222222222222221,  0.777777777777779,  0.750000000000000 ]
    mass: 22.989769
    reduced_to: 28
  - symbol: Na # 35
    coordinates: [  0.555555555555555,  0.777777777777779,  0.750000000000000 ]
    mass: 22.989769
    reduced_to: 28
  - symbol: Na # 36
    coordinates: [  0.888888888888888,  0.777777777777779,  0.750000000000000 ]
    mass: 22.989769
    reduced_to: 28
  - symbol: S  # 37
    coordinates: [  0.111111111111112,  0.222222222222221,  0.644615105398446 ]
    mass: 32.065000
    reduced_to: 37
  - symbol: S  # 38
    coordinates: [  0.444444444444445,  0.222222222222221,  0.644615105398446 ]
    mass: 32.065000
    reduced_to: 37
  - symbol: S  # 39
    coordinates: [  0.777777777777779,  0.222222222222221,  0.644615105398446 ]
    mass: 32.065000
    reduced_to: 37
  - symbol: S  # 40
    coordinates: [  0.111111111111112,  0.555555555555555,  0.644615105398446 ]
    mass: 32.065000
    reduced_to: 37
  - symbol: S  # 41
    coordinates: [  0.444444444444445,  0.555555555555555,  0.644615105398446 ]
    mass: 32.065000
    reduced_to: 37
  - symbol: S  # 42
    coordinates: [  0.777777777777779,  0.555555555555555,  0.644615105398446 ]
    mass: 32.065000
    reduced_to: 37
  - symbol: S  # 43
    coordinates: [  0.111111111111112,  0.888888888888888,  0.644615105398446 ]
    mass: 32.065000
    reduced_to: 37
  - symbol: S  # 44
    coordinates: [  0.444444444444445,  0.888888888888888,  0.644615105398446 ]
    mass: 32.065000
    reduced_to: 37
  - symbol: S  # 45
    coordinates: [  0.777777777777779,  0.888888888888888,  0.644615105398446 ]
    mass: 32.065000
    reduced_to: 37
  - symbol: S  # 46
    coordinates: [  0.222222222222221,  0.111111111111112,  0.144615105398445 ]
    mass: 32.065000
    reduced_to: 46
  - symbol: S  # 47
    coordinates: [  0.555555555555555,  0.111111111111112,  0.144615105398445 ]
    mass: 32.065000
    reduced_to: 46
  - symbol: S  # 48
    coordinates: [  0.888888888888888,  0.111111111111112,  0.144615105398445 ]
    mass: 32.065000
    reduced_to: 46
  - symbol: S  # 49
    coordinates: [  0.222222222222221,  0.444444444444445,  0.144615105398445 ]
    mass: 32.065000
    reduced_to: 46
  - symbol: S  # 50
    coordinates: [  0.555555555555555,  0.444444444444445,  0.144615105398445 ]
    mass: 32.065000
    reduced_to: 46
  - symbol: S  # 51
    coordinates: [  0.888888888888888,  0.444444444444445,  0.144615105398445 ]
    mass: 32.065000
    reduced_to: 46
  - symbol: S  # 52
    coordinates: [  0.222222222222221,  0.777777777777779,  0.144615105398445 ]
    mass: 32.065000
    reduced_to: 46
  - symbol: S  # 53
    coordinates: [  0.555555555555555,  0.777777777777779,  0.144615105398445 ]
    mass: 32.065000
    reduced_to: 46
  - symbol: S  # 54
    coordinates: [  0.888888888888888,  0.777777777777779,  0.144615105398445 ]
    mass: 32.065000
    reduced_to: 46
  - symbol: S  # 55
    coordinates: [  0.222222222222221,  0.111111111111112,  0.355384894601554 ]
    mass: 32.065000
    reduced_to: 55
  - symbol: S  # 56
    coordinates: [  0.555555555555555,  0.111111111111112,  0.355384894601554 ]
    mass: 32.065000
    reduced_to: 55
  - symbol: S  # 57
    coordinates: [  0.888888888888888,  0.111111111111112,  0.355384894601554 ]
    mass: 32.065000
    reduced_to: 55
  - symbol: S  # 58
    coordinates: [  0.222222222222221,  0.444444444444445,  0.355384894601554 ]
    mass: 32.065000
    reduced_to: 55
  - symbol: S  # 59
    coordinates: [  0.555555555555555,  0.444444444444445,  0.355384894601554 ]
    mass: 32.065000
    reduced_to: 55
  - symbol: S  # 60
    coordinates: [  0.888888888888888,  0.444444444444445,  0.355384894601554 ]
    mass: 32.065000
    reduced_to: 55
  - symbol: S  # 61
    coordinates: [  0.222222222222221,  0.777777777777779,  0.355384894601554 ]
    mass: 32.065000
    reduced_to: 55
  - symbol: S  # 62
    coordinates: [  0.555555555555555,  0.777777777777779,  0.355384894601554 ]
    mass: 32.065000
    reduced_to: 55
  - symbol: S  # 63
    coordinates: [  0.888888888888888,  0.777777777777779,  0.355384894601554 ]
    mass: 32.065000
    reduced_to: 55
  - symbol: S  # 64
    coordinates: [  0.111111111111112,  0.222222222222221,  0.855384894601554 ]
    mass: 32.065000
    reduced_to: 64
  - symbol: S  # 65
    coordinates: [  0.444444444444445,  0.222222222222221,  0.855384894601554 ]
    mass: 32.065000
    reduced_to: 64
  - symbol: S  # 66
    coordinates: [  0.777777777777779,  0.222222222222221,  0.855384894601554 ]
    mass: 32.065000
    reduced_to: 64
  - symbol: S  # 67
    coordinates: [  0.111111111111112,  0.555555555555555,  0.855384894601554 ]
    mass: 32.065000
    reduced_to: 64
  - symbol: S  # 68
    coordinates: [  0.444444444444445,  0.555555555555555,  0.855384894601554 ]
    mass: 32.065000
    reduced_to: 64
  - symbol: S  # 69
    coordinates: [  0.777777777777779,  0.555555555555555,  0.855384894601554 ]
    mass: 32.065000
    reduced_to: 64
  - symbol: S  # 70
    coordinates: [  0.111111111111112,  0.888888888888888,  0.855384894601554 ]
    mass: 32.065000
    reduced_to: 64
  - symbol: S  # 71
    coordinates: [  0.444444444444445,  0.888888888888888,  0.855384894601554 ]
    mass: 32.065000
    reduced_to: 64
  - symbol: S  # 72
    coordinates: [  0.777777777777779,  0.888888888888888,  0.855384894601554 ]
    mass: 32.065000
    reduced_to: 64

displacements:
- atom:    1
  displacement:
    [   0.0039797875421785, -0.0068931942263828,  0.0060535249629026 ]
- atom:   19
  displacement:
    [   0.0039797875421785, -0.0068931942263828,  0.0060535249629026 ]
- atom:   37
  displacement:
    [   0.0039797875421785, -0.0068931942263828,  0.0060535249629026 ]
- atom:   37
  displacement:
    [  -0.0039797875421785,  0.0068931942263828, -0.0060535249629026 ]
