  39  39   0   0
  0.2439952E+02  0.6834254E-09  0.1767185E-08  0.7880486E-09  0.0000000E+00
   1.0000000000000000E-004
  CAR 
 NEB_refined                             
      9.51369457    -23.81539797  301      1.07267313      1.00000000
    -23.815  0.0000E+00  0.0000E+00
    -23.704  0.0000E+00  0.0000E+00
    -23.593  0.0000E+00  0.0000E+00
    -23.482 -0.8997E-31 -0.9995E-32
    -23.371 -0.6631E-27 -0.7368E-28
    -23.260 -0.2627E-23 -0.2920E-24
    -23.149 -0.5596E-20 -0.6220E-21
    -23.038 -0.6404E-17 -0.7121E-18
    -22.927 -0.3812E-14 -0.4242E-15
    -22.816 -0.1246E-11 -0.1388E-12
    -22.704 -0.2175E-09 -0.2431E-10
    -22.593 -0.2021E-07 -0.2270E-08
    -22.482 -0.9939E-06 -0.1127E-06
    -22.371 -0.2558E-04 -0.2955E-05
    -22.260 -0.3372E-03 -0.4041E-04
    -22.149 -0.2144E-02 -0.2787E-03
    -22.038 -0.5144E-02 -0.8502E-03
    -21.927  0.6251E-02 -0.1557E-03
    -21.816  0.5772E-01  0.6257E-02
    -21.705  0.1235E+00  0.1998E-01
    -21.593  0.1401E+00  0.3554E-01
    -21.482  0.1505E+00  0.5227E-01
    -21.371  0.2729E+00  0.8259E-01
    -21.260  0.4586E+00  0.1335E+00
    -21.149  0.4956E+00  0.1886E+00
    -21.038  0.3043E+00  0.2224E+00
    -20.927  0.7762E-01  0.2310E+00
    -20.816 -0.1234E-01  0.2297E+00
    -20.705 -0.1196E-01  0.2283E+00
    -20.594 -0.2709E-02  0.2280E+00
    -20.482 -0.2823E-03  0.2280E+00
    -20.371 -0.1499E-04  0.2280E+00
    -20.260 -0.4193E-06  0.2280E+00
    -20.149 -0.6264E-08  0.2280E+00
    -20.038 -0.5027E-10  0.2280E+00
    -19.927 -0.2174E-12  0.2280E+00
    -19.816 -0.4957E-15  0.2280E+00
    -19.705  0.0000E+00  0.2280E+00
    -19.594  0.0000E+00  0.2280E+00
    -19.483  0.0000E+00  0.2280E+00
    -19.372  0.0000E+00  0.2280E+00
    -19.260  0.0000E+00  0.2280E+00
    -19.149  0.0000E+00  0.2280E+00
    -19.038  0.0000E+00  0.2280E+00
    -18.927  0.0000E+00  0.2280E+00
    -18.816  0.0000E+00  0.2280E+00
    -18.705  0.0000E+00  0.2280E+00
    -18.594  0.0000E+00  0.2280E+00
    -18.483  0.0000E+00  0.2280E+00
    -18.372  0.0000E+00  0.2280E+00
    -18.261  0.0000E+00  0.2280E+00
    -18.149  0.0000E+00  0.2280E+00
    -18.038  0.0000E+00  0.2280E+00
    -17.927  0.0000E+00  0.2280E+00
    -17.816  0.0000E+00  0.2280E+00
    -17.705  0.0000E+00  0.2280E+00
    -17.594  0.0000E+00  0.2280E+00
    -17.483  0.0000E+00  0.2280E+00
    -17.372  0.0000E+00  0.2280E+00
    -17.261  0.0000E+00  0.2280E+00
    -17.150  0.0000E+00  0.2280E+00
    -17.038  0.0000E+00  0.2280E+00
    -16.927  0.0000E+00  0.2280E+00
    -16.816  0.0000E+00  0.2280E+00
    -16.705  0.0000E+00  0.2280E+00
    -16.594  0.0000E+00  0.2280E+00
    -16.483  0.0000E+00  0.2280E+00
    -16.372  0.0000E+00  0.2280E+00
    -16.261  0.0000E+00  0.2280E+00
    -16.150  0.0000E+00  0.2280E+00
    -16.039  0.0000E+00  0.2280E+00
    -15.928  0.0000E+00  0.2280E+00
    -15.816  0.0000E+00  0.2280E+00
    -15.705  0.0000E+00  0.2280E+00
    -15.594  0.0000E+00  0.2280E+00
    -15.483  0.0000E+00  0.2280E+00
    -15.372  0.0000E+00  0.2280E+00
    -15.261  0.0000E+00  0.2280E+00
    -15.150  0.0000E+00  0.2280E+00
    -15.039  0.0000E+00  0.2280E+00
    -14.928  0.0000E+00  0.2280E+00
    -14.817  0.0000E+00  0.2280E+00
    -14.705  0.0000E+00  0.2280E+00
    -14.594  0.0000E+00  0.2280E+00
    -14.483  0.0000E+00  0.2280E+00
    -14.372  0.0000E+00  0.2280E+00
    -14.261  0.0000E+00  0.2280E+00
    -14.150 -0.5359E-30  0.2280E+00
    -14.039 -0.3547E-26  0.2280E+00
    -13.928 -0.1257E-22  0.2280E+00
    -13.817 -0.2402E-19  0.2280E+00
    -13.706 -0.2472E-16  0.2280E+00
    -13.594 -0.1327E-13  0.2280E+00
    -13.483 -0.3937E-11  0.2280E+00
    -13.372 -0.6273E-09  0.2280E+00
    -13.261 -0.5356E-07  0.2280E+00
    -13.150 -0.2436E-05  0.2280E+00
    -13.039 -0.5834E-04  0.2280E+00
    -12.928 -0.7149E-03  0.2279E+00
    -12.817 -0.4139E-02  0.2275E+00
    -12.706 -0.7810E-02  0.2266E+00
    -12.595  0.1997E-01  0.2288E+00
    -12.484  0.1117E+00  0.2412E+00
    -12.372  0.2004E+00  0.2635E+00
    -12.261  0.2026E+00  0.2860E+00
    -12.150  0.1397E+00  0.3015E+00
    -12.039  0.5972E-01  0.3081E+00
    -11.928  0.6845E-02  0.3089E+00
    -11.817 -0.5321E-02  0.3083E+00
    -11.706 -0.2345E-02  0.3080E+00
    -11.595 -0.3885E-03  0.3080E+00
    -11.484 -0.3123E-04  0.3080E+00
    -11.373 -0.1294E-05  0.3080E+00
    -11.261 -0.2819E-07  0.3080E+00
    -11.150 -0.3265E-09  0.3080E+00
    -11.039 -0.1089E-09  0.3080E+00
    -10.928 -0.9497E-08  0.3080E+00
    -10.817 -0.4426E-06  0.3080E+00
    -10.706 -0.1068E-04  0.3080E+00
    -10.595 -0.1298E-03  0.3080E+00
    -10.484 -0.7430E-03  0.3079E+00
    -10.373 -0.1467E-02  0.3077E+00
    -10.262  0.2971E-02  0.3081E+00
    -10.150  0.1979E-01  0.3103E+00
    -10.039  0.4124E-01  0.3148E+00
     -9.928  0.4595E-01  0.3200E+00
     -9.817  0.2871E-01  0.3231E+00
     -9.706  0.5808E-02  0.3238E+00
     -9.595 -0.5842E-02  0.3231E+00
     -9.484  0.1671E-01  0.3250E+00
     -9.373  0.8854E-01  0.3348E+00
     -9.262  0.1456E+00  0.3510E+00
     -9.151  0.1194E+00  0.3643E+00
     -9.040  0.5692E-01  0.3706E+00
     -8.928  0.1585E-01  0.3724E+00
     -8.817 -0.1447E-03  0.3723E+00
     -8.706 -0.2173E-02  0.3721E+00
     -8.595 -0.7607E-03  0.3720E+00
     -8.484 -0.1132E-03  0.3720E+00
     -8.373 -0.8272E-05  0.3720E+00
     -8.262 -0.3100E-06  0.3720E+00
     -8.151 -0.6073E-08  0.3720E+00
     -8.040 -0.6280E-10  0.3720E+00
     -7.929 -0.3448E-12  0.3720E+00
     -7.817 -0.1007E-14  0.3720E+00
     -7.706  0.0000E+00  0.3720E+00
     -7.595  0.0000E+00  0.3720E+00
     -7.484  0.0000E+00  0.3720E+00
     -7.373  0.0000E+00  0.3720E+00
     -7.262  0.0000E+00  0.3720E+00
     -7.151  0.0000E+00  0.3720E+00
     -7.040  0.0000E+00  0.3720E+00
     -6.929  0.0000E+00  0.3720E+00
     -6.818  0.0000E+00  0.3720E+00
     -6.706  0.0000E+00  0.3720E+00
     -6.595  0.0000E+00  0.3720E+00
     -6.484  0.0000E+00  0.3720E+00
     -6.373  0.0000E+00  0.3720E+00
     -6.262  0.0000E+00  0.3720E+00
     -6.151  0.0000E+00  0.3720E+00
     -6.040  0.0000E+00  0.3720E+00
     -5.929  0.0000E+00  0.3720E+00
     -5.818  0.0000E+00  0.3720E+00
     -5.707  0.0000E+00  0.3720E+00
     -5.595  0.0000E+00  0.3720E+00
     -5.484  0.0000E+00  0.3720E+00
     -5.373  0.0000E+00  0.3720E+00
     -5.262  0.0000E+00  0.3720E+00
     -5.151  0.0000E+00  0.3720E+00
     -5.040  0.0000E+00  0.3720E+00
     -4.929 -0.2518E-30  0.3720E+00
     -4.818 -0.1640E-26  0.3720E+00
     -4.707 -0.5730E-23  0.3720E+00
     -4.596 -0.1073E-19  0.3720E+00
     -4.485 -0.1077E-16  0.3720E+00
     -4.373 -0.5589E-14  0.3720E+00
     -4.262 -0.1587E-11  0.3720E+00
     -4.151 -0.2390E-09  0.3720E+00
     -4.040 -0.1896E-07  0.3720E+00
     -3.929 -0.7841E-06  0.3720E+00
     -3.818 -0.1659E-04  0.3720E+00
     -3.707 -0.1729E-03  0.3720E+00
     -3.596 -0.8026E-03  0.3719E+00
     -3.485 -0.9411E-03  0.3718E+00
     -3.374  0.4381E-02  0.3723E+00
     -3.262  0.1891E-01  0.3744E+00
     -3.151  0.3766E-01  0.3786E+00
     -3.040  0.4597E-01  0.3837E+00
     -2.929  0.3174E-01  0.3872E+00
     -2.818  0.9639E-02  0.3883E+00
     -2.707 -0.7069E-03  0.3882E+00
     -2.596 -0.1268E-02  0.3880E+00
     -2.485 -0.3252E-03  0.3880E+00
     -2.374 -0.3661E-04  0.3880E+00
     -2.263 -0.2045E-05  0.3880E+00
     -2.151 -0.1491E-06  0.3880E+00
     -2.040 -0.2878E-05  0.3880E+00
     -1.929 -0.4637E-04  0.3880E+00
     -1.818 -0.3606E-03  0.3880E+00
     -1.707 -0.1171E-02  0.3878E+00
     -1.596 -0.3043E-03  0.3878E+00
     -1.485  0.7596E-02  0.3886E+00
     -1.374  0.2620E-01  0.3915E+00
     -1.263  0.5661E-01  0.3978E+00
     -1.152  0.8441E-01  0.4072E+00
     -1.041  0.8321E-01  0.4165E+00
     -0.929  0.5128E-01  0.4222E+00
     -0.818  0.2278E-01  0.4247E+00
     -0.707  0.2878E-01  0.4279E+00
     -0.596  0.4141E-01  0.4325E+00
     -0.485  0.2505E-01  0.4353E+00
     -0.374  0.4650E-02  0.4358E+00
     -0.263  0.1814E-01  0.4378E+00
     -0.152  0.6196E-01  0.4447E+00
     -0.041  0.1043E+00  0.4563E+00
      0.070  0.1279E+00  0.4705E+00
      0.182  0.1245E+00  0.4843E+00
      0.293  0.1067E+00  0.4962E+00
      0.404  0.1072E+00  0.5081E+00
      0.515  0.1095E+00  0.5202E+00
      0.626  0.8533E-01  0.5297E+00
      0.737  0.6583E-01  0.5370E+00
      0.848  0.7967E-01  0.5459E+00
      0.959  0.8765E-01  0.5556E+00
      1.070  0.5661E-01  0.5619E+00
      1.181  0.1955E-01  0.5641E+00
      1.293  0.1925E-02  0.5643E+00
      1.404 -0.1705E-02  0.5641E+00
      1.515 -0.8528E-03  0.5640E+00
      1.626 -0.1617E-03  0.5640E+00
      1.737 -0.1453E-04  0.5640E+00
      1.848 -0.6552E-06  0.5640E+00
      1.959 -0.1523E-07  0.5640E+00
      2.070 -0.1850E-09  0.5640E+00
      2.181 -0.1126E-10  0.5640E+00
      2.292 -0.1209E-08  0.5640E+00
      2.403 -0.7613E-07  0.5640E+00
      2.515 -0.2477E-05  0.5640E+00
      2.626 -0.4042E-04  0.5640E+00
      2.737 -0.3072E-03  0.5640E+00
      2.848 -0.8164E-03  0.5639E+00
      2.959  0.1290E-02  0.5640E+00
      3.070  0.9941E-02  0.5651E+00
      3.181  0.1622E-01  0.5669E+00
      3.292  0.9701E-02  0.5680E+00
      3.403  0.1168E-02  0.5681E+00
      3.514 -0.8161E-03  0.5680E+00
      3.626 -0.3396E-03  0.5680E+00
      3.737 -0.4410E-03  0.5680E+00
      3.848 -0.1541E-02  0.5678E+00
      3.959 -0.1821E-03  0.5678E+00
      4.070  0.1369E-01  0.5693E+00
      4.181  0.3558E-01  0.5732E+00
      4.292  0.3894E-01  0.5776E+00
      4.403  0.2057E-01  0.5798E+00
      4.514  0.3639E-02  0.5802E+00
      4.625 -0.1333E-02  0.5801E+00
      4.737 -0.7588E-03  0.5800E+00
      4.848 -0.1422E-03  0.5800E+00
      4.959 -0.7392E-04  0.5800E+00
      5.070 -0.4960E-03  0.5799E+00
      5.181 -0.1637E-02  0.5798E+00
      5.292  0.2935E-03  0.5798E+00
      5.403  0.1522E-01  0.5815E+00
      5.514  0.3825E-01  0.5857E+00
      5.625  0.4348E-01  0.5906E+00
      5.736  0.3258E-01  0.5942E+00
      5.847  0.3784E-01  0.5984E+00
      5.959  0.6042E-01  0.6051E+00
      6.070  0.6471E-01  0.6123E+00
      6.181  0.4458E-01  0.6172E+00
      6.292  0.2015E-01  0.6195E+00
      6.403  0.5772E-02  0.6201E+00
      6.514  0.1470E-01  0.6218E+00
      6.625  0.3355E-01  0.6255E+00
      6.736  0.3874E-01  0.6298E+00
      6.847  0.4061E-01  0.6343E+00
      6.958  0.4688E-01  0.6395E+00
      7.070  0.4711E-01  0.6447E+00
      7.181  0.4526E-01  0.6498E+00
      7.292  0.4992E-01  0.6553E+00
      7.403  0.5945E-01  0.6619E+00
      7.514  0.5678E-01  0.6682E+00
      7.625  0.3169E-01  0.6717E+00
      7.736  0.5955E-02  0.6724E+00
      7.847 -0.2196E-02  0.6722E+00
      7.958 -0.1219E-02  0.6720E+00
      8.069 -0.2124E-03  0.6720E+00
      8.181 -0.1708E-04  0.6720E+00
      8.292 -0.6883E-06  0.6720E+00
      8.403 -0.1434E-07  0.6720E+00
      8.514 -0.1570E-09  0.6720E+00
      8.625 -0.9104E-12  0.6720E+00
      8.736 -0.2814E-14  0.6720E+00
      8.847  0.0000E+00  0.6720E+00
      8.958  0.0000E+00  0.6720E+00
      9.069  0.0000E+00  0.6720E+00
      9.180  0.0000E+00  0.6720E+00
      9.292  0.0000E+00  0.6720E+00
      9.403  0.0000E+00  0.6720E+00
      9.514  0.0000E+00  0.6720E+00
