 vasp.6.3.2 27Jun22 (build Jun 14 2024 17:29:11) complex                         
 POSCAR found type information on POSCAR NaInS 
 04/POSCAR found :  3 types and      39 ions
 -----------------------------------------------------------------------------
|                                                                             |
|           W    W    AA    RRRRR   N    N  II  N    N   GGGG   !!!           |
|           W    W   A  A   R    R  NN   N  II  NN   N  G    G  !!!           |
|           W    W  A    A  R    R  N N  N  II  N N  N  G       !!!           |
|           W WW W  AAAAAA  RRRRR   N  N N  II  N  N N  G  GGG   !            |
|           WW  WW  A    A  R   R   N   NN  II  N   NN  G    G                |
|           W    W  A    A  R    R  N    N  II  N    N   GGGG   !!!           |
|                                                                             |
|     The value NPAR = 9 specified in the INCAR file was overwritten,         |
|     because it was not compatible with the 3 processes available:           |
|     NPAR = 3                                                                |
|     was used instead, please check that this makes sense for your           |
|     machine.                                                                |
|                                                                             |
 -----------------------------------------------------------------------------

 LDA part: xc-table for Pade appr. of Perdew
 POSCAR found type information on POSCAR NaInS 
 00/POSCAR found :  3 types and      39 ions
 POSCAR found type information on POSCAR NaInS 
 10/POSCAR found :  3 types and      39 ions
 POSCAR, INCAR and KPOINTS ok, starting setup
 FFT: planning ... GRIDC
 FFT: planning ... GRID_SOFT
 FFT: planning ... GRID
 WAVECAR not read
 entering main loop
       N       E                     dE             d eps       ncg     rms          rms(c)
DAV:   1     0.289922623485E+04    0.28992E+04   -0.11452E+05   336   0.151E+03
DAV:   2     0.320787344814E+03   -0.25784E+04   -0.24901E+04   354   0.438E+02
DAV:   3    -0.111661966810E+03   -0.43245E+03   -0.42459E+03   396   0.195E+02
DAV:   4    -0.147096477239E+03   -0.35435E+02   -0.35152E+02   411   0.504E+01
DAV:   5    -0.148406057441E+03   -0.13096E+01   -0.13082E+01   492   0.107E+01    0.195E+01
RMM:   6    -0.139434947198E+03    0.89711E+01   -0.18240E+01   384   0.729E+00    0.122E+01
RMM:   7    -0.139209365764E+03    0.22558E+00   -0.13709E+01   396   0.507E+00    0.713E+00
RMM:   8    -0.139381542098E+03   -0.17218E+00   -0.13121E+00   379   0.327E+00    0.217E+00
RMM:   9    -0.139177684167E+03    0.20386E+00   -0.44098E-01   423   0.158E+00    0.170E+00
RMM:  10    -0.139125990484E+03    0.51694E-01   -0.13231E-01   456   0.891E-01    0.970E-01
RMM:  11    -0.139129493005E+03   -0.35025E-02   -0.39466E-02   471   0.395E-01    0.845E-01
RMM:  12    -0.139127299550E+03    0.21935E-02   -0.92060E-03   474   0.206E-01    0.599E-01
RMM:  13    -0.139135811715E+03   -0.85122E-02   -0.15318E-02   430   0.231E-01    0.296E-01
RMM:  14    -0.139133737032E+03    0.20747E-02   -0.28684E-03   377   0.115E-01    0.234E-01
RMM:  15    -0.139133055823E+03    0.68121E-03   -0.25704E-03   413   0.832E-02    0.851E-02
RMM:  16    -0.139133164743E+03   -0.10892E-03   -0.73388E-04   370   0.488E-02    0.632E-02
RMM:  17    -0.139133169271E+03   -0.45281E-05   -0.17910E-04   308   0.344E-02    0.281E-02
RMM:  18    -0.139133171224E+03   -0.19523E-05   -0.68542E-05   328   0.204E-02
   1 F= -.13913317E+03 E0= -.13914643E+03  d E =-.139133E+03
quench:  g(F)=  0.000E+00 g(S)=  0.000E+00 dE (1.order)= 0.000E+00
 bond charge predicted
       N       E                     dE             d eps       ncg     rms          rms(c)
DAV:   1    -0.139133171998E+03   -0.27268E-05   -0.10521E-05   219   0.119E-02    0.287E-02
RMM:   2    -0.139133175358E+03   -0.33599E-05   -0.64524E-06   195   0.962E-03
   2 F= -.13913318E+03 E0= -.13914643E+03  d E =-.413432E-05
quench:  g(F)=  0.000E+00 g(S)=  0.000E+00 dE (1.order)= 0.000E+00
 bond charge predicted
       N       E                     dE             d eps       ncg     rms          rms(c)
DAV:   1    -0.139133184572E+03   -0.12574E-04   -0.10154E-04   249   0.158E-02    0.173E-02
RMM:   2    -0.139133216836E+03   -0.32264E-04   -0.20689E-05   238   0.773E-03    0.356E-02
RMM:   3    -0.139133177805E+03    0.39031E-04   -0.13678E-05   229   0.749E-03    0.621E-03
RMM:   4    -0.139133178253E+03   -0.44820E-06   -0.44140E-06   183   0.624E-03
   3 F= -.13913318E+03 E0= -.13914643E+03  d E =-.289524E-05
quench:  g(F)=  0.000E+00 g(S)=  0.000E+00 dE (1.order)= 0.000E+00
 bond charge predicted
       N       E                     dE             d eps       ncg     rms          rms(c)
DAV:   1    -0.139133178296E+03   -0.49088E-06   -0.38769E-06   213   0.615E-03    0.144E-03
RMM:   2    -0.139133178345E+03   -0.49255E-07   -0.43093E-07   133   0.224E-03
   4 F= -.13913318E+03 E0= -.13914643E+03  d E =-.919354E-07
quench:  g(F)=  0.000E+00 g(S)=  0.000E+00 dE (1.order)= 0.000E+00
 bond charge predicted
       N       E                     dE             d eps       ncg     rms          rms(c)
DAV:   1    -0.139133178392E+03   -0.96319E-07   -0.36010E-07   213   0.227E-03    0.101E-03
RMM:   2    -0.139133178404E+03   -0.11350E-07    0.82257E-54    36   0.123E-03
   5 F= -.13913318E+03 E0= -.13914643E+03  d E =-.584150E-07
quench:  g(F)=  0.000E+00 g(S)=  0.000E+00 dE (1.order)= 0.000E+00
 bond charge predicted
       N       E                     dE             d eps       ncg     rms          rms(c)
DAV:   1    -0.139133178388E+03    0.41182E-08   -0.36097E-07   213   0.144E-03    0.714E-04
RMM:   2    -0.139133178403E+03   -0.15028E-07    0.34356-110    31   0.905E-04
   6 F= -.13913318E+03 E0= -.13914643E+03  d E =0.440195E-09
quench:  g(F)=  0.000E+00 g(S)=  0.000E+00 dE (1.order)= 0.000E+00
 bond charge predicted
       N       E                     dE             d eps       ncg     rms          rms(c)
DAV:   1    -0.139133178407E+03   -0.19310E-07   -0.16506E-07   213   0.980E-04    0.580E-04
RMM:   2    -0.139133178400E+03    0.75743E-08    0.17865-258    23   0.746E-04
   7 F= -.13913318E+03 E0= -.13914643E+03  d E =0.329237E-08
quench:  g(F)=  0.000E+00 g(S)=  0.000E+00 dE (1.order)= 0.000E+00
 bond charge predicted
       N       E                     dE             d eps       ncg     rms          rms(c)
DAV:   1    -0.139133178392E+03    0.15069E-07   -0.11691E-07   213   0.844E-04    0.424E-04
RMM:   2    -0.139133178399E+03   -0.65629E-08    0.89661-228    22   0.568E-04
   8 F= -.13913318E+03 E0= -.13914643E+03  d E =0.931323E-09
quench:  g(F)=  0.000E+00 g(S)=  0.000E+00 dE (1.order)= 0.000E+00
 bond charge predicted
       N       E                     dE             d eps       ncg     rms          rms(c)
DAV:   1    -0.139133178401E+03   -0.84729E-08   -0.60480E-08   204   0.605E-04    0.363E-04
RMM:   2    -0.139133178394E+03    0.72723E-08    0.54314-259    17   0.496E-04
   9 F= -.13913318E+03 E0= -.13914643E+03  d E =0.536238E-08
quench:  g(F)=  0.000E+00 g(S)=  0.000E+00 dE (1.order)= 0.000E+00
 bond charge predicted
       N       E                     dE             d eps       ncg     rms          rms(c)
DAV:   1    -0.139133178390E+03    0.10750E-07   -0.40085E-08   213   0.555E-04    0.246E-04
RMM:   2    -0.139133178394E+03   -0.40309E-08    0.85306-268    16   0.328E-04
  10 F= -.13913318E+03 E0= -.13914643E+03  d E =-.552973E-09
quench:  g(F)=  0.000E+00 g(S)=  0.000E+00 dE (1.order)= 0.000E+00
 bond charge predicted
       N       E                     dE             d eps       ncg     rms          rms(c)
DAV:   1    -0.139133178395E+03   -0.46639E-08   -0.19473E-08   186   0.355E-04    0.281E-04
RMM:   2    -0.139133178391E+03    0.39363E-08    0.00000E+00    12   0.283E-04
  11 F= -.13913318E+03 E0= -.13914643E+03  d E =0.330328E-08
quench:  g(F)=  0.000E+00 g(S)=  0.000E+00 dE (1.order)= 0.000E+00
 bond charge predicted
       N       E                     dE             d eps       ncg     rms          rms(c)
DAV:   1    -0.139133178389E+03    0.56498E-08   -0.16305E-08   186   0.321E-04    0.175E-04
RMM:   2    -0.139133178393E+03   -0.34706E-08    0.00000E+00    12   0.196E-04
  12 F= -.13913318E+03 E0= -.13914643E+03  d E =-.175714E-08
quench:  g(F)=  0.000E+00 g(S)=  0.000E+00 dE (1.order)= 0.000E+00
 bond charge predicted
       N       E                     dE             d eps       ncg     rms          rms(c)
DAV:   1    -0.139133178392E+03   -0.33433E-08   -0.13491E-08   186   0.238E-04    0.109E-04
RMM:   2    -0.139133178389E+03    0.32123E-08    0.00000E+00    10   0.168E-04
  13 F= -.13913318E+03 E0= -.13914643E+03  d E =0.333966E-08
quench:  g(F)=  0.000E+00 g(S)=  0.000E+00 dE (1.order)= 0.000E+00
 bond charge predicted
       N       E                     dE             d eps       ncg     rms          rms(c)
DAV:   1    -0.139133178389E+03    0.37398E-08   -0.36492E-09   186   0.174E-04    0.123E-04
RMM:   2    -0.139133178390E+03   -0.14443E-08    0.00000E+00    10   0.135E-04
  14 F= -.13913318E+03 E0= -.13914643E+03  d E =-.916771E-09
quench:  g(F)=  0.000E+00 g(S)=  0.000E+00 dE (1.order)= 0.000E+00
 bond charge predicted
       N       E                     dE             d eps       ncg     rms          rms(c)
DAV:   1    -0.139133178390E+03   -0.11896E-08   -0.43189E-09   186   0.160E-04    0.687E-05
RMM:   2    -0.139133178389E+03    0.13279E-08    0.00000E+00    10   0.939E-05
  15 F= -.13913318E+03 E0= -.13914643E+03  d E =0.158252E-08
quench:  g(F)=  0.000E+00 g(S)=  0.000E+00 dE (1.order)= 0.000E+00
 bond charge predicted
       N       E                     dE             d eps       ncg     rms          rms(c)
DAV:   1    -0.139133178388E+03    0.13715E-08   -0.16367E-09   186   0.102E-04    0.611E-05
RMM:   2    -0.139133178389E+03   -0.34561E-09    0.00000E+00    10   0.767E-05
  16 F= -.13913318E+03 E0= -.13914643E+03  d E =-.301952E-09
quench:  g(F)=  0.000E+00 g(S)=  0.000E+00 dE (1.order)= 0.000E+00
 bond charge predicted
       N       E                     dE             d eps       ncg     rms          rms(c)
DAV:   1    -0.139133178390E+03   -0.15571E-08   -0.87515E-10   186   0.849E-05    0.458E-05
RMM:   2    -0.139133178388E+03    0.23065E-08    0.00000E+00     7   0.590E-05
  17 F= -.13913318E+03 E0= -.13914643E+03  d E =0.109503E-08
quench:  g(F)=  0.000E+00 g(S)=  0.000E+00 dE (1.order)= 0.000E+00
 bond charge predicted
       N       E                     dE             d eps       ncg     rms          rms(c)
DAV:   1    -0.139133178388E+03    0.16880E-08   -0.76334E-10   186   0.691E-05    0.312E-05
RMM:   2    -0.139133178388E+03    0.22192E-09    0.00000E+00     7   0.475E-05
  18 F= -.13913318E+03 E0= -.13914643E+03  d E =-.396540E-09
quench:  g(F)=  0.000E+00 g(S)=  0.000E+00 dE (1.order)= 0.000E+00
 bond charge predicted
       N       E                     dE             d eps       ncg     rms          rms(c)
DAV:   1    -0.139133178389E+03   -0.41473E-09   -0.31649E-10   186   0.501E-05    0.389E-05
RMM:   2    -0.139133178388E+03    0.11896E-08    0.00000E+00     6   0.408E-05
  19 F= -.13913318E+03 E0= -.13914643E+03  d E =0.552973E-09
quench:  g(F)=  0.000E+00 g(S)=  0.000E+00 dE (1.order)= 0.000E+00
 bond charge predicted
       N       E                     dE             d eps       ncg     rms          rms(c)
DAV:   1    -0.139133178387E+03    0.15898E-08   -0.34929E-10   186   0.480E-05    0.222E-05
RMM:   2    -0.139133178388E+03   -0.56389E-09    0.00000E+00     6   0.289E-05
  20 F= -.13913318E+03 E0= -.13914643E+03  d E =-.163709E-09
quench:  g(F)=  0.000E+00 g(S)=  0.000E+00 dE (1.order)= 0.000E+00
 bond charge predicted
       N       E                     dE             d eps       ncg     rms          rms(c)
DAV:   1    -0.139133178388E+03   -0.81491E-09   -0.18731E-10   186   0.332E-05    0.159E-05
RMM:   2    -0.139133178387E+03    0.54933E-09    0.00000E+00     4   0.241E-05
  21 F= -.13913318E+03 E0= -.13914643E+03  d E =0.298314E-09
quench:  g(F)=  0.000E+00 g(S)=  0.000E+00 dE (1.order)= 0.000E+00
 bond charge predicted
       N       E                     dE             d eps       ncg     rms          rms(c)
DAV:   1    -0.139133178387E+03    0.13242E-08   -0.36991E-11   186   0.257E-05    0.158E-05
RMM:   2    -0.139133178388E+03   -0.93496E-09    0.00000E+00     5   0.194E-05
  22 F= -.13913318E+03 E0= -.13914643E+03  d E =-.160071E-09
quench:  g(F)=  0.000E+00 g(S)=  0.000E+00 dE (1.order)= 0.000E+00
 bond charge predicted
       N       E                     dE             d eps       ncg     rms          rms(c)
DAV:   1    -0.139133178387E+03   -0.49477E-09   -0.15007E-10   186   0.227E-05    0.953E-06
RMM:   2    -0.139133178387E+03   -0.30923E-09    0.00000E+00     4   0.146E-05
  23 F= -.13913318E+03 E0= -.13914643E+03  d E =0.130967E-09
quench:  g(F)=  0.000E+00 g(S)=  0.000E+00 dE (1.order)= 0.000E+00
 bond charge predicted
       N       E                     dE             d eps       ncg     rms          rms(c)
DAV:   1    -0.139133178388E+03   -0.73123E-09   -0.39160E-11   186   0.159E-05    0.100E-05
RMM:   2    -0.139133178387E+03    0.57844E-09    0.00000E+00     5   0.121E-05
  24 F= -.13913318E+03 E0= -.13914643E+03  d E =0.156433E-09
quench:  g(F)=  0.000E+00 g(S)=  0.000E+00 dE (1.order)= 0.000E+00
 bond charge predicted
       N       E                     dE             d eps       ncg     rms          rms(c)
DAV:   1    -0.139133178387E+03    0.64392E-09   -0.63690E-11   186   0.135E-05    0.698E-06
RMM:   2    -0.139133178388E+03   -0.25466E-09    0.00000E+00     4   0.956E-06
  25 F= -.13913318E+03 E0= -.13914643E+03  d E =-.189175E-09
quench:  g(F)=  0.000E+00 g(S)=  0.000E+00 dE (1.order)= 0.000E+00
 bond charge predicted
       N       E                     dE             d eps       ncg     rms          rms(c)
DAV:   1    -0.139133178388E+03   -0.47294E-09    0.42428E-11   186   0.116E-05    0.415E-06
RMM:   2    -0.139133178387E+03    0.23647E-09    0.00000E+00     5   0.796E-06
  26 F= -.13913318E+03 E0= -.13914643E+03  d E =0.181899E-10
quench:  g(F)=  0.000E+00 g(S)=  0.000E+00 dE (1.order)= 0.000E+00
 bond charge predicted
       N       E                     dE             d eps       ncg     rms          rms(c)
DAV:   1    -0.139133178387E+03    0.66939E-09    0.83931E-11   186   0.818E-06    0.530E-06
RMM:   2    -0.139133178388E+03   -0.45475E-09    0.00000E+00     4   0.651E-06
  27 F= -.13913318E+03 E0= -.13914643E+03  d E =-.218279E-10
quench:  g(F)=  0.000E+00 g(S)=  0.000E+00 dE (1.order)= 0.000E+00
 bond charge predicted
       N       E                     dE             d eps       ncg     rms          rms(c)
DAV:   1    -0.139133178387E+03    0.24374E-09   -0.44544E-11   186   0.754E-06    0.305E-06
RMM:   2    -0.139133178387E+03   -0.50932E-09    0.00000E+00     4   0.474E-06
  28 F= -.13913318E+03 E0= -.13914643E+03  d E =0.189175E-09
quench:  g(F)=  0.000E+00 g(S)=  0.000E+00 dE (1.order)= 0.000E+00
 bond charge predicted
       N       E                     dE             d eps       ncg     rms          rms(c)
DAV:   1    -0.139133178388E+03   -0.96406E-09   -0.22091E-11   186   0.527E-06    0.223E-06
RMM:   2    -0.139133178387E+03    0.54570E-09    0.00000E+00     4   0.396E-06
  29 F= -.13913318E+03 E0= -.13914643E+03  d E =0.909495E-10
quench:  g(F)=  0.000E+00 g(S)=  0.000E+00 dE (1.order)= 0.000E+00
 bond charge predicted
       N       E                     dE             d eps       ncg     rms          rms(c)
DAV:   1    -0.139133178387E+03    0.38199E-09   -0.38600E-11   186   0.420E-06    0.267E-06
RMM:   2    -0.139133178388E+03   -0.12005E-09    0.00000E+00     4   0.331E-06
  30 F= -.13913318E+03 E0= -.13914643E+03  d E =-.283762E-09
quench:  g(F)=  0.000E+00 g(S)=  0.000E+00 dE (1.order)= 0.000E+00
 bond charge predicted
       N       E                     dE             d eps       ncg     rms          rms(c)
DAV:   1    -0.139133178387E+03   -0.18190E-10    0.89556E-11   186   0.378E-06    0.155E-06
RMM:   2    -0.139133178387E+03   -0.18190E-10    0.00000E+00     4   0.242E-06
  31 F= -.13913318E+03 E0= -.13914643E+03  d E =0.836735E-10
quench:  g(F)=  0.000E+00 g(S)=  0.000E+00 dE (1.order)= 0.000E+00
 bond charge predicted
       N       E                     dE             d eps       ncg     rms          rms(c)
DAV:   1    -0.139133178388E+03   -0.53842E-09    0.10677E-10   186   0.277E-06    0.114E-06
RMM:   2    -0.139133178387E+03    0.49840E-09    0.00000E+00     4   0.207E-06
  32 F= -.13913318E+03 E0= -.13914643E+03  d E =-.218279E-10
quench:  g(F)=  0.000E+00 g(S)=  0.000E+00 dE (1.order)= 0.000E+00
 bond charge predicted
       N       E                     dE             d eps       ncg     rms          rms(c)
DAV:   1    -0.139133178387E+03    0.11678E-08    0.14363E-10   186   0.218E-06    0.124E-06
RMM:   2    -0.139133178387E+03   -0.38926E-09    0.00000E+00     4   0.173E-06
  33 F= -.13913318E+03 E0= -.13914643E+03  d E =0.280124E-09
quench:  g(F)=  0.000E+00 g(S)=  0.000E+00 dE (1.order)= 0.000E+00
 bond charge predicted
       N       E                     dE             d eps       ncg     rms          rms(c)
DAV:   1    -0.139133178387E+03   -0.50932E-09   -0.12182E-11   186   0.202E-06    0.678E-07
RMM:   2    -0.139133178388E+03   -0.24011E-09    0.00000E+00     4   0.125E-06
  34 F= -.13913318E+03 E0= -.13914643E+03  d E =-.360160E-09
quench:  g(F)=  0.000E+00 g(S)=  0.000E+00 dE (1.order)= 0.000E+00
 bond charge predicted
       N       E                     dE             d eps       ncg     rms          rms(c)
DAV:   1    -0.139133178387E+03   -0.54570E-10   -0.48328E-11   186   0.133E-06    0.664E-07
RMM:   2    -0.139133178387E+03   -0.47294E-10    0.00000E+00     4   0.105E-06
  35 F= -.13913318E+03 E0= -.13914643E+03  d E =0.138243E-09
quench:  g(F)=  0.000E+00 g(S)=  0.000E+00 dE (1.order)= 0.000E+00
 bond charge predicted
       N       E                     dE             d eps       ncg     rms          rms(c)
DAV:   1    -0.139133178388E+03   -0.65847E-09    0.19598E-11   186   0.114E-06    0.486E-07
RMM:   2    -0.139133178387E+03    0.70941E-09    0.00000E+00     4   0.796E-07
  36 F= -.13913318E+03 E0= -.13914643E+03  d E =0.982254E-10
quench:  g(F)=  0.000E+00 g(S)=  0.000E+00 dE (1.order)= 0.000E+00
 bond charge predicted
       N       E                     dE             d eps       ncg     rms          rms(c)
DAV:   1    -0.139133178388E+03    0.46202E-09    0.83173E-11   186   0.902E-07    0.317E-07
RMM:   2    -0.139133178387E+03    0.12369E-09    0.00000E+00     4   0.654E-07
  37 F= -.13913318E+03 E0= -.13914643E+03  d E =-.123691E-09
quench:  g(F)=  0.000E+00 g(S)=  0.000E+00 dE (1.order)= 0.000E+00
 bond charge predicted
       N       E                     dE             d eps       ncg     rms          rms(c)
DAV:   1    -0.139133178387E+03    0.17826E-09    0.98626E-11   186   0.686E-07    0.401E-07
RMM:   2    -0.139133178387E+03    0.58208E-10    0.00000E+00     3   0.552E-07
  38 F= -.13913318E+03 E0= -.13914643E+03  d E =0.112777E-09
quench:  g(F)=  0.000E+00 g(S)=  0.000E+00 dE (1.order)= 0.000E+00
 bond charge predicted
       N       E                     dE             d eps       ncg     rms          rms(c)
DAV:   1    -0.139133178387E+03    0.18190E-10    0.14747E-11   186   0.627E-07    0.231E-07
RMM:   2    -0.139133178387E+03   -0.54570E-10    0.00000E+00     4   0.401E-07
  39 F= -.13913318E+03 E0= -.13914643E+03  d E =-.945874E-10
quench:  g(F)=  0.000E+00 g(S)=  0.000E+00 dE (1.order)= 0.000E+00
 bond charge predicted
       N       E                     dE             d eps       ncg     rms          rms(c)
DAV:   1    -0.139133178388E+03   -0.22555E-09    0.81298E-12   186   0.464E-07    0.152E-07
RMM:   2    -0.139133178387E+03    0.26557E-09    0.00000E+00     3   0.337E-07
  40 F= -.13913318E+03 E0= -.13914643E+03  d E =0.945874E-10
quench:  g(F)=  0.000E+00 g(S)=  0.000E+00 dE (1.order)= 0.000E+00
 bond charge predicted
       N       E                     dE             d eps       ncg     rms          rms(c)
DAV:   1    -0.139133178387E+03    0.70941E-09    0.28941E-11   186   0.354E-07    0.160E-07
RMM:   2    -0.139133178387E+03   -0.49477E-09    0.00000E+00     3   0.276E-07
  41 F= -.13913318E+03 E0= -.13914643E+03  d E =-.509317E-10
quench:  g(F)=  0.000E+00 g(S)=  0.000E+00 dE (1.order)= 0.000E+00
 bond charge predicted
       N       E                     dE             d eps       ncg     rms          rms(c)
DAV:   1    -0.139133178387E+03   -0.34561E-09    0.11357E-10   174   0.314E-07    0.948E-08
RMM:   2    -0.139133178387E+03   -0.72760E-10    0.00000E+00     2   0.208E-07
  42 F= -.13913318E+03 E0= -.13914643E+03  d E =0.763976E-10
quench:  g(F)=  0.000E+00 g(S)=  0.000E+00 dE (1.order)= 0.000E+00
 bond charge predicted
       N       E                     dE             d eps       ncg     rms          rms(c)
DAV:   1    -0.139133178387E+03    0.10186E-09    0.45606E-11   168   0.219E-07    0.992E-08
RMM:   2    -0.139133178387E+03   -0.29104E-09    0.00000E+00     2   0.174E-07
  43 F= -.13913318E+03 E0= -.13914643E+03  d E =-.116415E-09
quench:  g(F)=  0.000E+00 g(S)=  0.000E+00 dE (1.order)= 0.000E+00
 bond charge predicted
       N       E                     dE             d eps       ncg     rms          rms(c)
DAV:   1    -0.139133178388E+03   -0.61846E-09   -0.65735E-11   168   0.191E-07    0.698E-08
RMM:   2    -0.139133178387E+03    0.34925E-09    0.00000E+00     2   0.134E-07
  44 F= -.13913318E+03 E0= -.13914643E+03  d E =0.218279E-10
quench:  g(F)=  0.000E+00 g(S)=  0.000E+00 dE (1.order)= 0.000E+00
 bond charge predicted
       N       E                     dE             d eps       ncg     rms          rms(c)
DAV:   1    -0.139133178388E+03   -0.72760E-10    0.29223E-11   168   0.152E-07    0.463E-08
RMM:   2    -0.139133178387E+03    0.43656E-09    0.00000E+00     2   0.112E-07
  45 F= -.13913318E+03 E0= -.13914643E+03  d E =0.145519E-10
quench:  g(F)=  0.000E+00 g(S)=  0.000E+00 dE (1.order)= 0.000E+00
 bond charge predicted
       N       E                     dE             d eps       ncg     rms          rms(c)
DAV:   1    -0.139133178388E+03    0.47294E-10   -0.83268E-11   168   0.117E-07    0.627E-08
RMM:   2    -0.139133178387E+03    0.25102E-09    0.00000E+00     2   0.936E-08
  46 F= -.13913318E+03 E0= -.13914643E+03  d E =-.138243E-09
quench:  g(F)=  0.000E+00 g(S)=  0.000E+00 dE (1.order)= 0.000E+00
 bond charge predicted
       N       E                     dE             d eps       ncg     rms          rms(c)
DAV:   1    -0.139133178387E+03    0.72032E-09   -0.57135E-12   168   0.106E-07    0.363E-08
RMM:   2    -0.139133178387E+03   -0.27649E-09    0.00000E+00     2   0.693E-08
  47 F= -.13913318E+03 E0= -.13914643E+03  d E =0.192813E-09
quench:  g(F)=  0.000E+00 g(S)=  0.000E+00 dE (1.order)= 0.000E+00
 bond charge predicted
       N       E                     dE             d eps       ncg     rms          rms(c)
DAV:   1    -0.139133178388E+03   -0.10004E-08    0.59467E-11   168   0.789E-08    0.246E-08
RMM:   2    -0.139133178387E+03    0.68030E-09    0.00000E+00     2   0.576E-08
  48 F= -.13913318E+03 E0= -.13914643E+03  d E =-.436557E-10
quench:  g(F)=  0.000E+00 g(S)=  0.000E+00 dE (1.order)= 0.000E+00
 bond charge predicted
       N       E                     dE             d eps       ncg     rms          rms(c)
DAV:   1    -0.139133178387E+03    0.60027E-09   -0.91225E-11   168   0.605E-08    0.250E-08
RMM:   2    -0.139133178387E+03    0.50932E-10    0.00000E+00     2   0.475E-08
  49 F= -.13913318E+03 E0= -.13914643E+03  d E =-.291038E-10
quench:  g(F)=  0.000E+00 g(S)=  0.000E+00 dE (1.order)= 0.000E+00
 bond charge predicted
       N       E                     dE             d eps       ncg     rms          rms(c)
DAV:   1    -0.139133178387E+03    0.77489E-09   -0.34800E-11   168   0.536E-08    0.154E-08
RMM:   2    -0.139133178388E+03   -0.90586E-09    0.00000E+00     2   0.362E-08
  50 F= -.13913318E+03 E0= -.13914643E+03  d E =-.181899E-09
quench:  g(F)=  0.000E+00 g(S)=  0.000E+00 dE (1.order)= 0.000E+00
 bond charge predicted
       N       E                     dE             d eps       ncg     rms          rms(c)
DAV:   1    -0.139133178387E+03   -0.51296E-09   -0.16360E-10   168   0.384E-08    0.155E-08
RMM:   2    -0.139133178387E+03   -0.28012E-09    0.00000E+00     2   0.308E-08
  51 F= -.13913318E+03 E0= -.13914643E+03  d E =0.112777E-09
quench:  g(F)=  0.000E+00 g(S)=  0.000E+00 dE (1.order)= 0.000E+00
 bond charge predicted
       N       E                     dE             d eps       ncg     rms          rms(c)
DAV:   1    -0.139133178387E+03   -0.24374E-09   -0.10521E-10   168   0.334E-08    0.118E-08
RMM:   2    -0.139133178387E+03    0.00000E+00    0.00000E+00     2   0.236E-08
  52 F= -.13913318E+03 E0= -.13914643E+03  d E =0.363798E-10
quench:  g(F)=  0.000E+00 g(S)=  0.000E+00 dE (1.order)= 0.000E+00
 bond charge predicted
       N       E                     dE             d eps       ncg     rms          rms(c)
DAV:   1    -0.139133178387E+03    0.80399E-09   -0.61434E-11   168   0.264E-08    0.817E-09
RMM:   2    -0.139133178387E+03   -0.85493E-09    0.00000E+00     2   0.195E-08
  53 F= -.13913318E+03 E0= -.13914643E+03  d E =-.509317E-10
quench:  g(F)=  0.000E+00 g(S)=  0.000E+00 dE (1.order)= 0.000E+00
 bond charge predicted
       N       E                     dE             d eps       ncg     rms          rms(c)
DAV:   1    -0.139133178386E+03    0.24738E-09   -0.77097E-12   168   0.206E-08    0.100E-08
RMM:   2    -0.139133178387E+03   -0.11059E-08    0.00000E+00     2   0.166E-08
  54 F= -.13913318E+03 E0= -.13914643E+03  d E =-.363798E-11
quench:  g(F)=  0.000E+00 g(S)=  0.000E+00 dE (1.order)= 0.000E+00
 bond charge predicted
       N       E                     dE             d eps       ncg     rms          rms(c)
DAV:   1    -0.139133178388E+03   -0.13970E-08   -0.10347E-10   168   0.186E-08    0.596E-09
RMM:   2    -0.139133178387E+03    0.27649E-09    0.00000E+00     2   0.123E-08
  55 F= -.13913318E+03 E0= -.13914643E+03  d E =-.145519E-10
quench:  g(F)=  0.000E+00 g(S)=  0.000E+00 dE (1.order)= 0.000E+00
 bond charge predicted
       N       E                     dE             d eps       ncg     rms          rms(c)
DAV:   1    -0.139133178387E+03    0.42201E-09   -0.74232E-11   168   0.139E-08    0.420E-09
RMM:   2    -0.139133178387E+03   -0.65484E-10    0.00000E+00     2   0.102E-08
  56 F= -.13913318E+03 E0= -.13914643E+03  d E =0.800355E-10
quench:  g(F)=  0.000E+00 g(S)=  0.000E+00 dE (1.order)= 0.000E+00
 bond charge predicted
       N       E                     dE             d eps       ncg     rms          rms(c)
DAV:   1    -0.139133178388E+03   -0.54570E-09   -0.26846E-11   168   0.108E-08    0.403E-09
RMM:   2    -0.139133178387E+03    0.42928E-09    0.00000E+00     2   0.871E-09
  57 F= -.13913318E+03 E0= -.13914643E+03  d E =-.509317E-10
quench:  g(F)=  0.000E+00 g(S)=  0.000E+00 dE (1.order)= 0.000E+00
 bond charge predicted
       N       E                     dE             d eps       ncg     rms          rms(c)
DAV:   1    -0.139133178386E+03    0.16917E-08   -0.32600E-11   168   0.976E-09    0.247E-09
RMM:   2    -0.139133178387E+03   -0.11896E-08    0.00000E+00     2   0.644E-09
  58 F= -.13913318E+03 E0= -.13914643E+03  d E =0.727596E-10
quench:  g(F)=  0.000E+00 g(S)=  0.000E+00 dE (1.order)= 0.000E+00
 bond charge predicted
       N       E                     dE             d eps       ncg     rms          rms(c)
DAV:   1    -0.139133178387E+03   -0.33833E-09   -0.91095E-11   168   0.673E-09    0.291E-09
RMM:   2    -0.139133178387E+03   -0.82946E-09    0.00000E+00     2   0.543E-09
  59 F= -.13913318E+03 E0= -.13914643E+03  d E =0.218279E-10
quench:  g(F)=  0.000E+00 g(S)=  0.000E+00 dE (1.order)= 0.000E+00
 bond charge predicted
       N       E                     dE             d eps       ncg     rms          rms(c)
DAV:   1    -0.139133178387E+03   -0.21464E-09   -0.39145E-11   168   0.600E-09    0.182E-09
RMM:   2    -0.139133178387E+03   -0.64756E-09    0.00000E+00     2   0.417E-09
  60 F= -.13913318E+03 E0= -.13914643E+03  d E =-.327418E-10
quench:  g(F)=  0.000E+00 g(S)=  0.000E+00 dE (1.order)= 0.000E+00
 bond charge predicted
       N       E                     dE             d eps       ncg     rms          rms(c)
DAV:   1    -0.139133178387E+03   -0.72760E-11    0.47666E-11   168   0.458E-09    0.143E-09
RMM:   2    -0.139133178387E+03   -0.68030E-09    0.00000E+00     2   0.351E-09
  61 F= -.13913318E+03 E0= -.13914643E+03  d E =-.400178E-10
quench:  g(F)=  0.000E+00 g(S)=  0.000E+00 dE (1.order)= 0.000E+00
 bond charge predicted
       N       E                     dE             d eps       ncg     rms          rms(c)
DAV:   1    -0.139133178388E+03   -0.14770E-08   -0.60964E-12   168   0.372E-09    0.144E-09
RMM:   2    -0.139133178387E+03    0.73123E-09    0.00000E+00     2   0.296E-09
  62 F= -.13913318E+03 E0= -.13914643E+03  d E =-.654836E-10
quench:  g(F)=  0.000E+00 g(S)=  0.000E+00 dE (1.order)= 0.000E+00
 bond charge predicted
       N       E                     dE             d eps       ncg     rms          rms(c)
DAV:   1    -0.139133178387E+03    0.15716E-08    0.64699E-12   168   0.329E-09    0.918E-10
RMM:   2    -0.139133178387E+03   -0.70213E-09    0.00000E+00     1   0.226E-09
  63 F= -.13913318E+03 E0= -.13914643E+03  d E =0.138243E-09
quench:  g(F)=  0.000E+00 g(S)=  0.000E+00 dE (1.order)= 0.000E+00
 bond charge predicted
       N       E                     dE             d eps       ncg     rms          rms(c)
DAV:   1    -0.139133178387E+03   -0.98225E-10    0.47066E-11   168   0.239E-09    0.926E-10
RMM:   2    -0.139133178387E+03   -0.62573E-09    0.00000E+00     2   0.186E-09
  64 F= -.13913318E+03 E0= -.13914643E+03  d E =-.218279E-10
quench:  g(F)=  0.000E+00 g(S)=  0.000E+00 dE (1.order)= 0.000E+00
 bond charge predicted
       N       E                     dE             d eps       ncg     rms          rms(c)
DAV:   1    -0.139133178387E+03   -0.60754E-09    0.45813E-11   168   0.202E-09    0.638E-10
RMM:   2    -0.139133178387E+03   -0.14552E-10    0.00000E+00     1   0.151E-09
  65 F= -.13913318E+03 E0= -.13914643E+03  d E =0.363798E-11
quench:  g(F)=  0.000E+00 g(S)=  0.000E+00 dE (1.order)= 0.000E+00
 bond charge predicted
       N       E                     dE             d eps       ncg     rms          rms(c)
DAV:   1    -0.139133178388E+03   -0.66575E-09    0.11138E-10   168   0.171E-09    0.458E-10
RMM:   2    -0.139133178387E+03    0.66575E-09    0.00000E+00     2   0.123E-09
  66 F= -.13913318E+03 E0= -.13914643E+03  d E =0.145519E-10
quench:  g(F)=  0.000E+00 g(S)=  0.000E+00 dE (1.order)= 0.000E+00
 bond charge predicted
       N       E                     dE             d eps       ncg     rms          rms(c)
DAV:   1    -0.139133178387E+03    0.74579E-09    0.76733E-11   168   0.127E-09    0.592E-10
RMM:   2    -0.139133178387E+03   -0.54570E-10    0.00000E+00     1   0.101E-09
  67 F= -.13913318E+03 E0= -.13914643E+03  d E =0.254659E-10
quench:  g(F)=  0.000E+00 g(S)=  0.000E+00 dE (1.order)= 0.000E+00
 bond charge predicted
       N       E                     dE             d eps       ncg     rms          rms(c)
DAV:   1    -0.139133178388E+03   -0.86584E-09    0.40348E-11   168   0.114E-09    0.423E-10
RMM:   2    -0.139133178387E+03    0.72032E-09    0.00000E+00     2   0.796E-10
  68 F= -.13913318E+03 E0= -.13914643E+03  d E =-.909495E-10
quench:  g(F)=  0.000E+00 g(S)=  0.000E+00 dE (1.order)= 0.000E+00
 bond charge predicted
       N       E                     dE             d eps       ncg     rms          rms(c)
DAV:   1    -0.139133178388E+03   -0.14188E-09    0.13660E-11   168   0.100E-09    0.237E-10
RMM:   2    -0.139133178387E+03    0.97862E-09    0.00000E+00     1   0.653E-10
  69 F= -.13913318E+03 E0= -.13914643E+03  d E =0.116415E-09
quench:  g(F)=  0.000E+00 g(S)=  0.000E+00 dE (1.order)= 0.000E+00
 bond charge predicted
       N       E                     dE             d eps       ncg     rms          rms(c)
DAV:   1    -0.139133178386E+03    0.18008E-08    0.47443E-11   168   0.686E-10    0.341E-10
RMM:   2    -0.139133178387E+03   -0.84401E-09    0.00000E+00     2   0.565E-10
  70 F= -.13913318E+03 E0= -.13914643E+03  d E =-.218279E-10
quench:  g(F)=  0.000E+00 g(S)=  0.000E+00 dE (1.order)= 0.000E+00
 bond charge predicted
       N       E                     dE             d eps       ncg     rms          rms(c)
DAV:   1    -0.139133178387E+03   -0.59299E-09    0.59177E-11   168   0.664E-10    0.277E-10
RMM:   2    -0.139133178387E+03   -0.31650E-09    0.00000E+00     1   0.437E-10
  71 F= -.13913318E+03 E0= -.13914643E+03  d E =-.654836E-10
quench:  g(F)=  0.000E+00 g(S)=  0.000E+00 dE (1.order)= 0.000E+00
 bond charge predicted
       N       E                     dE             d eps       ncg     rms          rms(c)
DAV:   1    -0.139133178387E+03    0.20736E-09    0.10027E-10   168   0.481E-10    0.317E-10
RMM:   2    -0.139133178387E+03   -0.54933E-09    0.00000E+00     2   0.377E-10
  72 F= -.13913318E+03 E0= -.13914643E+03  d E =-.254659E-10
quench:  g(F)=  0.000E+00 g(S)=  0.000E+00 dE (1.order)= 0.000E+00
 bond charge predicted
       N       E                     dE             d eps       ncg     rms          rms(c)
DAV:   1    -0.139133178388E+03   -0.66939E-09    0.98626E-11   168   0.496E-10    0.271E-10
RMM:   2    -0.139133178387E+03    0.10914E-09    0.00000E+00     1   0.318E-10
  73 F= -.13913318E+03 E0= -.13914643E+03  d E =-.109139E-10
quench:  g(F)=  0.000E+00 g(S)=  0.000E+00 dE (1.order)= 0.000E+00
 bond charge predicted
       N       E                     dE             d eps       ncg     rms          rms(c)
DAV:   1    -0.139133178387E+03    0.47658E-09    0.56173E-11   168   0.378E-10    0.218E-10
RMM:   2    -0.139133178387E+03   -0.40745E-09    0.00000E+00     2   0.272E-10
  74 F= -.13913318E+03 E0= -.13914643E+03  d E =-.400178E-10
quench:  g(F)=  0.000E+00 g(S)=  0.000E+00 dE (1.order)= 0.000E+00
 bond charge predicted
       N       E                     dE             d eps       ncg     rms          rms(c)
DAV:   1    -0.139133178387E+03   -0.10914E-10    0.14194E-10   168   0.371E-10    0.229E-10
RMM:   2    -0.139133178387E+03   -0.23283E-09    0.00000E+00     1   0.249E-10
  75 F= -.13913318E+03 E0= -.13914643E+03  d E =0.163709E-09
quench:  g(F)=  0.000E+00 g(S)=  0.000E+00 dE (1.order)= 0.000E+00
 bond charge predicted
       N       E                     dE             d eps       ncg     rms          rms(c)
DAV:   1    -0.139133178386E+03    0.58935E-09    0.67515E-11   168   0.333E-10    0.223E-10
RMM:   2    -0.139133178387E+03   -0.92405E-09    0.00000E+00     1   0.227E-10
  76 F= -.13913318E+03 E0= -.13914643E+03  d E =-.101863E-09
quench:  g(F)=  0.000E+00 g(S)=  0.000E+00 dE (1.order)= 0.000E+00
 bond charge predicted
       N       E                     dE             d eps       ncg     rms          rms(c)
DAV:   1    -0.139133178388E+03   -0.14916E-08    0.81500E-11   168   0.251E-10    0.179E-10
RMM:   2    -0.139133178387E+03    0.60027E-09    0.00000E+00     1   0.171E-10
  77 F= -.13913318E+03 E0= -.13914643E+03  d E =0.327418E-10
quench:  g(F)=  0.000E+00 g(S)=  0.000E+00 dE (1.order)= 0.000E+00
 bond charge predicted
       N       E                     dE             d eps       ncg     rms          rms(c)
DAV:   1    -0.139133178388E+03    0.37835E-09    0.10128E-10   168   0.207E-10    0.176E-10
RMM:   2    -0.139133178387E+03    0.16735E-09    0.00000E+00     1   0.146E-10
  78 F= -.13913318E+03 E0= -.13914643E+03  d E =-.545697E-10
quench:  g(F)=  0.000E+00 g(S)=  0.000E+00 dE (1.order)= 0.000E+00
 bond charge predicted
       N       E                     dE             d eps       ncg     rms          rms(c)
DAV:   1    -0.139133178387E+03    0.21464E-09    0.12290E-10   168   0.208E-10    0.329E-10
RMM:   2    -0.139133178387E+03   -0.94587E-10    0.00000E+00     1   0.153E-10
  79 F= -.13913318E+03 E0= -.13914643E+03  d E =-.472937E-10
quench:  g(F)=  0.000E+00 g(S)=  0.000E+00 dE (1.order)= 0.000E+00
 bond charge predicted
       N       E                     dE             d eps       ncg     rms          rms(c)
DAV:   1    -0.139133178387E+03    0.22555E-09    0.21857E-11   168   0.230E-10    0.334E-10
RMM:   2    -0.139133178387E+03   -0.26557E-09    0.00000E+00     1   0.143E-10
  80 F= -.13913318E+03 E0= -.13914643E+03  d E =0.545697E-10
quench:  g(F)=  0.000E+00 g(S)=  0.000E+00 dE (1.order)= 0.000E+00
 bond charge predicted
       N       E                     dE             d eps       ncg     rms          rms(c)
DAV:   1    -0.139133178388E+03   -0.76761E-09    0.18691E-11   168   0.202E-10    0.143E-10
RMM:   2    -0.139133178387E+03    0.53842E-09    0.00000E+00     1   0.116E-10
  81 F= -.13913318E+03 E0= -.13914643E+03  d E =0.363798E-10
quench:  g(F)=  0.000E+00 g(S)=  0.000E+00 dE (1.order)= 0.000E+00
 bond charge predicted
       N       E                     dE             d eps       ncg     rms          rms(c)
DAV:   1    -0.139133178389E+03   -0.64028E-09    0.15250E-10   168   0.162E-10    0.177E-10
RMM:   2    -0.139133178387E+03    0.11969E-08    0.00000E+00     1   0.120E-10
  82 F= -.13913318E+03 E0= -.13914643E+03  d E =0.181899E-10
quench:  g(F)=  0.000E+00 g(S)=  0.000E+00 dE (1.order)= 0.000E+00
 bond charge predicted
       N       E                     dE             d eps       ncg     rms          rms(c)
DAV:   1    -0.139133178387E+03    0.16007E-08    0.99532E-11   168   0.126E-10    0.176E-10
RMM:   2    -0.139133178387E+03   -0.32378E-09    0.00000E+00     1   0.132E-10
  83 F= -.13913318E+03 E0= -.13914643E+03  d E =0.800355E-10
quench:  g(F)=  0.000E+00 g(S)=  0.000E+00 dE (1.order)= 0.000E+00
 bond charge predicted
       N       E                     dE             d eps       ncg     rms          rms(c)
DAV:   1    -0.139133178388E+03   -0.59663E-09    0.84884E-11   168   0.169E-10    0.159E-10
RMM:   2    -0.139133178387E+03    0.14188E-09    0.00000E+00     1   0.120E-10
  84 F= -.13913318E+03 E0= -.13914643E+03  d E =-.130967E-09
quench:  g(F)=  0.000E+00 g(S)=  0.000E+00 dE (1.order)= 0.000E+00
 bond charge predicted
       N       E                     dE             d eps       ncg     rms          rms(c)
DAV:   1    -0.139133178388E+03   -0.94587E-10    0.10327E-10   168   0.159E-10    0.213E-10
RMM:   2    -0.139133178387E+03    0.28376E-09    0.00000E+00     1   0.110E-10
  85 F= -.13913318E+03 E0= -.13914643E+03  d E =0.472937E-10
quench:  g(F)=  0.000E+00 g(S)=  0.000E+00 dE (1.order)= 0.000E+00
 bond charge predicted
       N       E                     dE             d eps       ncg     rms          rms(c)
DAV:   1    -0.139133178387E+03    0.65847E-09    0.52511E-11   168   0.192E-10    0.185E-10
RMM:   2    -0.139133178387E+03   -0.43292E-09    0.00000E+00     1   0.942E-11
  86 F= -.13913318E+03 E0= -.13914643E+03  d E =-.582077E-10
quench:  g(F)=  0.000E+00 g(S)=  0.000E+00 dE (1.order)= 0.000E+00
 bond charge predicted
       N       E                     dE             d eps       ncg     rms          rms(c)
DAV:   1    -0.139133178387E+03    0.12005E-09    0.12404E-10   168   0.154E-10    0.170E-10
RMM:   2    -0.139133178387E+03   -0.58208E-09    0.00000E+00     1   0.111E-10
  87 F= -.13913318E+03 E0= -.13914643E+03  d E =-.291038E-10
quench:  g(F)=  0.000E+00 g(S)=  0.000E+00 dE (1.order)= 0.000E+00
 bond charge predicted
       N       E                     dE             d eps       ncg     rms          rms(c)
DAV:   1    -0.139133178387E+03   -0.61482E-09    0.13738E-10   168   0.131E-10    0.211E-10
RMM:   2    -0.139133178387E+03    0.87311E-10    0.00000E+00     1   0.113E-10
  88 F= -.13913318E+03 E0= -.13914643E+03  d E =0.545697E-10
quench:  g(F)=  0.000E+00 g(S)=  0.000E+00 dE (1.order)= 0.000E+00
 bond charge predicted
       N       E                     dE             d eps       ncg     rms          rms(c)
DAV:   1    -0.139133178388E+03   -0.29104E-10    0.10705E-11   168   0.184E-10    0.174E-10
RMM:   2    -0.139133178387E+03    0.15280E-09    0.00000E+00     1   0.107E-10
  89 F= -.13913318E+03 E0= -.13914643E+03  d E =0.363798E-10
quench:  g(F)=  0.000E+00 g(S)=  0.000E+00 dE (1.order)= 0.000E+00
 bond charge predicted
       N       E                     dE             d eps       ncg     rms          rms(c)
DAV:   1    -0.139133178387E+03    0.98589E-09    0.12219E-10   168   0.184E-10    0.294E-10
RMM:   2    -0.139133178387E+03   -0.85129E-09    0.00000E+00     1   0.126E-10
  90 F= -.13913318E+03 E0= -.13914643E+03  d E =-.181899E-10
quench:  g(F)=  0.000E+00 g(S)=  0.000E+00 dE (1.order)= 0.000E+00
 bond charge predicted
       N       E                     dE             d eps       ncg     rms          rms(c)
DAV:   1    -0.139133178388E+03   -0.13206E-08    0.46267E-11   168   0.249E-10    0.205E-10
RMM:   2    -0.139133178387E+03    0.38926E-09    0.00000E+00     1   0.136E-10
  91 F= -.13913318E+03 E0= -.13914643E+03  d E =-.800355E-10
quench:  g(F)=  0.000E+00 g(S)=  0.000E+00 dE (1.order)= 0.000E+00
 bond charge predicted
       N       E                     dE             d eps       ncg     rms          rms(c)
DAV:   1    -0.139133178387E+03    0.89130E-09    0.64241E-11   168   0.209E-10    0.162E-10
RMM:   2    -0.139133178387E+03   -0.36380E-09    0.00000E+00     1   0.975E-11
  92 F= -.13913318E+03 E0= -.13914643E+03  d E =0.138243E-09
quench:  g(F)=  0.000E+00 g(S)=  0.000E+00 dE (1.order)= 0.000E+00
 bond charge predicted
       N       E                     dE             d eps       ncg     rms          rms(c)
DAV:   1    -0.139133178387E+03    0.43292E-09    0.84560E-11   168   0.146E-10    0.291E-10
RMM:   2    -0.139133178387E+03   -0.85856E-09    0.00000E+00     1   0.125E-10
  93 F= -.13913318E+03 E0= -.13914643E+03  d E =-.618456E-10
quench:  g(F)=  0.000E+00 g(S)=  0.000E+00 dE (1.order)= 0.000E+00
 bond charge predicted
       N       E                     dE             d eps       ncg     rms          rms(c)
DAV:   1    -0.139133178387E+03   -0.44383E-09    0.43567E-11   168   0.185E-10    0.254E-10
RMM:   2    -0.139133178387E+03   -0.33106E-09    0.00000E+00     1   0.114E-10
  94 F= -.13913318E+03 E0= -.13914643E+03  d E =0.836735E-10
quench:  g(F)=  0.000E+00 g(S)=  0.000E+00 dE (1.order)= 0.000E+00
 bond charge predicted
       N       E                     dE             d eps       ncg     rms          rms(c)
DAV:   1    -0.139133178387E+03    0.83674E-10    0.73654E-11   168   0.180E-10    0.232E-10
RMM:   2    -0.139133178387E+03   -0.54933E-09    0.00000E+00     1   0.106E-10
  95 F= -.13913318E+03 E0= -.13914643E+03  d E =-.134605E-09
quench:  g(F)=  0.000E+00 g(S)=  0.000E+00 dE (1.order)= 0.000E+00
 bond charge predicted
       N       E                     dE             d eps       ncg     rms          rms(c)
DAV:   1    -0.139133178387E+03   -0.48385E-09    0.86630E-11   168   0.180E-10    0.160E-10
RMM:   2    -0.139133178387E+03    0.72760E-11    0.00000E+00     1   0.124E-10
  96 F= -.13913318E+03 E0= -.13914643E+03  d E =0.727596E-10
quench:  g(F)=  0.000E+00 g(S)=  0.000E+00 dE (1.order)= 0.000E+00
 bond charge predicted
       N       E                     dE             d eps       ncg     rms          rms(c)
DAV:   1    -0.139133178388E+03   -0.64392E-09    0.55685E-11   168   0.134E-10    0.222E-10
RMM:   2    -0.139133178387E+03    0.54933E-09    0.00000E+00     1   0.119E-10
  97 F= -.13913318E+03 E0= -.13914643E+03  d E =-.101863E-09
quench:  g(F)=  0.000E+00 g(S)=  0.000E+00 dE (1.order)= 0.000E+00
 bond charge predicted
       N       E                     dE             d eps       ncg     rms          rms(c)
DAV:   1    -0.139133178387E+03    0.90222E-09    0.10496E-10   168   0.226E-10    0.187E-10
RMM:   2    -0.139133178387E+03   -0.18190E-09    0.00000E+00     1   0.117E-10
  98 F= -.13913318E+03 E0= -.13914643E+03  d E =0.170985E-09
quench:  g(F)=  0.000E+00 g(S)=  0.000E+00 dE (1.order)= 0.000E+00
 bond charge predicted
       N       E                     dE             d eps       ncg     rms          rms(c)
DAV:   1    -0.139133178387E+03   -0.27285E-09    0.81161E-11   168   0.181E-10    0.170E-10
RMM:   2    -0.139133178387E+03   -0.36380E-11    0.00000E+00     0   0.118E-10
  99 F= -.13913318E+03 E0= -.13914643E+03  d E =-.945874E-10
quench:  g(F)=  0.000E+00 g(S)=  0.000E+00 dE (1.order)= 0.000E+00
 bond charge predicted
       N       E                     dE             d eps       ncg     rms          rms(c)
DAV:   1    -0.139133178388E+03   -0.16735E-09    0.14045E-10   168   0.165E-10    0.224E-10
RMM:   2    -0.139133178387E+03    0.21828E-09    0.00000E+00     0   0.111E-10
 100 F= -.13913318E+03 E0= -.13914643E+03  d E =0.545697E-10
quench:  g(F)=  0.000E+00 g(S)=  0.000E+00 dE (1.order)= 0.000E+00
 bond charge predicted
       N       E                     dE             d eps       ncg     rms          rms(c)
DAV:   1    -0.139133178386E+03    0.11314E-08    0.91230E-11   168   0.208E-10    0.331E-10
RMM:   2    -0.139133178387E+03   -0.85856E-09    0.00000E+00     1   0.123E-10
 101 F= -.13913318E+03 E0= -.13914643E+03  d E =0.545697E-10
quench:  g(F)=  0.000E+00 g(S)=  0.000E+00 dE (1.order)= 0.000E+00
 bond charge predicted
       N       E                     dE             d eps       ncg     rms          rms(c)
DAV:   1    -0.139133178387E+03   -0.61846E-09    0.35245E-11   168   0.220E-10    0.237E-10
RMM:   2    -0.139133178387E+03   -0.30923E-09    0.00000E+00     1   0.119E-10
 102 F= -.13913318E+03 E0= -.13914643E+03  d E =-.691216E-10
quench:  g(F)=  0.000E+00 g(S)=  0.000E+00 dE (1.order)= 0.000E+00
 bond charge predicted
       N       E                     dE             d eps       ncg     rms          rms(c)
DAV:   1    -0.139133178387E+03   -0.26557E-09    0.12287E-10   168   0.239E-10    0.221E-10
RMM:   2    -0.139133178387E+03   -0.76398E-10    0.00000E+00     1   0.973E-11
 103 F= -.13913318E+03 E0= -.13914643E+03  d E =-.327418E-10
quench:  g(F)=  0.000E+00 g(S)=  0.000E+00 dE (1.order)= 0.000E+00
 bond charge predicted
       N       E                     dE             d eps       ncg     rms          rms(c)
DAV:   1    -0.139133178388E+03   -0.20736E-09    0.69384E-11   168   0.116E-10    0.173E-10
RMM:   2    -0.139133178387E+03    0.83674E-10    0.00000E+00     1   0.105E-10
 104 F= -.13913318E+03 E0= -.13914643E+03  d E =-.472937E-10
quench:  g(F)=  0.000E+00 g(S)=  0.000E+00 dE (1.order)= 0.000E+00
 bond charge predicted
       N       E                     dE             d eps       ncg     rms          rms(c)
DAV:   1    -0.139133178387E+03    0.75670E-09    0.40469E-11   168   0.186E-10    0.225E-10
RMM:   2    -0.139133178387E+03   -0.70941E-09    0.00000E+00     1   0.103E-10
 105 F= -.13913318E+03 E0= -.13914643E+03  d E =-.363798E-10
quench:  g(F)=  0.000E+00 g(S)=  0.000E+00 dE (1.order)= 0.000E+00
 bond charge predicted
       N       E                     dE             d eps       ncg     rms          rms(c)
DAV:   1    -0.139133178387E+03   -0.53114E-09    0.52520E-11   168   0.137E-10    0.240E-10
RMM:   2    -0.139133178387E+03   -0.50932E-10    0.00000E+00     0   0.115E-10
 106 F= -.13913318E+03 E0= -.13914643E+03  d E =0.127329E-09
quench:  g(F)=  0.000E+00 g(S)=  0.000E+00 dE (1.order)= 0.000E+00
 bond charge predicted
       N       E                     dE             d eps       ncg     rms          rms(c)
DAV:   1    -0.139133178388E+03   -0.28376E-09   -0.13585E-11   168   0.197E-10    0.225E-10
RMM:   2    -0.139133178387E+03    0.25830E-09    0.00000E+00     0   0.124E-10
 107 F= -.13913318E+03 E0= -.13914643E+03  d E =0.254659E-10
quench:  g(F)=  0.000E+00 g(S)=  0.000E+00 dE (1.order)= 0.000E+00
 bond charge predicted
       N       E                     dE             d eps       ncg     rms          rms(c)
DAV:   1    -0.139133178387E+03    0.29104E-09    0.35851E-11   168   0.257E-10    0.251E-10
RMM:   2    -0.139133178387E+03   -0.13461E-09    0.00000E+00     0   0.122E-10
 108 F= -.13913318E+03 E0= -.13914643E+03  d E =-.101863E-09
quench:  g(F)=  0.000E+00 g(S)=  0.000E+00 dE (1.order)= 0.000E+00
 bond charge predicted
       N       E                     dE             d eps       ncg     rms          rms(c)
DAV:   1    -0.139133178388E+03   -0.40745E-09    0.91048E-11   168   0.241E-10    0.197E-10
RMM:   2    -0.139133178387E+03    0.28740E-09    0.00000E+00     0   0.123E-10
 109 F= -.13913318E+03 E0= -.13914643E+03  d E =0.145519E-10
quench:  g(F)=  0.000E+00 g(S)=  0.000E+00 dE (1.order)= 0.000E+00
 bond charge predicted
       N       E                     dE             d eps       ncg     rms          rms(c)
DAV:   1    -0.139133178388E+03   -0.46202E-09    0.11025E-10   168   0.201E-10    0.173E-10
RMM:   2    -0.139133178387E+03    0.82946E-09    0.00000E+00     0   0.952E-11
 110 F= -.13913318E+03 E0= -.13914643E+03  d E =0.800355E-10
quench:  g(F)=  0.000E+00 g(S)=  0.000E+00 dE (1.order)= 0.000E+00
 bond charge predicted
       N       E                     dE             d eps       ncg     rms          rms(c)
DAV:   1    -0.139133178387E+03    0.77853E-09   -0.19545E-11   168   0.105E-10    0.203E-10
RMM:   2    -0.139133178387E+03    0.65484E-10    0.00000E+00     0   0.896E-11
 111 F= -.13913318E+03 E0= -.13914643E+03  d E =0.145519E-10
quench:  g(F)=  0.000E+00 g(S)=  0.000E+00 dE (1.order)= 0.000E+00
 bond charge predicted
       N       E                     dE             d eps       ncg     rms          rms(c)
DAV:   1    -0.139133178388E+03   -0.22192E-09    0.35377E-11   168   0.118E-10    0.159E-10
RMM:   2    -0.139133178387E+03    0.29831E-09    0.00000E+00     0   0.953E-11
 112 F= -.13913318E+03 E0= -.13914643E+03  d E =0.109139E-10
quench:  g(F)=  0.000E+00 g(S)=  0.000E+00 dE (1.order)= 0.000E+00
 bond charge predicted
       N       E                     dE             d eps       ncg     rms          rms(c)
DAV:   1    -0.139133178388E+03    0.25466E-10    0.15706E-11   168   0.149E-10    0.285E-10
RMM:   2    -0.139133178387E+03    0.16007E-09    0.00000E+00     0   0.995E-11
 113 F= -.13913318E+03 E0= -.13914643E+03  d E =-.112777E-09
quench:  g(F)=  0.000E+00 g(S)=  0.000E+00 dE (1.order)= 0.000E+00
 bond charge predicted
       N       E                     dE             d eps       ncg     rms          rms(c)
DAV:   1    -0.139133178388E+03    0.65484E-10    0.29878E-11   168   0.181E-10    0.238E-10
RMM:   2    -0.139133178387E+03    0.22192E-09    0.00000E+00     0   0.125E-10
 114 F= -.13913318E+03 E0= -.13914643E+03  d E =0.127329E-09
quench:  g(F)=  0.000E+00 g(S)=  0.000E+00 dE (1.order)= 0.000E+00
 bond charge predicted
       N       E                     dE             d eps       ncg     rms          rms(c)
DAV:   1    -0.139133178387E+03    0.72032E-09    0.87870E-11   168   0.233E-10    0.133E-10
RMM:   2    -0.139133178387E+03   -0.52023E-09    0.00000E+00     0   0.100E-10
 115 F= -.13913318E+03 E0= -.13914643E+03  d E =-.218279E-10
quench:  g(F)=  0.000E+00 g(S)=  0.000E+00 dE (1.order)= 0.000E+00
 bond charge predicted
       N       E                     dE             d eps       ncg     rms          rms(c)
DAV:   1    -0.139133178386E+03    0.55661E-09    0.58206E-11   168   0.154E-10    0.267E-10
RMM:   2    -0.139133178387E+03   -0.11314E-08    0.00000E+00     0   0.131E-10
 116 F= -.13913318E+03 E0= -.13914643E+03  d E =-.545697E-10
quench:  g(F)=  0.000E+00 g(S)=  0.000E+00 dE (1.order)= 0.000E+00
 bond charge predicted
       N       E                     dE             d eps       ncg     rms          rms(c)
DAV:   1    -0.139133178387E+03   -0.83310E-09    0.53060E-11   168   0.175E-10    0.185E-10
RMM:   2    -0.139133178387E+03   -0.36744E-09    0.00000E+00     0   0.103E-10
 117 F= -.13913318E+03 E0= -.13914643E+03  d E =-.691216E-10
quench:  g(F)=  0.000E+00 g(S)=  0.000E+00 dE (1.order)= 0.000E+00
 bond charge predicted
       N       E                     dE             d eps       ncg     rms          rms(c)
DAV:   1    -0.139133178388E+03   -0.11169E-08    0.98056E-11   168   0.161E-10    0.272E-10
RMM:   2    -0.139133178387E+03    0.82946E-09    0.00000E+00     0   0.134E-10
 118 F= -.13913318E+03 E0= -.13914643E+03  d E =0.800355E-10
quench:  g(F)=  0.000E+00 g(S)=  0.000E+00 dE (1.order)= 0.000E+00
 bond charge predicted
       N       E                     dE             d eps       ncg     rms          rms(c)
DAV:   1    -0.139133178387E+03    0.91677E-09   -0.17413E-12   168   0.252E-10    0.249E-10
RMM:   2    -0.139133178387E+03   -0.10914E-09    0.00000E+00     0   0.131E-10
 119 F= -.13913318E+03 E0= -.13914643E+03  d E =-.218279E-10
quench:  g(F)=  0.000E+00 g(S)=  0.000E+00 dE (1.order)= 0.000E+00
 bond charge predicted
       N       E                     dE             d eps       ncg     rms          rms(c)
DAV:   1    -0.139133178387E+03   -0.40018E-10   -0.78412E-11   168   0.216E-10    0.215E-10
RMM:   2    -0.139133178387E+03   -0.10914E-10    0.00000E+00     0   0.119E-10
 120 F= -.13913318E+03 E0= -.13914643E+03  d E =0.582077E-10
quench:  g(F)=  0.000E+00 g(S)=  0.000E+00 dE (1.order)= 0.000E+00
 bond charge predicted
       N       E                     dE             d eps       ncg     rms          rms(c)
DAV:   1    -0.139133178387E+03    0.34561E-09    0.76015E-11   168   0.143E-10    0.199E-10
RMM:   2    -0.139133178387E+03   -0.51296E-09    0.00000E+00     0   0.115E-10
 121 F= -.13913318E+03 E0= -.13914643E+03  d E =-.156433E-09
quench:  g(F)=  0.000E+00 g(S)=  0.000E+00 dE (1.order)= 0.000E+00
 bond charge predicted
       N       E                     dE             d eps       ncg     rms          rms(c)
DAV:   1    -0.139133178388E+03   -0.65484E-09   -0.13955E-11   168   0.180E-10    0.180E-10
RMM:   2    -0.139133178387E+03    0.28012E-09    0.00000E+00     0   0.136E-10
 122 F= -.13913318E+03 E0= -.13914643E+03  d E =0.138243E-09
quench:  g(F)=  0.000E+00 g(S)=  0.000E+00 dE (1.order)= 0.000E+00
 bond charge predicted
       N       E                     dE             d eps       ncg     rms          rms(c)
DAV:   1    -0.139133178389E+03   -0.12915E-08   -0.11419E-11   168   0.146E-10    0.268E-10
RMM:   2    -0.139133178387E+03    0.15607E-08    0.00000E+00     0   0.108E-10
 123 F= -.13913318E+03 E0= -.13914643E+03  d E =-.109139E-10
quench:  g(F)=  0.000E+00 g(S)=  0.000E+00 dE (1.order)= 0.000E+00
 bond charge predicted
       N       E                     dE             d eps       ncg     rms          rms(c)
DAV:   1    -0.139133178387E+03    0.14516E-08    0.67836E-11   168   0.188E-10    0.211E-10
RMM:   2    -0.139133178387E+03    0.54570E-10    0.00000E+00     0   0.132E-10
 124 F= -.13913318E+03 E0= -.13914643E+03  d E =-.545697E-10
quench:  g(F)=  0.000E+00 g(S)=  0.000E+00 dE (1.order)= 0.000E+00
 bond charge predicted
       N       E                     dE             d eps       ncg     rms          rms(c)
DAV:   1    -0.139133178388E+03   -0.10914E-09    0.18444E-11   168   0.237E-10    0.178E-10
RMM:   2    -0.139133178387E+03    0.26921E-09    0.00000E+00     0   0.118E-10
 125 F= -.13913318E+03 E0= -.13914643E+03  d E =0.105501E-09
quench:  g(F)=  0.000E+00 g(S)=  0.000E+00 dE (1.order)= 0.000E+00
 bond charge predicted
       N       E                     dE             d eps       ncg     rms          rms(c)
DAV:   1    -0.139133178387E+03    0.43656E-09    0.33199E-11   168   0.147E-10    0.199E-10
RMM:   2    -0.139133178387E+03   -0.26557E-09    0.00000E+00     0   0.104E-10
 126 F= -.13913318E+03 E0= -.13914643E+03  d E =-.982254E-10
quench:  g(F)=  0.000E+00 g(S)=  0.000E+00 dE (1.order)= 0.000E+00
 bond charge predicted
       N       E                     dE             d eps       ncg     rms          rms(c)
DAV:   1    -0.139133178387E+03   -0.24374E-09    0.11082E-10   168   0.168E-10    0.171E-10
RMM:   2    -0.139133178387E+03   -0.72760E-10    0.00000E+00     0   0.104E-10
 127 F= -.13913318E+03 E0= -.13914643E+03  d E =-.509317E-10
quench:  g(F)=  0.000E+00 g(S)=  0.000E+00 dE (1.order)= 0.000E+00
 bond charge predicted
       N       E                     dE             d eps       ncg     rms          rms(c)
DAV:   1    -0.139133178388E+03   -0.43656E-09    0.76878E-11   168   0.168E-10    0.124E-10
RMM:   2    -0.139133178387E+03    0.36744E-09    0.00000E+00     0   0.977E-11
 128 F= -.13913318E+03 E0= -.13914643E+03  d E =0.363798E-11
quench:  g(F)=  0.000E+00 g(S)=  0.000E+00 dE (1.order)= 0.000E+00
 bond charge predicted
       N       E                     dE             d eps       ncg     rms          rms(c)
DAV:   1    -0.139133178388E+03   -0.29104E-10    0.10783E-10   168   0.125E-10    0.191E-10
RMM:   2    -0.139133178387E+03    0.41473E-09    0.00000E+00     0   0.117E-10
 129 F= -.13913318E+03 E0= -.13914643E+03  d E =0.181899E-10
quench:  g(F)=  0.000E+00 g(S)=  0.000E+00 dE (1.order)= 0.000E+00
 bond charge predicted
       N       E                     dE             d eps       ncg     rms          rms(c)
DAV:   1    -0.139133178387E+03    0.52387E-09    0.46004E-11   168   0.133E-10    0.180E-10
RMM:   2    -0.139133178387E+03   -0.65484E-10    0.00000E+00     0   0.992E-11
 130 F= -.13913318E+03 E0= -.13914643E+03  d E =0.436557E-10
quench:  g(F)=  0.000E+00 g(S)=  0.000E+00 dE (1.order)= 0.000E+00
 bond charge predicted
       N       E                     dE             d eps       ncg     rms          rms(c)
DAV:   1    -0.139133178387E+03   -0.16735E-09    0.59826E-11   168   0.177E-10    0.148E-10
RMM:   2    -0.139133178387E+03    0.11278E-09    0.00000E+00     0   0.980E-11
 131 F= -.13913318E+03 E0= -.13914643E+03  d E =0.109139E-10
quench:  g(F)=  0.000E+00 g(S)=  0.000E+00 dE (1.order)= 0.000E+00
 bond charge predicted
       N       E                     dE             d eps       ncg     rms          rms(c)
DAV:   1    -0.139133178388E+03   -0.17099E-09   -0.68200E-11   168   0.166E-10    0.160E-10
RMM:   2    -0.139133178387E+03    0.22555E-09    0.00000E+00     0   0.100E-10
 132 F= -.13913318E+03 E0= -.13914643E+03  d E =-.582077E-10
quench:  g(F)=  0.000E+00 g(S)=  0.000E+00 dE (1.order)= 0.000E+00
 bond charge predicted
       N       E                     dE             d eps       ncg     rms          rms(c)
DAV:   1    -0.139133178387E+03    0.38926E-09   -0.14934E-11   168   0.147E-10    0.156E-10
RMM:   2    -0.139133178387E+03   -0.50932E-10    0.00000E+00     0   0.840E-11
 133 F= -.13913318E+03 E0= -.13914643E+03  d E =0.112777E-09
quench:  g(F)=  0.000E+00 g(S)=  0.000E+00 dE (1.order)= 0.000E+00
 bond charge predicted
       N       E                     dE             d eps       ncg     rms          rms(c)
DAV:   1    -0.139133178387E+03   -0.18190E-09    0.93051E-11   168   0.145E-10    0.191E-10
RMM:   2    -0.139133178387E+03    0.47294E-10    0.00000E+00     0   0.907E-11
 134 F= -.13913318E+03 E0= -.13914643E+03  d E =-.836735E-10
quench:  g(F)=  0.000E+00 g(S)=  0.000E+00 dE (1.order)= 0.000E+00
 bond charge predicted
       N       E                     dE             d eps       ncg     rms          rms(c)
DAV:   1    -0.139133178387E+03    0.00000E+00    0.38128E-11   168   0.135E-10    0.222E-10
RMM:   2    -0.139133178387E+03    0.13461E-09    0.00000E+00     0   0.940E-11
 135 F= -.13913318E+03 E0= -.13914643E+03  d E =0.873115E-10
quench:  g(F)=  0.000E+00 g(S)=  0.000E+00 dE (1.order)= 0.000E+00
 bond charge predicted
       N       E                     dE             d eps       ncg     rms          rms(c)
DAV:   1    -0.139133178387E+03    0.30923E-09    0.64258E-11   168   0.159E-10    0.180E-10
RMM:   2    -0.139133178387E+03   -0.18554E-09    0.00000E+00     0   0.109E-10
 136 F= -.13913318E+03 E0= -.13914643E+03  d E =-.109139E-10
quench:  g(F)=  0.000E+00 g(S)=  0.000E+00 dE (1.order)= 0.000E+00
 bond charge predicted
       N       E                     dE             d eps       ncg     rms          rms(c)
DAV:   1    -0.139133178388E+03   -0.10405E-08    0.66625E-11   168   0.169E-10    0.268E-10
RMM:   2    -0.139133178387E+03    0.83310E-09    0.00000E+00     0   0.115E-10
 137 F= -.13913318E+03 E0= -.13914643E+03  d E =-.218279E-10
quench:  g(F)=  0.000E+00 g(S)=  0.000E+00 dE (1.order)= 0.000E+00
 bond charge predicted
       N       E                     dE             d eps       ncg     rms          rms(c)
DAV:   1    -0.139133178387E+03    0.79308E-09    0.32815E-11   168   0.137E-10    0.165E-10
RMM:   2    -0.139133178387E+03    0.36380E-10    0.00000E+00     0   0.105E-10
 138 F= -.13913318E+03 E0= -.13914643E+03  d E =-.363798E-11
quench:  g(F)=  0.000E+00 g(S)=  0.000E+00 dE (1.order)= 0.000E+00
 bond charge predicted
       N       E                     dE             d eps       ncg     rms          rms(c)
DAV:   1    -0.139133178387E+03    0.54570E-09    0.16065E-11   168   0.115E-10    0.134E-10
RMM:   2    -0.139133178387E+03   -0.54206E-09    0.00000E+00     0   0.898E-11
 139 F= -.13913318E+03 E0= -.13914643E+03  d E =-.327418E-10
quench:  g(F)=  0.000E+00 g(S)=  0.000E+00 dE (1.order)= 0.000E+00
 bond charge predicted
       N       E                     dE             d eps       ncg     rms          rms(c)
DAV:   1    -0.139133178387E+03   -0.53114E-09    0.18705E-11   168   0.974E-11    0.212E-10
RMM:   2    -0.139133178387E+03    0.40018E-10    0.00000E+00     0   0.981E-11
 140 F= -.13913318E+03 E0= -.13914643E+03  d E =0.509317E-10
quench:  g(F)=  0.000E+00 g(S)=  0.000E+00 dE (1.order)= 0.000E+00
 bond charge predicted
       N       E                     dE             d eps       ncg     rms          rms(c)
DAV:   1    -0.139133178388E+03   -0.13461E-09    0.55317E-11   168   0.161E-10    0.167E-10
RMM:   2    -0.139133178387E+03    0.65484E-10    0.00000E+00     0   0.934E-11
 141 F= -.13913318E+03 E0= -.13914643E+03  d E =-.109139E-09
quench:  g(F)=  0.000E+00 g(S)=  0.000E+00 dE (1.order)= 0.000E+00
 bond charge predicted
       N       E                     dE             d eps       ncg     rms          rms(c)
DAV:   1    -0.139133178387E+03    0.36380E-09    0.89223E-11   168   0.129E-10    0.246E-10
RMM:   2    -0.139133178387E+03   -0.16371E-09    0.00000E+00     0   0.116E-10
 142 F= -.13913318E+03 E0= -.13914643E+03  d E =0.134605E-09
quench:  g(F)=  0.000E+00 g(S)=  0.000E+00 dE (1.order)= 0.000E+00
 bond charge predicted
       N       E                     dE             d eps       ncg     rms          rms(c)
DAV:   1    -0.139133178388E+03   -0.60390E-09    0.45266E-11   168   0.220E-10    0.223E-10
RMM:   2    -0.139133178387E+03    0.34925E-09    0.00000E+00     0   0.141E-10
 143 F= -.13913318E+03 E0= -.13914643E+03  d E =-.909495E-10
quench:  g(F)=  0.000E+00 g(S)=  0.000E+00 dE (1.order)= 0.000E+00
 bond charge predicted
       N       E                     dE             d eps       ncg     rms          rms(c)
DAV:   1    -0.139133178388E+03   -0.18554E-09    0.14582E-10   168   0.211E-10    0.177E-10
RMM:   2    -0.139133178387E+03    0.58571E-09    0.00000E+00     0   0.994E-11
 144 F= -.13913318E+03 E0= -.13914643E+03  d E =0.509317E-10
quench:  g(F)=  0.000E+00 g(S)=  0.000E+00 dE (1.order)= 0.000E+00
 bond charge predicted
       N       E                     dE             d eps       ncg     rms          rms(c)
DAV:   1    -0.139133178387E+03    0.73487E-09    0.63566E-11   168   0.128E-10    0.213E-10
RMM:   2    -0.139133178387E+03   -0.12733E-09    0.00000E+00     0   0.890E-11
 145 F= -.13913318E+03 E0= -.13914643E+03  d E =0.218279E-10
quench:  g(F)=  0.000E+00 g(S)=  0.000E+00 dE (1.order)= 0.000E+00
 bond charge predicted
       N       E                     dE             d eps       ncg     rms          rms(c)
DAV:   1    -0.139133178387E+03   -0.43656E-10    0.31599E-11   168   0.136E-10    0.131E-10
RMM:   2    -0.139133178387E+03   -0.19645E-09    0.00000E+00     0   0.892E-11
 146 F= -.13913318E+03 E0= -.13914643E+03  d E =-.112777E-09
quench:  g(F)=  0.000E+00 g(S)=  0.000E+00 dE (1.order)= 0.000E+00
 bond charge predicted
       N       E                     dE             d eps       ncg     rms          rms(c)
DAV:   1    -0.139133178388E+03   -0.93860E-09    0.71412E-11   168   0.129E-10    0.172E-10
RMM:   2    -0.139133178387E+03    0.88039E-09    0.00000E+00     0   0.903E-11
 147 F= -.13913318E+03 E0= -.13914643E+03  d E =0.138243E-09
quench:  g(F)=  0.000E+00 g(S)=  0.000E+00 dE (1.order)= 0.000E+00
 bond charge predicted
       N       E                     dE             d eps       ncg     rms          rms(c)
DAV:   1    -0.139133178387E+03    0.98953E-09    0.86143E-11   168   0.148E-10    0.243E-10
RMM:   2    -0.139133178387E+03   -0.21828E-09    0.00000E+00     0   0.110E-10
 148 F= -.13913318E+03 E0= -.13914643E+03  d E =-.109139E-09
quench:  g(F)=  0.000E+00 g(S)=  0.000E+00 dE (1.order)= 0.000E+00
 bond charge predicted
       N       E                     dE             d eps       ncg     rms          rms(c)
DAV:   1    -0.139133178387E+03    0.55661E-09    0.65529E-11   168   0.206E-10    0.157E-10
RMM:   2    -0.139133178387E+03   -0.69849E-09    0.00000E+00     0   0.956E-11
 149 F= -.13913318E+03 E0= -.13914643E+03  d E =0.763976E-10
quench:  g(F)=  0.000E+00 g(S)=  0.000E+00 dE (1.order)= 0.000E+00
 bond charge predicted
       N       E                     dE             d eps       ncg     rms          rms(c)
DAV:   1    -0.139133178387E+03   -0.40382E-09    0.11831E-10   168   0.150E-10    0.232E-10
RMM:   2    -0.139133178387E+03   -0.43292E-09    0.00000E+00     0   0.116E-10
 150 F= -.13913318E+03 E0= -.13914643E+03  d E =-.138243E-09
quench:  g(F)=  0.000E+00 g(S)=  0.000E+00 dE (1.order)= 0.000E+00
 bond charge predicted
       N       E                     dE             d eps       ncg     rms          rms(c)
DAV:   1    -0.139133178388E+03   -0.10878E-08    0.12871E-10   168   0.164E-10    0.201E-10
RMM:   2    -0.139133178387E+03    0.76761E-09    0.00000E+00     0   0.116E-10
 151 F= -.13913318E+03 E0= -.13914643E+03  d E =0.112777E-09
quench:  g(F)=  0.000E+00 g(S)=  0.000E+00 dE (1.order)= 0.000E+00
 bond charge predicted
       N       E                     dE             d eps       ncg     rms          rms(c)
DAV:   1    -0.139133178388E+03    0.28740E-09    0.76329E-11   168   0.168E-10    0.214E-10
RMM:   2    -0.139133178387E+03    0.42928E-09    0.00000E+00     0   0.126E-10
 152 F= -.13913318E+03 E0= -.13914643E+03  d E =-.509317E-10
quench:  g(F)=  0.000E+00 g(S)=  0.000E+00 dE (1.order)= 0.000E+00
 bond charge predicted
       N       E                     dE             d eps       ncg     rms          rms(c)
DAV:   1    -0.139133178387E+03    0.69122E-09    0.69552E-11   168   0.182E-10    0.269E-10
RMM:   2    -0.139133178387E+03   -0.28740E-09    0.00000E+00     0   0.118E-10
 153 F= -.13913318E+03 E0= -.13914643E+03  d E =-.254659E-10
quench:  g(F)=  0.000E+00 g(S)=  0.000E+00 dE (1.order)= 0.000E+00
 bond charge predicted
       N       E                     dE             d eps       ncg     rms          rms(c)
DAV:   1    -0.139133178387E+03    0.27285E-09    0.17056E-10   168   0.203E-10    0.175E-10
RMM:   2    -0.139133178387E+03   -0.54933E-09    0.00000E+00     0   0.936E-11
 154 F= -.13913318E+03 E0= -.13914643E+03  d E =0.109139E-10
quench:  g(F)=  0.000E+00 g(S)=  0.000E+00 dE (1.order)= 0.000E+00
 bond charge predicted
       N       E                     dE             d eps       ncg     rms          rms(c)
DAV:   1    -0.139133178387E+03   -0.61482E-09    0.32971E-11   168   0.131E-10    0.181E-10
RMM:   2    -0.139133178387E+03    0.15280E-09    0.00000E+00     0   0.973E-11
 155 F= -.13913318E+03 E0= -.13914643E+03  d E =0.873115E-10
quench:  g(F)=  0.000E+00 g(S)=  0.000E+00 dE (1.order)= 0.000E+00
 bond charge predicted
       N       E                     dE             d eps       ncg     rms          rms(c)
DAV:   1    -0.139133178386E+03    0.12842E-08    0.13321E-10   168   0.198E-10    0.253E-10
RMM:   2    -0.139133178387E+03   -0.11205E-08    0.00000E+00     0   0.106E-10
 156 F= -.13913318E+03 E0= -.13914643E+03  d E =0.109139E-10
quench:  g(F)=  0.000E+00 g(S)=  0.000E+00 dE (1.order)= 0.000E+00
 bond charge predicted
       N       E                     dE             d eps       ncg     rms          rms(c)
DAV:   1    -0.139133178388E+03   -0.15498E-08    0.12199E-10   168   0.173E-10    0.222E-10
RMM:   2    -0.139133178387E+03    0.46566E-09    0.00000E+00     0   0.111E-10
 157 F= -.13913318E+03 E0= -.13914643E+03  d E =0.363798E-10
quench:  g(F)=  0.000E+00 g(S)=  0.000E+00 dE (1.order)= 0.000E+00
 bond charge predicted
       N       E                     dE             d eps       ncg     rms          rms(c)
DAV:   1    -0.139133178387E+03    0.55297E-09   -0.35317E-12   168   0.226E-10    0.298E-10
RMM:   2    -0.139133178387E+03   -0.12005E-09    0.00000E+00     0   0.119E-10
 158 F= -.13913318E+03 E0= -.13914643E+03  d E =-.327418E-10
quench:  g(F)=  0.000E+00 g(S)=  0.000E+00 dE (1.order)= 0.000E+00
 bond charge predicted
       N       E                     dE             d eps       ncg     rms          rms(c)
DAV:   1    -0.139133178388E+03   -0.33106E-09    0.99593E-11   168   0.210E-10    0.243E-10
RMM:   2    -0.139133178387E+03    0.11642E-09    0.00000E+00     0   0.108E-10
 159 F= -.13913318E+03 E0= -.13914643E+03  d E =-.945874E-10
quench:  g(F)=  0.000E+00 g(S)=  0.000E+00 dE (1.order)= 0.000E+00
 bond charge predicted
       N       E                     dE             d eps       ncg     rms          rms(c)
DAV:   1    -0.139133178387E+03    0.17462E-09    0.16969E-10   168   0.151E-10    0.170E-10
RMM:   2    -0.139133178387E+03   -0.90949E-10    0.00000E+00     0   0.931E-11
 160 F= -.13913318E+03 E0= -.13914643E+03  d E =-.327418E-10
quench:  g(F)=  0.000E+00 g(S)=  0.000E+00 dE (1.order)= 0.000E+00
 bond charge predicted
       N       E                     dE             d eps       ncg     rms          rms(c)
DAV:   1    -0.139133178387E+03   -0.83674E-10    0.77214E-11   168   0.120E-10    0.216E-10
RMM:   2    -0.139133178387E+03   -0.72760E-11    0.00000E+00     0   0.930E-11
 161 F= -.13913318E+03 E0= -.13914643E+03  d E =0.000000E+00
quench:  g(F)=  0.000E+00 g(S)=  0.000E+00 dE (1.order)= 0.000E+00
 bond charge predicted
       N       E                     dE             d eps       ncg     rms          rms(c)
DAV:   1    -0.139133178386E+03    0.10295E-08    0.10236E-10   168   0.172E-10    0.189E-10
RMM:   2    -0.139133178387E+03   -0.10550E-08    0.00000E+00     0   0.113E-10
 162 F= -.13913318E+03 E0= -.13914643E+03  d E =-.181899E-10
quench:  g(F)=  0.000E+00 g(S)=  0.000E+00 dE (1.order)= 0.000E+00
 bond charge predicted
       N       E                     dE             d eps       ncg     rms          rms(c)
DAV:   1    -0.139133178387E+03   -0.78944E-09    0.67645E-11   168   0.140E-10    0.260E-10
RMM:   2    -0.139133178387E+03   -0.19281E-09    0.00000E+00     0   0.116E-10
 163 F= -.13913318E+03 E0= -.13914643E+03  d E =0.727596E-10
quench:  g(F)=  0.000E+00 g(S)=  0.000E+00 dE (1.order)= 0.000E+00
 bond charge predicted
       N       E                     dE             d eps       ncg     rms          rms(c)
DAV:   1    -0.139133178387E+03   -0.26557E-09    0.13390E-10   168   0.225E-10    0.292E-10
RMM:   2    -0.139133178387E+03    0.15643E-09    0.00000E+00     0   0.138E-10
 164 F= -.13913318E+03 E0= -.13914643E+03  d E =0.836735E-10
quench:  g(F)=  0.000E+00 g(S)=  0.000E+00 dE (1.order)= 0.000E+00
 bond charge predicted
       N       E                     dE             d eps       ncg     rms          rms(c)
DAV:   1    -0.139133178386E+03    0.16225E-08    0.27627E-11   168   0.224E-10    0.201E-10
RMM:   2    -0.139133178387E+03   -0.16043E-08    0.00000E+00     0   0.113E-10
 165 F= -.13913318E+03 E0= -.13914643E+03  d E =-.138243E-09
quench:  g(F)=  0.000E+00 g(S)=  0.000E+00 dE (1.order)= 0.000E+00
 bond charge predicted
       N       E                     dE             d eps       ncg     rms          rms(c)
DAV:   1    -0.139133178387E+03   -0.99317E-09    0.26978E-11   168   0.150E-10    0.179E-10
RMM:   2    -0.139133178387E+03   -0.55297E-09    0.00000E+00     0   0.104E-10
 166 F= -.13913318E+03 E0= -.13914643E+03  d E =0.582077E-10
quench:  g(F)=  0.000E+00 g(S)=  0.000E+00 dE (1.order)= 0.000E+00
 bond charge predicted
       N       E                     dE             d eps       ncg     rms          rms(c)
DAV:   1    -0.139133178387E+03   -0.14552E-09    0.83464E-12   168   0.132E-10    0.196E-10
RMM:   2    -0.139133178387E+03   -0.31650E-09    0.00000E+00     0   0.103E-10
 167 F= -.13913318E+03 E0= -.13914643E+03  d E =0.909495E-10
quench:  g(F)=  0.000E+00 g(S)=  0.000E+00 dE (1.order)= 0.000E+00
 bond charge predicted
       N       E                     dE             d eps       ncg     rms          rms(c)
DAV:   1    -0.139133178388E+03   -0.61118E-09    0.80416E-11   168   0.173E-10    0.218E-10
RMM:   2    -0.139133178387E+03    0.15643E-09    0.00000E+00     0   0.113E-10
 168 F= -.13913318E+03 E0= -.13914643E+03  d E =-.138243E-09
quench:  g(F)=  0.000E+00 g(S)=  0.000E+00 dE (1.order)= 0.000E+00
 bond charge predicted
       N       E                     dE             d eps       ncg     rms          rms(c)
DAV:   1    -0.139133178387E+03    0.68758E-09    0.91802E-11   168   0.121E-10    0.274E-10
RMM:   2    -0.139133178387E+03   -0.36744E-09    0.00000E+00     0   0.135E-10
 169 F= -.13913318E+03 E0= -.13914643E+03  d E =0.163709E-09
quench:  g(F)=  0.000E+00 g(S)=  0.000E+00 dE (1.order)= 0.000E+00
 bond charge predicted
       N       E                     dE             d eps       ncg     rms          rms(c)
DAV:   1    -0.139133178388E+03   -0.72032E-09    0.22071E-11   168   0.226E-10    0.308E-10
RMM:   2    -0.139133178387E+03    0.22919E-09    0.00000E+00     0   0.160E-10
 170 F= -.13913318E+03 E0= -.13914643E+03  d E =-.123691E-09
quench:  g(F)=  0.000E+00 g(S)=  0.000E+00 dE (1.order)= 0.000E+00
 bond charge predicted
       N       E                     dE             d eps       ncg     rms          rms(c)
DAV:   1    -0.139133178387E+03    0.78580E-09    0.72710E-11   168   0.281E-10    0.236E-10
RMM:   2    -0.139133178387E+03   -0.48749E-09    0.00000E+00     0   0.149E-10
 171 F= -.13913318E+03 E0= -.13914643E+03  d E =0.691216E-10
quench:  g(F)=  0.000E+00 g(S)=  0.000E+00 dE (1.order)= 0.000E+00
 bond charge predicted
       N       E                     dE             d eps       ncg     rms          rms(c)
DAV:   1    -0.139133178388E+03   -0.96043E-09    0.30167E-11   168   0.157E-10    0.206E-10
RMM:   2    -0.139133178387E+03    0.44383E-09    0.00000E+00     0   0.109E-10
 172 F= -.13913318E+03 E0= -.13914643E+03  d E =-.291038E-10
quench:  g(F)=  0.000E+00 g(S)=  0.000E+00 dE (1.order)= 0.000E+00
 bond charge predicted
       N       E                     dE             d eps       ncg     rms          rms(c)
DAV:   1    -0.139133178388E+03    0.58208E-10   -0.11955E-11   168   0.146E-10    0.171E-10
RMM:   2    -0.139133178387E+03    0.43656E-09    0.00000E+00     0   0.835E-11
 173 F= -.13913318E+03 E0= -.13914643E+03  d E =0.509317E-10
quench:  g(F)=  0.000E+00 g(S)=  0.000E+00 dE (1.order)= 0.000E+00
 bond charge predicted
       N       E                     dE             d eps       ncg     rms          rms(c)
DAV:   1    -0.139133178387E+03    0.39290E-09    0.39032E-11   168   0.119E-10    0.245E-10
RMM:   2    -0.139133178387E+03   -0.12733E-09    0.00000E+00     0   0.121E-10
 174 F= -.13913318E+03 E0= -.13914643E+03  d E =-.170985E-09
quench:  g(F)=  0.000E+00 g(S)=  0.000E+00 dE (1.order)= 0.000E+00
 bond charge predicted
       N       E                     dE             d eps       ncg     rms          rms(c)
DAV:   1    -0.139133178387E+03   -0.94587E-10    0.75880E-11   168   0.249E-10    0.265E-10
RMM:   2    -0.139133178387E+03    0.14552E-09    0.00000E+00     0   0.166E-10
 175 F= -.13913318E+03 E0= -.13914643E+03  d E =0.178261E-09
quench:  g(F)=  0.000E+00 g(S)=  0.000E+00 dE (1.order)= 0.000E+00
 bond charge predicted
       N       E                     dE             d eps       ncg     rms          rms(c)
DAV:   1    -0.139133178387E+03    0.49840E-09    0.95878E-11   168   0.246E-10    0.192E-10
RMM:   2    -0.139133178387E+03   -0.48021E-09    0.00000E+00     0   0.110E-10
 176 F= -.13913318E+03 E0= -.13914643E+03  d E =-.127329E-09
quench:  g(F)=  0.000E+00 g(S)=  0.000E+00 dE (1.order)= 0.000E+00
 bond charge predicted
       N       E                     dE             d eps       ncg     rms          rms(c)
DAV:   1    -0.139133178386E+03    0.74942E-09    0.14318E-10   168   0.197E-10    0.176E-10
RMM:   2    -0.139133178387E+03   -0.11350E-08    0.00000E+00     0   0.973E-11
 177 F= -.13913318E+03 E0= -.13914643E+03  d E =0.945874E-10
quench:  g(F)=  0.000E+00 g(S)=  0.000E+00 dE (1.order)= 0.000E+00
 bond charge predicted
       N       E                     dE             d eps       ncg     rms          rms(c)
DAV:   1    -0.139133178387E+03   -0.82582E-09    0.71322E-12   168   0.141E-10    0.153E-10
RMM:   2    -0.139133178387E+03   -0.33469E-09    0.00000E+00     0   0.902E-11
 178 F= -.13913318E+03 E0= -.13914643E+03  d E =-.254659E-10
quench:  g(F)=  0.000E+00 g(S)=  0.000E+00 dE (1.order)= 0.000E+00
 bond charge predicted
       N       E                     dE             d eps       ncg     rms          rms(c)
DAV:   1    -0.139133178388E+03   -0.97862E-09    0.13133E-10   168   0.159E-10    0.200E-10
RMM:   2    -0.139133178387E+03    0.62573E-09    0.00000E+00     0   0.974E-11
 179 F= -.13913318E+03 E0= -.13914643E+03  d E =-.181899E-10
quench:  g(F)=  0.000E+00 g(S)=  0.000E+00 dE (1.order)= 0.000E+00
 bond charge predicted
       N       E                     dE             d eps       ncg     rms          rms(c)
DAV:   1    -0.139133178388E+03    0.12005E-09    0.13719E-10   168   0.134E-10    0.171E-10
RMM:   2    -0.139133178387E+03    0.41473E-09    0.00000E+00     0   0.995E-11
 180 F= -.13913318E+03 E0= -.13914643E+03  d E =-.909495E-10
quench:  g(F)=  0.000E+00 g(S)=  0.000E+00 dE (1.order)= 0.000E+00
 bond charge predicted
       N       E                     dE             d eps       ncg     rms          rms(c)
DAV:   1    -0.139133178386E+03    0.17899E-08   -0.41619E-12   168   0.148E-10    0.255E-10
RMM:   2    -0.139133178387E+03   -0.13606E-08    0.00000E+00     0   0.125E-10
 181 F= -.13913318E+03 E0= -.13914643E+03  d E =0.145519E-10
quench:  g(F)=  0.000E+00 g(S)=  0.000E+00 dE (1.order)= 0.000E+00
 bond charge predicted
       N       E                     dE             d eps       ncg     rms          rms(c)
DAV:   1    -0.139133178388E+03   -0.15025E-08    0.83401E-11   168   0.232E-10    0.171E-10
RMM:   2    -0.139133178387E+03    0.25830E-09    0.00000E+00     0   0.125E-10
 182 F= -.13913318E+03 E0= -.13914643E+03  d E =0.116415E-09
quench:  g(F)=  0.000E+00 g(S)=  0.000E+00 dE (1.order)= 0.000E+00
 bond charge predicted
       N       E                     dE             d eps       ncg     rms          rms(c)
DAV:   1    -0.139133178388E+03   -0.11642E-09    0.70508E-11   168   0.210E-10    0.211E-10
RMM:   2    -0.139133178387E+03    0.30195E-09    0.00000E+00     0   0.116E-10
 183 F= -.13913318E+03 E0= -.13914643E+03  d E =-.727596E-10
quench:  g(F)=  0.000E+00 g(S)=  0.000E+00 dE (1.order)= 0.000E+00
 bond charge predicted
       N       E                     dE             d eps       ncg     rms          rms(c)
DAV:   1    -0.139133178387E+03    0.48021E-09    0.11153E-10   168   0.226E-10    0.277E-10
RMM:   2    -0.139133178387E+03   -0.20736E-09    0.00000E+00     0   0.930E-11
 184 F= -.13913318E+03 E0= -.13914643E+03  d E =-.291038E-10
quench:  g(F)=  0.000E+00 g(S)=  0.000E+00 dE (1.order)= 0.000E+00
[...]
 bond charge predicted
       N       E                     dE             d eps       ncg     rms          rms(c)
DAV:   1    -0.139133178387E+03    0.15280E-09    0.16275E-11   168   0.112E-10    0.172E-10
RMM:   2    -0.139133178387E+03   -0.25466E-10    0.00000E+00     0   0.970E-11
 453 F= -.13913318E+03 E0= -.13914643E+03  d E =-.145519E-10
quench:  g(F)=  0.000E+00 g(S)=  0.000E+00 dE (1.order)= 0.000E+00
 bond charge predicted
       N       E                     dE             d eps       ncg     rms          rms(c)
DAV:   1    -0.139133178387E+03    0.72760E-11    0.58742E-11   168   0.149E-10    0.138E-10
RMM:   2    -0.139133178387E+03    0.50932E-10    0.00000E+00     0   0.881E-11
 454 F= -.13913318E+03 E0= -.13914643E+03  d E =0.836735E-10
quench:  g(F)=  0.000E+00 g(S)=  0.000E+00 dE (1.order)= 0.000E+00
 bond charge predicted
       N       E                     dE             d eps       ncg     rms          rms(c)
DAV:   1    -0.139133178388E+03   -0.13461E-09    0.56051E-11   168   0.129E-10    0.212E-10
RMM:   2    -0.139133178387E+03    0.13461E-09    0.00000E+00     0   0.111E-10
 455 F= -.13913318E+03 E0= -.13914643E+03  d E =-.509317E-10
quench:  g(F)=  0.000E+00 g(S)=  0.000E+00 dE (1.order)= 0.000E+00
 bond charge predicted
       N       E                     dE             d eps       ncg     rms          rms(c)
DAV:   1    -0.139133178387E+03    0.41473E-09    0.25758E-11   168   0.139E-10    0.314E-10
RMM:   2    -0.139133178387E+03   -0.25466E-09    0.00000E+00     0   0.111E-10
 456 F= -.13913318E+03 E0= -.13914643E+03  d E =0.254659E-10
quench:  g(F)=  0.000E+00 g(S)=  0.000E+00 dE (1.order)= 0.000E+00
 bond charge predicted
       N       E                     dE             d eps       ncg     rms          rms(c)
DAV:   1    -0.139133178387E+03    0.27649E-09    0.27896E-11   168   0.193E-10    0.234E-10
RMM:   2    -0.139133178387E+03   -0.54933E-09    0.00000E+00     0   0.110E-10
 457 F= -.13913318E+03 E0= -.13914643E+03  d E =-.181899E-10
quench:  g(F)=  0.000E+00 g(S)=  0.000E+00 dE (1.order)= 0.000E+00
 bond charge predicted
       N       E                     dE             d eps       ncg     rms          rms(c)
DAV:   1    -0.139133178388E+03   -0.14479E-08    0.10411E-10   168   0.237E-10    0.154E-10
RMM:   2    -0.139133178387E+03    0.88767E-09    0.00000E+00     0   0.103E-10
 458 F= -.13913318E+03 E0= -.13914643E+03  d E =-.109139E-10
quench:  g(F)=  0.000E+00 g(S)=  0.000E+00 dE (1.order)= 0.000E+00
 bond charge predicted
       N       E                     dE             d eps       ncg     rms          rms(c)
DAV:   1    -0.139133178388E+03    0.75306E-09    0.57304E-11   168   0.136E-10    0.250E-10
RMM:   2    -0.139133178387E+03    0.12733E-09    0.00000E+00     0   0.119E-10
 459 F= -.13913318E+03 E0= -.13914643E+03  d E =-.727596E-11
quench:  g(F)=  0.000E+00 g(S)=  0.000E+00 dE (1.order)= 0.000E+00
 bond charge predicted
       N       E                     dE             d eps       ncg     rms          rms(c)
DAV:   1    -0.139133178387E+03    0.55297E-09    0.54349E-11   168   0.196E-10    0.217E-10
RMM:   2    -0.139133178387E+03   -0.35652E-09    0.00000E+00     0   0.109E-10
 460 F= -.13913318E+03 E0= -.13914643E+03  d E =0.691216E-10
quench:  g(F)=  0.000E+00 g(S)=  0.000E+00 dE (1.order)= 0.000E+00
 bond charge predicted
       N       E                     dE             d eps       ncg     rms          rms(c)
DAV:   1    -0.139133178388E+03   -0.10623E-08    0.52448E-11   168   0.159E-10    0.169E-10
RMM:   2    -0.139133178387E+03    0.54933E-09    0.00000E+00     0   0.805E-11
 461 F= -.13913318E+03 E0= -.13914643E+03  d E =-.156433E-09
quench:  g(F)=  0.000E+00 g(S)=  0.000E+00 dE (1.order)= 0.000E+00
 bond charge predicted
       N       E                     dE             d eps       ncg     rms          rms(c)
DAV:   1    -0.139133178387E+03    0.91313E-09    0.14060E-10   168   0.151E-10    0.200E-10
RMM:   2    -0.139133178387E+03   -0.32742E-09    0.00000E+00     0   0.122E-10
 462 F= -.13913318E+03 E0= -.13914643E+03  d E =0.363798E-10
quench:  g(F)=  0.000E+00 g(S)=  0.000E+00 dE (1.order)= 0.000E+00
 bond charge predicted
       N       E                     dE             d eps       ncg     rms          rms(c)
DAV:   1    -0.139133178387E+03    0.14188E-09    0.13564E-10   168   0.186E-10    0.120E-10
RMM:   2    -0.139133178387E+03   -0.43656E-09    0.00000E+00     0   0.891E-11
 463 F= -.13913318E+03 E0= -.13914643E+03  d E =0.327418E-10
quench:  g(F)=  0.000E+00 g(S)=  0.000E+00 dE (1.order)= 0.000E+00
 bond charge predicted
       N       E                     dE             d eps       ncg     rms          rms(c)
DAV:   1    -0.139133178388E+03   -0.77489E-09    0.20275E-10   168   0.100E-10    0.304E-10
RMM:   2    -0.139133178387E+03    0.25102E-09    0.00000E+00     0   0.112E-10
 464 F= -.13913318E+03 E0= -.13914643E+03  d E =-.873115E-10
quench:  g(F)=  0.000E+00 g(S)=  0.000E+00 dE (1.order)= 0.000E+00
 bond charge predicted
       N       E                     dE             d eps       ncg     rms          rms(c)
DAV:   1    -0.139133178387E+03    0.46930E-09    0.14805E-10   168   0.218E-10    0.264E-10
RMM:   2    -0.139133178387E+03   -0.69122E-10    0.00000E+00     0   0.122E-10
 465 F= -.13913318E+03 E0= -.13914643E+03  d E =0.149157E-09
quench:  g(F)=  0.000E+00 g(S)=  0.000E+00 dE (1.order)= 0.000E+00
 bond charge predicted
       N       E                     dE             d eps       ncg     rms          rms(c)
DAV:   1    -0.139133178388E+03   -0.61482E-09    0.89577E-12   168   0.177E-10    0.243E-10
RMM:   2    -0.139133178387E+03    0.53842E-09    0.00000E+00     0   0.111E-10
 466 F= -.13913318E+03 E0= -.13914643E+03  d E =-.727596E-11
quench:  g(F)=  0.000E+00 g(S)=  0.000E+00 dE (1.order)= 0.000E+00
 bond charge predicted
       N       E                     dE             d eps       ncg     rms          rms(c)
DAV:   1    -0.139133178387E+03    0.56025E-09    0.12208E-10   168   0.239E-10    0.179E-10
RMM:   2    -0.139133178387E+03   -0.76398E-10    0.00000E+00     0   0.102E-10
 467 F= -.13913318E+03 E0= -.13914643E+03  d E =-.545697E-10
quench:  g(F)=  0.000E+00 g(S)=  0.000E+00 dE (1.order)= 0.000E+00
 bond charge predicted
       N       E                     dE             d eps       ncg     rms          rms(c)
DAV:   1    -0.139133178387E+03    0.12733E-09    0.10841E-10   168   0.126E-10    0.240E-10
RMM:   2    -0.139133178387E+03   -0.22919E-09    0.00000E+00     0   0.113E-10
 468 F= -.13913318E+03 E0= -.13914643E+03  d E =-.254659E-10
quench:  g(F)=  0.000E+00 g(S)=  0.000E+00 dE (1.order)= 0.000E+00
 bond charge predicted
       N       E                     dE             d eps       ncg     rms          rms(c)
DAV:   1    -0.139133178388E+03   -0.11423E-08    0.10693E-10   168   0.213E-10    0.163E-10
RMM:   2    -0.139133178387E+03    0.94951E-09    0.00000E+00     0   0.117E-10
 469 F= -.13913318E+03 E0= -.13914643E+03  d E =0.363798E-10
quench:  g(F)=  0.000E+00 g(S)=  0.000E+00 dE (1.order)= 0.000E+00
 bond charge predicted
       N       E                     dE             d eps       ncg     rms          rms(c)
DAV:   1    -0.139133178387E+03    0.15389E-08   -0.32815E-11   168   0.153E-10    0.275E-10
RMM:   2    -0.139133178387E+03   -0.56752E-09    0.00000E+00     0   0.122E-10
 470 F= -.13913318E+03 E0= -.13914643E+03  d E =0.218279E-10
quench:  g(F)=  0.000E+00 g(S)=  0.000E+00 dE (1.order)= 0.000E+00
 bond charge predicted
       N       E                     dE             d eps       ncg     rms          rms(c)
DAV:   1    -0.139133178387E+03   -0.27285E-09    0.10273E-10   168   0.235E-10    0.148E-10
RMM:   2    -0.139133178387E+03   -0.28740E-09    0.00000E+00     0   0.131E-10
 471 F= -.13913318E+03 E0= -.13914643E+03  d E =0.727596E-11
quench:  g(F)=  0.000E+00 g(S)=  0.000E+00 dE (1.order)= 0.000E+00
 bond charge predicted
       N       E                     dE             d eps       ncg     rms          rms(c)
DAV:   1    -0.139133178388E+03   -0.79672E-09    0.42426E-11   168   0.124E-10    0.262E-10
RMM:   2    -0.139133178387E+03    0.55661E-09    0.00000E+00     0   0.122E-10
 472 F= -.13913318E+03 E0= -.13914643E+03  d E =0.472937E-10
quench:  g(F)=  0.000E+00 g(S)=  0.000E+00 dE (1.order)= 0.000E+00
 bond charge predicted
       N       E                     dE             d eps       ncg     rms          rms(c)
DAV:   1    -0.139133178386E+03    0.14079E-08    0.63499E-11   168   0.240E-10    0.184E-10
RMM:   2    -0.139133178387E+03   -0.92768E-09    0.00000E+00     0   0.112E-10
 473 F= -.13913318E+03 E0= -.13914643E+03  d E =-.763976E-10
quench:  g(F)=  0.000E+00 g(S)=  0.000E+00 dE (1.order)= 0.000E+00
 bond charge predicted
       N       E                     dE             d eps       ncg     rms          rms(c)
DAV:   1    -0.139133178386E+03    0.27285E-09    0.15130E-10   168   0.210E-10    0.215E-10
RMM:   2    -0.139133178387E+03   -0.11605E-08    0.00000E+00     0   0.127E-10
 474 F= -.13913318E+03 E0= -.13914643E+03  d E =0.400178E-10
quench:  g(F)=  0.000E+00 g(S)=  0.000E+00 dE (1.order)= 0.000E+00
 bond charge predicted
       N       E                     dE             d eps       ncg     rms          rms(c)
DAV:   1    -0.139133178388E+03   -0.14043E-08    0.89077E-11   168   0.209E-10    0.218E-10
RMM:   2    -0.139133178387E+03    0.18554E-09    0.00000E+00     0   0.114E-10
 475 F= -.13913318E+03 E0= -.13914643E+03  d E =-.582077E-10
quench:  g(F)=  0.000E+00 g(S)=  0.000E+00 dE (1.order)= 0.000E+00
 bond charge predicted
       N       E                     dE             d eps       ncg     rms          rms(c)
DAV:   1    -0.139133178388E+03   -0.12733E-09    0.11285E-10   168   0.176E-10    0.178E-10
RMM:   2    -0.139133178387E+03    0.41109E-09    0.00000E+00     0   0.107E-10
 476 F= -.13913318E+03 E0= -.13914643E+03  d E =0.982254E-10
quench:  g(F)=  0.000E+00 g(S)=  0.000E+00 dE (1.order)= 0.000E+00
 bond charge predicted
       N       E                     dE             d eps       ncg     rms          rms(c)
DAV:   1    -0.139133178387E+03    0.25830E-09    0.64178E-11   168   0.144E-10    0.191E-10
RMM:   2    -0.139133178387E+03    0.18554E-09    0.00000E+00     0   0.864E-11
 477 F= -.13913318E+03 E0= -.13914643E+03  d E =0.327418E-10
quench:  g(F)=  0.000E+00 g(S)=  0.000E+00 dE (1.order)= 0.000E+00
 bond charge predicted
       N       E                     dE             d eps       ncg     rms          rms(c)
DAV:   1    -0.139133178387E+03    0.71304E-09    0.34839E-11   168   0.139E-10    0.250E-10
RMM:   2    -0.139133178387E+03   -0.69122E-09    0.00000E+00     0   0.111E-10
 478 F= -.13913318E+03 E0= -.13914643E+03  d E =-.163709E-09
quench:  g(F)=  0.000E+00 g(S)=  0.000E+00 dE (1.order)= 0.000E+00
 bond charge predicted
       N       E                     dE             d eps       ncg     rms          rms(c)
DAV:   1    -0.139133178387E+03   -0.44747E-09    0.17807E-10   168   0.208E-10    0.141E-10
RMM:   2    -0.139133178387E+03   -0.27649E-09    0.00000E+00     0   0.969E-11
 479 F= -.13913318E+03 E0= -.13914643E+03  d E =-.327418E-10
quench:  g(F)=  0.000E+00 g(S)=  0.000E+00 dE (1.order)= 0.000E+00
 bond charge predicted
       N       E                     dE             d eps       ncg     rms          rms(c)
DAV:   1    -0.139133178389E+03   -0.15025E-08    0.17427E-11   168   0.141E-10    0.230E-10
RMM:   2    -0.139133178387E+03    0.13715E-08    0.00000E+00     0   0.126E-10
 480 F= -.13913318E+03 E0= -.13914643E+03  d E =0.145519E-09
quench:  g(F)=  0.000E+00 g(S)=  0.000E+00 dE (1.order)= 0.000E+00
 bond charge predicted
       N       E                     dE             d eps       ncg     rms          rms(c)
DAV:   1    -0.139133178387E+03    0.16262E-08    0.18671E-11   168   0.183E-10    0.198E-10
RMM:   2    -0.139133178387E+03   -0.24738E-09    0.00000E+00     0   0.134E-10
 481 F= -.13913318E+03 E0= -.13914643E+03  d E =0.727596E-11
quench:  g(F)=  0.000E+00 g(S)=  0.000E+00 dE (1.order)= 0.000E+00
 bond charge predicted
       N       E                     dE             d eps       ncg     rms          rms(c)
DAV:   1    -0.139133178387E+03   -0.61846E-10    0.15590E-10   168   0.163E-10    0.265E-10
RMM:   2    -0.139133178387E+03   -0.14188E-09    0.00000E+00     0   0.137E-10
 482 F= -.13913318E+03 E0= -.13914643E+03  d E =0.436557E-10
quench:  g(F)=  0.000E+00 g(S)=  0.000E+00 dE (1.order)= 0.000E+00
 bond charge predicted
       N       E                     dE             d eps       ncg     rms          rms(c)
DAV:   1    -0.139133178388E+03   -0.72032E-09    0.49631E-11   168   0.230E-10    0.287E-10
RMM:   2    -0.139133178387E+03    0.53114E-09    0.00000E+00     0   0.137E-10
 483 F= -.13913318E+03 E0= -.13914643E+03  d E =-.472937E-10
quench:  g(F)=  0.000E+00 g(S)=  0.000E+00 dE (1.order)= 0.000E+00
 bond charge predicted
       N       E                     dE             d eps       ncg     rms          rms(c)
DAV:   1    -0.139133178388E+03   -0.14552E-09    0.52270E-11   168   0.229E-10    0.227E-10
RMM:   2    -0.139133178387E+03    0.62937E-09    0.00000E+00     0   0.101E-10
 484 F= -.13913318E+03 E0= -.13914643E+03  d E =-.472937E-10
quench:  g(F)=  0.000E+00 g(S)=  0.000E+00 dE (1.order)= 0.000E+00
 bond charge predicted
       N       E                     dE             d eps       ncg     rms          rms(c)
DAV:   1    -0.139133178388E+03    0.49477E-09    0.15779E-10   168   0.206E-10    0.239E-10
RMM:   2    -0.139133178387E+03    0.72760E-11    0.00000E+00     0   0.110E-10
 485 F= -.13913318E+03 E0= -.13914643E+03  d E =-.127329E-09
quench:  g(F)=  0.000E+00 g(S)=  0.000E+00 dE (1.order)= 0.000E+00
 bond charge predicted
       N       E                     dE             d eps       ncg     rms          rms(c)
DAV:   1    -0.139133178388E+03   -0.69849E-09    0.15120E-10   168   0.183E-10    0.288E-10
RMM:   2    -0.139133178387E+03    0.78217E-09    0.00000E+00     0   0.133E-10
 486 F= -.13913318E+03 E0= -.13914643E+03  d E =0.763976E-10
quench:  g(F)=  0.000E+00 g(S)=  0.000E+00 dE (1.order)= 0.000E+00
 bond charge predicted
       N       E                     dE             d eps       ncg     rms          rms(c)
DAV:   1    -0.139133178387E+03    0.86584E-09    0.67546E-11   168   0.218E-10    0.273E-10
RMM:   2    -0.139133178387E+03   -0.25466E-10    0.00000E+00     0   0.121E-10
 487 F= -.13913318E+03 E0= -.13914643E+03  d E =0.582077E-10
quench:  g(F)=  0.000E+00 g(S)=  0.000E+00 dE (1.order)= 0.000E+00
 bond charge predicted
       N       E                     dE             d eps       ncg     rms          rms(c)
DAV:   1    -0.139133178387E+03    0.17826E-09   -0.27668E-11   168   0.228E-10    0.227E-10
RMM:   2    -0.139133178387E+03   -0.17462E-09    0.00000E+00     0   0.119E-10
 488 F= -.13913318E+03 E0= -.13914643E+03  d E =0.291038E-10
quench:  g(F)=  0.000E+00 g(S)=  0.000E+00 dE (1.order)= 0.000E+00
 bond charge predicted
       N       E                     dE             d eps       ncg     rms          rms(c)
DAV:   1    -0.139133178386E+03    0.82946E-09    0.51291E-11   168   0.195E-10    0.336E-10
RMM:   2    -0.139133178387E+03   -0.10114E-08    0.00000E+00     0   0.108E-10
 489 F= -.13913318E+03 E0= -.13914643E+03  d E =-.727596E-11
quench:  g(F)=  0.000E+00 g(S)=  0.000E+00 dE (1.order)= 0.000E+00
 bond charge predicted
       N       E                     dE             d eps       ncg     rms          rms(c)
DAV:   1    -0.139133178387E+03   -0.63665E-09    0.63167E-11   168   0.177E-10    0.182E-10
RMM:   2    -0.139133178387E+03   -0.47294E-09    0.00000E+00     0   0.108E-10
 490 F= -.13913318E+03 E0= -.13914643E+03  d E =-.982254E-10
quench:  g(F)=  0.000E+00 g(S)=  0.000E+00 dE (1.order)= 0.000E+00
 bond charge predicted
       N       E                     dE             d eps       ncg     rms          rms(c)
DAV:   1    -0.139133178387E+03   -0.18190E-10    0.39963E-11   168   0.214E-10    0.211E-10
RMM:   2    -0.139133178387E+03   -0.46566E-09    0.00000E+00     0   0.119E-10
 491 F= -.13913318E+03 E0= -.13914643E+03  d E =-.109139E-10
quench:  g(F)=  0.000E+00 g(S)=  0.000E+00 dE (1.order)= 0.000E+00
 bond charge predicted
       N       E                     dE             d eps       ncg     rms          rms(c)
DAV:   1    -0.139133178388E+03   -0.10587E-08    0.98329E-12   168   0.144E-10    0.193E-10
RMM:   2    -0.139133178387E+03    0.55297E-09    0.00000E+00     0   0.102E-10
 492 F= -.13913318E+03 E0= -.13914643E+03  d E =-.400178E-10
quench:  g(F)=  0.000E+00 g(S)=  0.000E+00 dE (1.order)= 0.000E+00
 bond charge predicted
       N       E                     dE             d eps       ncg     rms          rms(c)
DAV:   1    -0.139133178387E+03    0.13642E-08    0.63547E-11   168   0.131E-10    0.170E-10
RMM:   2    -0.139133178387E+03   -0.69849E-09    0.00000E+00     0   0.111E-10
 493 F= -.13913318E+03 E0= -.13914643E+03  d E =0.112777E-09
quench:  g(F)=  0.000E+00 g(S)=  0.000E+00 dE (1.order)= 0.000E+00
 bond charge predicted
       N       E                     dE             d eps       ncg     rms          rms(c)
DAV:   1    -0.139133178387E+03   -0.44747E-09    0.95037E-11   168   0.153E-10    0.186E-10
RMM:   2    -0.139133178387E+03   -0.18917E-09    0.00000E+00     0   0.899E-11
 494 F= -.13913318E+03 E0= -.13914643E+03  d E =0.618456E-10
quench:  g(F)=  0.000E+00 g(S)=  0.000E+00 dE (1.order)= 0.000E+00
 bond charge predicted
       N       E                     dE             d eps       ncg     rms          rms(c)
DAV:   1    -0.139133178387E+03    0.37107E-09    0.72969E-11   168   0.134E-10    0.207E-10
RMM:   2    -0.139133178387E+03   -0.65847E-09    0.00000E+00     0   0.855E-11
 495 F= -.13913318E+03 E0= -.13914643E+03  d E =-.982254E-10
quench:  g(F)=  0.000E+00 g(S)=  0.000E+00 dE (1.order)= 0.000E+00
 bond charge predicted
       N       E                     dE             d eps       ncg     rms          rms(c)
DAV:   1    -0.139133178387E+03   -0.34197E-09    0.84853E-11   168   0.143E-10    0.180E-10
RMM:   2    -0.139133178387E+03   -0.28376E-09    0.00000E+00     0   0.930E-11
 496 F= -.13913318E+03 E0= -.13914643E+03  d E =0.327418E-10
quench:  g(F)=  0.000E+00 g(S)=  0.000E+00 dE (1.order)= 0.000E+00
 bond charge predicted
       N       E                     dE             d eps       ncg     rms          rms(c)
DAV:   1    -0.139133178387E+03   -0.26557E-09    0.11900E-11   168   0.144E-10    0.272E-10
RMM:   2    -0.139133178387E+03   -0.72760E-11    0.00000E+00     0   0.111E-10
 497 F= -.13913318E+03 E0= -.13914643E+03  d E =0.109139E-10
quench:  g(F)=  0.000E+00 g(S)=  0.000E+00 dE (1.order)= 0.000E+00
 bond charge predicted
       N       E                     dE             d eps       ncg     rms          rms(c)
DAV:   1    -0.139133178387E+03   -0.58208E-10   -0.40998E-11   168   0.203E-10    0.275E-10
RMM:   2    -0.139133178387E+03    0.21828E-10    0.00000E+00     0   0.116E-10
 498 F= -.13913318E+03 E0= -.13914643E+03  d E =-.291038E-10
quench:  g(F)=  0.000E+00 g(S)=  0.000E+00 dE (1.order)= 0.000E+00
 bond charge predicted
       N       E                     dE             d eps       ncg     rms          rms(c)
DAV:   1    -0.139133178387E+03    0.54206E-09    0.67304E-11   168   0.186E-10    0.237E-10
RMM:   2    -0.139133178387E+03   -0.51659E-09    0.00000E+00     0   0.123E-10
 499 F= -.13913318E+03 E0= -.13914643E+03  d E =0.363798E-11
quench:  g(F)=  0.000E+00 g(S)=  0.000E+00 dE (1.order)= 0.000E+00
 bond charge predicted
       N       E                     dE             d eps       ncg     rms          rms(c)
DAV:   1    -0.139133178388E+03   -0.14443E-08    0.51640E-11   168   0.212E-10    0.136E-10
RMM:   2    -0.139133178387E+03    0.90949E-09    0.00000E+00     0   0.105E-10
 500 F= -.13913318E+03 E0= -.13914643E+03  d E =-.181899E-10
quench:  g(F)=  0.000E+00 g(S)=  0.000E+00 dE (1.order)= 0.000E+00
