 vasp.6.3.2 27Jun22 (build Mar 25 2024 10:42:18) complex                         
 executed on             LinuxGNU date 2024.05.15  13:46:26
 running on   32 total cores
 distrk:  each k-point on   32 cores,    1 groups
 distr:  one band on NCORE=   1 cores,   32 groups


--------------------------------------------------------------------------------------------------------


 INCAR:
   ALGO = All
   EDIFF = 1e-08
   EDIFFG = -0.001
   ENAUG = 1360
   ENCUT = 680
   IBRION = 2
   ISIF = 3
   ISMEAR = 2
   ISPIN = 2
   KSPACING = 0.22
   LAECHG = True
   LASPH = True
   LCHARG = True
   LELF = False
   LMIXTAU = True
   LORBIT = 11
   LREAL = Auto
   LVTOT = True
   LWAVE = False
   MAGMOM = 3*-0.0
   METAGGA = R2scan
   NELM = 200
   NSW = 99
   PREC = Accurate
   SIGMA = 0.2

 POTCAR:    PAW_PBE Na_pv 19Sep2006               
 POTCAR:    PAW_PBE S 06Sep2000                   
 WARNING: For LVTOT=.TRUE., VASP.5.x writes the TOTAL local potential to the
     file LOCPOT. If you want only the Hartree contributions, use LVHAR=.TRUE.
     instead. 

 -----------------------------------------------------------------------------
|                                                                             |
|           W    W    AA    RRRRR   N    N  II  N    N   GGGG   !!!           |
|           W    W   A  A   R    R  NN   N  II  NN   N  G    G  !!!           |
|           W    W  A    A  R    R  N N  N  II  N N  N  G       !!!           |
|           W WW W  AAAAAA  RRRRR   N  N N  II  N  N N  G  GGG   !            |
|           WW  WW  A    A  R   R   N   NN  II  N   NN  G    G                |
|           W    W  A    A  R    R  N    N  II  N    N   GGGG   !!!           |
|                                                                             |
|     For optimal performance we recommend to set                             |
|       NCORE = 2 up to number-of-cores-per-socket                            |
|     NCORE specifies how many cores store one orbital (NPAR=cpu/NCORE).      |
|     This setting can greatly improve the performance of VASP for DFT.       |
|     The default, NCORE=1 might be grossly inefficient on modern             |
|     multi-core architectures or massively parallel machines. Do your        |
|     own testing! More info at https://www.vasp.at/wiki/index.php/NCORE      |
|     Unfortunately you need to use the default for GW and RPA                |
|     calculations (for HF NCORE is supported but not extensively tested      |
|     yet).                                                                   |
|                                                                             |
 -----------------------------------------------------------------------------

 POTCAR:    PAW_PBE Na_pv 19Sep2006               
   SHA256 =  6a2f546d9e11350984debacf3dc457d8cffc0868e817d445faca461816a32b94 Na_pv/POTCAR          
   COPYR  = (c) Copyright 19Sep2006 Georg Kresse                                                    
   COPYR  = This file is part of the software VASP. Any use, copying, and all other rights are regul
   COPYR  = If you do not have a valid VASP license, you may not use, copy or distribute this file. 
   VRHFIN =Na: p6s1                                                                                 
   LEXCH  = PE                                                                                      
   EATOM  =   766.0439 eV,   56.3026 Ry                                                             
                                                                                                    
   TITEL  = PAW_PBE Na_pv 19Sep2006                                                                 
   LULTRA =        F    use ultrasoft PP ?                                                          
   IUNSCR =        1    unscreen: 0-lin 1-nonlin 2-no                                               
   RPACOR =    1.800    partial core radius                                                         
   POMASS =   22.990; ZVAL   =    7.000    mass and valenz                                          
   RCORE  =    2.200    outmost cutoff radius                                                       
   RWIGS  =    2.200; RWIGS  =    1.164    wigner-seitz radius (au A)                               
   ENMAX  =  259.561; ENMIN  =  194.671 eV                                                          
   ICORE  =        2    local potential                                                             
   LCOR   =        T    correct aug charges                                                         
   LPAW   =        T    paw PP                                                                      
   EAUG   =  368.056                                                                                
   DEXC   =    0.000                                                                                
   RMAX   =    2.245    core radius for proj-oper                                                   
   RAUG   =    1.300    factor for augmentation sphere                                              
   RDEP   =    2.259    radius for radial grids                                                     
   RDEPT  =    1.738    core radius for aug-charge                                                  
                                                                                                    
   Atomic configuration                                                                             
    5 entries                                                                                       
     n  l   j            E        occ.                                                              
     1  0  0.50     -1033.6933   2.0000                                                             
     2  0  0.50       -56.7526   2.0000                                                             
     2  1  1.50       -28.6721   6.0000                                                             
     3  0  0.50        -2.7440   1.0000                                                             
     3  2  1.50        -1.3606   0.0000                                                             
   Description                                                                                      
     l       E           TYP  RCUT    TYP  RCUT                                                     
     1    -28.6720912     23  2.000                                                                 
     1      6.8029130     23  2.000                                                                 
     0     -2.7439560     23  2.200                                                                 
     0     34.0145650     23  2.200                                                                 
     2     -1.3605826     23  2.200                                                                 
  local pseudopotential read in
  partial core-charges read in
  partial kinetic energy density read in
  atomic valenz-charges read in
  non local Contribution for L=           1  read in
    real space projection operators read in
  non local Contribution for L=           1  read in
    real space projection operators read in
  non local Contribution for L=           0  read in
    real space projection operators read in
  non local Contribution for L=           0  read in
    real space projection operators read in
    PAW grid and wavefunctions read in

   number of l-projection  operators is LMAX  =           4
   number of lm-projection operators is LMMAX =           8

 POTCAR:    PAW_PBE S 06Sep2000                   
   SHA256 =  0fc7481fb0695f01bdc6462160264c5c84044ae9ec85a907d398b887a2bc3132 S/POTCAR              
   COPYR  = (c) Copyright 06Sep2000 Georg Kresse                                                    
   COPYR  = This file is part of the software VASP. Any use, copying, and all other rights are regul
   COPYR  = If you do not have a valid VASP license, you may not use, copy or distribute this file. 
   VRHFIN =S : s2p4                                                                                 
   LEXCH  = PE                                                                                      
   EATOM  =   276.8230 eV,   20.3459 Ry                                                             
                                                                                                    
   TITEL  = PAW_PBE S 06Sep2000                                                                     
   LULTRA =        F    use ultrasoft PP ?                                                          
   IUNSCR =        1    unscreen: 0-lin 1-nonlin 2-no                                               
   RPACOR =    1.500    partial core radius                                                         
   POMASS =   32.066; ZVAL   =    6.000    mass and valenz                                          
   RCORE  =    1.900    outmost cutoff radius                                                       
   RWIGS  =    2.200; RWIGS  =    1.164    wigner-seitz radius (au A)                               
   ENMAX  =  258.689; ENMIN  =  194.016 eV                                                          
   ICORE  =        2    local potential                                                             
   LCOR   =        T    correct aug charges                                                         
   LPAW   =        T    paw PP                                                                      
   EAUG   =  335.092                                                                                
   DEXC   =    0.000                                                                                
   RMAX   =    1.942    core radius for proj-oper                                                   
   RAUG   =    1.300    factor for augmentation sphere                                              
   RDEP   =    1.954    radius for radial grids                                                     
   RDEPT  =    1.744    core radius for aug-charge                                                  
                                                                                                    
   Atomic configuration                                                                             
    6 entries                                                                                       
     n  l   j            E        occ.                                                              
     1  0  0.50     -2405.8406   2.0000                                                             
     2  0  0.50      -211.7007   2.0000                                                             
     2  1  1.50      -156.4958   6.0000                                                             
     3  0  0.50       -17.2562   2.0000                                                             
     3  1  0.50        -7.0085   4.0000                                                             
     3  2  1.50        -6.8029   0.0000                                                             
   Description                                                                                      
     l       E           TYP  RCUT    TYP  RCUT                                                     
     0    -17.2561641     23  1.900                                                                 
     0    -15.8743224     23  1.900                                                                 
     1     -7.0085400     23  1.900                                                                 
     1     -2.7779785     23  1.900                                                                 
     2     -6.8029130     23  1.900                                                                 
  local pseudopotential read in
  partial core-charges read in
  partial kinetic energy density read in
  atomic valenz-charges read in
  non local Contribution for L=           0  read in
    real space projection operators read in
  non local Contribution for L=           0  read in
    real space projection operators read in
  non local Contribution for L=           1  read in
    real space projection operators read in
  non local Contribution for L=           1  read in
    real space projection operators read in
    PAW grid and wavefunctions read in

   number of l-projection  operators is LMAX  =           4
   number of lm-projection operators is LMMAX =           8

 -----------------------------------------------------------------------------
|                                                                             |
|               ----> ADVICE to this user running VASP <----                  |
|                                                                             |
|     You have a (more or less) 'small supercell' and for smaller cells       |
|     it is recommended to use the reciprocal-space projection scheme!        |
|     The real-space optimization is not efficient for small cells and it     |
|     is also less accurate ...                                               |
|     Therefore, set LREAL=.FALSE. in the INCAR file.                         |
|                                                                             |
 -----------------------------------------------------------------------------

 Optimization of the real space projectors (new method)

 maximal supplied QI-value         = 17.01
 optimisation between [QCUT,QGAM] = [ 13.27, 26.70] = [ 49.28,199.66] Ry 
 Optimized for a Real-space Cutoff    1.38 Angstroem

   l    n(q)    QCUT    max X(q) W(low)/X(q) W(high)/X(q)  e(spline) 
   1     11    13.266     4.940    0.11E-03    0.62E-04    0.24E-06
   1     11    13.266     6.253    0.16E-03    0.89E-04    0.35E-06
   0     11    13.266    37.438    0.39E-04    0.39E-05    0.18E-06
   0     11    13.266     9.606    0.17E-04    0.30E-05    0.12E-06
 Optimization of the real space projectors (new method)

 maximal supplied QI-value         = 19.84
 optimisation between [QCUT,QGAM] = [ 13.29, 26.59] = [ 49.49,197.96] Ry 
 Optimized for a Real-space Cutoff    1.16 Angstroem

   l    n(q)    QCUT    max X(q) W(low)/X(q) W(high)/X(q)  e(spline) 
   0      9    13.294   187.594    0.14E-03    0.96E-04    0.62E-07
   0      9    13.294   164.243    0.14E-03    0.95E-04    0.61E-07
   1      9    13.294    67.533    0.58E-04    0.17E-03    0.14E-06
   1      9    13.294    50.729    0.57E-04    0.16E-03    0.13E-06
  PAW_PBE Na_pv 19Sep2006               :
 energy of atom  1       EATOM= -766.0439
 kinetic energy error for atom=    0.0010 (will be added to EATOM!!)
  PAW_PBE S 06Sep2000                   :
 energy of atom  2       EATOM= -276.8230
 kinetic energy error for atom=    0.0008 (will be added to EATOM!!)


 POSCAR: Na2 S1
  positions in direct lattice
  No initial velocities read in

 METAGGA = R2SCA    LMAXTAU =  6    LMIXTAU =  T

 exchange correlation table for  LEXCH =        8
   RHO(1)=    0.500       N(1)  =     2000
   RHO(2)=  100.500       N(2)  =     4000



--------------------------------------------------------------------------------------------------------


 ion  position               nearest neighbor table
   1  0.250  0.250  0.250-
   2  0.750  0.750  0.750-
   3  0.000  0.000  0.000-

  LATTYP: Found a face centered cubic cell.
 ALAT       =     6.4983096011
  
  Lattice vectors:
  
 A1 = (   3.9793850000,   0.0000000000,   2.2974990000)
 A2 = (   1.3264620000,   3.7518010000,   2.2974990000)
 A3 = (   0.0000000000,   0.0000000000,   4.5949980000)


Analysis of symmetry for initial positions (statically):
=====================================================================
 Subroutine PRICEL returns:
 Original cell was already a primitive cell.
 

 Routine SETGRP: Setting up the symmetry group for a 
 face centered cubic supercell.


 Subroutine GETGRP returns: Found 48 space group operations
 (whereof 48 operations were pure point group operations)
 out of a pool of 48 trial point group operations.


The static configuration has the point symmetry O_h .


Analysis of symmetry for dynamics (positions and initial velocities):
=====================================================================
 Subroutine PRICEL returns:
 Original cell was already a primitive cell.
 

 Routine SETGRP: Setting up the symmetry group for a 
 face centered cubic supercell.


 Subroutine GETGRP returns: Found 48 space group operations
 (whereof 48 operations were pure point group operations)
 out of a pool of 48 trial point group operations.


The dynamic configuration has the point symmetry O_h .


Analysis of structural, dynamic, and magnetic symmetry:
=====================================================================
 Subroutine PRICEL returns:
 Original cell was already a primitive cell.
 

 Routine SETGRP: Setting up the symmetry group for a 
 face centered cubic supercell.


 Subroutine GETGRP returns: Found 48 space group operations
 (whereof 48 operations were pure point group operations)
 out of a pool of 48 trial point group operations.


The overall configuration has the point symmetry O_h .


 Subroutine INISYM returns: Found 48 space group operations
 (whereof 48 operations are pure point group operations),
 and found     1 'primitive' translations


----------------------------------------------------------------------------------------

                                     Primitive cell                                     

  volume of cell :      68.6027

  direct lattice vectors                    reciprocal lattice vectors
     3.979385000  0.000000000  2.297499000     0.251295112 -0.088846241  0.000000000
     1.326462000  3.751801000  2.297499000     0.000000000  0.266538657  0.000000000
     0.000000000  0.000000000  4.594998000    -0.125647556 -0.088846208  0.217627951

  length of vectors
     4.594998001  4.594998785  4.594998000     0.266538718  0.266538657  0.266538707

  position of ions in fractional coordinates (direct lattice)
     0.250000000  0.250000000  0.250000000
     0.750000000  0.750000000  0.750000000
     0.000000000  0.000000000  0.000000000

  ion indices of the primitive-cell ions
   primitive index   ion index
                 1           1
                 2           2
                 3           3

----------------------------------------------------------------------------------------



 KPOINTS: pymatgen with grid density = 694 / numbe

Automatic generation of k-mesh.
 Grid dimensions read from file:
 generate k-points for:    3    3    3

 Generating k-lattice:

  Cartesian coordinates                     Fractional coordinates (reciprocal lattice)
     0.083765037 -0.029615414  0.000000000     0.333333333 -0.000000000  0.000000000
     0.000000000  0.088846219  0.000000000     0.000000000  0.333333333  0.000000000
    -0.041882519 -0.029615403  0.072542650     0.000000000 -0.000000000  0.333333333

  Length of vectors
     0.088846239  0.088846219  0.088846236

  Shift w.r.t. Gamma in fractional coordinates (k-lattice)
     0.000000000  0.000000000  0.000000000

 
 Subroutine IBZKPT returns following result:
 ===========================================
 
 Found      4 irreducible k-points:
 
 Following reciprocal coordinates:
            Coordinates               Weight
  0.000000  0.000000  0.000000      1.000000
  0.333333  0.000000  0.000000      8.000000
  0.333333  0.333333  0.000000      6.000000
 -0.333333  0.333333  0.000000     12.000000
 
 Following cartesian coordinates:
            Coordinates               Weight
  0.000000  0.000000  0.000000      1.000000
  0.083765 -0.029615  0.000000      8.000000
  0.083765  0.059231  0.000000      6.000000
 -0.083765  0.118462  0.000000     12.000000
 


--------------------------------------------------------------------------------------------------------




 Dimension of arrays:
   k-points           NKPTS =      4   k-points in BZ     NKDIM =      4   number of bands    NBANDS=     32
   number of dos      NEDOS =    301   number of ions     NIONS =      3
   non local maximal  LDIM  =      4   non local SUM 2l+1 LMDIM =      8
   total plane-waves  NPLWV =  64000
   max r-space proj   IRMAX =  10353   max aug-charges    IRDMAX=  29587
   dimension x,y,z NGX =    40 NGY =   40 NGZ =   40
   dimension x,y,z NGXF=    80 NGYF=   80 NGZF=   80
   support grid    NGXF=    80 NGYF=   80 NGZF=   80
   ions per type =               2   1
   NGX,Y,Z   is equivalent  to a cutoff of  14.47, 14.47, 14.47 a.u.
   NGXF,Y,Z  is equivalent  to a cutoff of  28.94, 28.94, 28.94 a.u.

 SYSTEM =  unknown system                          
 POSCAR =  Na2 S1                                  

 Startparameter for this run:
   NWRITE =      2    write-flag & timer
   PREC   = accura    normal or accurate (medium, high low for compatibility)
   ISTART =      0    job   : 0-new  1-cont  2-samecut
   ICHARG =      2    charge: 1-file 2-atom 10-const
   ISPIN  =      2    spin polarized calculation?
   LNONCOLLINEAR =      F non collinear calculations
   LSORBIT =      F    spin-orbit coupling
   INIWAV =      1    electr: 0-lowe 1-rand  2-diag
   LASPH  =      T    aspherical Exc in radial PAW
 Electronic Relaxation 1
   ENCUT  =  680.0 eV  49.98 Ry    7.07 a.u.   9.77  9.77  9.77*2*pi/ulx,y,z
   ENINI  =  680.0     initial cutoff
   ENAUG  = 1360.0 eV  augmentation charge cutoff
   NELM   =    200;   NELMIN=  2; NELMDL=  0     # of ELM steps 
   EDIFF  = 0.1E-07   stopping-criterion for ELM
   LREAL  =      T    real-space projection
   NLSPLINE    = F    spline interpolate recip. space projectors
   LCOMPAT=      F    compatible to vasp.4.4
   GGA_COMPAT  = T    GGA compatible to vasp.4.4-vasp.4.6
   LMAXPAW     = -100 max onsite density
   LMAXMIX     =    2 max onsite mixed and CHGCAR
   VOSKOWN=      0    Vosko Wilk Nusair interpolation
   ROPT   =   -0.00025  -0.00025
 Ionic relaxation
   EDIFFG = -.1E-02   stopping-criterion for IOM
   NSW    =     99    number of steps for IOM
   NBLOCK =      1;   KBLOCK =     99    inner block; outer block 
   IBRION =      2    ionic relax: 0-MD 1-quasi-New 2-CG
   NFREE  =      1    steps in history (QN), initial steepest desc. (CG)
   ISIF   =      3    stress and relaxation
   IWAVPR =     11    prediction:  0-non 1-charg 2-wave 3-comb
   ISYM   =      2    0-nonsym 1-usesym 2-fastsym
   LCORR  =      T    Harris-Foulkes like correction to forces

   POTIM  = 0.5000    time-step for ionic-motion
   TEIN   =    0.0    initial temperature
   TEBEG  =    0.0;   TEEND  =   0.0 temperature during run
   SMASS  =  -3.00    Nose mass-parameter (am)
   estimated Nose-frequenzy (Omega)   =  0.10E-29 period in steps = 0.13E+47 mass=  -0.483E-27a.u.
   SCALEE = 1.0000    scale energy and forces
   NPACO  =    256;   APACO  = 10.0  distance and # of slots for P.C.
   PSTRESS=    0.0 pullay stress

  Mass of Ions in am
   POMASS =  22.99 32.07
  Ionic Valenz
   ZVAL   =   7.00  6.00
  Atomic Wigner-Seitz radii
   RWIGS  =  -1.00 -1.00
  virtual crystal weights 
   VCA    =   1.00  1.00
   NELECT =      20.0000    total number of electrons
   NUPDOWN=      -1.0000    fix difference up-down

 DOS related values:
   EMIN   =  10.00;   EMAX   =-10.00  energy-range for DOS
   EFERMI =   0.00
   ISMEAR =     2;   SIGMA  =   0.20  broadening in eV -4-tet -1-fermi 0-gaus

 Electronic relaxation 2 (details)
   IALGO  =     58    algorithm
   LDIAG  =      T    sub-space diagonalisation (order eigenvalues)
   LSUBROT=      F    optimize rotation matrix (better conditioning)
   TURBO    =      0    0=normal 1=particle mesh
   IRESTART =      0    0=no restart 2=restart with 2 vectors
   NREBOOT  =      0    no. of reboots
   NMIN     =      0    reboot dimension
   EREF     =   0.00    reference energy to select bands
   IMIX   =      4    mixing-type and parameters
     AMIX     =   0.40;   BMIX     =  1.00
     AMIX_MAG =   1.60;   BMIX_MAG =  1.00
     AMIN     =   0.10
     WC   =   100.;   INIMIX=   1;  MIXPRE=   1;  MAXMIX= -45

 Intra band minimization:
   WEIMIN = 0.0010     energy-eigenvalue tresh-hold
   EBREAK =  0.78E-10  absolut break condition
   DEPER  =   0.30     relativ break condition  

   TIME   =   0.40     timestep for ELM

  volume/ion in A,a.u.               =      22.87       154.32
  Fermi-wavevector in a.u.,A,eV,Ry     =   1.085520  2.051335 16.032473  1.178354
  Thomas-Fermi vector in A             =   2.221635

 Write flags
   LWAVE        =      F    write WAVECAR
   LDOWNSAMPLE  =      F    k-point downsampling of WAVECAR
   LCHARG       =      T    write CHGCAR
   LVTOT        =      T    write LOCPOT, total local potential
   LVHAR        =      F    write LOCPOT, Hartree potential only
   LELF         =      F    write electronic localiz. function (ELF)
   LORBIT       =     11    0 simple, 1 ext, 2 COOP (PROOUT), +10 PAW based schemes


 Dipole corrections
   LMONO  =      F    monopole corrections only (constant potential shift)
   LDIPOL =      F    correct potential (dipole corrections)
   IDIPOL =      0    1-x, 2-y, 3-z, 4-all directions 
   EPSILON=  1.0000000 bulk dielectric constant

 Exchange correlation treatment:
   GGA     =    --    GGA type
   LEXCH   =     8    internal setting for exchange type
   LIBXC   =     F    Libxc                    
   VOSKOWN =     0    Vosko Wilk Nusair interpolation
   LHFCALC =     F    Hartree Fock is set to
   LHFONE  =     F    Hartree Fock one center treatment
   AEXX    =    0.0000 exact exchange contribution

 Linear response parameters
   LEPSILON=     F    determine dielectric tensor
   LRPA    =     F    only Hartree local field effects (RPA)
   LNABLA  =     F    use nabla operator in PAW spheres
   LVEL    =     F    velocity operator in full k-point grid
   CSHIFT  =0.1000    complex shift for real part using Kramers Kronig
   OMEGAMAX=  -1.0    maximum frequency
   DEG_THRESHOLD= 0.2000000E-02 threshold for treating states as degnerate
   RTIME   =   -0.100 relaxation time in fs
  (WPLASMAI=    0.000 imaginary part of plasma frequency in eV, 0.658/RTIME)
   DFIELD  = 0.0000000 0.0000000 0.0000000 field for delta impulse in time

  Optional k-point grid parameters
   LKPOINTS_OPT  =     F    use optional k-point grid
   KPOINTS_OPT_MODE=     1    mode for optional k-point grid

 Orbital magnetization related:
   ORBITALMAG=     F  switch on orbital magnetization
   LCHIMAG   =     F  perturbation theory with respect to B field
   DQ        =  0.001000  dq finite difference perturbation B field
   LLRAUG    =     F  two centre corrections for induced B field



--------------------------------------------------------------------------------------------------------


 conjugate gradient relaxation of ions
 charge density and potential will be updated during run
 spin polarized calculation
 Conjugate gradient for all bands (Freysoldt, et al. PRB 79, 241103 (2009))
 preconditioned conjugated gradient                                        
 perform sub-space diagonalisation
    before iterative eigenvector-optimisation
 modified Broyden-mixing scheme, WC =      100.0
 initial mixing is a Kerker type mixing with AMIX =  0.4000 and BMIX =      1.0000
 Hartree-type preconditioning will be used
 using additional bands           22
 real space projection scheme for non local part
 use partial core corrections
 no Harris-corrections to forces 
 use gradient corrections 
 use of overlap-Matrix (Vanderbilt PP)
 Methfessel and Paxton  Order N= 2 SIGMA  =   0.20


--------------------------------------------------------------------------------------------------------


  energy-cutoff  :      680.00
  volume of cell :       68.60
      direct lattice vectors                 reciprocal lattice vectors
     3.979385000  0.000000000  2.297499000     0.251295112 -0.088846241  0.000000000
     1.326462000  3.751801000  2.297499000     0.000000000  0.266538657  0.000000000
     0.000000000  0.000000000  4.594998000    -0.125647556 -0.088846208  0.217627951

  length of vectors
     4.594998001  4.594998785  4.594998000     0.266538718  0.266538657  0.266538707



 k-points in units of 2pi/SCALE and weight: pymatgen with grid density = 694 / numbe
   0.00000000  0.00000000  0.00000000       0.037
   0.08376504 -0.02961541  0.00000000       0.296
   0.08376504  0.05923081  0.00000000       0.222
  -0.08376504  0.11846163  0.00000000       0.444

 k-points in reciprocal lattice and weights: pymatgen with grid density = 694 / numbe
   0.00000000  0.00000000  0.00000000       0.037
   0.33333333  0.00000000  0.00000000       0.296
   0.33333333  0.33333333  0.00000000       0.222
  -0.33333333  0.33333333  0.00000000       0.444

 position of ions in fractional coordinates (direct lattice) 
   0.25000000  0.25000000  0.25000000
   0.75000000  0.75000000  0.75000000
   0.00000000  0.00000000  0.00000000

 position of ions in cartesian coordinates  (Angst):
   1.32646175  0.93795025  2.29749900
   3.97938525  2.81385075  6.89249700
   0.00000000  0.00000000  0.00000000



--------------------------------------------------------------------------------------------------------


 k-point   1 :   0.0000 0.0000 0.0000  plane waves:    2733
 k-point   2 :   0.3333 0.0000 0.0000  plane waves:    2785
 k-point   3 :   0.3333 0.3333 0.0000  plane waves:    2754
 k-point   4 :  -0.3333 0.3333 0.0000  plane waves:    2774

 maximum and minimum number of plane-waves per node :      2785     2733

 maximum number of plane-waves:      2785
 maximum index in each direction: 
   IXMAX=   10   IYMAX=    9   IZMAX=    9
   IXMIN=  -10   IYMIN=  -10   IZMIN=   -9


 serial   3D FFT for wavefunctions
 parallel 3D FFT for charge:
    minimum data exchange during FFTs selected (reduces bandwidth)


 total amount of memory used by VASP MPI-rank0    45522. kBytes
=======================================================================

   base      :      30000. kBytes
   nonlr-proj:       2351. kBytes
   fftplans  :        914. kBytes
   grid      :      11147. kBytes
   one-center:         18. kBytes
   wavefun   :       1092. kBytes

     INWAV:  cpu time      0.0000: real time      0.0002
 Broyden mixing: mesh for mixing (old mesh)
   NGX = 19   NGY = 19   NGZ = 19
  (NGX  = 80   NGY  = 80   NGZ  = 80)
  gives a total of   6859 points

 initial charge density was supplied:
 charge density of overlapping atoms calculated
 number of electron      20.0000000 magnetization       0.0000000
 charge density for first step will be calculated from the start-wavefunctions


--------------------------------------------------------------------------------------------------------


 Maximum index for non-local projection operator        10005
 Maximum index for augmentation-charges         1459 (set IRDMAX)


--------------------------------------------------------------------------------------------------------


 First call to EWALD:  gamma=   0.433
 Maximum number of real-space cells 3x 3x 3
 Maximum number of reciprocal cells 3x 3x 3

    FEWALD:  cpu time      0.0007: real time      0.0006


--------------------------------------- Iteration      1(   1)  ---------------------------------------


    POTLOK:  cpu time      0.1265: real time      0.1297
    SETDIJ:  cpu time      0.6179: real time      0.6181
    TRIAL :  cpu time      0.4789: real time      0.4794
    CORREC:  cpu time      0.0005: real time      0.0005
    --------------------------------------------
      LOOP:  cpu time      1.2246: real time      1.2410

 eigenvalue-minimisations  :   512
 total energy-change (2. order) : 0.3050442E+02  (-0.1491381E+04)
 number of electron      20.0000000 magnetization       0.0000000
 augmentation part       20.0000000 magnetization       0.0000000

 Free energy of the ion-electron system (eV)
  ---------------------------------------------------
  alpha Z        PSCENC =        32.73109286
  Ewald energy   TEWEN  =      -948.29612643
  -Hartree energ DENC   =      -502.38504025
  -exchange      EXHF   =         0.00000000
  -V(xc)+E(xc)   XCENC  =        77.39942210
  PAW double counting   =      1206.55149748    -1386.00871492
  entropy T*S    EENTRO =        -0.00663238
  eigenvalues    EBANDS =      -258.38912019
  atomic energy  EATOM  =      1808.90803902
  ---------------------------------------------------
  free energy    TOTEN  =        30.50441730 eV

  energy without entropy =       30.51104968  energy(sigma->0) =       30.50607539


--------------------------------------------------------------------------------------------------------




--------------------------------------- Iteration      1(   2)  ---------------------------------------


    TRIAL :  cpu time      0.6126: real time      0.6129
    CORREC:  cpu time      0.0006: real time      0.0006
    --------------------------------------------
      LOOP:  cpu time      0.6141: real time      0.6179

 eigenvalue-minimisations  :   704
 total energy-change (2. order) :-0.5137080E+02  (-0.4982184E+02)
 number of electron      20.0000000 magnetization       0.0000000
 augmentation part       20.0000000 magnetization       0.0000000

 Free energy of the ion-electron system (eV)
  ---------------------------------------------------
  alpha Z        PSCENC =        32.73109286
  Ewald energy   TEWEN  =      -948.29612643
  -Hartree energ DENC   =      -502.38504025
  -exchange      EXHF   =         0.00000000
  -V(xc)+E(xc)   XCENC  =        77.39942210
  PAW double counting   =      1206.55149748    -1386.00871492
  entropy T*S    EENTRO =         0.01791074
  eigenvalues    EBANDS =      -309.78446349
  atomic energy  EATOM  =      1808.90803902
  ---------------------------------------------------
  free energy    TOTEN  =       -20.86638289 eV

  energy without entropy =      -20.88429362  energy(sigma->0) =      -20.87086057


--------------------------------------------------------------------------------------------------------




--------------------------------------- Iteration      1(   3)  ---------------------------------------


    TRIAL :  cpu time      1.5874: real time      1.5877
    CORREC:  cpu time      0.0005: real time      0.0005
    --------------------------------------------
      LOOP:  cpu time      1.5880: real time      1.5884

 eigenvalue-minimisations  :   576
 total energy-change (2. order) :-0.8283155E+00  (-0.8269642E+00)
 number of electron      20.0000000 magnetization       0.0000000
 augmentation part       20.0000000 magnetization       0.0000000

 Free energy of the ion-electron system (eV)
  ---------------------------------------------------
  alpha Z        PSCENC =        32.73109286
  Ewald energy   TEWEN  =      -948.29612643
  -Hartree energ DENC   =      -502.38504025
  -exchange      EXHF   =         0.00000000
  -V(xc)+E(xc)   XCENC  =        77.39942210
  PAW double counting   =      1206.55149748    -1386.00871492
  entropy T*S    EENTRO =         0.01226960
  eigenvalues    EBANDS =      -310.60713790
  atomic energy  EATOM  =      1808.90803902
  ---------------------------------------------------
  free energy    TOTEN  =       -21.69469844 eV

  energy without entropy =      -21.70696803  energy(sigma->0) =      -21.69776583


--------------------------------------------------------------------------------------------------------




--------------------------------------- Iteration      1(   4)  ---------------------------------------


    TRIAL :  cpu time      0.6671: real time      0.6674
    CORREC:  cpu time      0.0005: real time      0.0005
    --------------------------------------------
      LOOP:  cpu time      0.6679: real time      0.6681

 eigenvalue-minimisations  :   864
 total energy-change (2. order) :-0.2564868E-02  (-0.2564887E-02)
 number of electron      20.0000000 magnetization       0.0000000
 augmentation part       20.0000000 magnetization       0.0000000

 Free energy of the ion-electron system (eV)
  ---------------------------------------------------
  alpha Z        PSCENC =        32.73109286
  Ewald energy   TEWEN  =      -948.29612643
  -Hartree energ DENC   =      -502.38504025
  -exchange      EXHF   =         0.00000000
  -V(xc)+E(xc)   XCENC  =        77.39942210
  PAW double counting   =      1206.55149748    -1386.00871492
  entropy T*S    EENTRO =         0.01225102
  eigenvalues    EBANDS =      -310.60968419
  atomic energy  EATOM  =      1808.90803902
  ---------------------------------------------------
  free energy    TOTEN  =       -21.69726330 eV

  energy without entropy =      -21.70951432  energy(sigma->0) =      -21.70032606


--------------------------------------------------------------------------------------------------------




--------------------------------------- Iteration      1(   5)  ---------------------------------------


    TRIAL :  cpu time      0.4032: real time      0.4034
    CORREC:  cpu time      0.0005: real time      0.0005
    CHARGE:  cpu time      0.2240: real time      0.2241
    --------------------------------------------
      LOOP:  cpu time      0.6279: real time      0.6282

 eigenvalue-minimisations  :   544
 total energy-change (2. order) :-0.2833995E-06  (-0.2832800E-06)
 number of electron      19.9999989 magnetization      -0.0000000
 augmentation part        8.0558541 magnetization      -0.0000005

 Free energy of the ion-electron system (eV)
  ---------------------------------------------------
  alpha Z        PSCENC =        32.73109286
  Ewald energy   TEWEN  =      -948.29612643
  -Hartree energ DENC   =      -502.38504025
  -exchange      EXHF   =         0.00000000
  -V(xc)+E(xc)   XCENC  =        77.39942210
  PAW double counting   =      1206.55149748    -1386.00871492
  entropy T*S    EENTRO =         0.01225102
  eigenvalues    EBANDS =      -310.60968448
  atomic energy  EATOM  =      1808.90803902
  ---------------------------------------------------
  free energy    TOTEN  =       -21.69726359 eV

  energy without entropy =      -21.70951461  energy(sigma->0) =      -21.70032634


--------------------------------------------------------------------------------------------------------




--------------------------------------- Iteration      1(   6)  ---------------------------------------


    POTLOK:  cpu time      0.0871: real time      0.0871
    SETDIJ:  cpu time      0.7811: real time      0.7812
    TRIAL :  cpu time      0.2810: real time      0.2815
    CORREC:  cpu time      1.1159: real time      1.1162
    CHARGE:  cpu time      0.1905: real time      0.1905
    --------------------------------------------
      LOOP:  cpu time      2.4560: real time      2.4568

 eigenvalue-minimisations  :     0
 total energy-change (2. order) : 0.3772306E+01  (-0.8666207E+00)
 number of electron      19.9999988 magnetization       0.0000001
 augmentation part        8.2110883 magnetization       0.0000001

 Free energy of the ion-electron system (eV)
  ---------------------------------------------------
  alpha Z        PSCENC =        32.73109286
  Ewald energy   TEWEN  =      -948.29612643
  -Hartree energ DENC   =      -514.30636505
  -exchange      EXHF   =         0.00000000
  -V(xc)+E(xc)   XCENC  =        79.76750966
  PAW double counting   =      1405.62890434    -1584.93737655
  entropy T*S    EENTRO =         0.00834060
  eigenvalues    EBANDS =      -297.43288600
  atomic energy  EATOM  =      1808.90803902
  ---------------------------------------------------
  free energy    TOTEN  =       -17.92495711 eV

  energy without entropy =      -17.93329770  energy(sigma->0) =      -17.92704226


--------------------------------------------------------------------------------------------------------




--------------------------------------- Iteration      1(   7)  ---------------------------------------


    POTLOK:  cpu time      0.0877: real time      0.0877
    SETDIJ:  cpu time      0.7603: real time      0.7604
    TRIAL :  cpu time      0.2721: real time      0.2725
    CORREC:  cpu time      1.1102: real time      1.1105
    CHARGE:  cpu time      0.1932: real time      0.1933
    --------------------------------------------
      LOOP:  cpu time      2.4239: real time      2.4247

 eigenvalue-minimisations  :     0
 total energy-change (2. order) :-0.8703036E+00  (-0.1024739E+00)
 number of electron      19.9999988 magnetization       0.0000001
 augmentation part        8.1575882 magnetization       0.0000000

 Free energy of the ion-electron system (eV)
  ---------------------------------------------------
  alpha Z        PSCENC =        32.73109286
  Ewald energy   TEWEN  =      -948.29612643
  -Hartree energ DENC   =      -510.75418675
  -exchange      EXHF   =         0.00000000
  -V(xc)+E(xc)   XCENC  =        79.08805346
  PAW double counting   =      1735.27362672    -1918.01278486
  entropy T*S    EENTRO =         0.00795879
  eigenvalues    EBANDS =      -297.74131534
  atomic energy  EATOM  =      1808.90803902
  ---------------------------------------------------
  free energy    TOTEN  =       -18.79526072 eV

  energy without entropy =      -18.80321951  energy(sigma->0) =      -18.79725041


--------------------------------------------------------------------------------------------------------




--------------------------------------- Iteration      1(   8)  ---------------------------------------


    POTLOK:  cpu time      0.0888: real time      0.0888
    SETDIJ:  cpu time      0.7319: real time      0.7319
    TRIAL :  cpu time      0.2752: real time      0.2757
    CORREC:  cpu time      1.0872: real time      1.0877
    CHARGE:  cpu time      0.1929: real time      0.1929
    --------------------------------------------
      LOOP:  cpu time      2.3763: real time      2.3774

 eigenvalue-minimisations  :     0
 total energy-change (2. order) :-0.1025155E+00  (-0.3870540E-01)
 number of electron      19.9999988 magnetization       0.0000001
 augmentation part        8.1777974 magnetization      -0.0000004

 Free energy of the ion-electron system (eV)
  ---------------------------------------------------
  alpha Z        PSCENC =        32.73109286
  Ewald energy   TEWEN  =      -948.29612643
  -Hartree energ DENC   =      -507.00955726
  -exchange      EXHF   =         0.00000000
  -V(xc)+E(xc)   XCENC  =        78.68115556
  PAW double counting   =      1712.72435209    -1892.74362836
  entropy T*S    EENTRO =         0.00781293
  eigenvalues    EBANDS =      -303.90106251
  atomic energy  EATOM  =      1808.90803902
  ---------------------------------------------------
  free energy    TOTEN  =       -18.89777621 eV

  energy without entropy =      -18.90558914  energy(sigma->0) =      -18.89972944


--------------------------------------------------------------------------------------------------------




--------------------------------------- Iteration      1(   9)  ---------------------------------------


    POTLOK:  cpu time      0.0847: real time      0.0847
    SETDIJ:  cpu time      0.7293: real time      0.7294
    TRIAL :  cpu time      0.2625: real time      0.2628
    CORREC:  cpu time      1.1351: real time      1.1354
    CHARGE:  cpu time      0.1963: real time      0.1963
    --------------------------------------------
      LOOP:  cpu time      2.4082: real time      2.4090

 eigenvalue-minimisations  :     0
 total energy-change (2. order) :-0.3824854E-01  (-0.4552397E-02)
 number of electron      19.9999988 magnetization       0.0000001
 augmentation part        8.1782993 magnetization       0.0000000

 Free energy of the ion-electron system (eV)
  ---------------------------------------------------
  alpha Z        PSCENC =        32.73109286
  Ewald energy   TEWEN  =      -948.29612643
  -Hartree energ DENC   =      -508.28244096
  -exchange      EXHF   =         0.00000000
  -V(xc)+E(xc)   XCENC  =        78.73751306
  PAW double counting   =      1610.12325614    -1791.49854160
  entropy T*S    EENTRO =         0.00780360
  eigenvalues    EBANDS =      -301.36662978
  atomic energy  EATOM  =      1808.90803902
  ---------------------------------------------------
  free energy    TOTEN  =       -18.93602475 eV

  energy without entropy =      -18.94382836  energy(sigma->0) =      -18.93797565


--------------------------------------------------------------------------------------------------------




--------------------------------------- Iteration      1(  10)  ---------------------------------------


    POTLOK:  cpu time      0.0872: real time      0.0872
    SETDIJ:  cpu time      0.7657: real time      0.7658
    TRIAL :  cpu time      0.2708: real time      0.2712
    CORREC:  cpu time      1.0974: real time      1.0977
    CHARGE:  cpu time      0.1892: real time      0.1893
    --------------------------------------------
      LOOP:  cpu time      2.4107: real time      2.4116

 eigenvalue-minimisations  :     0
 total energy-change (2. order) :-0.4654929E-02  (-0.7856227E-03)
 number of electron      19.9999988 magnetization       0.0000001
 augmentation part        8.1775241 magnetization      -0.0000000

 Free energy of the ion-electron system (eV)
  ---------------------------------------------------
  alpha Z        PSCENC =        32.73109286
  Ewald energy   TEWEN  =      -948.29612643
  -Hartree energ DENC   =      -508.25001771
  -exchange      EXHF   =         0.00000000
  -V(xc)+E(xc)   XCENC  =        78.72964609
  PAW double counting   =      1581.94281590    -1763.30133393
  entropy T*S    EENTRO =         0.00781217
  eigenvalues    EBANDS =      -301.41259909
  atomic energy  EATOM  =      1808.90803902
  ---------------------------------------------------
  free energy    TOTEN  =       -18.94067968 eV

  energy without entropy =      -18.94849185  energy(sigma->0) =      -18.94263273


--------------------------------------------------------------------------------------------------------




--------------------------------------- Iteration      1(  11)  ---------------------------------------


    POTLOK:  cpu time      0.0840: real time      0.0840
    SETDIJ:  cpu time      0.7446: real time      0.7446
    TRIAL :  cpu time      0.2663: real time      0.2668
    CORREC:  cpu time      1.1124: real time      1.1126
    CHARGE:  cpu time      0.1910: real time      0.1910
    --------------------------------------------
      LOOP:  cpu time      2.3986: real time      2.3995

 eigenvalue-minimisations  :     0
 total energy-change (2. order) :-0.8586084E-03  (-0.3391988E-03)
 number of electron      19.9999988 magnetization       0.0000001
 augmentation part        8.1804537 magnetization      -0.0000000

 Free energy of the ion-electron system (eV)
  ---------------------------------------------------
  alpha Z        PSCENC =        32.73109286
  Ewald energy   TEWEN  =      -948.29612643
  -Hartree energ DENC   =      -508.22085754
  -exchange      EXHF   =         0.00000000
  -V(xc)+E(xc)   XCENC  =        78.72857479
  PAW double counting   =      1571.51558847    -1752.79151104
  entropy T*S    EENTRO =         0.00782174
  eigenvalues    EBANDS =      -301.52415059
  atomic energy  EATOM  =      1808.90803902
  ---------------------------------------------------
  free energy    TOTEN  =       -18.94153829 eV

  energy without entropy =      -18.94936003  energy(sigma->0) =      -18.94349373


--------------------------------------------------------------------------------------------------------




--------------------------------------- Iteration      1(  12)  ---------------------------------------


    POTLOK:  cpu time      0.0845: real time      0.0845
    SETDIJ:  cpu time      0.7636: real time      0.7637
    TRIAL :  cpu time      0.2813: real time      0.2817
    CORREC:  cpu time      1.0948: real time      1.0951
    CHARGE:  cpu time      0.1766: real time      0.1766
    --------------------------------------------
      LOOP:  cpu time      2.4011: real time      2.4018

 eigenvalue-minimisations  :     0
 total energy-change (2. order) :-0.3458965E-03  (-0.4984688E-04)
 number of electron      19.9999988 magnetization       0.0000001
 augmentation part        8.1803333 magnetization      -0.0000000

 Free energy of the ion-electron system (eV)
  ---------------------------------------------------
  alpha Z        PSCENC =        32.73109286
  Ewald energy   TEWEN  =      -948.29612643
  -Hartree energ DENC   =      -508.39470751
  -exchange      EXHF   =         0.00000000
  -V(xc)+E(xc)   XCENC  =        78.74605497
  PAW double counting   =      1567.72666210    -1749.11990755
  entropy T*S    EENTRO =         0.00782424
  eigenvalues    EBANDS =      -301.25081339
  atomic energy  EATOM  =      1808.90803902
  ---------------------------------------------------
  free energy    TOTEN  =       -18.94188419 eV

  energy without entropy =      -18.94970843  energy(sigma->0) =      -18.94384025


--------------------------------------------------------------------------------------------------------




--------------------------------------- Iteration      1(  13)  ---------------------------------------


    POTLOK:  cpu time      0.0862: real time      0.0863
    SETDIJ:  cpu time      0.7269: real time      0.7269
    TRIAL :  cpu time      0.2766: real time      0.2771
    CORREC:  cpu time      1.0968: real time      1.0971
    CHARGE:  cpu time      0.1939: real time      0.1940
    --------------------------------------------
      LOOP:  cpu time      2.3808: real time      2.3817

 eigenvalue-minimisations  :     0
 total energy-change (2. order) :-0.4207851E-04  (-0.1301637E-04)
 number of electron      19.9999988 magnetization       0.0000001
 augmentation part        8.1801600 magnetization      -0.0000000

 Free energy of the ion-electron system (eV)
  ---------------------------------------------------
  alpha Z        PSCENC =        32.73109286
  Ewald energy   TEWEN  =      -948.29612643
  -Hartree energ DENC   =      -508.37999455
  -exchange      EXHF   =         0.00000000
  -V(xc)+E(xc)   XCENC  =        78.74603504
  PAW double counting   =      1568.56088610    -1749.93783048
  entropy T*S    EENTRO =         0.00782441
  eigenvalues    EBANDS =      -301.28185208
  atomic energy  EATOM  =      1808.90803902
  ---------------------------------------------------
  free energy    TOTEN  =       -18.94192627 eV

  energy without entropy =      -18.94975067  energy(sigma->0) =      -18.94388237


--------------------------------------------------------------------------------------------------------




--------------------------------------- Iteration      1(  14)  ---------------------------------------


    POTLOK:  cpu time      0.0873: real time      0.0873
    SETDIJ:  cpu time      0.7309: real time      0.7311
    TRIAL :  cpu time      0.2651: real time      0.2655
    CORREC:  cpu time      1.0884: real time      1.0887
    CHARGE:  cpu time      0.1880: real time      0.1880
    --------------------------------------------
      LOOP:  cpu time      2.3602: real time      2.3610

 eigenvalue-minimisations  :     0
 total energy-change (2. order) :-0.6089219E-05  (-0.5597220E-05)
 number of electron      19.9999988 magnetization       0.0000001
 augmentation part        8.1801377 magnetization      -0.0000000

 Free energy of the ion-electron system (eV)
  ---------------------------------------------------
  alpha Z        PSCENC =        32.73109286
  Ewald energy   TEWEN  =      -948.29612643
  -Hartree energ DENC   =      -508.36364595
  -exchange      EXHF   =         0.00000000
  -V(xc)+E(xc)   XCENC  =        78.74497074
  PAW double counting   =      1569.41035725    -1750.77552798
  entropy T*S    EENTRO =         0.00782455
  eigenvalues    EBANDS =      -301.30891629
  atomic energy  EATOM  =      1808.90803902
  ---------------------------------------------------
  free energy    TOTEN  =       -18.94193236 eV

  energy without entropy =      -18.94975690  energy(sigma->0) =      -18.94388849


--------------------------------------------------------------------------------------------------------




--------------------------------------- Iteration      1(  15)  ---------------------------------------


    POTLOK:  cpu time      0.0843: real time      0.0843
    SETDIJ:  cpu time      0.7332: real time      0.7333
    TRIAL :  cpu time      0.2674: real time      0.2678
    CORREC:  cpu time      1.1359: real time      1.1362
    CHARGE:  cpu time      0.1990: real time      0.1991
    --------------------------------------------
      LOOP:  cpu time      2.4201: real time      2.4210

 eigenvalue-minimisations  :     0
 total energy-change (2. order) :-0.1314227E-05  (-0.3153090E-05)
 number of electron      19.9999988 magnetization       0.0000001
 augmentation part        8.1801478 magnetization      -0.0000000

 Free energy of the ion-electron system (eV)
  ---------------------------------------------------
  alpha Z        PSCENC =        32.73109286
  Ewald energy   TEWEN  =      -948.29612643
  -Hartree energ DENC   =      -508.35787571
  -exchange      EXHF   =         0.00000000
  -V(xc)+E(xc)   XCENC  =        78.74469860
  PAW double counting   =      1569.98609207    -1751.34788921
  entropy T*S    EENTRO =         0.00782467
  eigenvalues    EBANDS =      -301.31778943
  atomic energy  EATOM  =      1808.90803902
  ---------------------------------------------------
  free energy    TOTEN  =       -18.94193367 eV

  energy without entropy =      -18.94975834  energy(sigma->0) =      -18.94388984


--------------------------------------------------------------------------------------------------------




--------------------------------------- Iteration      1(  16)  ---------------------------------------


    POTLOK:  cpu time      0.0876: real time      0.0876
    SETDIJ:  cpu time      0.7677: real time      0.7678
    TRIAL :  cpu time      0.2733: real time      0.2903
    CORREC:  cpu time      1.1243: real time      1.1254
    CHARGE:  cpu time      0.1997: real time      0.1997
    --------------------------------------------
      LOOP:  cpu time      2.4529: real time      2.4711

 eigenvalue-minimisations  :     0
 total energy-change (2. order) :-0.4641743E-07  (-0.2008064E-05)
 number of electron      19.9999988 magnetization       0.0000001
 augmentation part        8.1801647 magnetization      -0.0000000

 Free energy of the ion-electron system (eV)
  ---------------------------------------------------
  alpha Z        PSCENC =        32.73109286
  Ewald energy   TEWEN  =      -948.29612643
  -Hartree energ DENC   =      -508.35518784
  -exchange      EXHF   =         0.00000000
  -V(xc)+E(xc)   XCENC  =        78.74462787
  PAW double counting   =      1570.39613900    -1751.75670950
  entropy T*S    EENTRO =         0.00782478
  eigenvalues    EBANDS =      -301.32163338
  atomic energy  EATOM  =      1808.90803902
  ---------------------------------------------------
  free energy    TOTEN  =       -18.94193372 eV

  energy without entropy =      -18.94975850  energy(sigma->0) =      -18.94388991


--------------------------------------------------------------------------------------------------------




--------------------------------------- Iteration      1(  17)  ---------------------------------------


    POTLOK:  cpu time      0.0870: real time      0.0870
    SETDIJ:  cpu time      0.7652: real time      0.7653
    TRIAL :  cpu time      0.2666: real time      0.2669
    CORREC:  cpu time      2.2545: real time      2.2549
    CHARGE:  cpu time      0.1782: real time      0.1783
    --------------------------------------------
      LOOP:  cpu time      3.5517: real time      3.5527

 eigenvalue-minimisations  :     0
 total energy-change (2. order) : 0.4286399E-06  (-0.1381718E-05)
 number of electron      19.9999988 magnetization       0.0000001
 augmentation part        8.1801820 magnetization      -0.0000000

 Free energy of the ion-electron system (eV)
  ---------------------------------------------------
  alpha Z        PSCENC =        32.73109286
  Ewald energy   TEWEN  =      -948.29612643
  -Hartree energ DENC   =      -508.35369838
  -exchange      EXHF   =         0.00000000
  -V(xc)+E(xc)   XCENC  =        78.74462040
  PAW double counting   =      1570.69847812    -1752.05853166
  entropy T*S    EENTRO =         0.00782488
  eigenvalues    EBANDS =      -301.32363202
  atomic energy  EATOM  =      1808.90803902
  ---------------------------------------------------
  free energy    TOTEN  =       -18.94193329 eV

  energy without entropy =      -18.94975816  energy(sigma->0) =      -18.94388951


--------------------------------------------------------------------------------------------------------




--------------------------------------- Iteration      1(  18)  ---------------------------------------


    POTLOK:  cpu time      0.0845: real time      0.0845
    SETDIJ:  cpu time      0.7344: real time      0.7345
    TRIAL :  cpu time      0.2651: real time      0.2656
    CORREC:  cpu time      1.1130: real time      1.1133
    CHARGE:  cpu time      0.1923: real time      0.1923
    --------------------------------------------
      LOOP:  cpu time      2.3897: real time      2.3905

 eigenvalue-minimisations  :     0
 total energy-change (2. order) : 0.6131490E-06  (-0.1004250E-05)
 number of electron      19.9999988 magnetization       0.0000001
 augmentation part        8.1801979 magnetization      -0.0000000

 Free energy of the ion-electron system (eV)
  ---------------------------------------------------
  alpha Z        PSCENC =        32.73109286
  Ewald energy   TEWEN  =      -948.29612643
  -Hartree energ DENC   =      -508.35276948
  -exchange      EXHF   =         0.00000000
  -V(xc)+E(xc)   XCENC  =        78.74463465
  PAW double counting   =      1570.92867956    -1752.28849287
  entropy T*S    EENTRO =         0.00782496
  eigenvalues    EBANDS =      -301.32481488
  atomic energy  EATOM  =      1808.90803902
  ---------------------------------------------------
  free energy    TOTEN  =       -18.94193267 eV

  energy without entropy =      -18.94975763  energy(sigma->0) =      -18.94388891


--------------------------------------------------------------------------------------------------------




--------------------------------------- Iteration      1(  19)  ---------------------------------------


    POTLOK:  cpu time      0.0850: real time      0.0850
    SETDIJ:  cpu time      0.7295: real time      0.7296
    TRIAL :  cpu time      0.2631: real time      0.2634
    CORREC:  cpu time      1.0635: real time      1.0638
    CHARGE:  cpu time      0.1822: real time      0.1822
    --------------------------------------------
      LOOP:  cpu time      2.3235: real time      2.3243

 eigenvalue-minimisations  :     0
 total energy-change (2. order) : 0.6731188E-06  (-0.7602618E-06)
 number of electron      19.9999988 magnetization       0.0000001
 augmentation part        8.1802120 magnetization      -0.0000000

 Free energy of the ion-electron system (eV)
  ---------------------------------------------------
  alpha Z        PSCENC =        32.73109286
  Ewald energy   TEWEN  =      -948.29612643
  -Hartree energ DENC   =      -508.35214035
  -exchange      EXHF   =         0.00000000
  -V(xc)+E(xc)   XCENC  =        78.74465620
  PAW double counting   =      1571.10901731    -1752.46871241
  entropy T*S    EENTRO =         0.00782503
  eigenvalues    EBANDS =      -301.32558318
  atomic energy  EATOM  =      1808.90803902
  ---------------------------------------------------
  free energy    TOTEN  =       -18.94193200 eV

  energy without entropy =      -18.94975703  energy(sigma->0) =      -18.94388826


--------------------------------------------------------------------------------------------------------




--------------------------------------- Iteration      1(  20)  ---------------------------------------


    POTLOK:  cpu time      0.0846: real time      0.0846
    SETDIJ:  cpu time      0.7262: real time      0.7266
    TRIAL :  cpu time      0.2743: real time      0.2746
    CORREC:  cpu time      1.0930: real time      1.0937
    CHARGE:  cpu time      0.1891: real time      0.1893
    --------------------------------------------
      LOOP:  cpu time      2.3674: real time      2.3690

 eigenvalue-minimisations  :     0
 total energy-change (2. order) : 0.6764578E-06  (-0.5940164E-06)
 number of electron      19.9999988 magnetization       0.0000001
 augmentation part        8.1802244 magnetization      -0.0000000

 Free energy of the ion-electron system (eV)
  ---------------------------------------------------
  alpha Z        PSCENC =        32.73109286
  Ewald energy   TEWEN  =      -948.29612643
  -Hartree energ DENC   =      -508.35168803
  -exchange      EXHF   =         0.00000000
  -V(xc)+E(xc)   XCENC  =        78.74467954
  PAW double counting   =      1571.25375500    -1752.61339062
  entropy T*S    EENTRO =         0.00782509
  eigenvalues    EBANDS =      -301.32611770
  atomic energy  EATOM  =      1808.90803902
  ---------------------------------------------------
  free energy    TOTEN  =       -18.94193132 eV

  energy without entropy =      -18.94975642  energy(sigma->0) =      -18.94388760


--------------------------------------------------------------------------------------------------------




--------------------------------------- Iteration      1(  21)  ---------------------------------------


    POTLOK:  cpu time      0.0849: real time      0.0849
    SETDIJ:  cpu time      0.7488: real time      0.7489
    TRIAL :  cpu time      0.2723: real time      0.2727
    CORREC:  cpu time      1.1232: real time      1.1236
    CHARGE:  cpu time      0.1995: real time      0.1995
    --------------------------------------------
      LOOP:  cpu time      2.4290: real time      2.4298

 eigenvalue-minimisations  :     0
 total energy-change (2. order) : 0.6537557E-06  (-0.4758176E-06)
 number of electron      19.9999988 magnetization       0.0000001
 augmentation part        8.1802353 magnetization      -0.0000000

 Free energy of the ion-electron system (eV)
  ---------------------------------------------------
  alpha Z        PSCENC =        32.73109286
  Ewald energy   TEWEN  =      -948.29612643
  -Hartree energ DENC   =      -508.35134633
  -exchange      EXHF   =         0.00000000
  -V(xc)+E(xc)   XCENC  =        78.74470231
  PAW double counting   =      1571.37231220    -1752.73191684
  entropy T*S    EENTRO =         0.00782515
  eigenvalues    EBANDS =      -301.32651257
  atomic energy  EATOM  =      1808.90803902
  ---------------------------------------------------
  free energy    TOTEN  =       -18.94193067 eV

  energy without entropy =      -18.94975582  energy(sigma->0) =      -18.94388696


--------------------------------------------------------------------------------------------------------




--------------------------------------- Iteration      1(  22)  ---------------------------------------


    POTLOK:  cpu time      0.0848: real time      0.0848
    SETDIJ:  cpu time      0.7398: real time      0.7399
    TRIAL :  cpu time      0.2647: real time      0.2651
    CORREC:  cpu time      1.0859: real time      1.0862
    CHARGE:  cpu time      0.1965: real time      0.1965
    --------------------------------------------
      LOOP:  cpu time      2.3719: real time      2.3727

 eigenvalue-minimisations  :     0
 total energy-change (2. order) : 0.6196642E-06  (-0.3888233E-06)
 number of electron      19.9999988 magnetization       0.0000001
 augmentation part        8.1802450 magnetization      -0.0000000

 Free energy of the ion-electron system (eV)
  ---------------------------------------------------
  alpha Z        PSCENC =        32.73109286
  Ewald energy   TEWEN  =      -948.29612643
  -Hartree energ DENC   =      -508.35107896
  -exchange      EXHF   =         0.00000000
  -V(xc)+E(xc)   XCENC  =        78.74472370
  PAW double counting   =      1571.47109367    -1752.83068229
  entropy T*S    EENTRO =         0.00782520
  eigenvalues    EBANDS =      -301.32681679
  atomic energy  EATOM  =      1808.90803902
  ---------------------------------------------------
  free energy    TOTEN  =       -18.94193005 eV

  energy without entropy =      -18.94975525  energy(sigma->0) =      -18.94388635


--------------------------------------------------------------------------------------------------------




--------------------------------------- Iteration      1(  23)  ---------------------------------------


    POTLOK:  cpu time      0.0843: real time      0.0844
    SETDIJ:  cpu time      0.7618: real time      0.7618
    TRIAL :  cpu time      0.2678: real time      0.2683
    CORREC:  cpu time      1.0728: real time      1.0730
    CHARGE:  cpu time      0.1887: real time      0.1887
    --------------------------------------------
      LOOP:  cpu time      2.3757: real time      2.3766

 eigenvalue-minimisations  :     0
 total energy-change (2. order) : 0.5813229E-06  (-0.3230133E-06)
 number of electron      19.9999988 magnetization       0.0000001
 augmentation part        8.1802535 magnetization      -0.0000000

 Free energy of the ion-electron system (eV)
  ---------------------------------------------------
  alpha Z        PSCENC =        32.73109286
  Ewald energy   TEWEN  =      -948.29612643
  -Hartree energ DENC   =      -508.35086457
  -exchange      EXHF   =         0.00000000
  -V(xc)+E(xc)   XCENC  =        78.74474351
  PAW double counting   =      1571.55458373    -1752.91416506
  entropy T*S    EENTRO =         0.00782524
  eigenvalues    EBANDS =      -301.32705775
  atomic energy  EATOM  =      1808.90803902
  ---------------------------------------------------
  free energy    TOTEN  =       -18.94192947 eV

  energy without entropy =      -18.94975471  energy(sigma->0) =      -18.94388578


--------------------------------------------------------------------------------------------------------




--------------------------------------- Iteration      1(  24)  ---------------------------------------


    POTLOK:  cpu time      0.0839: real time      0.0839
    SETDIJ:  cpu time      0.7719: real time      0.7720
    TRIAL :  cpu time      0.2701: real time      0.2706
    CORREC:  cpu time      1.1081: real time      1.1084
    CHARGE:  cpu time      0.1939: real time      0.1939
    --------------------------------------------
      LOOP:  cpu time      2.4282: real time      2.4291

 eigenvalue-minimisations  :     0
 total energy-change (2. order) : 0.5423030E-06  (-0.2720859E-06)
 number of electron      19.9999988 magnetization       0.0000001
 augmentation part        8.1802612 magnetization      -0.0000000

 Free energy of the ion-electron system (eV)
  ---------------------------------------------------
  alpha Z        PSCENC =        32.73109286
  Ewald energy   TEWEN  =      -948.29612643
  -Hartree energ DENC   =      -508.35068918
  -exchange      EXHF   =         0.00000000
  -V(xc)+E(xc)   XCENC  =        78.74476174
  PAW double counting   =      1571.62601164    -1752.98559086
  entropy T*S    EENTRO =         0.00782528
  eigenvalues    EBANDS =      -301.32725297
  atomic energy  EATOM  =      1808.90803902
  ---------------------------------------------------
  free energy    TOTEN  =       -18.94192893 eV

  energy without entropy =      -18.94975421  energy(sigma->0) =      -18.94388525


--------------------------------------------------------------------------------------------------------




--------------------------------------- Iteration      1(  25)  ---------------------------------------


    POTLOK:  cpu time      0.0885: real time      0.0885
    SETDIJ:  cpu time      0.7495: real time      0.7496
    TRIAL :  cpu time      0.2824: real time      0.2828
    CORREC:  cpu time      1.1128: real time      1.1132
    CHARGE:  cpu time      0.2184: real time      0.2184
    --------------------------------------------
      LOOP:  cpu time      2.4518: real time      2.4527

 eigenvalue-minimisations  :     0
 total energy-change (2. order) : 0.5045179E-06  (-0.2321790E-06)
 number of electron      19.9999988 magnetization       0.0000001
 augmentation part        8.1802680 magnetization      -0.0000000

 Free energy of the ion-electron system (eV)
  ---------------------------------------------------
  alpha Z        PSCENC =        32.73109286
  Ewald energy   TEWEN  =      -948.29612643
  -Hartree energ DENC   =      -508.35054321
  -exchange      EXHF   =         0.00000000
  -V(xc)+E(xc)   XCENC  =        78.74477845
  PAW double counting   =      1571.68775994    -1753.04734010
  entropy T*S    EENTRO =         0.00782532
  eigenvalues    EBANDS =      -301.32741425
  atomic energy  EATOM  =      1808.90803902
  ---------------------------------------------------
  free energy    TOTEN  =       -18.94192842 eV

  energy without entropy =      -18.94975374  energy(sigma->0) =      -18.94388475


--------------------------------------------------------------------------------------------------------




--------------------------------------- Iteration      1(  26)  ---------------------------------------


    POTLOK:  cpu time      0.0907: real time      0.0907
    SETDIJ:  cpu time      0.7811: real time      0.7813
    TRIAL :  cpu time      0.2689: real time      0.2693
    CORREC:  cpu time      1.0892: real time      1.0895
    CHARGE:  cpu time      0.1849: real time      0.1849
    --------------------------------------------
      LOOP:  cpu time      2.4153: real time      2.4160

 eigenvalue-minimisations  :     0
 total energy-change (2. order) : 0.4691617E-06  (-0.2002898E-06)
 number of electron      19.9999988 magnetization       0.0000001
 augmentation part        8.1802742 magnetization      -0.0000000

 Free energy of the ion-electron system (eV)
  ---------------------------------------------------
  alpha Z        PSCENC =        32.73109286
  Ewald energy   TEWEN  =      -948.29612643
  -Hartree energ DENC   =      -508.35042001
  -exchange      EXHF   =         0.00000000
  -V(xc)+E(xc)   XCENC  =        78.74479384
  PAW double counting   =      1571.74197243    -1753.10155523
  entropy T*S    EENTRO =         0.00782535
  eigenvalues    EBANDS =      -301.32754977
  atomic energy  EATOM  =      1808.90803902
  ---------------------------------------------------
  free energy    TOTEN  =       -18.94192795 eV

  energy without entropy =      -18.94975330  energy(sigma->0) =      -18.94388429


--------------------------------------------------------------------------------------------------------




--------------------------------------- Iteration      1(  27)  ---------------------------------------


    POTLOK:  cpu time      0.0837: real time      0.0838
    SETDIJ:  cpu time      0.7242: real time      0.7243
    TRIAL :  cpu time      0.2649: real time      0.2652
    CORREC:  cpu time      1.0898: real time      1.0905
    CHARGE:  cpu time      0.1852: real time      0.1852
    --------------------------------------------
      LOOP:  cpu time      2.3481: real time      2.3493

 eigenvalue-minimisations  :     0
 total energy-change (2. order) : 0.4364563E-06  (-0.1742207E-06)
 number of electron      19.9999988 magnetization       0.0000001
 augmentation part        8.1802798 magnetization      -0.0000000

 Free energy of the ion-electron system (eV)
  ---------------------------------------------------
  alpha Z        PSCENC =        32.73109286
  Ewald energy   TEWEN  =      -948.29612643
  -Hartree energ DENC   =      -508.35031458
  -exchange      EXHF   =         0.00000000
  -V(xc)+E(xc)   XCENC  =        78.74480807
  PAW double counting   =      1571.79019444    -1753.14978067
  entropy T*S    EENTRO =         0.00782538
  eigenvalues    EBANDS =      -301.32766560
  atomic energy  EATOM  =      1808.90803902
  ---------------------------------------------------
  free energy    TOTEN  =       -18.94192752 eV

  energy without entropy =      -18.94975290  energy(sigma->0) =      -18.94388386


--------------------------------------------------------------------------------------------------------




--------------------------------------- Iteration      1(  28)  ---------------------------------------


    POTLOK:  cpu time      0.0840: real time      0.0841
    SETDIJ:  cpu time      0.7443: real time      0.7443
    TRIAL :  cpu time      0.2720: real time      0.2724
    CORREC:  cpu time      1.0615: real time      1.0619
    CHARGE:  cpu time      0.1939: real time      0.1939
    --------------------------------------------
      LOOP:  cpu time      2.3560: real time      2.3569

 eigenvalue-minimisations  :     0
 total energy-change (2. order) : 0.4061105E-06  (-0.1527971E-06)
 number of electron      19.9999988 magnetization       0.0000001
 augmentation part        8.1802849 magnetization      -0.0000000

 Free energy of the ion-electron system (eV)
  ---------------------------------------------------
  alpha Z        PSCENC =        32.73109286
  Ewald energy   TEWEN  =      -948.29612643
  -Hartree energ DENC   =      -508.35022336
  -exchange      EXHF   =         0.00000000
  -V(xc)+E(xc)   XCENC  =        78.74482122
  PAW double counting   =      1571.83338643    -1753.19297643
  entropy T*S    EENTRO =         0.00782541
  eigenvalues    EBANDS =      -301.32776581
  atomic energy  EATOM  =      1808.90803902
  ---------------------------------------------------
  free energy    TOTEN  =       -18.94192711 eV

  energy without entropy =      -18.94975252  energy(sigma->0) =      -18.94388346


--------------------------------------------------------------------------------------------------------




--------------------------------------- Iteration      1(  29)  ---------------------------------------


    POTLOK:  cpu time      0.0845: real time      0.0845
    SETDIJ:  cpu time      0.7624: real time      0.7625
    TRIAL :  cpu time      0.2665: real time      0.2669
    CORREC:  cpu time      1.0861: real time      1.0863
    CHARGE:  cpu time      0.1833: real time      0.1833
    --------------------------------------------
      LOOP:  cpu time      2.3830: real time      2.3837

 eigenvalue-minimisations  :     0
 total energy-change (2. order) : 0.3780888E-06  (-0.1348774E-06)
 number of electron      19.9999988 magnetization       0.0000001
 augmentation part        8.1802896 magnetization      -0.0000000

 Free energy of the ion-electron system (eV)
  ---------------------------------------------------
  alpha Z        PSCENC =        32.73109286
  Ewald energy   TEWEN  =      -948.29612643
  -Hartree energ DENC   =      -508.35014382
  -exchange      EXHF   =         0.00000000
  -V(xc)+E(xc)   XCENC  =        78.74483343
  PAW double counting   =      1571.87253744    -1753.23213140
  entropy T*S    EENTRO =         0.00782543
  eigenvalues    EBANDS =      -301.32785325
  atomic energy  EATOM  =      1808.90803902
  ---------------------------------------------------
  free energy    TOTEN  =       -18.94192673 eV

  energy without entropy =      -18.94975216  energy(sigma->0) =      -18.94388309


--------------------------------------------------------------------------------------------------------




--------------------------------------- Iteration      1(  30)  ---------------------------------------


    POTLOK:  cpu time      0.0840: real time      0.0840
    SETDIJ:  cpu time      0.7655: real time      0.7656
    TRIAL :  cpu time      0.2620: real time      0.2624
    CORREC:  cpu time      1.0748: real time      1.0750
    CHARGE:  cpu time      0.1794: real time      0.1795
    --------------------------------------------
      LOOP:  cpu time      2.3659: real time      2.3668

 eigenvalue-minimisations  :     0
 total energy-change (2. order) : 0.3523683E-06  (-0.1197088E-06)
 number of electron      19.9999988 magnetization       0.0000001
 augmentation part        8.1802939 magnetization      -0.0000000

 Free energy of the ion-electron system (eV)
  ---------------------------------------------------
  alpha Z        PSCENC =        32.73109286
  Ewald energy   TEWEN  =      -948.29612643
  -Hartree energ DENC   =      -508.35007399
  -exchange      EXHF   =         0.00000000
  -V(xc)+E(xc)   XCENC  =        78.74484482
  PAW double counting   =      1571.90828979    -1753.26788780
  entropy T*S    EENTRO =         0.00782545
  eigenvalues    EBANDS =      -301.32793009
  atomic energy  EATOM  =      1808.90803902
  ---------------------------------------------------
  free energy    TOTEN  =       -18.94192638 eV

  energy without entropy =      -18.94975183  energy(sigma->0) =      -18.94388274


--------------------------------------------------------------------------------------------------------




--------------------------------------- Iteration      1(  31)  ---------------------------------------


    POTLOK:  cpu time      0.0827: real time      0.0827
    SETDIJ:  cpu time      0.7280: real time      0.7280
    TRIAL :  cpu time      0.2632: real time      0.2637
    CORREC:  cpu time      1.0700: real time      1.0703
    CHARGE:  cpu time      0.1850: real time      0.1850
    --------------------------------------------
      LOOP:  cpu time      2.3292: real time      2.3300

 eigenvalue-minimisations  :     0
 total energy-change (2. order) : 0.3285977E-06  (-0.1067716E-06)
 number of electron      19.9999988 magnetization       0.0000001
 augmentation part        8.1802979 magnetization      -0.0000000

 Free energy of the ion-electron system (eV)
  ---------------------------------------------------
  alpha Z        PSCENC =        32.73109286
  Ewald energy   TEWEN  =      -948.29612643
  -Hartree energ DENC   =      -508.35001231
  -exchange      EXHF   =         0.00000000
  -V(xc)+E(xc)   XCENC  =        78.74485544
  PAW double counting   =      1571.94108412    -1753.30068620
  entropy T*S    EENTRO =         0.00782547
  eigenvalues    EBANDS =      -301.32799802
  atomic energy  EATOM  =      1808.90803902
  ---------------------------------------------------
  free energy    TOTEN  =       -18.94192605 eV

  energy without entropy =      -18.94975153  energy(sigma->0) =      -18.94388242


--------------------------------------------------------------------------------------------------------




--------------------------------------- Iteration      1(  32)  ---------------------------------------


    POTLOK:  cpu time      0.0840: real time      0.0840
    SETDIJ:  cpu time      0.7352: real time      0.7354
    TRIAL :  cpu time      0.2677: real time      0.2681
    CORREC:  cpu time      1.0636: real time      1.0639
    CHARGE:  cpu time      0.1870: real time      0.1870
    --------------------------------------------
      LOOP:  cpu time      2.3379: real time      2.3387

 eigenvalue-minimisations  :     0
 total energy-change (2. order) : 0.3067032E-06  (-0.9563338E-07)
 number of electron      19.9999988 magnetization       0.0000001
 augmentation part        8.1803016 magnetization      -0.0000000

 Free energy of the ion-electron system (eV)
  ---------------------------------------------------
  alpha Z        PSCENC =        32.73109286
  Ewald energy   TEWEN  =      -948.29612643
  -Hartree energ DENC   =      -508.34995751
  -exchange      EXHF   =         0.00000000
  -V(xc)+E(xc)   XCENC  =        78.74486536
  PAW double counting   =      1571.97128968    -1753.33089577
  entropy T*S    EENTRO =         0.00782549
  eigenvalues    EBANDS =      -301.32805843
  atomic energy  EATOM  =      1808.90803902
  ---------------------------------------------------
  free energy    TOTEN  =       -18.94192575 eV

[...]
  atomic energy  EATOM  =      1808.90803902
  ---------------------------------------------------
  free energy    TOTEN  =       -18.94189280 eV

  energy without entropy =      -18.94973464  energy(sigma->0) =      -18.94385326


--------------------------------------------------------------------------------------------------------


  average scaling for gradient   0.9927


 average (electrostatic) potential at core
  the test charge radii are     0.9254  0.9698
  (the norm of the test charge is              1.0000)
       1 -52.5313       2 -52.5313       3 -91.5664



 E-fermi :   0.0202     XC(G=0):  -8.3230     alpha+bet : -8.0385

 Fermi energy:         0.0201965151

 spin component 1

 k-point     1 :       0.0000    0.0000    0.0000
  band No.  band energies     occupation 
      1     -23.0920      1.00000
      2     -23.0916      1.00000
      3     -23.0916      1.00000
      4     -23.0396      1.00000
      5     -23.0392      1.00000
      6     -23.0392      1.00000
      7     -10.6230      1.00000
      8      -0.0463      0.80621
      9      -0.0463      0.80621
     10      -0.0462      0.80600
     11       3.0608      0.00000
     12       8.4161      0.00000
     13       8.4161      0.00000
     14       8.4167      0.00000
     15       9.8053      0.00000
     16       9.8053      0.00000
     17      11.8881      0.00000
     18      11.8881      0.00000
     19      11.8884      0.00000
     20      14.9546      0.00000
     21      15.0009      0.00000
     22      20.7271      0.00000
     23      20.7271      0.00000
     24      20.7275      0.00000
     25      20.8373      0.00000
     26      20.8373      0.00000
     27      20.8382      0.00000
     28      22.1631      0.00000
     29      22.1631      0.00000
     30      25.7278      0.00000
     31      25.7283      0.00000
     32      25.7283      0.00000

 k-point     2 :       0.3333    0.0000    0.0000
  band No.  band energies     occupation 
      1     -23.0833      1.00000
      2     -23.0796      1.00000
      3     -23.0793      1.00000
      4     -23.0577      1.00000
      5     -23.0533      1.00000
      6     -23.0530      1.00000
      7     -10.4329      1.00000
      8      -1.3727      1.00000
      9      -0.1416      1.03956
     10      -0.1416      1.03951
     11       4.9718      0.00000
     12       7.3712      0.00000
     13       7.9070      0.00000
     14       7.9072      0.00000
     15      10.4143      0.00000
     16      10.4146      0.00000
     17      11.1644      0.00000
     18      14.6785      0.00000
     19      14.6788      0.00000
     20      15.2980      0.00000
     21      16.5520      0.00000
     22      16.5524      0.00000
     23      18.0006      0.00000
     24      19.4694      0.00000
     25      21.0273      0.00000
     26      21.0276      0.00000
     27      22.3573      0.00000
     28      22.3575      0.00000
     29      23.3626      0.00000
     30      24.7712      0.00000
     31      24.7718      0.00000
     32      25.5500      0.00000

 k-point     3 :       0.3333    0.3333    0.0000
  band No.  band energies     occupation 
      1     -23.1005      1.00000
      2     -23.1003      1.00000
      3     -23.0993      1.00000
      4     -23.0421      1.00000
      5     -23.0339      1.00000
      6     -23.0337      1.00000
      7     -10.3722      1.00000
      8      -1.2669      1.00000
      9      -0.3962      0.99512
     10      -0.3962      0.99512
     11       4.5483      0.00000
     12       7.0595      0.00000
     13       7.9575      0.00000
     14       9.7656      0.00000
     15       9.7659      0.00000
     16      11.3126      0.00000
     17      13.5204      0.00000
     18      13.5206      0.00000
     19      13.5625      0.00000
     20      16.2219      0.00000
     21      16.2977      0.00000
     22      16.3889      0.00000
     23      16.3897      0.00000
     24      18.7305      0.00000
     25      21.6396      0.00000
     26      21.6398      0.00000
     27      21.6623      0.00000
     28      21.8624      0.00000
     29      22.8558      0.00000
     30      24.3482      0.00000
     31      24.3486      0.00000
     32      25.2218      0.00000

 k-point     4 :      -0.3333    0.3333    0.0000
  band No.  band energies     occupation 
      1     -23.1120      1.00000
      2     -23.0902      1.00000
      3     -23.0873      1.00000
      4     -23.0489      1.00000
      5     -23.0470      1.00000
      6     -23.0287      1.00000
      7     -10.3054      1.00000
      8      -1.1520      1.00000
      9      -1.0831      1.00000
     10      -0.3205      1.00064
     11       5.2957      0.00000
     12       6.9632      0.00000
     13       8.3934      0.00000
     14       8.7350      0.00000
     15      10.0151      0.00000
     16      10.7880      0.00000
     17      13.9846      0.00000
     18      14.0618      0.00000
     19      14.9829      0.00000
     20      15.3103      0.00000
     21      16.1987      0.00000
     22      16.3783      0.00000
     23      17.1136      0.00000
     24      19.8297      0.00000
     25      20.5654      0.00000
     26      20.8922      0.00000
     27      22.0283      0.00000
     28      22.2878      0.00000
     29      22.9128      0.00000
     30      22.9897      0.00000
     31      24.3816      0.00000
     32      24.5423      0.00000
 Fermi energy:         0.0201965151

 spin component 2

 k-point     1 :       0.0000    0.0000    0.0000
  band No.  band energies     occupation 
      1     -23.0920      1.00000
      2     -23.0916      1.00000
      3     -23.0916      1.00000
      4     -23.0396      1.00000
      5     -23.0392      1.00000
      6     -23.0392      1.00000
      7     -10.6230      1.00000
      8      -0.0463      0.80621
      9      -0.0463      0.80621
     10      -0.0462      0.80600
     11       3.0608      0.00000
     12       8.4161      0.00000
     13       8.4161      0.00000
     14       8.4167      0.00000
     15       9.8053      0.00000
     16       9.8053      0.00000
     17      11.8881      0.00000
     18      11.8881      0.00000
     19      11.8884      0.00000
     20      14.9546      0.00000
     21      15.0009      0.00000
     22      20.7271      0.00000
     23      20.7271      0.00000
     24      20.7275      0.00000
     25      20.8373      0.00000
     26      20.8373      0.00000
     27      20.8382      0.00000
     28      22.1631      0.00000
     29      22.1631      0.00000
     30      25.7278      0.00000
     31      25.7283      0.00000
     32      25.7283      0.00000

 k-point     2 :       0.3333    0.0000    0.0000
  band No.  band energies     occupation 
      1     -23.0833      1.00000
      2     -23.0796      1.00000
      3     -23.0793      1.00000
      4     -23.0577      1.00000
      5     -23.0533      1.00000
      6     -23.0530      1.00000
      7     -10.4329      1.00000
      8      -1.3727      1.00000
      9      -0.1416      1.03956
     10      -0.1416      1.03951
     11       4.9718      0.00000
     12       7.3712      0.00000
     13       7.9070      0.00000
     14       7.9072      0.00000
     15      10.4143      0.00000
     16      10.4146      0.00000
     17      11.1644      0.00000
     18      14.6785      0.00000
     19      14.6788      0.00000
     20      15.2981      0.00000
     21      16.5520      0.00000
     22      16.5524      0.00000
     23      18.0006      0.00000
     24      19.4694      0.00000
     25      21.0273      0.00000
     26      21.0276      0.00000
     27      22.3573      0.00000
     28      22.3575      0.00000
     29      23.3626      0.00000
     30      24.7712      0.00000
     31      24.7718      0.00000
     32      25.5500      0.00000

 k-point     3 :       0.3333    0.3333    0.0000
  band No.  band energies     occupation 
      1     -23.1005      1.00000
      2     -23.1003      1.00000
      3     -23.0993      1.00000
      4     -23.0421      1.00000
      5     -23.0339      1.00000
      6     -23.0337      1.00000
      7     -10.3722      1.00000
      8      -1.2669      1.00000
      9      -0.3962      0.99512
     10      -0.3962      0.99512
     11       4.5483      0.00000
     12       7.0595      0.00000
     13       7.9575      0.00000
     14       9.7656      0.00000
     15       9.7659      0.00000
     16      11.3126      0.00000
     17      13.5204      0.00000
     18      13.5206      0.00000
     19      13.5625      0.00000
     20      16.2219      0.00000
     21      16.2977      0.00000
     22      16.3889      0.00000
     23      16.3897      0.00000
     24      18.7305      0.00000
     25      21.6396      0.00000
     26      21.6398      0.00000
     27      21.6623      0.00000
     28      21.8624      0.00000
     29      22.8558      0.00000
     30      24.3482      0.00000
     31      24.3486      0.00000
     32      25.2218      0.00000

 k-point     4 :      -0.3333    0.3333    0.0000
  band No.  band energies     occupation 
      1     -23.1120      1.00000
      2     -23.0902      1.00000
      3     -23.0873      1.00000
      4     -23.0489      1.00000
      5     -23.0470      1.00000
      6     -23.0287      1.00000
      7     -10.3054      1.00000
      8      -1.1520      1.00000
      9      -1.0831      1.00000
     10      -0.3205      1.00064
     11       5.2957      0.00000
     12       6.9632      0.00000
     13       8.3934      0.00000
     14       8.7350      0.00000
     15      10.0151      0.00000
     16      10.7880      0.00000
     17      13.9846      0.00000
     18      14.0618      0.00000
     19      14.9829      0.00000
     20      15.3103      0.00000
     21      16.1987      0.00000
     22      16.3783      0.00000
     23      17.1136      0.00000
     24      19.8297      0.00000
     25      20.5654      0.00000
     26      20.8922      0.00000
     27      22.0283      0.00000
     28      22.2878      0.00000
     29      22.9128      0.00000
     30      22.9897      0.00000
     31      24.3816      0.00000
     32      24.5423      0.00000


--------------------------------------------------------------------------------------------------------


 soft charge-density along one line, spin component           1
         0         1         2         3         4         5         6         7         8         9
 total charge-density along one line

 soft charge-density along one line, spin component           2
         0         1         2         3         4         5         6         7         8         9
 total charge-density along one line

 pseudopotential strength for first ion, spin component:           1
-26.736  -0.000  -0.000   3.222   0.000   0.000  -0.000  -0.000
 -0.000 -26.736  -0.000   0.000   3.222   0.000  -0.000  -0.000
 -0.000  -0.000 -26.736   0.000   0.000   3.222  -0.000  -0.000
  3.222   0.000   0.000   7.363   0.000   0.000   0.000  -0.000
  0.000   3.222   0.000   0.000   7.363   0.000   0.000  -0.000
  0.000   0.000   3.222   0.000   0.000   7.363   0.000  -0.000
 -0.000  -0.000  -0.000   0.000   0.000   0.000   1.587   7.676
 -0.000  -0.000  -0.000  -0.000  -0.000  -0.000   7.676  36.992
 pseudopotential strength for first ion, spin component:           2
-26.736  -0.000  -0.000   3.222   0.000   0.000  -0.000  -0.000
 -0.000 -26.736  -0.000   0.000   3.222   0.000  -0.000  -0.000
 -0.000  -0.000 -26.736   0.000   0.000   3.222  -0.000  -0.000
  3.222   0.000   0.000   7.363   0.000   0.000   0.000  -0.000
  0.000   3.222   0.000   0.000   7.363   0.000   0.000  -0.000
  0.000   0.000   3.222   0.000   0.000   7.363   0.000  -0.000
 -0.000  -0.000  -0.000   0.000   0.000   0.000   1.587   7.676
 -0.000  -0.000  -0.000  -0.000  -0.000  -0.000   7.676  36.992
 total augmentation occupancy for first ion, spin component:           1
  2.002   0.000   0.000  -0.008  -0.000  -0.000   0.000  -0.000
  0.000   2.002   0.000  -0.000  -0.008  -0.000  -0.000   0.000
  0.000   0.000   2.002  -0.000  -0.000  -0.008   0.000  -0.000
 -0.008  -0.000  -0.000   0.020   0.000   0.000  -0.000  -0.000
 -0.000  -0.008  -0.000   0.000   0.020   0.000   0.000  -0.000
 -0.000  -0.000  -0.008   0.000   0.000   0.020  -0.000   0.000
  0.000  -0.000   0.000   0.000   0.000  -0.000   0.526  -0.003
  0.000   0.000  -0.000   0.000  -0.000   0.000  -0.003   0.000
 total augmentation occupancy for first ion, spin component:           2
 -0.000  -0.000  -0.000  -0.000   0.000  -0.000  -0.000   0.000
  0.000  -0.000   0.000  -0.000  -0.000   0.000   0.000   0.000
 -0.000   0.000  -0.000  -0.000   0.000  -0.000  -0.000   0.000
 -0.000  -0.000  -0.000  -0.000   0.000  -0.000   0.000  -0.000
  0.000  -0.000   0.000  -0.000  -0.000  -0.000   0.000  -0.000
 -0.000   0.000  -0.000  -0.000  -0.000  -0.000   0.000  -0.000
 -0.000   0.000  -0.000  -0.000  -0.000   0.000  -0.000  -0.000
 -0.000  -0.000   0.000  -0.000  -0.000  -0.000  -0.000   0.000


------------------------ aborting loop because EDIFF is reached ----------------------------------------





 total charge

# of ion       s       p       d       tot
------------------------------------------
    1        0.057   5.990   0.000   6.047
    2        0.057   5.990   0.000   6.047
    3        1.296   2.466   0.000   3.762
--------------------------------------------------
tot          1.410  14.447   0.000  15.857



 magnetization (x)

# of ion       s       p       d       tot
------------------------------------------
    1       -0.000  -0.000   0.000  -0.000
    2       -0.000  -0.000   0.000  -0.000
    3        0.000   0.000   0.000   0.000
--------------------------------------------------
tot          0.000   0.000   0.000   0.000

    FORLOC:  cpu time      0.0007: real time      0.0007
    FORNL :  cpu time      0.0593: real time      0.0593
    STRESS:  cpu time      0.8920: real time      0.8920
    FORCOR:  cpu time      0.0660: real time      0.0660
    OFIELD:  cpu time      0.0001: real time      0.0001

  FORCE on cell =-STRESS in cart. coord.  units (eV):
  Direction    XX          YY          ZZ          XY          YZ          ZX
  --------------------------------------------------------------------------------------
  Alpha Z    32.60713    32.60713    32.60713
  Ewald    -315.69934  -315.69942  -315.69935    -0.00001    -0.00000    -0.00000
  Hartree   169.66967   169.66968   169.66968     0.00000     0.00000     0.00000
  E(xc)    -104.62679  -104.55198  -104.46139     0.00727    -0.00014    -0.00019
  Local     -62.38790   -62.38789   -62.38791    -0.00001    -0.00001    -0.00002
  n-local    24.99938    26.68461    28.77030    -0.06246    -0.00019    -0.00019
  augment    74.12197    74.12192    74.12222     0.00009     0.00016     0.00022
  Kinetic   175.71190   179.14044   183.39126     0.46306     0.00025     0.00055
  Fock        0.00000     0.00000     0.00000     0.00000     0.00000     0.00000
  -------------------------------------------------------------------------------------
  Total      -0.00252    -0.00252    -0.00252    -0.00000     0.00000     0.00000
  in kB      -0.05856    -0.05856    -0.05856    -0.00000     0.00000     0.00000
  external pressure =       -0.06 kB  Pullay stress =        0.00 kB


 VOLUME and BASIS-vectors are now :
 -----------------------------------------------------------------------------
  energy-cutoff  :      680.00
  volume of cell :       68.86
      direct lattice vectors                 reciprocal lattice vectors
     3.984421307  0.000000000  2.300406713     0.250977475 -0.088733940 -0.000000000
     1.328140770  3.756549280  2.300406713    -0.000000000  0.266201752 -0.000000000
     0.000000000  0.000000000  4.600813427    -0.125488738 -0.088733906  0.217352869

  length of vectors
     4.600813428  4.600814215  4.600813427     0.266201813  0.266201752  0.266201802


 FORCES acting on ions:
    Electron-Ion                     Ewald-Force                    Non-Local-Force
 -----------------------------------------------------------------------------------------------
   0.585E-05 -.298E-04 0.172E-09   -.734E-05 0.374E-04 -.138E-14   -.708E-17 0.156E-16 -.870E-17
   -.585E-05 0.298E-04 -.174E-09   0.734E-05 -.374E-04 0.143E-14   0.991E-17 -.861E-17 0.165E-16
   0.890E-14 0.530E-14 0.113E-13   -.107E-14 -.172E-16 0.178E-15   0.114E-25 0.571E-27 0.287E-25
 -----------------------------------------------------------------------------------------------
   0.795E-12 0.226E-11 -.155E-11   -.120E-14 -.119E-15 0.222E-15   0.282E-17 0.703E-17 0.778E-17


 POSITION                                       TOTAL-FORCE (eV/Angst)
 -----------------------------------------------------------------------------------
      1.32814      0.93914      2.30041        -0.000000     -0.000000     -0.000000
      3.98442      2.81741      6.90122         0.000000      0.000000      0.000000
     -0.00000      0.00000      0.00000        -0.000000     -0.000000      0.000000
 -----------------------------------------------------------------------------------
    total drift:                                0.000000      0.000000     -0.000000


--------------------------------------------------------------------------------------------------------



  FREE ENERGIE OF THE ION-ELECTRON SYSTEM (eV)
  ---------------------------------------------------
  free  energy   TOTEN  =       -18.94189280 eV

  energy  without entropy=      -18.94973464  energy(sigma->0) =      -18.94385326

 d Force = 0.0000000E+00[ 0.000E+00, 0.000E+00]  d Energy = 0.4091694E-04-0.409E-04
 d Force = 0.0000000E+00[ 0.000E+00, 0.000E+00]  d Ewald  = 0.9643997E-01-0.964E-01


--------------------------------------------------------------------------------------------------------


    POTLOK:  cpu time      0.8235: real time      0.8235


--------------------------------------------------------------------------------------------------------




--------------------------------------------------------------------------------------------------------


  
 reached required accuracy - stopping structural energy minimisation
     LOOP+:  cpu time      7.4694: real time      7.4771
    4ORBIT:  cpu time      0.0000: real time      0.0000



 total charge

# of ion       s       p       d       tot
------------------------------------------
    1        0.057   5.990   0.000   6.047
    2        0.057   5.990   0.000   6.047
    3        1.296   2.466   0.000   3.762
--------------------------------------------------
tot          1.410  14.447   0.000  15.857



 magnetization (x)

# of ion       s       p       d       tot
------------------------------------------
    1       -0.000  -0.000   0.000  -0.000
    2       -0.000  -0.000   0.000  -0.000
    3        0.000   0.000   0.000   0.000
--------------------------------------------------
tot          0.000   0.000   0.000   0.000


 total amount of memory used by VASP MPI-rank0    45522. kBytes
=======================================================================

   base      :      30000. kBytes
   nonlr-proj:       2351. kBytes
   fftplans  :        914. kBytes
   grid      :      11147. kBytes
   one-center:         18. kBytes
   wavefun   :       1092. kBytes

  
  
 General timing and accounting informations for this job:
 ========================================================
  
                  Total CPU time used (sec):     3293.825
                            User time (sec):     3292.533
                          System time (sec):        1.292
                         Elapsed time (sec):     3301.557
  
                   Maximum memory used (kb):      359088.
                   Average memory used (kb):          N/A
  
                          Minor page faults:       352582
                          Major page faults:          137
                 Voluntary context switches:         8368
