 vasp.6.3.2 27Jun22 (build Mar 25 2024 10:42:18) complex                         
 executed on             LinuxGNU date 2024.03.31  11:42:27
 running on   32 total cores
 distrk:  each k-point on   32 cores,    1 groups
 distr:  one band on NCORE=   1 cores,   32 groups


--------------------------------------------------------------------------------------------------------


 INCAR:
   ISTART = 0
   ICHARG = 2
   PREC = Accurate
   IBRION = -1
   EDIFF = 0.000000001
   EDIFFG = -0.0005
   NSW = 0
   NELM = 100
   ENCUT = 520
   ISMEAR = -5
   SIGMA = 0.05
   ISPIN = 2
   ISYM = 0
   LWAVE = False
   LCHARG = False
   LASPH = True
   LORBIT = 11
   ADDGRID = TRUE

 POTCAR:    PAW_PBE S 06Sep2000                   
 -----------------------------------------------------------------------------
|                                                                             |
|           W    W    AA    RRRRR   N    N  II  N    N   GGGG   !!!           |
|           W    W   A  A   R    R  NN   N  II  NN   N  G    G  !!!           |
|           W    W  A    A  R    R  N N  N  II  N N  N  G       !!!           |
|           W WW W  AAAAAA  RRRRR   N  N N  II  N  N N  G  GGG   !            |
|           WW  WW  A    A  R   R   N   NN  II  N   NN  G    G                |
|           W    W  A    A  R    R  N    N  II  N    N   GGGG   !!!           |
|                                                                             |
|     You use a magnetic or noncollinear calculation, but did not specify     |
|     the initial magnetic moment with the MAGMOM tag. Note that a            |
|     default of 1 will be used for all atoms. This ferromagnetic setup       |
|     may break the symmetry of the crystal, in particular it may rule        |
|     out finding an antiferromagnetic solution. Thence, we recommend         |
|     setting the initial magnetic moment manually or verifying carefully     |
|     that this magnetic setup is desired.                                    |
|                                                                             |
 -----------------------------------------------------------------------------

 -----------------------------------------------------------------------------
|                                                                             |
|           W    W    AA    RRRRR   N    N  II  N    N   GGGG   !!!           |
|           W    W   A  A   R    R  NN   N  II  NN   N  G    G  !!!           |
|           W    W  A    A  R    R  N N  N  II  N N  N  G       !!!           |
|           W WW W  AAAAAA  RRRRR   N  N N  II  N  N N  G  GGG   !            |
|           WW  WW  A    A  R   R   N   NN  II  N   NN  G    G                |
|           W    W  A    A  R    R  N    N  II  N    N   GGGG   !!!           |
|                                                                             |
|     For optimal performance we recommend to set                             |
|       NCORE = 2 up to number-of-cores-per-socket                            |
|     NCORE specifies how many cores store one orbital (NPAR=cpu/NCORE).      |
|     This setting can greatly improve the performance of VASP for DFT.       |
|     The default, NCORE=1 might be grossly inefficient on modern             |
|     multi-core architectures or massively parallel machines. Do your        |
|     own testing! More info at https://www.vasp.at/wiki/index.php/NCORE      |
|     Unfortunately you need to use the default for GW and RPA                |
|     calculations (for HF NCORE is supported but not extensively tested      |
|     yet).                                                                   |
|                                                                             |
 -----------------------------------------------------------------------------

 POTCAR:    PAW_PBE S 06Sep2000                   
   SHA256 =  0fc7481fb0695f01bdc6462160264c5c84044ae9ec85a907d398b887a2bc3132 S/POTCAR              
   COPYR  = (c) Copyright 06Sep2000 Georg Kresse                                                    
   COPYR  = This file is part of the software VASP. Any use, copying, and all other rights are regul
   COPYR  = If you do not have a valid VASP license, you may not use, copy or distribute this file. 
   VRHFIN =S : s2p4                                                                                 
   LEXCH  = PE                                                                                      
   EATOM  =   276.8230 eV,   20.3459 Ry                                                             
                                                                                                    
   TITEL  = PAW_PBE S 06Sep2000                                                                     
   LULTRA =        F    use ultrasoft PP ?                                                          
   IUNSCR =        1    unscreen: 0-lin 1-nonlin 2-no                                               
   RPACOR =    1.500    partial core radius                                                         
   POMASS =   32.066; ZVAL   =    6.000    mass and valenz                                          
   RCORE  =    1.900    outmost cutoff radius                                                       
   RWIGS  =    2.200; RWIGS  =    1.164    wigner-seitz radius (au A)                               
   ENMAX  =  258.689; ENMIN  =  194.016 eV                                                          
   ICORE  =        2    local potential                                                             
   LCOR   =        T    correct aug charges                                                         
   LPAW   =        T    paw PP                                                                      
   EAUG   =  335.092                                                                                
   DEXC   =    0.000                                                                                
   RMAX   =    1.942    core radius for proj-oper                                                   
   RAUG   =    1.300    factor for augmentation sphere                                              
   RDEP   =    1.954    radius for radial grids                                                     
   RDEPT  =    1.744    core radius for aug-charge                                                  
                                                                                                    
   Atomic configuration                                                                             
    6 entries                                                                                       
     n  l   j            E        occ.                                                              
     1  0  0.50     -2405.8406   2.0000                                                             
     2  0  0.50      -211.7007   2.0000                                                             
     2  1  1.50      -156.4958   6.0000                                                             
     3  0  0.50       -17.2562   2.0000                                                             
     3  1  0.50        -7.0085   4.0000                                                             
     3  2  1.50        -6.8029   0.0000                                                             
   Description                                                                                      
     l       E           TYP  RCUT    TYP  RCUT                                                     
     0    -17.2561641     23  1.900                                                                 
     0    -15.8743224     23  1.900                                                                 
     1     -7.0085400     23  1.900                                                                 
     1     -2.7779785     23  1.900                                                                 
     2     -6.8029130     23  1.900                                                                 
  local pseudopotential read in
  partial core-charges read in
  partial kinetic energy density read in
  atomic valenz-charges read in
  non local Contribution for L=           0  read in
    real space projection operators read in
  non local Contribution for L=           0  read in
    real space projection operators read in
  non local Contribution for L=           1  read in
    real space projection operators read in
  non local Contribution for L=           1  read in
    real space projection operators read in
    PAW grid and wavefunctions read in

   number of l-projection  operators is LMAX  =           4
   number of lm-projection operators is LMMAX =           8

 -----------------------------------------------------------------------------
|                                                                             |
|               ----> ADVICE to this user running VASP <----                  |
|                                                                             |
|     You have a (more or less) 'large supercell' and for larger cells it     |
|     might be more efficient to use real-space projection operators.         |
|     Therefore, try LREAL= Auto in the INCAR file.                           |
|     Mind: For very accurate calculation, you might also keep the            |
|     reciprocal projection scheme (i.e. LREAL=.FALSE.).                      |
|                                                                             |
 -----------------------------------------------------------------------------

  PAW_PBE S 06Sep2000                   :
 energy of atom  1       EATOM= -276.8230
 kinetic energy error for atom=    0.0016 (will be added to EATOM!!)


 POSCAR: generated by phonopy
  positions in direct lattice
  No initial velocities read in
 exchange correlation table for  LEXCH =        8
   RHO(1)=    0.500       N(1)  =     2000
   RHO(2)=  100.500       N(2)  =     4000



--------------------------------------------------------------------------------------------------------


 ion  position               nearest neighbor table
   1  0.886  0.467  0.678-  45 1.98  24 2.13
   2  0.886  0.967  0.678-  46 1.98  23 2.13
   3  0.329  0.189  0.551-  41 2.05  19 2.14
   4  0.330  0.689  0.551-  42 2.05  20 2.13
   5  0.913  0.105  0.912-  51 1.98  11 2.13
   6  0.913  0.605  0.912-  52 1.98  12 2.13
   7  0.240  0.301  0.777-  19 1.98  37 2.23
   8  0.240  0.801  0.777-  20 1.98  38 2.23
   9  0.144  0.306  0.224-  31 2.05  39 2.13
  10  0.144  0.806  0.224-  32 2.05  40 2.13
  11  0.856  0.194  0.776-  47 2.05   5 2.13
  12  0.856  0.694  0.776-  48 2.05   6 2.13
  13  0.760  0.199  0.223-  27 1.98  33 2.23
  14  0.760  0.699  0.223-  28 1.98  34 2.23
  15  0.170  0.439  0.449-  31 2.05  30 2.13
  16  0.170  0.939  0.449-  32 2.05  29 2.13
  17  0.413  0.145  0.912-  37 1.98  43 2.13
  18  0.413  0.645  0.912-  38 1.98  44 2.13
  19  0.386  0.283  0.678-   7 1.98   3 2.14
  20  0.386  0.783  0.678-   8 1.98   4 2.13
  21  0.644  0.444  0.224-  53 2.05  35 2.13
  22  0.644  0.944  0.224-  54 2.05  36 2.13
  23  0.830  0.061  0.551-  47 2.05   2 2.13
  24  0.830  0.561  0.551-  48 2.05   1 2.13
  25  0.260  0.051  0.223-  29 1.98  50 2.23
  26  0.260  0.551  0.223-  30 1.98  49 2.23
  27  0.614  0.217  0.322-  13 1.98  55 2.13
  28  0.614  0.717  0.322-  14 1.98  56 2.13
  29  0.114  0.033  0.322-  25 1.98  16 2.13
  30  0.114  0.533  0.322-  26 1.98  15 2.13
  31  0.060  0.345  0.374-   9 2.05  15 2.05
  32  0.060  0.845  0.374-  10 2.05  16 2.05
  33  0.743  0.289  0.071-  35 1.98  13 2.23
  34  0.743  0.789  0.071-  36 1.98  14 2.23
  35  0.587  0.355  0.088-  33 1.98  21 2.13
  36  0.587  0.855  0.088-  34 1.98  22 2.13
  37  0.257  0.211  0.929-  17 1.98   7 2.23
  38  0.257  0.711  0.929-  18 1.98   8 2.23
  39  0.087  0.395  0.088-  49 1.98   9 2.13
  40  0.087  0.895  0.088-  50 1.98  10 2.13
  41  0.440  0.095  0.626-  43 2.05   3 2.05
  42  0.440  0.595  0.626-  44 2.05   4 2.05
  43  0.356  0.056  0.776-  41 2.05  17 2.13
  44  0.356  0.556  0.776-  42 2.05  18 2.13
  45  0.740  0.449  0.777-   1 1.98  52 2.23
  46  0.740  0.949  0.777-   2 1.98  51 2.23
  47  0.940  0.155  0.626-  11 2.05  23 2.05
  48  0.940  0.655  0.626-  12 2.05  24 2.05
  49  0.243  0.461  0.071-  39 1.98  26 2.23
  50  0.243  0.961  0.071-  40 1.98  25 2.23
  51  0.757  0.039  0.929-   5 1.98  46 2.23
  52  0.757  0.539  0.929-   6 1.98  45 2.23
  53  0.560  0.405  0.374-  21 2.05  55 2.05
  54  0.560  0.905  0.374-  22 2.05  56 2.05
  55  0.670  0.311  0.449-  53 2.05  27 2.13
  56  0.670  0.811  0.449-  54 2.05  28 2.13


IMPORTANT INFORMATION: All symmetrisations will be switched off!
NOSYMM: (Re-)initialisation of all symmetry stuff for point group C_1.


----------------------------------------------------------------------------------------

                                     Primitive cell                                     

  volume of cell :    1863.6770

  direct lattice vectors                    reciprocal lattice vectors
     0.000000000 10.307367086 -0.372855731     0.000000000  0.096453423 -0.015606996
    16.788494411  0.000000000  0.000000000     0.059564603  0.000000000  0.000000000
     0.000000000 -1.732519801-10.707215182     0.000000000 -0.003358783 -0.092851486

  length of vectors
    10.314108670 16.788494411 10.846477853     0.097707938  0.059564603  0.092912216

  position of ions in fractional coordinates (direct lattice)
     0.886423141  0.467004751  0.678126386
     0.886423141  0.967004751  0.678126386
     0.328593718  0.188743823  0.550707721
     0.329563264  0.688743823  0.550707721
     0.912671285  0.105241885  0.911960471
     0.912671285  0.605241885  0.911960471
     0.239736405  0.300831047  0.776574189
     0.239736405  0.800831047  0.776574189
     0.144417516  0.305688762  0.224396680
     0.144417516  0.805688762  0.224396680
     0.855582484  0.194311238  0.775603320
     0.855582484  0.694311238  0.775603320
     0.760263595  0.199168953  0.223425811
     0.760263595  0.699168953  0.223425811
     0.170436736  0.438743823  0.449292279
     0.170436736  0.938743823  0.449292279
     0.412671285  0.144758115  0.911960471
     0.412671285  0.644758115  0.911960471
     0.386423141  0.282995249  0.678126386
     0.386423141  0.782995249  0.678126386
     0.644417516  0.444311238  0.224396680
     0.644417516  0.944311238  0.224396680
     0.829563264  0.061256177  0.550707721
     0.829563264  0.561256177  0.550707721
     0.260263595  0.050831047  0.223425811
     0.260263595  0.550831047  0.223425811
     0.613576859  0.217004751  0.321873614
     0.613576859  0.717004751  0.321873614
     0.113576859  0.032995249  0.321873614
     0.113576859  0.532995249  0.321873614
     0.059895700  0.345087734  0.374484367
     0.059895700  0.845087734  0.374484367
     0.743425210  0.289344343  0.071165234
     0.743425210  0.789344343  0.071165234
     0.587328715  0.355241885  0.088039529
     0.587328715  0.855241885  0.088039529
     0.256574790  0.210655657  0.928834766
     0.256574790  0.710655657  0.928834766
     0.087328715  0.394758115  0.088039529
     0.087328715  0.894758115  0.088039529
     0.440104300  0.095087734  0.625515633
     0.440104300  0.595087734  0.625515633
     0.355582484  0.055688762  0.775603320
     0.355582484  0.555688762  0.775603320
     0.739736405  0.449168953  0.776574189
     0.739736405  0.949168953  0.776574189
     0.940104300  0.154912266  0.625515633
     0.940104300  0.654912266  0.625515633
     0.243425210  0.460655657  0.071165234
     0.243425210  0.960655657  0.071165234
     0.756574790  0.039344343  0.928834766
     0.756574790  0.539344343  0.928834766
     0.559895700  0.404912266  0.374484367
     0.559895700  0.904912266  0.374484367
     0.670436736  0.311256177  0.449292279
     0.670436736  0.811256177  0.449292279

  ion indices of the primitive-cell ions
   primitive index   ion index
                 1           1
                 2           2
                 3           3
                 4           4
                 5           5
                 6           6
                 7           7
                 8           8
                 9           9
                10          10
                11          11
                12          12
                13          13
                14          14
                15          15
                16          16
                17          17
                18          18
                19          19
                20          20
                21          21
                22          22
                23          23
                24          24
                25          25
                26          26
                27          27
                28          28
                29          29
                30          30
                31          31
                32          32
                33          33
                34          34
                35          35
                36          36
                37          37
                38          38
                39          39
                40          40
                41          41
                42          42
                43          43
                44          44
                45          45
                46          46
                47          47
                48          48
                49          49
                50          50
                51          51
                52          52
                53          53
                54          54
                55          55
                56          56

----------------------------------------------------------------------------------------



 KPOINTS: pymatgen with grid density = 595 / numbe

Automatic generation of k-mesh.
 Grid dimensions read from file:
 generate k-points for:    2    2    2

 Generating k-lattice:

  Cartesian coordinates                     Fractional coordinates (reciprocal lattice)
     0.000000000  0.048226712 -0.007803498     0.500000000  0.000000000 -0.000000000
     0.029782301  0.000000000  0.000000000     0.000000000  0.500000000  0.000000000
     0.000000000 -0.001679391 -0.046425743    -0.000000000  0.000000000  0.500000000

  Length of vectors
     0.048853969  0.029782301  0.046456108

  Shift w.r.t. Gamma in fractional coordinates (k-lattice)
     0.000000000  0.000000000  0.000000000

 TETIRR: Found     24 inequivalent tetrahedra from       48
 
 Subroutine IBZKPT returns following result:
 ===========================================
 
 Found      8 irreducible k-points:
 
 Following reciprocal coordinates:
            Coordinates               Weight
  0.000000  0.000000  0.000000      1.000000
  0.500000  0.000000  0.000000      1.000000
  0.000000  0.500000  0.000000      1.000000
  0.500000  0.500000  0.000000      1.000000
  0.000000  0.000000  0.500000      1.000000
  0.500000  0.000000  0.500000      1.000000
  0.000000  0.500000  0.500000      1.000000
  0.500000  0.500000  0.500000      1.000000
 
 Following cartesian coordinates:
            Coordinates               Weight
  0.000000  0.000000 -0.000000      1.000000
  0.000000  0.048227 -0.007803      1.000000
  0.029782  0.000000 -0.000000      1.000000
  0.029782  0.048227 -0.007803      1.000000
  0.000000 -0.001679 -0.046426      1.000000
  0.000000  0.046547 -0.054229      1.000000
  0.029782 -0.001679 -0.046426      1.000000
  0.029782  0.046547 -0.054229      1.000000
 


--------------------------------------------------------------------------------------------------------




 Dimension of arrays:
   k-points           NKPTS =      8   k-points in BZ     NKDIM =      8   number of bands    NBANDS=    256
   number of dos      NEDOS =    301   number of ions     NIONS =     56
   non local maximal  LDIM  =      4   non local SUM 2l+1 LMDIM =      8
   total plane-waves  NPLWV = 846720
   max r-space proj   IRMAX =      1   max aug-charges    IRDMAX= 114695
   dimension x,y,z NGX =    80 NGY =  126 NGZ =   84
   dimension x,y,z NGXF=   160 NGYF=  252 NGZF=  168
   support grid    NGXF=   320 NGYF=  504 NGZF=  336
   ions per type =              56
   NGX,Y,Z   is equivalent  to a cutoff of  12.89, 12.48, 12.87 a.u.
   NGXF,Y,Z  is equivalent  to a cutoff of  25.79, 24.95, 25.75 a.u.

 SYSTEM =  unknown system                          
 POSCAR =  generated by phonopy                    

 Startparameter for this run:
   NWRITE =      2    write-flag & timer
   PREC   = accura    normal or accurate (medium, high low for compatibility)
   ISTART =      0    job   : 0-new  1-cont  2-samecut
   ICHARG =      2    charge: 1-file 2-atom 10-const
   ISPIN  =      2    spin polarized calculation?
   LNONCOLLINEAR =      F non collinear calculations
   LSORBIT =      F    spin-orbit coupling
   INIWAV =      1    electr: 0-lowe 1-rand  2-diag
   LASPH  =      T    aspherical Exc in radial PAW
 Electronic Relaxation 1
   ENCUT  =  520.0 eV  38.22 Ry    6.18 a.u.  19.18 31.22 20.17*2*pi/ulx,y,z
   ENINI  =  520.0     initial cutoff
   ENAUG  =  335.1 eV  augmentation charge cutoff
   NELM   =    100;   NELMIN=  2; NELMDL= -5     # of ELM steps 
   EDIFF  = 0.1E-08   stopping-criterion for ELM
   LREAL  =      F    real-space projection
   NLSPLINE    = F    spline interpolate recip. space projectors
   LCOMPAT=      F    compatible to vasp.4.4
   GGA_COMPAT  = T    GGA compatible to vasp.4.4-vasp.4.6
   LMAXPAW     = -100 max onsite density
   LMAXMIX     =    2 max onsite mixed and CHGCAR
   VOSKOWN=      0    Vosko Wilk Nusair interpolation
   ROPT   =    0.00000
 Ionic relaxation
   EDIFFG = -.5E-03   stopping-criterion for IOM
   NSW    =      0    number of steps for IOM
   NBLOCK =      1;   KBLOCK =      1    inner block; outer block 
   IBRION =     -1    ionic relax: 0-MD 1-quasi-New 2-CG
   NFREE  =      0    steps in history (QN), initial steepest desc. (CG)
   ISIF   =      2    stress and relaxation
   IWAVPR =     10    prediction:  0-non 1-charg 2-wave 3-comb
   ISYM   =      0    0-nonsym 1-usesym 2-fastsym
   LCORR  =      T    Harris-Foulkes like correction to forces

   POTIM  = 0.5000    time-step for ionic-motion
   TEIN   =    0.0    initial temperature
   TEBEG  =    0.0;   TEEND  =   0.0 temperature during run
   SMASS  =  -3.00    Nose mass-parameter (am)
   estimated Nose-frequenzy (Omega)   =  0.10E-29 period in steps = 0.13E+47 mass=  -0.243E-26a.u.
   SCALEE = 1.0000    scale energy and forces
   NPACO  =    256;   APACO  = 10.0  distance and # of slots for P.C.
   PSTRESS=    0.0 pullay stress

  Mass of Ions in am
   POMASS =  32.07
  Ionic Valenz
   ZVAL   =   6.00
  Atomic Wigner-Seitz radii
   RWIGS  =  -1.00
  virtual crystal weights 
   VCA    =   1.00
   NELECT =     336.0000    total number of electrons
   NUPDOWN=      -1.0000    fix difference up-down

 DOS related values:
   EMIN   =  10.00;   EMAX   =-10.00  energy-range for DOS
   EFERMI =   0.00
   ISMEAR =    -5;   SIGMA  =   0.05  broadening in eV -4-tet -1-fermi 0-gaus

 Electronic relaxation 2 (details)
   IALGO  =     38    algorithm
   LDIAG  =      T    sub-space diagonalisation (order eigenvalues)
   LSUBROT=      F    optimize rotation matrix (better conditioning)
   TURBO    =      0    0=normal 1=particle mesh
   IRESTART =      0    0=no restart 2=restart with 2 vectors
   NREBOOT  =      0    no. of reboots
   NMIN     =      0    reboot dimension
   EREF     =   0.00    reference energy to select bands
   IMIX   =      4    mixing-type and parameters
     AMIX     =   0.40;   BMIX     =  1.00
     AMIX_MAG =   1.60;   BMIX_MAG =  1.00
     AMIN     =   0.10
     WC   =   100.;   INIMIX=   1;  MIXPRE=   1;  MAXMIX= -45

 Intra band minimization:
   WEIMIN = 0.0000     energy-eigenvalue tresh-hold
   EBREAK =  0.98E-12  absolut break condition
   DEPER  =   0.30     relativ break condition  

   TIME   =   0.40     timestep for ELM

  volume/ion in A,a.u.               =      33.28       224.58
  Fermi-wavevector in a.u.,A,eV,Ry     =   0.924835  1.747685 11.637339  0.855320
  Thomas-Fermi vector in A             =   2.050624

 Write flags
   LWAVE        =      F    write WAVECAR
   LDOWNSAMPLE  =      F    k-point downsampling of WAVECAR
   LCHARG       =      F    write CHGCAR
   LVTOT        =      F    write LOCPOT, total local potential
   LVHAR        =      F    write LOCPOT, Hartree potential only
   LELF         =      F    write electronic localiz. function (ELF)
   LORBIT       =     11    0 simple, 1 ext, 2 COOP (PROOUT), +10 PAW based schemes


 Dipole corrections
   LMONO  =      F    monopole corrections only (constant potential shift)
   LDIPOL =      F    correct potential (dipole corrections)
   IDIPOL =      0    1-x, 2-y, 3-z, 4-all directions 
   EPSILON=  1.0000000 bulk dielectric constant

 Exchange correlation treatment:
   GGA     =    --    GGA type
   LEXCH   =     8    internal setting for exchange type
   LIBXC   =     F    Libxc                    
   VOSKOWN =     0    Vosko Wilk Nusair interpolation
   LHFCALC =     F    Hartree Fock is set to
   LHFONE  =     F    Hartree Fock one center treatment
   AEXX    =    0.0000 exact exchange contribution

 Linear response parameters
   LEPSILON=     F    determine dielectric tensor
   LRPA    =     F    only Hartree local field effects (RPA)
   LNABLA  =     F    use nabla operator in PAW spheres
   LVEL    =     F    velocity operator in full k-point grid
   CSHIFT  =0.1000    complex shift for real part using Kramers Kronig
   OMEGAMAX=  -1.0    maximum frequency
   DEG_THRESHOLD= 0.2000000E-02 threshold for treating states as degnerate
   RTIME   =   -0.100 relaxation time in fs
  (WPLASMAI=    0.000 imaginary part of plasma frequency in eV, 0.658/RTIME)
   DFIELD  = 0.0000000 0.0000000 0.0000000 field for delta impulse in time

  Optional k-point grid parameters
   LKPOINTS_OPT  =     F    use optional k-point grid
   KPOINTS_OPT_MODE=     1    mode for optional k-point grid

 Orbital magnetization related:
   ORBITALMAG=     F  switch on orbital magnetization
   LCHIMAG   =     F  perturbation theory with respect to B field
   DQ        =  0.001000  dq finite difference perturbation B field
   LLRAUG    =     F  two centre corrections for induced B field



--------------------------------------------------------------------------------------------------------


 Static calculation
 charge density and potential will be updated during run
 spin polarized calculation
 Variant of blocked Davidson
 Davidson routine will perform the subspace rotation
 perform sub-space diagonalisation
    after iterative eigenvector-optimisation
 modified Broyden-mixing scheme, WC =      100.0
 initial mixing is a Kerker type mixing with AMIX =  0.4000 and BMIX =      1.0000
 Hartree-type preconditioning will be used
 using additional bands           88
 reciprocal scheme for non local part
 use partial core corrections
 calculate Harris-corrections to forces   (improved forces if not selfconsistent)
 use gradient corrections 
 use of overlap-Matrix (Vanderbilt PP)
 Fermi weights with tetrahedron method with Bloechl corrections


--------------------------------------------------------------------------------------------------------


  energy-cutoff  :      520.00
  volume of cell :     1863.68
      direct lattice vectors                 reciprocal lattice vectors
     0.000000000 10.307367086 -0.372855731     0.000000000  0.096453423 -0.015606996
    16.788494411  0.000000000  0.000000000     0.059564603  0.000000000  0.000000000
     0.000000000 -1.732519801-10.707215182     0.000000000 -0.003358783 -0.092851486

  length of vectors
    10.314108670 16.788494411 10.846477853     0.097707938  0.059564603  0.092912216



 k-points in units of 2pi/SCALE and weight: pymatgen with grid density = 595 / numbe
   0.00000000  0.00000000 -0.00000000       0.125
   0.00000000  0.04822671 -0.00780350       0.125
   0.02978230  0.00000000 -0.00000000       0.125
   0.02978230  0.04822671 -0.00780350       0.125
   0.00000000 -0.00167939 -0.04642574       0.125
   0.00000000  0.04654732 -0.05422924       0.125
   0.02978230 -0.00167939 -0.04642574       0.125
   0.02978230  0.04654732 -0.05422924       0.125

 k-points in reciprocal lattice and weights: pymatgen with grid density = 595 / numbe
   0.00000000  0.00000000  0.00000000       0.125
   0.50000000  0.00000000  0.00000000       0.125
   0.00000000  0.50000000  0.00000000       0.125
   0.50000000  0.50000000  0.00000000       0.125
   0.00000000  0.00000000  0.50000000       0.125
   0.50000000  0.00000000  0.50000000       0.125
   0.00000000  0.50000000  0.50000000       0.125
   0.50000000  0.50000000  0.50000000       0.125

 position of ions in fractional coordinates (direct lattice) 
   0.88642314  0.46700475  0.67812639
   0.88642314  0.96700475  0.67812639
   0.32859372  0.18874382  0.55070772
   0.32956326  0.68874382  0.55070772
   0.91267129  0.10524188  0.91196047
   0.91267129  0.60524188  0.91196047
   0.23973640  0.30083105  0.77657419
   0.23973640  0.80083105  0.77657419
   0.14441752  0.30568876  0.22439668
   0.14441752  0.80568876  0.22439668
   0.85558248  0.19431124  0.77560332
   0.85558248  0.69431124  0.77560332
   0.76026360  0.19916895  0.22342581
   0.76026360  0.69916895  0.22342581
   0.17043674  0.43874382  0.44929228
   0.17043674  0.93874382  0.44929228
   0.41267129  0.14475812  0.91196047
   0.41267129  0.64475812  0.91196047
   0.38642314  0.28299525  0.67812639
   0.38642314  0.78299525  0.67812639
   0.64441752  0.44431124  0.22439668
   0.64441752  0.94431124  0.22439668
   0.82956326  0.06125618  0.55070772
   0.82956326  0.56125618  0.55070772
   0.26026360  0.05083105  0.22342581
   0.26026360  0.55083105  0.22342581
   0.61357686  0.21700475  0.32187361
   0.61357686  0.71700475  0.32187361
   0.11357686  0.03299525  0.32187361
   0.11357686  0.53299525  0.32187361
   0.05989570  0.34508773  0.37448437
   0.05989570  0.84508773  0.37448437
   0.74342521  0.28934434  0.07116523
   0.74342521  0.78934434  0.07116523
   0.58732871  0.35524188  0.08803953
   0.58732871  0.85524188  0.08803953
   0.25657479  0.21065566  0.92883477
   0.25657479  0.71065566  0.92883477
   0.08732871  0.39475812  0.08803953
   0.08732871  0.89475812  0.08803953
   0.44010430  0.09508773  0.62551563
   0.44010430  0.59508773  0.62551563
   0.35558248  0.05568876  0.77560332
   0.35558248  0.55568876  0.77560332
   0.73973640  0.44916895  0.77657419
   0.73973640  0.94916895  0.77657419
   0.94010430  0.15491227  0.62551563
   0.94010430  0.65491227  0.62551563
   0.24342521  0.46065566  0.07116523
   0.24342521  0.96065566  0.07116523
   0.75657479  0.03934434  0.92883477
   0.75657479  0.53934434  0.92883477
   0.55989570  0.40491227  0.37448437
   0.55989570  0.90491227  0.37448437
   0.67043674  0.31125618  0.44929228
   0.67043674  0.81125618  0.44929228

 position of ions in cartesian coordinates  (Angst):
   7.84030666  7.96182132 -7.59135308
  16.23455387  7.96182132 -7.59135308
   3.16872461  2.43282404 -6.01906412
  11.56297182  2.44281751 -6.01942562
   1.76685280  7.82724839-10.10485172
  10.16110000  7.82724839-10.10485172
   5.05050035  1.12562097 -8.40433404
  13.44474755  1.12562097 -8.40433404
   5.13205407  1.09979266 -2.45651044
  13.52630128  1.09979266 -2.45651044
   3.26219313  7.47505463 -8.62356047
  11.65644034  7.47505463 -8.62356047
   3.34374686  7.44922632 -2.67573688
  11.73799406  7.44922632 -2.67573688
   7.36584822  0.97834624 -4.87421742
  15.76009542  0.97834624 -4.87421742
   2.43027081  2.67356485 -9.91842386
  10.82451801  2.67356485 -9.91842386
   4.75106415  2.80813777 -7.40492521
  13.14531135  2.80813777 -7.40492521
   7.45931673  6.25347620 -2.64293831
  15.85356394  6.25347620 -2.64293831
   1.02839899  7.59650105 -6.20585349
   9.42264619  7.59650105 -6.20585349
   0.85337674  2.29554277 -2.48930901
   9.24762395  2.29554277 -2.48930901
   3.64318306  5.76670951 -3.67514570
  12.03743026  5.76670951 -3.67514570
   0.55394055  0.61302597 -3.48871783
   8.94818775  0.61302597 -3.48871783
   5.79350349 -0.03143461 -4.03201715
  14.18775070 -0.03143461 -4.03201715
   4.85765589  7.53946136 -1.03917182
  13.25190310  7.53946136 -1.03917182
   5.96397640  5.90128244 -1.16164705
  14.35822361  5.90128244 -1.16164705
   3.53659131  1.03538593-10.04089909
  11.93083852  1.03538593-10.04089909
   6.62739441  0.74759889 -0.97521919
  15.02164161  0.74759889 -0.97521919
   1.59637989  3.45259836 -6.86162589
   9.99062710  3.45259836 -6.86162589
   0.93493047  2.32137108 -8.43713261
   9.32917768  2.32137108 -8.43713261
   7.54087046  6.27930451 -8.59076190
  15.93511767  6.27930451 -8.59076190
   2.60074371  8.60628190 -7.04805376
  10.99499092  8.60628190 -7.04805376
   7.73371492  2.38577782 -0.85274396
  16.12796212  2.38577782 -0.85274396
   0.66053229  6.18906947-10.22732695
   9.05477950  6.18906947-10.22732695
   6.79786731  5.12224893 -4.21844502
  15.19211452  5.12224893 -4.21844502
   5.22552259  6.13202978 -5.06064529
  13.61976980  6.13202978 -5.06064529



--------------------------------------------------------------------------------------------------------


 k-point   1 :   0.0000 0.0000 0.0000  plane waves:   50179
 k-point   2 :   0.5000 0.0000 0.0000  plane waves:   50160
 k-point   3 :   0.0000 0.5000 0.0000  plane waves:   50162
 k-point   4 :   0.5000 0.5000 0.0000  plane waves:   50192
 k-point   5 :   0.0000 0.0000 0.5000  plane waves:   50190
 k-point   6 :   0.5000 0.0000 0.5000  plane waves:   50190
 k-point   7 :   0.0000 0.5000 0.5000  plane waves:   50172
 k-point   8 :   0.5000 0.5000 0.5000  plane waves:   50200

 maximum and minimum number of plane-waves per node :     50200    50160

 maximum number of plane-waves:     50200
 maximum index in each direction: 
   IXMAX=   19   IYMAX=   31   IZMAX=   20
   IXMIN=  -19   IYMIN=  -31   IZMIN=  -20


 serial   3D FFT for wavefunctions
 parallel 3D FFT for charge:
    minimum data exchange during FFTs selected (reduces bandwidth)


 total amount of memory used by VASP MPI-rank0   322725. kBytes
=======================================================================

   base      :      30000. kBytes
   nonl-proj :      70692. kBytes
   fftplans  :      34504. kBytes
   grid      :      83442. kBytes
   one-center:        344. kBytes
   wavefun   :     103743. kBytes

     INWAV:  cpu time      0.0000: real time      0.0002
 Broyden mixing: mesh for mixing (old mesh)
   NGX = 39   NGY = 63   NGZ = 41
  (NGX  =160   NGY  =252   NGZ  =168)
  gives a total of 100737 points

 initial charge density was supplied:
 charge density of overlapping atoms calculated
 number of electron     336.0000000 magnetization      56.0000000
 keeping initial charge density in first step


--------------------------------------------------------------------------------------------------------


 Maximum index for augmentation-charges         3947 (set IRDMAX)


--------------------------------------------------------------------------------------------------------


 First call to EWALD:  gamma=   0.144
 Maximum number of real-space cells 3x 2x 3
 Maximum number of reciprocal cells 2x 4x 2

    FEWALD:  cpu time      0.0023: real time      0.0023


--------------------------------------- Iteration      1(   1)  ---------------------------------------


    POTLOK:  cpu time      0.5398: real time      0.5400
    SETDIJ:  cpu time     10.5384: real time     10.5390
     EDDAV:  cpu time     54.7935: real time     54.7970
 BZINTS: Fermi energy:   10.166355;  336.000000 electrons
         Band energy: 0.225189E+03;  BLOECHL correction:   -0.008898
       DOS:  cpu time      0.0501: real time      0.0502
    --------------------------------------------
      LOOP:  cpu time     65.9218: real time     65.9262

 eigenvalue-minimisations  :  8192
 total energy-change (2. order) : 0.2106078E+04  (-0.1333787E+05)
 number of electron     336.0000000 magnetization      56.0000000
 augmentation part      336.0000000 magnetization      56.0000000

 Free energy of the ion-electron system (eV)
  ---------------------------------------------------
  alpha Z        PSCENC =       253.99581917
  Ewald energy   TEWEN  =     -9971.45664781
  -Hartree energ DENC   =     -4765.39631137
  -exchange      EXHF   =         0.00000000
  -V(xc)+E(xc)   XCENC  =       682.49967903
  PAW double counting   =     12174.71095765   -11995.46358648
  entropy T*S    EENTRO =         0.00000000
  eigenvalues    EBANDS =       225.18927922
  atomic energy  EATOM  =     15501.99929693
  Solvation  Ediel_sol  =         0.00000000
  ---------------------------------------------------
  free energy    TOTEN  =      2106.07848634 eV

  energy without entropy =     2106.07848634  energy(sigma->0) =     2106.07848634


--------------------------------------------------------------------------------------------------------




--------------------------------------- Iteration      1(   2)  ---------------------------------------


     EDDAV:  cpu time     70.2829: real time     70.2880
 BZINTS: Fermi energy:    1.451706;  336.000000 electrons
         Band energy:-0.187463E+04;  BLOECHL correction:    0.000000
       DOS:  cpu time      0.0273: real time      0.0274
    --------------------------------------------
      LOOP:  cpu time     70.3101: real time     70.3154

 eigenvalue-minimisations  : 10272
 total energy-change (2. order) :-0.2099819E+04  (-0.2021631E+04)
 number of electron     336.0000000 magnetization      56.0000000
 augmentation part      336.0000000 magnetization      56.0000000

 Free energy of the ion-electron system (eV)
  ---------------------------------------------------
  alpha Z        PSCENC =       253.99581917
  Ewald energy   TEWEN  =     -9971.45664781
  -Hartree energ DENC   =     -4765.39631137
  -exchange      EXHF   =         0.00000000
  -V(xc)+E(xc)   XCENC  =       682.49967903
  PAW double counting   =     12174.71095765   -11995.46358648
  entropy T*S    EENTRO =         0.00000000
  eigenvalues    EBANDS =     -1874.62958201
  atomic energy  EATOM  =     15501.99929693
  Solvation  Ediel_sol  =         0.00000000
  ---------------------------------------------------
  free energy    TOTEN  =         6.25962512 eV

  energy without entropy =        6.25962512  energy(sigma->0) =        6.25962512


--------------------------------------------------------------------------------------------------------




--------------------------------------- Iteration      1(   3)  ---------------------------------------


     EDDAV:  cpu time     66.2167: real time     66.2217
 BZINTS: Fermi energy:    0.220342;  336.000000 electrons
         Band energy:-0.209447E+04;  BLOECHL correction:    0.000000
       DOS:  cpu time      0.0279: real time      0.0280
    --------------------------------------------
      LOOP:  cpu time     66.2446: real time     66.2497

 eigenvalue-minimisations  : 10240
 total energy-change (2. order) :-0.2198390E+03  (-0.2171522E+03)
 number of electron     336.0000000 magnetization      56.0000000
 augmentation part      336.0000000 magnetization      56.0000000

 Free energy of the ion-electron system (eV)
  ---------------------------------------------------
  alpha Z        PSCENC =       253.99581917
  Ewald energy   TEWEN  =     -9971.45664781
  -Hartree energ DENC   =     -4765.39631137
  -exchange      EXHF   =         0.00000000
  -V(xc)+E(xc)   XCENC  =       682.49967903
  PAW double counting   =     12174.71095765   -11995.46358648
  entropy T*S    EENTRO =         0.00000000
  eigenvalues    EBANDS =     -2094.46860925
  atomic energy  EATOM  =     15501.99929693
  Solvation  Ediel_sol  =         0.00000000
  ---------------------------------------------------
  free energy    TOTEN  =      -213.57940212 eV

  energy without entropy =     -213.57940212  energy(sigma->0) =     -213.57940212


--------------------------------------------------------------------------------------------------------




--------------------------------------- Iteration      1(   4)  ---------------------------------------


     EDDAV:  cpu time     66.6851: real time     66.6963
 BZINTS: Fermi energy:    0.192049;  336.000000 electrons
         Band energy:-0.209937E+04;  BLOECHL correction:    0.000000
       DOS:  cpu time      0.0280: real time      0.0281
    --------------------------------------------
      LOOP:  cpu time     66.7131: real time     66.7244

 eigenvalue-minimisations  : 10368
 total energy-change (2. order) :-0.4900386E+01  (-0.4882053E+01)
 number of electron     336.0000000 magnetization      56.0000000
 augmentation part      336.0000000 magnetization      56.0000000

 Free energy of the ion-electron system (eV)
  ---------------------------------------------------
  alpha Z        PSCENC =       253.99581917
  Ewald energy   TEWEN  =     -9971.45664781
  -Hartree energ DENC   =     -4765.39631137
  -exchange      EXHF   =         0.00000000
  -V(xc)+E(xc)   XCENC  =       682.49967903
  PAW double counting   =     12174.71095765   -11995.46358648
  entropy T*S    EENTRO =         0.00000000
  eigenvalues    EBANDS =     -2099.36899522
  atomic energy  EATOM  =     15501.99929693
  Solvation  Ediel_sol  =         0.00000000
  ---------------------------------------------------
  free energy    TOTEN  =      -218.47978809 eV

  energy without entropy =     -218.47978809  energy(sigma->0) =     -218.47978809


--------------------------------------------------------------------------------------------------------




--------------------------------------- Iteration      1(   5)  ---------------------------------------


     EDDAV:  cpu time     61.5650: real time     61.5742
 BZINTS: Fermi energy:    0.191860;  336.000000 electrons
         Band energy:-0.209950E+04;  BLOECHL correction:    0.000000
       DOS:  cpu time      0.0277: real time      0.0278
    CHARGE:  cpu time      7.5204: real time      7.5218
    MIXING:  cpu time      0.0167: real time      0.0167
    --------------------------------------------
      LOOP:  cpu time     69.1298: real time     69.1406

 eigenvalue-minimisations  :  9984
 total energy-change (2. order) :-0.1329417E+00  (-0.1328754E+00)
 number of electron     335.9999996 magnetization      44.9918631
 augmentation part      -47.3229288 magnetization      44.8828260

 Broyden mixing:
  rms(total) = 0.82816E+01    rms(broyden)= 0.82816E+01
  rms(prec ) = 0.83016E+01
  weight for this iteration     100.00

 Free energy of the ion-electron system (eV)
  ---------------------------------------------------
  alpha Z        PSCENC =       253.99581917
  Ewald energy   TEWEN  =     -9971.45664781
  -Hartree energ DENC   =     -4765.39631137
  -exchange      EXHF   =         0.00000000
  -V(xc)+E(xc)   XCENC  =       682.49967903
  PAW double counting   =     12174.71095765   -11995.46358648
  entropy T*S    EENTRO =         0.00000000
  eigenvalues    EBANDS =     -2099.50193695
  atomic energy  EATOM  =     15501.99929693
  Solvation  Ediel_sol  =         0.00000000
  ---------------------------------------------------
  free energy    TOTEN  =      -218.61272983 eV

  energy without entropy =     -218.61272983  energy(sigma->0) =     -218.61272983


--------------------------------------------------------------------------------------------------------




--------------------------------------- Iteration      1(   6)  ---------------------------------------


    POTLOK:  cpu time      0.4918: real time      0.4945
    SETDIJ:  cpu time      9.3860: real time      9.3865
     EDDAV:  cpu time     65.0339: real time     65.0523
 BZINTS: Fermi energy:    0.409710;  336.000000 electrons
         Band energy:-0.201402E+04;  BLOECHL correction:    0.000000
       DOS:  cpu time      0.0282: real time      0.0283
    CHARGE:  cpu time      8.7760: real time      8.7778
    MIXING:  cpu time      0.0094: real time      0.0094
    --------------------------------------------
      LOOP:  cpu time     83.7252: real time     83.7487

 eigenvalue-minimisations  :  9600
 total energy-change (2. order) : 0.1022811E+03  (-0.2667962E+02)
 number of electron     335.9999996 magnetization      26.4665344
 augmentation part      -47.6489594 magnetization      27.5243976

 Broyden mixing:
  rms(total) = 0.49356E+01    rms(broyden)= 0.49356E+01
  rms(prec ) = 0.49579E+01
  weight for this iteration     100.00

 eigenvalues of (default mixing * dielectric matrix)
  average eigenvalue GAMMA=   1.6689
  1.6689

 Free energy of the ion-electron system (eV)
  ---------------------------------------------------
  alpha Z        PSCENC =       253.99581917
  Ewald energy   TEWEN  =     -9971.45664781
  -Hartree energ DENC   =     -4809.70691555
  -exchange      EXHF   =         0.00000000
  -V(xc)+E(xc)   XCENC  =       746.07642849
  PAW double counting   =     20722.87035261   -20546.08964050
  entropy T*S    EENTRO =         0.00000000
  eigenvalues    EBANDS =     -2014.02027485
  atomic energy  EATOM  =     15501.99929693
  Solvation  Ediel_sol  =         0.00000000
  ---------------------------------------------------
  free energy    TOTEN  =      -116.33158150 eV

  energy without entropy =     -116.33158150  energy(sigma->0) =     -116.33158150


--------------------------------------------------------------------------------------------------------




--------------------------------------- Iteration      1(   7)  ---------------------------------------


    POTLOK:  cpu time      0.4613: real time      0.4649
    SETDIJ:  cpu time      7.0235: real time      7.0240
     EDDAV:  cpu time     68.0650: real time     68.0742
 BZINTS: Fermi energy:    0.739247;  336.000000 electrons
         Band energy:-0.186744E+04;  BLOECHL correction:    0.000000
       DOS:  cpu time      0.0288: real time      0.0289
    CHARGE:  cpu time     12.4462: real time     12.4469
    MIXING:  cpu time      0.0116: real time      0.0116
    --------------------------------------------
      LOOP:  cpu time     88.0365: real time     88.0506

 eigenvalue-minimisations  : 10144
 total energy-change (2. order) :-0.1115423E+02  (-0.2699984E+01)
 number of electron     335.9999996 magnetization      19.7396342
 augmentation part      -47.3157222 magnetization      20.9448790

 Broyden mixing:
  rms(total) = 0.14060E+01    rms(broyden)= 0.14060E+01
  rms(prec ) = 0.14096E+01
  weight for this iteration     100.00

 eigenvalues of (default mixing * dielectric matrix)
  average eigenvalue GAMMA=   1.4813
  0.7857  2.1768

 Free energy of the ion-electron system (eV)
  ---------------------------------------------------
  alpha Z        PSCENC =       253.99581917
  Ewald energy   TEWEN  =     -9971.45664781
  -Hartree energ DENC   =     -4969.37046008
  -exchange      EXHF   =         0.00000000
  -V(xc)+E(xc)   XCENC  =       751.42276511
  PAW double counting   =     37044.12677414   -36870.75968604
  entropy T*S    EENTRO =         0.00000000
  eigenvalues    EBANDS =     -1867.44367507
  atomic energy  EATOM  =     15501.99929693
  Solvation  Ediel_sol  =         0.00000000
  ---------------------------------------------------
  free energy    TOTEN  =      -127.48581365 eV

  energy without entropy =     -127.48581365  energy(sigma->0) =     -127.48581365


--------------------------------------------------------------------------------------------------------




--------------------------------------- Iteration      1(   8)  ---------------------------------------


    POTLOK:  cpu time      0.5561: real time      0.5570
    SETDIJ:  cpu time      1.2516: real time      1.2532
     EDDAV:  cpu time     60.6748: real time     60.6792
 BZINTS: Fermi energy:    0.706608;  336.000000 electrons
         Band energy:-0.185514E+04;  BLOECHL correction:    0.000000
       DOS:  cpu time      0.0284: real time      0.0285
    CHARGE:  cpu time      5.1574: real time      5.1578
    MIXING:  cpu time      0.0094: real time      0.0094
    --------------------------------------------
      LOOP:  cpu time     67.6778: real time     67.6851

 eigenvalue-minimisations  :  9312
 total energy-change (2. order) :-0.4257882E+02  (-0.1962265E+01)
 number of electron     335.9999997 magnetization      16.0511361
 augmentation part      -47.0129986 magnetization      17.0959064

 Broyden mixing:
  rms(total) = 0.78541E+00    rms(broyden)= 0.78541E+00
  rms(prec ) = 0.79052E+00
  weight for this iteration     100.00

 eigenvalues of (default mixing * dielectric matrix)
  average eigenvalue GAMMA=   1.3395
  2.4924  0.9446  0.5816

 Free energy of the ion-electron system (eV)
  ---------------------------------------------------
  alpha Z        PSCENC =       253.99581917
  Ewald energy   TEWEN  =     -9971.45664781
  -Hartree energ DENC   =     -4998.67654559
  -exchange      EXHF   =         0.00000000
  -V(xc)+E(xc)   XCENC  =       726.61062691
  PAW double counting   =     40160.35120679   -39987.75088750
  entropy T*S    EENTRO =         0.00000000
  eigenvalues    EBANDS =     -1855.13750645
  atomic energy  EATOM  =     15501.99929693
  Solvation  Ediel_sol  =         0.00000000
  ---------------------------------------------------
  free energy    TOTEN  =      -170.06463755 eV

  energy without entropy =     -170.06463755  energy(sigma->0) =     -170.06463755


--------------------------------------------------------------------------------------------------------




--------------------------------------- Iteration      1(   9)  ---------------------------------------


    POTLOK:  cpu time      0.4871: real time      0.4879
    SETDIJ:  cpu time     11.2944: real time     11.2952
     EDDAV:  cpu time     64.1868: real time     64.1912
 BZINTS: Fermi energy:    0.628679;  336.000000 electrons
         Band energy:-0.186636E+04;  BLOECHL correction:    0.000000
       DOS:  cpu time      0.0284: real time      0.0285
    CHARGE:  cpu time      5.6649: real time      5.6652
    MIXING:  cpu time      0.0137: real time      0.0137
    --------------------------------------------
      LOOP:  cpu time     81.6753: real time     81.6817

 eigenvalue-minimisations  : 10240
 total energy-change (2. order) :-0.1693642E+02  (-0.6519472E+00)
 number of electron     335.9999997 magnetization      11.5254775
 augmentation part      -46.9151841 magnetization      12.3630418

 Broyden mixing:
  rms(total) = 0.43667E+00    rms(broyden)= 0.43667E+00
  rms(prec ) = 0.44876E+00
  weight for this iteration     100.00

 eigenvalues of (default mixing * dielectric matrix)
  average eigenvalue GAMMA=   1.3241
  2.5752  1.2998  0.7107  0.7107

 Free energy of the ion-electron system (eV)
  ---------------------------------------------------
  alpha Z        PSCENC =       253.99581917
  Ewald energy   TEWEN  =     -9971.45664781
  -Hartree energ DENC   =     -4994.98898074
  -exchange      EXHF   =         0.00000000
  -V(xc)+E(xc)   XCENC  =       717.18536044
  PAW double counting   =     40952.55435884   -40779.93279274
  entropy T*S    EENTRO =         0.00000000
  eigenvalues    EBANDS =     -1866.35747032
  atomic energy  EATOM  =     15501.99929693
  Solvation  Ediel_sol  =         0.00000000
  ---------------------------------------------------
  free energy    TOTEN  =      -187.00105623 eV

  energy without entropy =     -187.00105623  energy(sigma->0) =     -187.00105623


--------------------------------------------------------------------------------------------------------




--------------------------------------- Iteration      1(  10)  ---------------------------------------


    POTLOK:  cpu time      0.5433: real time      0.5440
    SETDIJ:  cpu time     10.0409: real time     10.0414
     EDDAV:  cpu time     66.1894: real time     66.1941
 BZINTS: Fermi energy:    0.475632;  336.000000 electrons
         Band energy:-0.190094E+04;  BLOECHL correction:    0.000000
       DOS:  cpu time      0.0281: real time      0.0282
    CHARGE:  cpu time      7.7423: real time      7.7426
    MIXING:  cpu time      0.0082: real time      0.0082
    --------------------------------------------
      LOOP:  cpu time     84.5521: real time     84.5586

 eigenvalue-minimisations  :  9984
 total energy-change (2. order) :-0.2004753E+02  (-0.1302989E+01)
 number of electron     335.9999997 magnetization       5.3097196
 augmentation part      -46.8736214 magnetization       5.8438354

 Broyden mixing:
  rms(total) = 0.32377E+00    rms(broyden)= 0.32377E+00
  rms(prec ) = 0.33675E+00
  weight for this iteration     100.00

 eigenvalues of (default mixing * dielectric matrix)
  average eigenvalue GAMMA=   1.4493
  2.4868  2.4868  0.9409  0.7302  0.6021

 Free energy of the ion-electron system (eV)
  ---------------------------------------------------
  alpha Z        PSCENC =       253.99581917
  Ewald energy   TEWEN  =     -9971.45664781
  -Hartree energ DENC   =     -4969.53454145
  -exchange      EXHF   =         0.00000000
  -V(xc)+E(xc)   XCENC  =       705.61511345
  PAW double counting   =     40957.58054194   -40784.30365581
  entropy T*S    EENTRO =         0.00000000
  eigenvalues    EBANDS =     -1900.94451016
  atomic energy  EATOM  =     15501.99929693
  Solvation  Ediel_sol  =         0.00000000
  ---------------------------------------------------
  free energy    TOTEN  =      -207.04858373 eV

  energy without entropy =     -207.04858373  energy(sigma->0) =     -207.04858373


--------------------------------------------------------------------------------------------------------




--------------------------------------- Iteration      1(  11)  ---------------------------------------


    POTLOK:  cpu time      2.1877: real time      2.1896
    SETDIJ:  cpu time      5.8283: real time      5.8287
     EDDAV:  cpu time     71.2795: real time     71.2840
 BZINTS: Fermi energy:    0.257731;  336.000000 electrons
         Band energy:-0.195828E+04;  BLOECHL correction:    0.000000
       DOS:  cpu time      0.0290: real time      0.0291
    CHARGE:  cpu time      7.7785: real time      7.7820
    MIXING:  cpu time      0.0097: real time      0.0097
    --------------------------------------------
      LOOP:  cpu time     87.1128: real time     87.1231

 eigenvalue-minimisations  :  9920
 total energy-change (2. order) :-0.1782750E+02  (-0.2162169E+01)
 number of electron     335.9999997 magnetization       3.5685764
 augmentation part      -46.9053187 magnetization       3.7518803

 Broyden mixing:
  rms(total) = 0.18636E+00    rms(broyden)= 0.18636E+00
  rms(prec ) = 0.20007E+00
  weight for this iteration     100.00

 eigenvalues of (default mixing * dielectric matrix)
  average eigenvalue GAMMA=   1.4672
  2.7979  2.7979  1.0283  0.8885  0.6998  0.5906

 Free energy of the ion-electron system (eV)
  ---------------------------------------------------
  alpha Z        PSCENC =       253.99581917
  Ewald energy   TEWEN  =     -9971.45664781
  -Hartree energ DENC   =     -4919.98340553
  -exchange      EXHF   =         0.00000000
  -V(xc)+E(xc)   XCENC  =       694.51644965
  PAW double counting   =     40384.92356085   -40210.58826022
  entropy T*S    EENTRO =         0.00000000
  eigenvalues    EBANDS =     -1958.28290002
  atomic energy  EATOM  =     15501.99929693
  Solvation  Ediel_sol  =         0.00000000
  ---------------------------------------------------
  free energy    TOTEN  =      -224.87608697 eV

  energy without entropy =     -224.87608697  energy(sigma->0) =     -224.87608697


--------------------------------------------------------------------------------------------------------




--------------------------------------- Iteration      1(  12)  ---------------------------------------


    POTLOK:  cpu time      0.4654: real time      0.4667
    SETDIJ:  cpu time      7.0083: real time      7.0087
     EDDAV:  cpu time     63.7118: real time     63.7186
 BZINTS: Fermi energy:    0.184164;  336.000000 electrons
         Band energy:-0.197900E+04;  BLOECHL correction:    0.000000
       DOS:  cpu time      0.0286: real time      0.0287
    CHARGE:  cpu time      2.0462: real time      2.0463
    MIXING:  cpu time      0.0077: real time      0.0077
    --------------------------------------------
      LOOP:  cpu time     73.2679: real time     73.2767

 eigenvalue-minimisations  : 10048
 total energy-change (2. order) :-0.3390974E+01  (-0.3886659E+00)
 number of electron     335.9999997 magnetization       2.3898126
 augmentation part      -46.9156769 magnetization       2.4727511

 Broyden mixing:
  rms(total) = 0.15937E+00    rms(broyden)= 0.15937E+00
  rms(prec ) = 0.17190E+00
  weight for this iteration     100.00

 eigenvalues of (default mixing * dielectric matrix)
  average eigenvalue GAMMA=   1.4924
  3.1013  3.1013  1.0567  1.0567  0.7810  0.7810  0.5691

 Free energy of the ion-electron system (eV)
  ---------------------------------------------------
  alpha Z        PSCENC =       253.99581917
  Ewald energy   TEWEN  =     -9971.45664781
  -Hartree energ DENC   =     -4900.43102300
  -exchange      EXHF   =         0.00000000
  -V(xc)+E(xc)   XCENC  =       692.05723096
  PAW double counting   =     39951.81935690   -39777.24628605
  entropy T*S    EENTRO =         0.00000000
  eigenvalues    EBANDS =     -1979.00480814
  atomic energy  EATOM  =     15501.99929693
  Solvation  Ediel_sol  =         0.00000000
  ---------------------------------------------------
  free energy    TOTEN  =      -228.26706103 eV

  energy without entropy =     -228.26706103  energy(sigma->0) =     -228.26706103


--------------------------------------------------------------------------------------------------------




--------------------------------------- Iteration      1(  13)  ---------------------------------------


    POTLOK:  cpu time      0.4710: real time      0.4719
    SETDIJ:  cpu time      5.6630: real time      5.6633
     EDDAV:  cpu time     60.7109: real time     60.7152
 BZINTS: Fermi energy:    0.116310;  336.000000 electrons
         Band energy:-0.200141E+04;  BLOECHL correction:    0.000000
       DOS:  cpu time      0.0299: real time      0.0300
    CHARGE:  cpu time      8.0090: real time      8.0094
    MIXING:  cpu time      0.0098: real time      0.0098
    --------------------------------------------
      LOOP:  cpu time     74.8936: real time     74.8996

 eigenvalue-minimisations  :  9568
 total energy-change (2. order) :-0.1049573E+01  (-0.1332129E+00)
 number of electron     335.9999997 magnetization       0.8847060
 augmentation part      -46.9737645 magnetization       0.9106949

 Broyden mixing:
  rms(total) = 0.92877E-01    rms(broyden)= 0.92876E-01
  rms(prec ) = 0.99687E-01
  weight for this iteration     100.00

 eigenvalues of (default mixing * dielectric matrix)
  average eigenvalue GAMMA=   1.5522
  3.3235  3.3235  1.5845  1.2844  0.9282  0.7001  0.7001  0.5735

 Free energy of the ion-electron system (eV)
  ---------------------------------------------------
  alpha Z        PSCENC =       253.99581917
  Ewald energy   TEWEN  =     -9971.45664781
  -Hartree energ DENC   =     -4877.33573177
  -exchange      EXHF   =         0.00000000
  -V(xc)+E(xc)   XCENC  =       690.07810682
  PAW double counting   =     39132.56737869   -38957.75578907
  entropy T*S    EENTRO =         0.00000000
  eigenvalues    EBANDS =     -2001.40906704
  atomic energy  EATOM  =     15501.99929693
  Solvation  Ediel_sol  =         0.00000000
  ---------------------------------------------------
  free energy    TOTEN  =      -229.31663408 eV

  energy without entropy =     -229.31663408  energy(sigma->0) =     -229.31663408


--------------------------------------------------------------------------------------------------------




--------------------------------------- Iteration      1(  14)  ---------------------------------------


    POTLOK:  cpu time      0.4603: real time      0.4611
    SETDIJ:  cpu time      9.0660: real time      9.0664
     EDDAV:  cpu time     65.6375: real time     65.6667
 BZINTS: Fermi energy:    0.080938;  336.000000 electrons
         Band energy:-0.201187E+04;  BLOECHL correction:    0.000000
       DOS:  cpu time      0.0295: real time      0.0296
    CHARGE:  cpu time      5.4416: real time      5.4422
    MIXING:  cpu time      0.0092: real time      0.0092
    --------------------------------------------
      LOOP:  cpu time     80.6440: real time     80.6753

 eigenvalue-minimisations  :  8992
 total energy-change (2. order) :-0.6342585E-01  (-0.1617302E-01)
 number of electron     335.9999997 magnetization       0.4186676
 augmentation part      -47.0008543 magnetization       0.4256192

 Broyden mixing:
  rms(total) = 0.43578E-01    rms(broyden)= 0.43578E-01
  rms(prec ) = 0.46282E-01
  weight for this iteration     100.00

 eigenvalues of (default mixing * dielectric matrix)
  average eigenvalue GAMMA=   1.5789
  4.1295  2.5581  2.5581  1.0967  1.0967  0.7712  0.7712  0.5761  0.6521

 Free energy of the ion-electron system (eV)
  ---------------------------------------------------
  alpha Z        PSCENC =       253.99581917
  Ewald energy   TEWEN  =     -9971.45664781
  -Hartree energ DENC   =     -4865.98242246
  -exchange      EXHF   =         0.00000000
  -V(xc)+E(xc)   XCENC  =       689.16673275
  PAW double counting   =     39072.70917514   -38897.94271575
  entropy T*S    EENTRO =         0.00000000
  eigenvalues    EBANDS =     -2011.86929790
  atomic energy  EATOM  =     15501.99929693
  Solvation  Ediel_sol  =         0.00000000
  ---------------------------------------------------
  free energy    TOTEN  =      -229.38005993 eV

  energy without entropy =     -229.38005993  energy(sigma->0) =     -229.38005993


--------------------------------------------------------------------------------------------------------




--------------------------------------- Iteration      1(  15)  ---------------------------------------


    POTLOK:  cpu time      0.5671: real time      0.5682
    SETDIJ:  cpu time      7.8807: real time      7.8812
     EDDAV:  cpu time     59.3967: real time     59.3980
 BZINTS: Fermi energy:    0.079200;  336.000000 electrons
         Band energy:-0.201154E+04;  BLOECHL correction:    0.000000
       DOS:  cpu time      0.0279: real time      0.0280
    CHARGE:  cpu time      9.2797: real time      9.2820
    MIXING:  cpu time      1.1131: real time      1.1132
    --------------------------------------------
      LOOP:  cpu time     78.2653: real time     78.2707

 eigenvalue-minimisations  :  9568
 total energy-change (2. order) : 0.1342092E-02  (-0.2084805E-02)
 number of electron     335.9999997 magnetization       0.1722934
 augmentation part      -46.9946261 magnetization       0.1766229

 Broyden mixing:
  rms(total) = 0.20206E-01    rms(broyden)= 0.20206E-01
  rms(prec ) = 0.21775E-01
  weight for this iteration     100.00

 eigenvalues of (default mixing * dielectric matrix)
  average eigenvalue GAMMA=   1.5652
  4.5528  2.5270  2.5270  1.3399  0.9963  0.9963  0.7590  0.7590  0.6239  0.5704

 Free energy of the ion-electron system (eV)
  ---------------------------------------------------
  alpha Z        PSCENC =       253.99581917
  Ewald energy   TEWEN  =     -9971.45664781
  -Hartree energ DENC   =     -4866.19118018
  -exchange      EXHF   =         0.00000000
  -V(xc)+E(xc)   XCENC  =       689.13103770
  PAW double counting   =     39158.37758313   -38983.69837545
  entropy T*S    EENTRO =         0.00000000
  eigenvalues    EBANDS =     -2011.53625134
  atomic energy  EATOM  =     15501.99929693
  Solvation  Ediel_sol  =         0.00000000
  ---------------------------------------------------
  free energy    TOTEN  =      -229.37871784 eV

  energy without entropy =     -229.37871784  energy(sigma->0) =     -229.37871784


--------------------------------------------------------------------------------------------------------




--------------------------------------- Iteration      1(  16)  ---------------------------------------


    POTLOK:  cpu time      0.4759: real time      0.4768
    SETDIJ:  cpu time      6.2758: real time      6.3086
     EDDAV:  cpu time     59.4147: real time     59.4208
 BZINTS: Fermi energy:    0.077185;  336.000000 electrons
         Band energy:-0.201201E+04;  BLOECHL correction:    0.000000
       DOS:  cpu time      0.0282: real time      0.0284
    CHARGE:  cpu time      8.8871: real time      8.8876
    MIXING:  cpu time      0.0146: real time      0.0146
    --------------------------------------------
      LOOP:  cpu time     75.0963: real time     75.1369

 eigenvalue-minimisations  :  9184
 total energy-change (2. order) : 0.3089049E-02  (-0.5511743E-03)
 number of electron     335.9999997 magnetization       0.0698784
 augmentation part      -46.9935191 magnetization       0.0706744

 Broyden mixing:
  rms(total) = 0.12330E-01    rms(broyden)= 0.12330E-01
  rms(prec ) = 0.13339E-01
  weight for this iteration     100.00

 eigenvalues of (default mixing * dielectric matrix)
  average eigenvalue GAMMA=   1.5470
  4.7563  2.4283  2.4283  1.8426  0.9963  0.9963  0.9236  0.7286  0.7286  0.5824
  0.6058

 Free energy of the ion-electron system (eV)
  ---------------------------------------------------
  alpha Z        PSCENC =       253.99581917
  Ewald energy   TEWEN  =     -9971.45664781
  -Hartree energ DENC   =     -4865.61912050
  -exchange      EXHF   =         0.00000000
  -V(xc)+E(xc)   XCENC  =       689.06203056
  PAW double counting   =     39127.86601631   -38953.21044665
  entropy T*S    EENTRO =         0.00000000
  eigenvalues    EBANDS =     -2012.01257680
  atomic energy  EATOM  =     15501.99929693
  Solvation  Ediel_sol  =         0.00000000
  ---------------------------------------------------
  free energy    TOTEN  =      -229.37562879 eV

  energy without entropy =     -229.37562879  energy(sigma->0) =     -229.37562879


--------------------------------------------------------------------------------------------------------




--------------------------------------- Iteration      1(  17)  ---------------------------------------


    POTLOK:  cpu time      0.5656: real time      0.5666
    SETDIJ:  cpu time     12.4387: real time     12.4393
     EDDAV:  cpu time     64.5662: real time     64.5705
 BZINTS: Fermi energy:    0.079009;  336.000000 electrons
         Band energy:-0.201108E+04;  BLOECHL correction:    0.000000
       DOS:  cpu time      0.0290: real time      0.0291
    CHARGE:  cpu time      9.3882: real time      9.3886
    MIXING:  cpu time      0.0147: real time      0.0147
    --------------------------------------------
      LOOP:  cpu time     87.0023: real time     87.0088

 eigenvalue-minimisations  :  9504
 total energy-change (2. order) :-0.5052140E-03  (-0.1203904E-03)
 number of electron     335.9999997 magnetization       0.0178873
 augmentation part      -46.9884347 magnetization       0.0182917

 Broyden mixing:
  rms(total) = 0.49265E-02    rms(broyden)= 0.49265E-02
  rms(prec ) = 0.55216E-02
  weight for this iteration     100.00

 eigenvalues of (default mixing * dielectric matrix)
  average eigenvalue GAMMA=   1.5762
  4.9473  2.6018  2.6018  2.2026  1.1774  0.9963  0.9963  0.7613  0.7613  0.6836
  0.5927  0.5927

 Free energy of the ion-electron system (eV)
  ---------------------------------------------------
  alpha Z        PSCENC =       253.99581917
  Ewald energy   TEWEN  =     -9971.45664781
  -Hartree energ DENC   =     -4866.58720143
  -exchange      EXHF   =         0.00000000
  -V(xc)+E(xc)   XCENC  =       689.12243363
  PAW double counting   =     39169.10105270   -38994.46979714
  entropy T*S    EENTRO =         0.00000000
  eigenvalues    EBANDS =     -2011.08109006
  atomic energy  EATOM  =     15501.99929693
  Solvation  Ediel_sol  =         0.00000000
  ---------------------------------------------------
  free energy    TOTEN  =      -229.37613400 eV

  energy without entropy =     -229.37613400  energy(sigma->0) =     -229.37613400


--------------------------------------------------------------------------------------------------------




--------------------------------------- Iteration      1(  18)  ---------------------------------------


    POTLOK:  cpu time      0.5101: real time      0.5110
    SETDIJ:  cpu time      4.6406: real time      4.6408
     EDDAV:  cpu time     59.7607: real time     59.7647
 BZINTS: Fermi energy:    0.080393;  336.000000 electrons
         Band energy:-0.201056E+04;  BLOECHL correction:    0.000000
       DOS:  cpu time      0.0282: real time      0.0283
    CHARGE:  cpu time     11.2421: real time     11.2427
    MIXING:  cpu time      0.0123: real time      0.0123
    --------------------------------------------
      LOOP:  cpu time     76.1939: real time     76.1998

 eigenvalue-minimisations  :  9568
 total energy-change (2. order) :-0.1155936E-03  (-0.3920267E-04)
 number of electron     335.9999997 magnetization       0.0052508
 augmentation part      -46.9851252 magnetization       0.0057906

 Broyden mixing:
  rms(total) = 0.44405E-02    rms(broyden)= 0.44405E-02
  rms(prec ) = 0.46917E-02
  weight for this iteration     100.00

 eigenvalues of (default mixing * dielectric matrix)
  average eigenvalue GAMMA=   1.5447
  5.0016  2.6459  2.6459  2.2648  1.1294  1.1294  0.9916  0.9916  0.7249  0.7249
  0.5801  0.6454  0.6056

 Free energy of the ion-electron system (eV)
  ---------------------------------------------------
  alpha Z        PSCENC =       253.99581917
  Ewald energy   TEWEN  =     -9971.45664781
  -Hartree energ DENC   =     -4867.12601950
  -exchange      EXHF   =         0.00000000
  -V(xc)+E(xc)   XCENC  =       689.15748838
  PAW double counting   =     39197.72017030   -39023.10360753
  entropy T*S    EENTRO =         0.00000000
  eigenvalues    EBANDS =     -2010.56274954
  atomic energy  EATOM  =     15501.99929693
  Solvation  Ediel_sol  =         0.00000000
  ---------------------------------------------------
  free energy    TOTEN  =      -229.37624960 eV

  energy without entropy =     -229.37624960  energy(sigma->0) =     -229.37624960


--------------------------------------------------------------------------------------------------------




--------------------------------------- Iteration      1(  19)  ---------------------------------------


    POTLOK:  cpu time      0.4419: real time      0.4425
    SETDIJ:  cpu time     13.3608: real time     13.3615
     EDDAV:  cpu time     63.3572: real time     63.3614
 BZINTS: Fermi energy:    0.079411;  336.000000 electrons
         Band energy:-0.201082E+04;  BLOECHL correction:    0.000000
       DOS:  cpu time      0.0313: real time      0.0314
    CHARGE:  cpu time      7.6193: real time      7.6199
    MIXING:  cpu time      0.0124: real time      0.0124
    --------------------------------------------
      LOOP:  cpu time     84.8230: real time     84.8292

 eigenvalue-minimisations  :  9728
 total energy-change (2. order) :-0.5821625E-05  (-0.6168822E-05)
 number of electron     335.9999997 magnetization      -0.0005208
 augmentation part      -46.9859514 magnetization      -0.0002784

 Broyden mixing:
  rms(total) = 0.20225E-02    rms(broyden)= 0.20224E-02
  rms(prec ) = 0.21964E-02
  weight for this iteration     100.00

 eigenvalues of (default mixing * dielectric matrix)
  average eigenvalue GAMMA=   1.5457
  5.0451  2.7073  2.7073  2.1131  1.4075  1.4075  1.0334  1.0334  0.8569  0.7534
  0.7534  0.5816  0.6080  0.6321

 Free energy of the ion-electron system (eV)
  ---------------------------------------------------
  alpha Z        PSCENC =       253.99581917
  Ewald energy   TEWEN  =     -9971.45664781
  -Hartree energ DENC   =     -4866.85434749
  -exchange      EXHF   =         0.00000000
  -V(xc)+E(xc)   XCENC  =       689.14076466
  PAW double counting   =     39196.42086645   -39021.80119024
  entropy T*S    EENTRO =         0.00000000
  eigenvalues    EBANDS =     -2010.82081709
  atomic energy  EATOM  =     15501.99929693
  Solvation  Ediel_sol  =         0.00000000
  ---------------------------------------------------
  free energy    TOTEN  =      -229.37625542 eV

  energy without entropy =     -229.37625542  energy(sigma->0) =     -229.37625542


--------------------------------------------------------------------------------------------------------




--------------------------------------- Iteration      1(  20)  ---------------------------------------


    POTLOK:  cpu time      1.9915: real time      1.9926
    SETDIJ:  cpu time     16.2105: real time     16.2116
     EDDAV:  cpu time     62.4768: real time     62.4809
 BZINTS: Fermi energy:    0.079090;  336.000000 electrons
         Band energy:-0.201096E+04;  BLOECHL correction:    0.000000
       DOS:  cpu time      0.0293: real time      0.0294
    CHARGE:  cpu time      5.3187: real time      5.3190
    MIXING:  cpu time      0.0288: real time      0.0288
    --------------------------------------------
      LOOP:  cpu time     86.0557: real time     86.0623

 eigenvalue-minimisations  :  9216
 total energy-change (2. order) :-0.1037109E-04  (-0.3469500E-05)
 number of electron     335.9999997 magnetization      -0.0016098
 augmentation part      -46.9864817 magnetization      -0.0015321

 Broyden mixing:
  rms(total) = 0.94515E-03    rms(broyden)= 0.94503E-03
  rms(prec ) = 0.10040E-02
  weight for this iteration     100.00

 eigenvalues of (default mixing * dielectric matrix)
  average eigenvalue GAMMA=   1.5473
  5.0949  2.7079  2.7079  2.1013  2.1013  1.2296  1.2296  0.9905  0.9905  0.7799
  0.7327  0.7327  0.5794  0.6156  0.6156

 Free energy of the ion-electron system (eV)
  ---------------------------------------------------
  alpha Z        PSCENC =       253.99581917
  Ewald energy   TEWEN  =     -9971.45664781
  -Hartree energ DENC   =     -4866.71119756
  -exchange      EXHF   =         0.00000000
  -V(xc)+E(xc)   XCENC  =       689.13372749
  PAW double counting   =     39201.53371548   -39026.91211905
  entropy T*S    EENTRO =         0.00000000
  eigenvalues    EBANDS =     -2010.95886044
  atomic energy  EATOM  =     15501.99929693
  Solvation  Ediel_sol  =         0.00000000
  ---------------------------------------------------
  free energy    TOTEN  =      -229.37626579 eV

  energy without entropy =     -229.37626579  energy(sigma->0) =     -229.37626579


--------------------------------------------------------------------------------------------------------




--------------------------------------- Iteration      1(  21)  ---------------------------------------


    POTLOK:  cpu time      0.5600: real time      0.5609
    SETDIJ:  cpu time      9.9430: real time      9.9437
     EDDAV:  cpu time     57.9534: real time     57.9607
 BZINTS: Fermi energy:    0.079064;  336.000000 electrons
         Band energy:-0.201101E+04;  BLOECHL correction:    0.000000
       DOS:  cpu time      0.0287: real time      0.0288
    CHARGE:  cpu time      9.7458: real time      9.7464
    MIXING:  cpu time      0.0090: real time      0.0090
    --------------------------------------------
      LOOP:  cpu time     78.2398: real time     78.2496

 eigenvalue-minimisations  :  9280
 total energy-change (2. order) : 0.1189026E-05  (-0.8850135E-06)
 number of electron     335.9999997 magnetization      -0.0013446
 augmentation part      -46.9866745 magnetization      -0.0013481

 Broyden mixing:
  rms(total) = 0.42345E-03    rms(broyden)= 0.42318E-03
  rms(prec ) = 0.44549E-03
  weight for this iteration     100.00

 eigenvalues of (default mixing * dielectric matrix)
  average eigenvalue GAMMA=   1.5121
  5.0969  2.6690  2.6690  2.5706  1.6083  1.4068  1.1544  1.1544  0.9283  0.9283
  0.7390  0.7390  0.7256  0.5791  0.6122  0.6122

 Free energy of the ion-electron system (eV)
  ---------------------------------------------------
  alpha Z        PSCENC =       253.99581917
  Ewald energy   TEWEN  =     -9971.45664781
  -Hartree energ DENC   =     -4866.65271484
  -exchange      EXHF   =         0.00000000
  -V(xc)+E(xc)   XCENC  =       689.13015273
  PAW double counting   =     39200.98518704   -39026.36278283
  entropy T*S    EENTRO =         0.00000000
  eigenvalues    EBANDS =     -2011.01457500
  atomic energy  EATOM  =     15501.99929693
  Solvation  Ediel_sol  =         0.00000000
  ---------------------------------------------------
  free energy    TOTEN  =      -229.37626460 eV

  energy without entropy =     -229.37626460  energy(sigma->0) =     -229.37626460


--------------------------------------------------------------------------------------------------------




--------------------------------------- Iteration      1(  22)  ---------------------------------------


    POTLOK:  cpu time      2.3953: real time      2.3984
    SETDIJ:  cpu time     16.6410: real time     16.6419
     EDDAV:  cpu time     68.2347: real time     68.2392
 BZINTS: Fermi energy:    0.078906;  336.000000 electrons
         Band energy:-0.201104E+04;  BLOECHL correction:    0.000000
       DOS:  cpu time      0.0267: real time      0.0268
    CHARGE:  cpu time      5.9360: real time      5.9364
    MIXING:  cpu time      0.0115: real time      0.0115
    --------------------------------------------
      LOOP:  cpu time     93.2452: real time     93.2542

 eigenvalue-minimisations  :  9856
 total energy-change (2. order) : 0.4656467E-06  (-0.1391645E-06)
 number of electron     335.9999997 magnetization      -0.0004669
 augmentation part      -46.9867446 magnetization      -0.0004887

 Broyden mixing:
  rms(total) = 0.23069E-03    rms(broyden)= 0.23020E-03
  rms(prec ) = 0.24489E-03
  weight for this iteration     100.00

 eigenvalues of (default mixing * dielectric matrix)
  average eigenvalue GAMMA=   1.5006
  5.0911  2.6575  2.6575  2.6219  1.6743  1.4391  1.4391  1.0824  1.0824  0.9006
  0.9006  0.7421  0.7421  0.6741  0.5804  0.6122  0.6122

 Free energy of the ion-electron system (eV)
  ---------------------------------------------------
  alpha Z        PSCENC =       253.99581917
  Ewald energy   TEWEN  =     -9971.45664781
  -Hartree energ DENC   =     -4866.63100693
  -exchange      EXHF   =         0.00000000
  -V(xc)+E(xc)   XCENC  =       689.12857169
  PAW double counting   =     39199.57705346   -39024.95433791
  entropy T*S    EENTRO =         0.00000000
  eigenvalues    EBANDS =     -2011.03501275
  atomic energy  EATOM  =     15501.99929693
  Solvation  Ediel_sol  =         0.00000000
  ---------------------------------------------------
  free energy    TOTEN  =      -229.37626414 eV

  energy without entropy =     -229.37626414  energy(sigma->0) =     -229.37626414


--------------------------------------------------------------------------------------------------------




--------------------------------------- Iteration      1(  23)  ---------------------------------------


    POTLOK:  cpu time      0.4279: real time      0.4290
    SETDIJ:  cpu time     13.5881: real time     13.5889
     EDDAV:  cpu time     56.3898: real time     56.3994
 BZINTS: Fermi energy:    0.078962;  336.000000 electrons
         Band energy:-0.201103E+04;  BLOECHL correction:    0.000000
       DOS:  cpu time      0.0268: real time      0.0269
    CHARGE:  cpu time      5.7744: real time      5.7748
    MIXING:  cpu time      0.0081: real time      0.0080
    --------------------------------------------
      LOOP:  cpu time     76.2151: real time     76.2271

 eigenvalue-minimisations  :  9216
 total energy-change (2. order) :-0.2427405E-06  (-0.5715154E-07)
 number of electron     335.9999997 magnetization      -0.0002605
 augmentation part      -46.9867156 magnetization      -0.0002565

 Broyden mixing:
[...]

  length of vectors
    10.314108670 16.788494411 10.846477853     0.097707938  0.059564603  0.092912216


 FORCES acting on ions
    electron-ion (+dipol)            ewald-force                    non-local-force                 convergence-correction
 -----------------------------------------------------------------------------------------------
   0.986E+02 -.105E+03 -.125E+02   -.104E+03 0.113E+03 0.112E+02   0.495E+01 -.888E+01 0.132E+01   0.171E-05 -.690E-07 0.673E-06
   0.987E+02 -.105E+03 -.125E+02   -.104E+03 0.113E+03 0.112E+02   0.495E+01 -.888E+01 0.132E+01   0.178E-05 -.164E-06 0.725E-06
   -.119E+02 0.421E+02 -.127E+03   0.121E+02 -.473E+02 0.134E+03   -.267E+00 0.527E+01 -.702E+01   0.357E-07 -.165E-06 -.148E-05
   -.124E+02 0.420E+02 -.127E+03   0.126E+02 -.472E+02 0.134E+03   -.246E+00 0.519E+01 -.705E+01   0.137E-06 -.600E-07 -.136E-05
   -.211E+02 -.902E+02 0.981E+02   0.198E+02 0.989E+02 -.103E+03   0.134E+01 -.874E+01 0.530E+01   -.837E-07 0.145E-06 0.201E-05
   -.211E+02 -.902E+02 0.981E+02   0.198E+02 0.989E+02 -.103E+03   0.134E+01 -.874E+01 0.530E+01   -.476E-08 0.110E-06 0.193E-05
   -.109E+03 0.949E+02 0.637E+01   0.114E+03 -.101E+03 -.425E+01   -.533E+01 0.593E+01 -.212E+01   -.179E-05 -.692E-07 0.724E-06
   -.108E+03 0.950E+02 0.626E+01   0.114E+03 -.101E+03 -.414E+01   -.534E+01 0.592E+01 -.212E+01   -.170E-05 0.210E-07 0.678E-06
   0.136E+03 -.540E+02 -.187E+02   -.143E+03 0.595E+02 0.193E+02   0.680E+01 -.552E+01 -.558E+00   0.160E-05 0.551E-07 -.976E-06
   0.136E+03 -.540E+02 -.187E+02   -.143E+03 0.595E+02 0.193E+02   0.680E+01 -.552E+01 -.558E+00   0.167E-05 0.437E-07 -.100E-05
   -.136E+03 0.540E+02 0.187E+02   0.143E+03 -.596E+02 -.193E+02   -.680E+01 0.552E+01 0.558E+00   -.173E-05 0.165E-06 0.102E-05
   -.136E+03 0.540E+02 0.187E+02   0.143E+03 -.595E+02 -.193E+02   -.680E+01 0.552E+01 0.558E+00   -.160E-05 0.671E-07 0.997E-06
   0.108E+03 -.950E+02 -.625E+01   -.114E+03 0.101E+03 0.414E+01   0.534E+01 -.592E+01 0.212E+01   0.162E-05 0.166E-06 -.641E-06
   0.108E+03 -.950E+02 -.625E+01   -.114E+03 0.101E+03 0.414E+01   0.534E+01 -.592E+01 0.212E+01   0.186E-05 0.981E-07 -.655E-06
   -.124E+02 -.420E+02 0.127E+03   0.126E+02 0.472E+02 -.134E+03   -.246E+00 -.519E+01 0.705E+01   0.103E-06 0.587E-07 0.104E-05
   -.123E+02 -.420E+02 0.127E+03   0.126E+02 0.472E+02 -.134E+03   -.245E+00 -.519E+01 0.705E+01   0.139E-06 0.746E-07 0.111E-05
   0.211E+02 -.903E+02 0.981E+02   -.198E+02 0.990E+02 -.103E+03   -.133E+01 -.873E+01 0.529E+01   -.321E-07 -.244E-06 0.214E-05
   0.211E+02 -.902E+02 0.981E+02   -.198E+02 0.989E+02 -.103E+03   -.134E+01 -.874E+01 0.530E+01   0.803E-07 -.189E-06 0.204E-05
   -.985E+02 -.105E+03 -.127E+02   0.103E+03 0.114E+03 0.114E+02   -.493E+01 -.888E+01 0.132E+01   -.182E-05 -.505E-06 0.707E-06
   -.986E+02 -.105E+03 -.125E+02   0.104E+03 0.113E+03 0.112E+02   -.495E+01 -.888E+01 0.132E+01   -.170E-05 -.365E-06 0.752E-06
   -.136E+03 -.539E+02 -.187E+02   0.143E+03 0.595E+02 0.193E+02   -.680E+01 -.552E+01 -.558E+00   -.155E-05 -.987E-07 -.958E-06
   -.136E+03 -.539E+02 -.187E+02   0.143E+03 0.595E+02 0.193E+02   -.680E+01 -.552E+01 -.558E+00   -.173E-05 -.860E-07 -.956E-06
   0.124E+02 0.421E+02 -.127E+03   -.126E+02 -.473E+02 0.134E+03   0.246E+00 0.519E+01 -.705E+01   -.160E-06 0.858E-07 -.146E-05
   0.124E+02 0.420E+02 -.127E+03   -.126E+02 -.472E+02 0.134E+03   0.246E+00 0.519E+01 -.705E+01   -.377E-07 0.789E-07 -.140E-05
   -.108E+03 -.951E+02 -.626E+01   0.114E+03 0.101E+03 0.414E+01   -.534E+01 -.592E+01 0.212E+01   -.178E-05 -.125E-07 -.623E-06
   -.108E+03 -.950E+02 -.625E+01   0.114E+03 0.101E+03 0.414E+01   -.534E+01 -.592E+01 0.212E+01   -.164E-05 -.111E-07 -.632E-06
   0.987E+02 0.105E+03 0.126E+02   -.104E+03 -.114E+03 -.113E+02   0.495E+01 0.888E+01 -.132E+01   0.161E-05 0.122E-06 -.913E-06
   0.986E+02 0.105E+03 0.125E+02   -.104E+03 -.113E+03 -.112E+02   0.495E+01 0.888E+01 -.132E+01   0.181E-05 0.147E-06 -.830E-06
   -.986E+02 0.105E+03 0.125E+02   0.104E+03 -.113E+03 -.112E+02   -.495E+01 0.888E+01 -.132E+01   -.177E-05 0.413E-06 -.896E-06
   -.987E+02 0.105E+03 0.125E+02   0.104E+03 -.113E+03 -.112E+02   -.495E+01 0.888E+01 -.132E+01   -.168E-05 0.416E-06 -.886E-06
   0.727E+02 0.962E+02 0.632E+02   -.754E+02 -.106E+03 -.653E+02   0.274E+01 0.971E+01 0.207E+01   0.846E-06 0.701E-06 0.379E-06
   0.728E+02 0.961E+02 0.632E+02   -.755E+02 -.106E+03 -.653E+02   0.274E+01 0.971E+01 0.207E+01   0.902E-06 0.600E-06 0.509E-06
   0.218E+02 -.938E+02 -.889E+02   -.205E+02 0.100E+03 0.940E+02   -.133E+01 -.628E+01 -.509E+01   0.205E-06 0.187E-06 -.127E-05
   0.218E+02 -.938E+02 -.889E+02   -.205E+02 0.100E+03 0.940E+02   -.133E+01 -.628E+01 -.509E+01   0.335E-06 0.109E-06 -.143E-05
   -.211E+02 0.902E+02 -.981E+02   0.198E+02 -.989E+02 0.103E+03   0.134E+01 0.874E+01 -.530E+01   -.660E-07 -.125E-06 -.161E-05
   -.211E+02 0.902E+02 -.981E+02   0.198E+02 -.989E+02 0.103E+03   0.134E+01 0.874E+01 -.530E+01   -.464E-07 -.632E-07 -.172E-05
   -.218E+02 0.937E+02 0.889E+02   0.205E+02 -.100E+03 -.940E+02   0.133E+01 0.627E+01 0.509E+01   -.347E-06 -.147E-06 0.173E-05
   -.218E+02 0.938E+02 0.889E+02   0.205E+02 -.100E+03 -.940E+02   0.133E+01 0.628E+01 0.509E+01   -.266E-06 -.706E-07 0.159E-05
   0.211E+02 0.902E+02 -.981E+02   -.198E+02 -.989E+02 0.103E+03   -.134E+01 0.874E+01 -.530E+01   0.211E-07 0.261E-06 -.174E-05
   0.211E+02 0.902E+02 -.981E+02   -.198E+02 -.989E+02 0.103E+03   -.134E+01 0.874E+01 -.530E+01   0.611E-07 0.182E-06 -.183E-05
   0.721E+02 -.963E+02 -.636E+02   -.748E+02 0.106E+03 0.657E+02   0.276E+01 -.973E+01 -.206E+01   0.849E-06 -.658E-06 -.727E-06
   0.728E+02 -.962E+02 -.633E+02   -.755E+02 0.106E+03 0.653E+02   0.274E+01 -.971E+01 -.207E+01   0.934E-06 -.648E-06 -.682E-06
   0.136E+03 0.538E+02 0.187E+02   -.143E+03 -.593E+02 -.193E+02   0.680E+01 0.554E+01 0.566E+00   0.167E-05 -.538E-07 0.106E-05
   0.136E+03 0.539E+02 0.187E+02   -.143E+03 -.595E+02 -.193E+02   0.680E+01 0.552E+01 0.558E+00   0.165E-05 -.790E-07 0.105E-05
   0.108E+03 0.950E+02 0.624E+01   -.114E+03 -.101E+03 -.413E+01   0.534E+01 0.592E+01 -.212E+01   0.177E-05 -.763E-07 0.708E-06
   0.108E+03 0.950E+02 0.624E+01   -.114E+03 -.101E+03 -.413E+01   0.534E+01 0.592E+01 -.212E+01   0.180E-05 -.133E-06 0.708E-06
   -.728E+02 -.960E+02 -.632E+02   0.755E+02 0.106E+03 0.653E+02   -.274E+01 -.971E+01 -.207E+01   -.917E-06 -.226E-06 -.758E-06
   -.728E+02 -.961E+02 -.633E+02   0.755E+02 0.106E+03 0.653E+02   -.274E+01 -.971E+01 -.207E+01   -.843E-06 -.286E-06 -.656E-06
   -.218E+02 -.938E+02 -.889E+02   0.205E+02 0.100E+03 0.940E+02   0.133E+01 -.628E+01 -.509E+01   -.259E-06 0.470E-07 -.129E-05
   -.218E+02 -.938E+02 -.889E+02   0.205E+02 0.100E+03 0.940E+02   0.133E+01 -.628E+01 -.509E+01   -.260E-06 0.102E-06 -.137E-05
   0.218E+02 0.938E+02 0.889E+02   -.205E+02 -.100E+03 -.940E+02   -.133E+01 0.628E+01 0.509E+01   0.258E-06 -.125E-06 0.170E-05
   0.218E+02 0.938E+02 0.889E+02   -.205E+02 -.100E+03 -.940E+02   -.133E+01 0.628E+01 0.509E+01   0.378E-06 -.106E-06 0.167E-05
   -.727E+02 0.962E+02 0.633E+02   0.755E+02 -.106E+03 -.653E+02   -.274E+01 0.971E+01 0.207E+01   -.831E-06 0.240E-06 0.420E-06
   -.728E+02 0.962E+02 0.633E+02   0.755E+02 -.106E+03 -.653E+02   -.274E+01 0.971E+01 0.207E+01   -.895E-06 0.296E-06 0.478E-06
   0.124E+02 -.419E+02 0.127E+03   -.127E+02 0.471E+02 -.134E+03   0.246E+00 -.519E+01 0.705E+01   -.172E-06 -.669E-07 0.994E-06
   0.123E+02 -.420E+02 0.127E+03   -.126E+02 0.472E+02 -.134E+03   0.246E+00 -.519E+01 0.705E+01   -.853E-07 -.742E-07 0.115E-05
 -----------------------------------------------------------------------------------------------
   -.228E-01 -.897E-01 -.472E-01   0.355E-13 -.142E-13 0.171E-12   0.228E-01 0.898E-01 0.472E-01   0.421E-07 0.174E-07 -.666E-07


 POSITION                                       TOTAL-FORCE (eV/Angst)
 -----------------------------------------------------------------------------------
      7.84031      7.96182     -7.59135         0.002484     -0.001216      0.001004
     16.23455      7.96182     -7.59135         0.002385     -0.001150      0.000932
      3.16872      2.43282     -6.01906        -0.025390      0.066716     -0.042694
     11.56297      2.44282     -6.01943         0.002173     -0.000890     -0.002529
      1.76685      7.82725    -10.10485        -0.000140      0.000088     -0.000519
     10.16110      7.82725    -10.10485        -0.000118     -0.000009     -0.000432
      5.05050      1.12562     -8.40433         0.011985      0.006925     -0.008435
     13.44475      1.12562     -8.40433         0.001574     -0.000620     -0.000674
      5.13205      1.09979     -2.45651        -0.000121      0.000773      0.000095
     13.52630      1.09979     -2.45651        -0.000073      0.000471     -0.000258
      3.26219      7.47505     -8.62356         0.000217     -0.000559      0.000277
     11.65644      7.47505     -8.62356         0.000089     -0.000473      0.000283
      3.34375      7.44923     -2.67574        -0.001627      0.000632      0.000535
     11.73799      7.44923     -2.67574        -0.001589      0.000640      0.000688
      7.36585      0.97835     -4.87422         0.002478      0.000999      0.002345
     15.76010      0.97835     -4.87422         0.001895      0.000999      0.002353
      2.43027      2.67356     -9.91842        -0.000733     -0.001886     -0.001078
     10.82452      2.67356     -9.91842         0.000084      0.000019     -0.000449
      4.75106      2.80814     -7.40493        -0.023940     -0.032786      0.022528
     13.14531      2.80814     -7.40493        -0.002468     -0.001270      0.000979
      7.45932      6.25348     -2.64294         0.000082      0.000520     -0.000393
     15.85356      6.25348     -2.64294         0.000056      0.000439     -0.000290
      1.02840      7.59650     -6.20585        -0.002173     -0.001164     -0.002454
      9.42265      7.59650     -6.20585        -0.002163     -0.000908     -0.002539
      0.85338      2.29554     -2.48931         0.001714      0.001008      0.000895
      9.24762      2.29554     -2.48931         0.001544      0.000631      0.000715
      3.64318      5.76671     -3.67515         0.002421      0.001054     -0.000764
     12.03743      5.76671     -3.67515         0.002466      0.001267     -0.000946
      0.55394      0.61303     -3.48872        -0.002439      0.001210     -0.000949
      8.94819      0.61303     -3.48872        -0.002537      0.001216     -0.001019
      5.79350     -0.03143     -4.03202        -0.001344      0.001824      0.000132
     14.18775     -0.03143     -4.03202        -0.001116      0.001700      0.000233
      4.85766      7.53946     -1.03917        -0.003892      0.002063     -0.000230
     13.25190      7.53946     -1.03917        -0.003945      0.002066     -0.000265
      5.96398      5.90128     -1.16165        -0.000105     -0.000095      0.000440
     14.35822      5.90128     -1.16165        -0.000046     -0.000013      0.000468
      3.53659      1.03539    -10.04090         0.003836     -0.003045     -0.000601
     11.93084      1.03539    -10.04090         0.003918     -0.002072      0.000237
      6.62739      0.74760     -0.97522         0.000083     -0.000149      0.000286
     15.02164      0.74760     -0.97522        -0.000112     -0.000139      0.000544
      1.59638      3.45260     -6.86163         0.036721     -0.059344      0.023278
      9.99063      3.45260     -6.86163        -0.001200     -0.001779     -0.000239
      0.93493      2.32137     -8.43713         0.001690      0.017071      0.005013
      9.32918      2.32137     -8.43713        -0.000148     -0.000455      0.000271
      7.54087      6.27930     -8.59076        -0.001541     -0.000620     -0.000716
     15.93512      6.27930     -8.59076        -0.001489     -0.000754     -0.000502
      2.60074      8.60628     -7.04805         0.001061     -0.002050     -0.000410
     10.99499      8.60628     -7.04805         0.001192     -0.001761     -0.000246
      7.73371      2.38578     -0.85274         0.003806      0.002008     -0.000254
     16.12796      2.38578     -0.85274         0.004183      0.002006     -0.000503
      0.66053      6.18907    -10.22733        -0.003817     -0.001992      0.000159
      9.05478      6.18907    -10.22733        -0.003886     -0.002066      0.000232
      6.79787      5.12225     -4.21845         0.001287      0.001643      0.000370
     15.19211      5.12225     -4.21845         0.001282      0.001757      0.000190
      5.22552      6.13203     -5.06065        -0.002399      0.000629      0.002358
     13.61977      6.13203     -5.06065        -0.002154      0.000895      0.002545
 -----------------------------------------------------------------------------------
    total drift:                               -0.000001      0.000005      0.000001


--------------------------------------------------------------------------------------------------------



  FREE ENERGIE OF THE ION-ELECTRON SYSTEM (eV)
  ---------------------------------------------------
  free  energy   TOTEN  =      -229.37626417 eV

  energy  without entropy=     -229.37626417  energy(sigma->0) =     -229.37626417



--------------------------------------------------------------------------------------------------------


    POTLOK:  cpu time     10.0361: real time     10.0438


--------------------------------------------------------------------------------------------------------


     LOOP+:  cpu time   2659.4072: real time   2659.7345
    4ORBIT:  cpu time      0.0000: real time      0.0000



 total charge

# of ion       s       p       d       tot
------------------------------------------
    1        1.376   2.247   0.000   3.623
    2        1.376   2.247   0.000   3.623
    3        1.377   2.256   0.000   3.633
    4        1.376   2.258   0.000   3.635
    5        1.376   2.247   0.000   3.622
    6        1.376   2.247   0.000   3.622
    7        1.375   2.262   0.000   3.638
    8        1.375   2.262   0.000   3.638
    9        1.377   2.257   0.000   3.634
   10        1.377   2.257   0.000   3.634
   11        1.377   2.257   0.000   3.634
   12        1.377   2.257   0.000   3.634
   13        1.375   2.262   0.000   3.638
   14        1.375   2.262   0.000   3.638
   15        1.376   2.258   0.000   3.635
   16        1.376   2.258   0.000   3.635
   17        1.376   2.247   0.000   3.623
   18        1.376   2.247   0.000   3.623
   19        1.376   2.246   0.000   3.622
   20        1.376   2.247   0.000   3.623
   21        1.377   2.257   0.000   3.634
   22        1.377   2.257   0.000   3.634
   23        1.376   2.258   0.000   3.635
   24        1.376   2.258   0.000   3.635
   25        1.375   2.262   0.000   3.638
   26        1.375   2.262   0.000   3.638
   27        1.376   2.247   0.000   3.623
   28        1.376   2.247   0.000   3.623
   29        1.376   2.247   0.000   3.623
   30        1.376   2.247   0.000   3.623
   31        1.376   2.254   0.000   3.630
   32        1.376   2.254   0.000   3.630
   33        1.375   2.263   0.000   3.638
   34        1.375   2.263   0.000   3.638
   35        1.376   2.247   0.000   3.623
   36        1.376   2.247   0.000   3.623
   37        1.375   2.263   0.000   3.638
   38        1.375   2.263   0.000   3.638
   39        1.376   2.247   0.000   3.623
   40        1.376   2.247   0.000   3.623
   41        1.376   2.253   0.000   3.628
   42        1.376   2.254   0.000   3.630
   43        1.377   2.257   0.000   3.634
   44        1.377   2.257   0.000   3.634
   45        1.375   2.262   0.000   3.638
   46        1.375   2.262   0.000   3.638
   47        1.376   2.254   0.000   3.630
   48        1.376   2.254   0.000   3.630
   49        1.375   2.263   0.000   3.638
   50        1.375   2.263   0.000   3.638
   51        1.375   2.263   0.000   3.638
   52        1.375   2.263   0.000   3.638
   53        1.376   2.254   0.000   3.630
   54        1.376   2.254   0.000   3.630
   55        1.376   2.258   0.000   3.635
   56        1.376   2.258   0.000   3.635
--------------------------------------------------
tot         77.050 126.307   0.000 203.357



 magnetization (x)

# of ion       s       p       d       tot
------------------------------------------
    1        0.000   0.000   0.000   0.000
    2        0.000   0.000   0.000   0.000
    3        0.000   0.000   0.000   0.000
    4        0.000   0.000   0.000   0.000
    5        0.000   0.000   0.000   0.000
    6        0.000   0.000   0.000   0.000
    7        0.000   0.000   0.000   0.000
    8        0.000   0.000   0.000   0.000
    9        0.000   0.000   0.000   0.000
   10        0.000   0.000   0.000   0.000
   11        0.000   0.000   0.000   0.000
   12        0.000   0.000   0.000   0.000
   13        0.000   0.000   0.000   0.000
   14        0.000   0.000   0.000   0.000
   15        0.000   0.000   0.000   0.000
   16        0.000   0.000   0.000   0.000
   17        0.000   0.000   0.000   0.000
   18        0.000   0.000   0.000   0.000
   19        0.000   0.000   0.000   0.000
   20        0.000   0.000   0.000   0.000
   21        0.000   0.000   0.000   0.000
   22        0.000   0.000   0.000   0.000
   23        0.000   0.000   0.000   0.000
   24        0.000   0.000   0.000   0.000
   25        0.000   0.000   0.000   0.000
   26        0.000   0.000   0.000   0.000
   27        0.000   0.000   0.000   0.000
   28        0.000   0.000   0.000   0.000
   29        0.000   0.000   0.000   0.000
   30        0.000   0.000   0.000   0.000
   31        0.000   0.000   0.000   0.000
   32        0.000   0.000   0.000   0.000
   33        0.000   0.000   0.000   0.000
   34        0.000   0.000   0.000   0.000
   35        0.000   0.000   0.000   0.000
   36        0.000   0.000   0.000   0.000
   37        0.000   0.000   0.000   0.000
   38        0.000   0.000   0.000   0.000
   39        0.000   0.000   0.000   0.000
   40        0.000   0.000   0.000   0.000
   41        0.000   0.000   0.000   0.000
   42        0.000   0.000   0.000   0.000
   43        0.000   0.000   0.000   0.000
   44        0.000   0.000   0.000   0.000
   45        0.000   0.000   0.000   0.000
   46        0.000   0.000   0.000   0.000
   47        0.000   0.000   0.000   0.000
   48        0.000   0.000   0.000   0.000
   49        0.000   0.000   0.000   0.000
   50        0.000   0.000   0.000   0.000
   51        0.000   0.000   0.000   0.000
   52        0.000   0.000   0.000   0.000
   53        0.000   0.000   0.000   0.000
   54        0.000   0.000   0.000   0.000
   55        0.000   0.000   0.000   0.000
   56        0.000   0.000   0.000   0.000
--------------------------------------------------
tot          0.000   0.000   0.000   0.000

 BZINTS: Fermi energy:    0.078958;  336.000000 electrons
         Band energy:-0.201104E+04;  BLOECHL correction:    0.000000

 total amount of memory used by VASP MPI-rank0   322725. kBytes
=======================================================================

   base      :      30000. kBytes
   nonl-proj :      70692. kBytes
   fftplans  :      34504. kBytes
   grid      :      83442. kBytes
   one-center:        344. kBytes
   wavefun   :     103743. kBytes

  
  
 General timing and accounting informations for this job:
 ========================================================
  
                  Total CPU time used (sec):     2703.441
                            User time (sec):     2701.306
                          System time (sec):        2.136
                         Elapsed time (sec):     2704.214
  
                   Maximum memory used (kb):      607104.
                   Average memory used (kb):          N/A
  
                          Minor page faults:       917605
                          Major page faults:          199
                 Voluntary context switches:         2744
