   5   5   0   0
  0.1991740E+02  0.4635190E-09  0.4635190E-09  0.4635190E-09  0.1500000E-16
   1.0000000000000000E-004
  CAR 
 unknown system                          
     20.19592447    -21.28662577  301      3.68488321      1.00000000
    -21.287  0.0000E+00  0.0000E+00
    -21.148  0.0000E+00  0.0000E+00
    -21.010  0.0000E+00  0.0000E+00
    -20.872  0.0000E+00  0.0000E+00
    -20.734  0.0000E+00  0.0000E+00
    -20.595  0.0000E+00  0.0000E+00
    -20.457  0.0000E+00  0.0000E+00
    -20.319  0.0000E+00  0.0000E+00
    -20.180  0.0000E+00  0.0000E+00
    -20.042  0.0000E+00  0.0000E+00
    -19.904  0.0000E+00  0.0000E+00
    -19.766  0.0000E+00  0.0000E+00
    -19.627  0.2650E-10  0.3664E-11
    -19.489  0.2542E-02  0.3515E-03
    -19.351  0.4072E+00  0.5666E-01
    -19.212  0.3756E-01  0.6186E-01
    -19.074  0.2753E-07  0.6186E-01
    -18.936  0.0000E+00  0.6186E-01
    -18.798  0.0000E+00  0.6186E-01
    -18.659  0.0000E+00  0.6186E-01
    -18.521  0.0000E+00  0.6186E-01
    -18.383  0.0000E+00  0.6186E-01
    -18.245  0.0000E+00  0.6186E-01
    -18.106  0.0000E+00  0.6186E-01
    -17.968  0.0000E+00  0.6186E-01
    -17.830  0.0000E+00  0.6186E-01
    -17.691  0.0000E+00  0.6186E-01
    -17.553  0.0000E+00  0.6186E-01
    -17.415  0.0000E+00  0.6186E-01
    -17.277  0.0000E+00  0.6186E-01
    -17.138  0.0000E+00  0.6186E-01
    -17.000  0.0000E+00  0.6186E-01
    -16.862  0.0000E+00  0.6186E-01
    -16.724  0.0000E+00  0.6186E-01
    -16.585  0.0000E+00  0.6186E-01
    -16.447  0.0000E+00  0.6186E-01
    -16.309  0.0000E+00  0.6186E-01
    -16.170  0.0000E+00  0.6186E-01
    -16.032  0.0000E+00  0.6186E-01
    -15.894  0.0000E+00  0.6186E-01
    -15.756  0.0000E+00  0.6186E-01
    -15.617  0.0000E+00  0.6186E-01
    -15.479  0.0000E+00  0.6186E-01
    -15.341  0.0000E+00  0.6186E-01
    -15.203  0.0000E+00  0.6186E-01
    -15.064  0.0000E+00  0.6186E-01
    -14.926  0.0000E+00  0.6186E-01
    -14.788  0.0000E+00  0.6186E-01
    -14.649  0.0000E+00  0.6186E-01
    -14.511  0.0000E+00  0.6186E-01
    -14.373  0.0000E+00  0.6186E-01
    -14.235  0.0000E+00  0.6186E-01
    -14.096  0.0000E+00  0.6186E-01
    -13.958  0.0000E+00  0.6186E-01
    -13.820  0.0000E+00  0.6186E-01
    -13.681  0.0000E+00  0.6186E-01
    -13.543  0.0000E+00  0.6186E-01
    -13.405  0.0000E+00  0.6186E-01
    -13.267  0.0000E+00  0.6186E-01
    -13.128  0.0000E+00  0.6186E-01
    -12.990  0.0000E+00  0.6186E-01
    -12.852  0.0000E+00  0.6186E-01
    -12.714  0.0000E+00  0.6186E-01
    -12.575  0.0000E+00  0.6186E-01
    -12.437  0.0000E+00  0.6186E-01
    -12.299  0.0000E+00  0.6186E-01
    -12.160  0.0000E+00  0.6186E-01
    -12.022  0.0000E+00  0.6186E-01
    -11.884  0.0000E+00  0.6186E-01
    -11.746  0.0000E+00  0.6186E-01
    -11.607  0.0000E+00  0.6186E-01
    -11.469  0.0000E+00  0.6186E-01
    -11.331  0.0000E+00  0.6186E-01
    -11.193  0.0000E+00  0.6186E-01
    -11.054  0.2250E-16  0.6186E-01
    -10.916  0.2112E-06  0.6186E-01
    -10.778  0.1319E-02  0.6204E-01
    -10.639  0.1021E-02  0.6218E-01
    -10.501  0.1083E-01  0.6368E-01
    -10.363  0.3215E-02  0.6412E-01
    -10.225  0.2443E-01  0.6750E-01
    -10.086  0.1000E-01  0.6888E-01
     -9.948  0.1779E-01  0.7134E-01
     -9.810  0.2476E-01  0.7477E-01
     -9.672  0.4502E-02  0.7539E-01
     -9.533  0.2139E-01  0.7835E-01
     -9.395  0.6557E-02  0.7925E-01
     -9.257  0.5737E-02  0.8005E-01
     -9.118  0.1247E-02  0.8022E-01
     -8.980  0.9367E-02  0.8151E-01
     -8.842  0.4608E-02  0.8215E-01
     -8.704  0.4266E-02  0.8274E-01
     -8.565  0.8545E-01  0.9456E-01
     -8.427  0.2211E-01  0.9762E-01
     -8.289  0.6261E-05  0.9762E-01
     -8.150  0.1662E-01  0.9991E-01
     -8.012  0.8757E-01  0.1120E+00
     -7.874  0.2652E-01  0.1157E+00
     -7.736  0.3222E-01  0.1201E+00
     -7.597  0.2364E-03  0.1202E+00
     -7.459  0.2084E-01  0.1231E+00
     -7.321  0.4719E-02  0.1237E+00
     -7.183  0.5231E-07  0.1237E+00
     -7.044  0.0000E+00  0.1237E+00
     -6.906  0.0000E+00  0.1237E+00
     -6.768  0.1811E-17  0.1237E+00
     -6.629  0.5699E-07  0.1237E+00
     -6.491  0.1026E-02  0.1239E+00
     -6.353  0.1303E-02  0.1240E+00
     -6.215  0.1969E-06  0.1240E+00
     -6.076  0.0000E+00  0.1240E+00
     -5.938  0.0000E+00  0.1240E+00
     -5.800  0.0000E+00  0.1240E+00
     -5.662  0.4850E-15  0.1240E+00
     -5.523  0.2421E-05  0.1240E+00
     -5.385  0.8811E-02  0.1253E+00
     -5.247  0.5166E-02  0.1260E+00
     -5.108  0.1534E-06  0.1260E+00
     -4.970  0.4381E-11  0.1260E+00
     -4.832  0.2414E-03  0.1260E+00
     -4.694  0.2596E-01  0.1296E+00
     -4.555  0.1762E-02  0.1298E+00
     -4.417  0.3256E-05  0.1298E+00
     -4.279  0.1176E-01  0.1315E+00
     -4.141  0.6872E-02  0.1324E+00
     -4.002  0.3615E-03  0.1325E+00
     -3.864  0.6550E-02  0.1334E+00
     -3.726  0.7854E-04  0.1334E+00
     -3.587  0.8316E-03  0.1335E+00
     -3.449  0.2653E-01  0.1372E+00
     -3.311  0.1901E-02  0.1374E+00
     -3.173  0.2630E-01  0.1411E+00
     -3.034  0.3575E-03  0.1411E+00
     -2.896  0.1127E-10  0.1411E+00
     -2.758  0.0000E+00  0.1411E+00
     -2.619  0.0000E+00  0.1411E+00
     -2.481  0.2491E-15  0.1411E+00
     -2.343  0.1732E-05  0.1411E+00
     -2.205  0.1001E-01  0.1425E+00
     -2.066  0.2073E-01  0.1454E+00
     -1.928  0.2687E-01  0.1491E+00
     -1.790  0.3953E-01  0.1545E+00
     -1.652  0.2587E-01  0.1581E+00
     -1.513  0.6173E-02  0.1590E+00
     -1.375  0.3606E-02  0.1595E+00
     -1.237  0.3791E-06  0.1595E+00
     -1.098  0.0000E+00  0.1595E+00
     -0.960  0.0000E+00  0.1595E+00
     -0.822  0.0000E+00  0.1595E+00
     -0.684  0.8005E-11  0.1595E+00
     -0.545  0.3105E-03  0.1595E+00
     -0.407  0.2704E-01  0.1633E+00
     -0.269  0.3720E-01  0.1684E+00
     -0.131  0.2225E-01  0.1715E+00
      0.008  0.3236E-01  0.1759E+00
      0.146  0.1988E-02  0.1762E+00
      0.284  0.9593E-02  0.1776E+00
      0.423  0.8324E-01  0.1891E+00
      0.561  0.5382E-01  0.1965E+00
      0.699  0.3711E-01  0.2016E+00
      0.837  0.2136E-01  0.2046E+00
      0.976  0.2546E-01  0.2081E+00
      1.114  0.6784E-04  0.2081E+00
      1.252  0.1798E-01  0.2106E+00
      1.391  0.2869E-01  0.2146E+00
      1.529  0.3141E-01  0.2189E+00
      1.667  0.8124E-02  0.2200E+00
      1.805  0.4137E-02  0.2206E+00
      1.944  0.5641E-01  0.2284E+00
      2.082  0.4221E-01  0.2342E+00
      2.220  0.4283E-01  0.2402E+00
      2.358  0.7163E-02  0.2412E+00
      2.497  0.6097E-01  0.2496E+00
      2.635  0.5421E-01  0.2571E+00
      2.773  0.2613E-01  0.2607E+00
      2.912  0.4603E-01  0.2671E+00
      3.050  0.5025E-02  0.2678E+00
      3.188  0.2497E-01  0.2712E+00
      3.326  0.4331E-01  0.2772E+00
      3.465  0.2457E-01  0.2806E+00
      3.603  0.1957E-01  0.2833E+00
      3.741  0.1692E+00  0.3067E+00
      3.879  0.2574E-01  0.3103E+00
      4.018  0.2780E-01  0.3141E+00
      4.156  0.1179E-04  0.3141E+00
      4.294  0.1572E-11  0.3141E+00
      4.433  0.1052E-03  0.3141E+00
      4.571  0.2370E-01  0.3174E+00
      4.709  0.4151E-02  0.3180E+00
      4.847  0.2283E-07  0.3180E+00
      4.986  0.2910E-16  0.3180E+00
      5.124  0.4099E-06  0.3180E+00
      5.262  0.3660E-02  0.3185E+00
      5.400  0.3329E-02  0.3189E+00
      5.539  0.2838E-02  0.3193E+00
      5.677  0.2688E-01  0.3231E+00
      5.815  0.2598E-01  0.3266E+00
      5.954  0.2208E-03  0.3267E+00
      6.092  0.3550E-11  0.3267E+00
      6.230  0.5534E-08  0.3267E+00
      6.368  0.1306E-02  0.3269E+00
      6.507  0.5675E-02  0.3276E+00
      6.645  0.9404E-05  0.3276E+00
      6.783  0.1198E-01  0.3293E+00
      6.922  0.3178E-01  0.3337E+00
      7.060  0.5792E-01  0.3417E+00
      7.198  0.6196E-02  0.3426E+00
      7.336  0.1311E-01  0.3444E+00
      7.475  0.8588E-03  0.3445E+00
      7.613  0.6259E-02  0.3454E+00
      7.751  0.2230E-03  0.3454E+00
      7.889  0.4791E-02  0.3461E+00
      8.028  0.1131E-01  0.3476E+00
      8.166  0.1674E-04  0.3476E+00
      8.304  0.2602E-13  0.3476E+00
      8.443  0.9312E-17  0.3476E+00
      8.581  0.4295E-06  0.3476E+00
      8.719  0.1128E-01  0.3492E+00
      8.857  0.3284E-01  0.3537E+00
      8.996  0.5534E-02  0.3545E+00
      9.134  0.1357E-01  0.3564E+00
      9.272  0.2055E-01  0.3592E+00
      9.410  0.2047E-01  0.3620E+00
      9.549  0.1237E-01  0.3637E+00
      9.687  0.5283E-01  0.3710E+00
      9.825  0.5955E-01  0.3793E+00
      9.964  0.2527E-01  0.3828E+00
     10.102  0.5723E-02  0.3836E+00
     10.240  0.4527E-01  0.3898E+00
     10.378  0.6326E-01  0.3986E+00
     10.517  0.4255E-01  0.4045E+00
     10.655  0.5772E-01  0.4124E+00
     10.793  0.2557E-01  0.4160E+00
     10.931  0.5751E-01  0.4239E+00
     11.070  0.3045E-01  0.4281E+00
     11.208  0.7273E-02  0.4291E+00
     11.346  0.5084E-01  0.4362E+00
     11.485  0.3991E-01  0.4417E+00
     11.623  0.1609E-01  0.4439E+00
     11.761  0.5142E-01  0.4510E+00
     11.899  0.2258E-01  0.4541E+00
     12.038  0.5461E-01  0.4617E+00
     12.176  0.6243E-01  0.4703E+00
     12.314  0.1871E-01  0.4729E+00
     12.453  0.1674E-03  0.4729E+00
     12.591  0.1468E-01  0.4750E+00
     12.729  0.2019E-01  0.4778E+00
     12.867  0.1364E-02  0.4779E+00
     13.006  0.3207E-01  0.4824E+00
     13.144  0.4719E-01  0.4889E+00
     13.282  0.5859E-01  0.4970E+00
     13.420  0.5904E-01  0.5052E+00
     13.559  0.4493E-01  0.5114E+00
     13.697  0.2969E-01  0.5155E+00
     13.835  0.2306E-01  0.5187E+00
     13.974  0.2304E-01  0.5219E+00
     14.112  0.6805E-01  0.5313E+00
     14.250  0.7991E-01  0.5423E+00
     14.388  0.2457E-01  0.5457E+00
     14.527  0.6561E-02  0.5466E+00
     14.665  0.5146E-01  0.5537E+00
     14.803  0.6288E-01  0.5624E+00
     14.941  0.4440E-01  0.5686E+00
     15.080  0.2138E-01  0.5715E+00
     15.218  0.6270E-01  0.5802E+00
     15.356  0.2458E-01  0.5836E+00
     15.495  0.3503E-02  0.5841E+00
     15.633  0.4274E-02  0.5847E+00
     15.771  0.1553E-02  0.5849E+00
     15.909  0.2365E-01  0.5882E+00
     16.048  0.4706E-01  0.5947E+00
     16.186  0.2368E-02  0.5950E+00
     16.324  0.1237E+00  0.6121E+00
     16.462  0.2187E-01  0.6151E+00
     16.601  0.2215E-01  0.6182E+00
     16.739  0.1120E-01  0.6197E+00
     16.877  0.2541E-01  0.6232E+00
     17.016  0.3498E-01  0.6281E+00
     17.154  0.2435E-01  0.6315E+00
     17.292  0.3127E-01  0.6358E+00
     17.430  0.3463E-01  0.6406E+00
     17.569  0.3841E-01  0.6459E+00
     17.707  0.2374E-01  0.6492E+00
     17.845  0.1684E-01  0.6515E+00
     17.984  0.1383E-01  0.6534E+00
     18.122  0.3141E-01  0.6577E+00
     18.260  0.1942E-02  0.6580E+00
     18.398  0.1281E-01  0.6598E+00
     18.537  0.8958E-04  0.6598E+00
     18.675  0.1087E-11  0.6598E+00
     18.813  0.0000E+00  0.6598E+00
     18.951  0.0000E+00  0.6598E+00
     19.090  0.0000E+00  0.6598E+00
     19.228  0.0000E+00  0.6598E+00
     19.366  0.0000E+00  0.6598E+00
     19.505  0.0000E+00  0.6598E+00
     19.643  0.0000E+00  0.6598E+00
     19.781  0.0000E+00  0.6598E+00
     19.919  0.0000E+00  0.6598E+00
     20.058  0.0000E+00  0.6598E+00
     20.196  0.0000E+00  0.6598E+00
