   5   5   0   0
  0.1991740E+02  0.4635190E-09  0.4635190E-09  0.4635190E-09  0.1500000E-16
   1.0000000000000000E-004
  CAR 
 unknown system                          
     16.24908611    -21.09877208  301      3.68488980      1.00000000
    -21.099  0.0000E+00  0.0000E+00
    -20.974  0.0000E+00  0.0000E+00
    -20.850  0.0000E+00  0.0000E+00
    -20.725  0.0000E+00  0.0000E+00
    -20.601  0.0000E+00  0.0000E+00
    -20.476  0.0000E+00  0.0000E+00
    -20.352  0.0000E+00  0.0000E+00
    -20.227  0.0000E+00  0.0000E+00
    -20.103  0.0000E+00  0.0000E+00
    -19.978  0.0000E+00  0.0000E+00
    -19.854  0.0000E+00  0.0000E+00
    -19.729  0.0000E+00  0.0000E+00
    -19.605  0.1613E-08  0.2008E-09
    -19.480  0.5569E-02  0.6933E-03
    -19.356  0.4376E+00  0.5517E-01
    -19.231  0.5367E-01  0.6186E-01
    -19.107  0.4871E-06  0.6186E-01
    -18.982  0.0000E+00  0.6186E-01
    -18.858  0.0000E+00  0.6186E-01
    -18.733  0.0000E+00  0.6186E-01
    -18.609  0.0000E+00  0.6186E-01
    -18.484  0.0000E+00  0.6186E-01
    -18.360  0.0000E+00  0.6186E-01
    -18.235  0.0000E+00  0.6186E-01
    -18.111  0.0000E+00  0.6186E-01
    -17.986  0.0000E+00  0.6186E-01
    -17.862  0.0000E+00  0.6186E-01
    -17.737  0.0000E+00  0.6186E-01
    -17.613  0.0000E+00  0.6186E-01
    -17.488  0.0000E+00  0.6186E-01
    -17.364  0.0000E+00  0.6186E-01
    -17.239  0.0000E+00  0.6186E-01
    -17.115  0.0000E+00  0.6186E-01
    -16.991  0.0000E+00  0.6186E-01
    -16.866  0.0000E+00  0.6186E-01
    -16.742  0.0000E+00  0.6186E-01
    -16.617  0.0000E+00  0.6186E-01
    -16.493  0.0000E+00  0.6186E-01
    -16.368  0.0000E+00  0.6186E-01
    -16.244  0.0000E+00  0.6186E-01
    -16.119  0.0000E+00  0.6186E-01
    -15.995  0.0000E+00  0.6186E-01
    -15.870  0.0000E+00  0.6186E-01
    -15.746  0.0000E+00  0.6186E-01
    -15.621  0.0000E+00  0.6186E-01
    -15.497  0.0000E+00  0.6186E-01
    -15.372  0.0000E+00  0.6186E-01
    -15.248  0.0000E+00  0.6186E-01
    -15.123  0.0000E+00  0.6186E-01
    -14.999  0.0000E+00  0.6186E-01
    -14.874  0.0000E+00  0.6186E-01
    -14.750  0.0000E+00  0.6186E-01
    -14.625  0.0000E+00  0.6186E-01
    -14.501  0.0000E+00  0.6186E-01
    -14.376  0.0000E+00  0.6186E-01
    -14.252  0.0000E+00  0.6186E-01
    -14.127  0.0000E+00  0.6186E-01
    -14.003  0.0000E+00  0.6186E-01
    -13.878  0.0000E+00  0.6186E-01
    -13.754  0.0000E+00  0.6186E-01
    -13.629  0.0000E+00  0.6186E-01
    -13.505  0.0000E+00  0.6186E-01
    -13.380  0.0000E+00  0.6186E-01
    -13.256  0.0000E+00  0.6186E-01
    -13.131  0.0000E+00  0.6186E-01
    -13.007  0.0000E+00  0.6186E-01
    -12.882  0.0000E+00  0.6186E-01
    -12.758  0.0000E+00  0.6186E-01
    -12.633  0.0000E+00  0.6186E-01
    -12.509  0.0000E+00  0.6186E-01
    -12.384  0.0000E+00  0.6186E-01
    -12.260  0.0000E+00  0.6186E-01
    -12.135  0.0000E+00  0.6186E-01
    -12.011  0.0000E+00  0.6186E-01
    -11.886  0.0000E+00  0.6186E-01
    -11.762  0.0000E+00  0.6186E-01
    -11.637  0.0000E+00  0.6186E-01
    -11.513  0.0000E+00  0.6186E-01
    -11.388  0.0000E+00  0.6186E-01
    -11.264  0.0000E+00  0.6186E-01
    -11.139  0.0000E+00  0.6186E-01
    -11.015  0.7924E-13  0.6186E-01
    -10.890  0.3276E-05  0.6186E-01
    -10.766  0.1788E-02  0.6208E-01
    -10.641  0.8072E-03  0.6218E-01
    -10.517  0.9660E-02  0.6338E-01
    -10.392  0.5861E-02  0.6411E-01
    -10.268  0.1462E-01  0.6593E-01
    -10.143  0.1963E-01  0.6838E-01
    -10.019  0.1065E-01  0.6970E-01
     -9.894  0.1709E-01  0.7183E-01
     -9.770  0.2805E-01  0.7532E-01
     -9.645  0.7501E-03  0.7541E-01
     -9.521  0.2643E-01  0.7870E-01
     -9.396  0.4410E-02  0.7925E-01
     -9.272  0.5337E-02  0.7992E-01
     -9.147  0.2416E-02  0.8022E-01
     -9.023  0.3427E-02  0.8065E-01
     -8.898  0.1205E-01  0.8215E-01
     -8.774  0.1198E-03  0.8216E-01
     -8.649  0.2817E-01  0.8567E-01
     -8.525  0.9004E-01  0.9688E-01
     -8.401  0.5937E-02  0.9762E-01
     -8.276  0.2371E-05  0.9762E-01
     -8.152  0.1780E-01  0.9983E-01
     -8.027  0.9463E-01  0.1116E+00
     -7.903  0.2128E-01  0.1143E+00
     -7.778  0.4456E-01  0.1198E+00
     -7.654  0.2883E-02  0.1202E+00
     -7.529  0.4882E-02  0.1208E+00
     -7.405  0.2332E-01  0.1237E+00
     -7.280  0.2672E-03  0.1237E+00
     -7.156  0.1494E-09  0.1237E+00
     -7.031  0.0000E+00  0.1237E+00
     -6.907  0.0000E+00  0.1237E+00
     -6.782  0.0000E+00  0.1237E+00
     -6.658  0.1528E-08  0.1237E+00
     -6.533  0.2342E-03  0.1237E+00
     -6.409  0.2316E-02  0.1240E+00
     -6.284  0.3752E-04  0.1240E+00
     -6.160  0.1508E-10  0.1240E+00
     -6.035  0.0000E+00  0.1240E+00
     -5.911  0.0000E+00  0.1240E+00
     -5.786  0.0000E+00  0.1240E+00
     -5.662  0.5189E-15  0.1240E+00
     -5.537  0.5516E-06  0.1240E+00
     -5.413  0.5058E-02  0.1247E+00
     -5.288  0.1045E-01  0.1260E+00
     -5.164  0.1664E-04  0.1260E+00
     -5.039  0.3396E-12  0.1260E+00
     -4.915  0.3572E-07  0.1260E+00
     -4.790  0.3550E-02  0.1264E+00
     -4.666  0.2719E-01  0.1298E+00
     -4.541  0.3181E-03  0.1298E+00
     -4.417  0.3722E-05  0.1298E+00
     -4.292  0.9960E-02  0.1311E+00
     -4.168  0.1073E-01  0.1324E+00
     -4.043  0.2574E-04  0.1324E+00
     -3.919  0.5939E-02  0.1332E+00
     -3.794  0.1804E-02  0.1334E+00
     -3.670  0.4687E-06  0.1334E+00
     -3.545  0.7566E-02  0.1343E+00
     -3.421  0.2341E-01  0.1372E+00
     -3.296  0.3252E-02  0.1376E+00
     -3.172  0.2750E-01  0.1411E+00
     -3.047  0.3766E-03  0.1411E+00
     -2.923  0.1200E-09  0.1411E+00
     -2.798  0.0000E+00  0.1411E+00
     -2.674  0.0000E+00  0.1411E+00
     -2.549  0.0000E+00  0.1411E+00
     -2.425  0.1697E-10  0.1411E+00
     -2.300  0.1080E-03  0.1411E+00
     -2.176  0.1869E-01  0.1434E+00
     -2.051  0.1838E-01  0.1457E+00
     -1.927  0.2698E-01  0.1491E+00
     -1.802  0.4259E-01  0.1544E+00
     -1.678  0.2382E-01  0.1574E+00
     -1.553  0.1010E-01  0.1586E+00
     -1.429  0.6759E-02  0.1595E+00
     -1.304  0.7366E-04  0.1595E+00
     -1.180  0.1721E-10  0.1595E+00
     -1.055  0.0000E+00  0.1595E+00
     -0.931  0.0000E+00  0.1595E+00
     -0.806  0.0000E+00  0.1595E+00
     -0.682  0.1192E-10  0.1595E+00
     -0.557  0.1325E-03  0.1595E+00
     -0.433  0.2526E-01  0.1626E+00
     -0.308  0.3821E-01  0.1674E+00
     -0.184  0.1621E-01  0.1694E+00
     -0.059  0.4524E-01  0.1750E+00
      0.065  0.9391E-02  0.1762E+00
      0.190  0.1171E-03  0.1762E+00
      0.314  0.3210E-01  0.1802E+00
      0.438  0.7368E-01  0.1894E+00
      0.563  0.5909E-01  0.1968E+00
      0.687  0.3888E-01  0.2016E+00
      0.812  0.1749E-01  0.2038E+00
      0.936  0.3359E-01  0.2080E+00
      1.061  0.1346E-02  0.2081E+00
      1.185  0.1089E-02  0.2083E+00
      1.310  0.4003E-01  0.2132E+00
      1.434  0.1867E-01  0.2156E+00
      1.559  0.3348E-01  0.2197E+00
      1.683  0.2480E-02  0.2200E+00
      1.808  0.5185E-02  0.2207E+00
      1.932  0.5776E-01  0.2279E+00
      2.057  0.4512E-01  0.2335E+00
      2.181  0.4192E-01  0.2387E+00
      2.306  0.1820E-01  0.2410E+00
      2.430  0.2919E-01  0.2446E+00
      2.555  0.6812E-01  0.2531E+00
      2.679  0.3585E-01  0.2576E+00
      2.804  0.4540E-01  0.2632E+00
      2.928  0.3107E-01  0.2671E+00
      3.053  0.5725E-02  0.2678E+00
      3.177  0.2194E-01  0.2705E+00
      3.302  0.4769E-01  0.2765E+00
      3.426  0.3221E-01  0.2805E+00
      3.551  0.2726E-02  0.2808E+00
      3.675  0.1285E+00  0.2968E+00
      3.800  0.8761E-01  0.3077E+00
      3.924  0.4242E-01  0.3130E+00
      4.049  0.8951E-02  0.3141E+00
      4.173  0.3763E-06  0.3141E+00
      4.298  0.3254E-11  0.3141E+00
      4.422  0.4908E-04  0.3141E+00
      4.547  0.2026E-01  0.3166E+00
      4.671  0.1074E-01  0.3180E+00
      4.796  0.2641E-05  0.3180E+00
      4.920  0.1063E-13  0.3180E+00
      5.045  0.4287E-11  0.3180E+00
      5.169  0.3921E-04  0.3180E+00
      5.294  0.6394E-02  0.3188E+00
      5.418  0.1330E-02  0.3189E+00
      5.543  0.3799E-02  0.3194E+00
      5.667  0.2814E-01  0.3229E+00
      5.792  0.2891E-01  0.3265E+00
      5.916  0.1261E-02  0.3267E+00
      6.041  0.2179E-08  0.3267E+00
      6.165  0.1219E-12  0.3267E+00
      6.290  0.7045E-05  0.3267E+00
      6.414  0.5087E-02  0.3273E+00
      6.539  0.2669E-02  0.3276E+00
      6.663  0.5672E-05  0.3276E+00
      6.788  0.1481E-01  0.3295E+00
      6.912  0.3128E-01  0.3334E+00
      7.037  0.5877E-01  0.3407E+00
      7.161  0.1411E-01  0.3425E+00
      7.286  0.1249E-01  0.3440E+00
      7.410  0.3106E-02  0.3444E+00
      7.535  0.5123E-02  0.3450E+00
      7.659  0.2633E-02  0.3454E+00
      7.784  0.8283E-03  0.3455E+00
      7.908  0.7411E-02  0.3464E+00
      8.033  0.9864E-02  0.3476E+00
      8.157  0.1168E-04  0.3476E+00
      8.282  0.1674E-12  0.3476E+00
      8.406  0.0000E+00  0.3476E+00
      8.531  0.3529E-09  0.3476E+00
      8.655  0.5992E-03  0.3477E+00
      8.780  0.3233E-01  0.3517E+00
      8.904  0.2040E-01  0.3543E+00
      9.029  0.4774E-02  0.3548E+00
      9.153  0.1334E-01  0.3565E+00
      9.277  0.2221E-01  0.3593E+00
      9.402  0.1915E-01  0.3617E+00
      9.526  0.1659E-01  0.3637E+00
      9.651  0.2927E-01  0.3674E+00
      9.775  0.9120E-01  0.3787E+00
      9.900  0.1724E-01  0.3809E+00
     10.024  0.1754E-01  0.3831E+00
     10.149  0.1899E-01  0.3854E+00
     10.273  0.4365E-01  0.3909E+00
     10.398  0.7255E-01  0.3999E+00
     10.522  0.3760E-01  0.4046E+00
     10.647  0.5736E-01  0.4117E+00
     10.771  0.3388E-01  0.4159E+00
     10.896  0.4368E-01  0.4214E+00
     11.020  0.3882E-01  0.4262E+00
     11.145  0.2095E-01  0.4288E+00
     11.269  0.2371E-01  0.4318E+00
     11.394  0.5727E-01  0.4389E+00
     11.518  0.2810E-01  0.4424E+00
     11.643  0.1879E-01  0.4447E+00
     11.767  0.5141E-01  0.4511E+00
     11.892  0.2141E-01  0.4538E+00
     12.016  0.5476E-01  0.4606E+00
     12.141  0.3191E-01  0.4646E+00
     12.265  0.3315E-01  0.4687E+00
     12.390  0.2960E-02  0.4691E+00
     12.514  0.5119E-03  0.4691E+00
     12.639  0.3100E-01  0.4730E+00
     12.763  0.7300E-02  0.4739E+00
     12.888  0.3551E-02  0.4743E+00
     13.012  0.2782E-01  0.4778E+00
     13.137  0.3206E-01  0.4818E+00
     13.261  0.4849E-01  0.4878E+00
     13.386  0.1607E-01  0.4898E+00
     13.510  0.1538E-02  0.4900E+00
     13.635  0.1346E-01  0.4917E+00
     13.759  0.1432E-01  0.4935E+00
     13.884  0.3143E-02  0.4939E+00
     14.008  0.1659E-02  0.4941E+00
     14.133  0.9266E-03  0.4942E+00
     14.257  0.1325E-06  0.4942E+00
     14.382  0.4107E-08  0.4942E+00
     14.506  0.5201E-03  0.4943E+00
     14.631  0.4591E-02  0.4948E+00
     14.755  0.6452E-04  0.4948E+00
     14.880  0.2131E-10  0.4948E+00
     15.004  0.0000E+00  0.4948E+00
     15.129  0.0000E+00  0.4948E+00
     15.253  0.0000E+00  0.4948E+00
     15.378  0.0000E+00  0.4948E+00
     15.502  0.0000E+00  0.4948E+00
     15.627  0.0000E+00  0.4948E+00
     15.751  0.0000E+00  0.4948E+00
     15.876  0.0000E+00  0.4948E+00
     16.000  0.0000E+00  0.4948E+00
     16.125  0.0000E+00  0.4948E+00
     16.249  0.0000E+00  0.4948E+00
