       N       E                     dE             d eps       ncg     rms          rms(c)
DAV:   1     0.634126683545E+02    0.63413E+02   -0.12842E+04   640   0.671E+02
DAV:   2    -0.190170289810E+02   -0.82430E+02   -0.82174E+02   992   0.979E+01
DAV:   3    -0.204114697268E+02   -0.13944E+01   -0.13884E+01   672   0.169E+01
DAV:   4    -0.204177605252E+02   -0.62908E-02   -0.62904E-02  1248   0.132E+00
DAV:   5    -0.204177618602E+02   -0.13351E-05   -0.13352E-05   640   0.163E-02    0.106E+01
DAV:   6    -0.199831390845E+02    0.43462E+00   -0.12769E+00   928   0.259E+00    0.734E+00
DAV:   7    -0.199667122883E+02    0.16427E-01   -0.26425E-01   896   0.127E+00    0.276E+00
DAV:   8    -0.199810325357E+02   -0.14320E-01   -0.28335E-01   992   0.106E+00    0.858E-01
DAV:   9    -0.199565338409E+02    0.24499E-01   -0.33848E-02   832   0.438E-01    0.364E-01
DAV:  10    -0.199535894189E+02    0.29444E-02   -0.14777E-02   928   0.292E-01    0.126E-01
DAV:  11    -0.199535854177E+02    0.40012E-05   -0.42201E-04   640   0.943E-02    0.103E-01
DAV:  12    -0.199534407038E+02    0.14471E-03   -0.10056E-04  1088   0.286E-02    0.591E-02
DAV:  13    -0.199533495592E+02    0.91145E-04   -0.16697E-04   832   0.288E-02    0.827E-03
DAV:  14    -0.199533482554E+02    0.13038E-05   -0.10596E-05  1088   0.104E-02    0.537E-03
DAV:  15    -0.199533483398E+02   -0.84399E-07   -0.10959E-07   640   0.151E-03
   1 F= -.19953348E+02 E0= -.19939755E+02  d E =-.271875E-01
 Found     4 degrees of freedom:
 Adding 6 more for cell shape distortion
       N       E                     dE             d eps       ncg     rms          rms(c)
DAV:   1    -0.201198298584E+02   -0.16648E+00   -0.68209E+00  1280   0.120E+01    0.285E+00
DAV:   2    -0.200615598599E+02    0.58270E-01   -0.14149E+00  1824   0.311E+00    0.244E+00
DAV:   3    -0.199610875608E+02    0.10047E+00   -0.54172E-01  1664   0.142E+00    0.124E+00
DAV:   4    -0.199391399284E+02    0.21948E-01   -0.18897E-01  1760   0.113E+00    0.840E-01
DAV:   5    -0.199315859383E+02    0.75540E-02   -0.44162E-02  1792   0.390E-01    0.279E-01
DAV:   6    -0.199325399995E+02   -0.95406E-03   -0.14869E-02  1728   0.199E-01    0.367E-01
DAV:   7    -0.199310674608E+02    0.14725E-02   -0.85046E-03  1920   0.143E-01    0.595E-02
DAV:   8    -0.199310357028E+02    0.31758E-04   -0.22387E-04  1312   0.447E-02    0.170E-02
DAV:   9    -0.199310357606E+02   -0.57791E-07   -0.59728E-06  1792   0.966E-03
   2 F= -.19931036E+02 E0= -.19920151E+02  d E =-.217689E-01
       N       E                     dE             d eps       ncg     rms          rms(c)
DAV:   1    -0.199971674032E+02   -0.66132E-01   -0.36477E+00  1408   0.749E+00    0.170E+00
DAV:   2    -0.200560418558E+02   -0.58874E-01   -0.14332E+00  1760   0.221E+00    0.186E+00
DAV:   3    -0.199556930052E+02    0.10035E+00   -0.30783E-01  1760   0.105E+00    0.729E-01
DAV:   4    -0.199508787134E+02    0.48143E-02   -0.61934E-02  1856   0.512E-01    0.492E-01
DAV:   5    -0.199472377623E+02    0.36410E-02   -0.10091E-02  1600   0.323E-01    0.133E-01
DAV:   6    -0.199472137337E+02    0.24029E-04   -0.37286E-04  1472   0.793E-02    0.102E-01
DAV:   7    -0.199472323280E+02   -0.18594E-04   -0.35229E-04  1856   0.364E-02    0.643E-02
DAV:   8    -0.199472059848E+02    0.26343E-04   -0.41165E-04  1824   0.272E-02    0.368E-02
DAV:   9    -0.199471928489E+02    0.13136E-04   -0.57736E-05  1792   0.131E-02    0.319E-03
DAV:  10    -0.199471929830E+02   -0.13418E-06   -0.90969E-07   992   0.423E-03
   3 F= -.19947193E+02 E0= -.19934467E+02  d E =-.254519E-01
       N       E                     dE             d eps       ncg     rms          rms(c)
DAV:   1    -0.201482717666E+02   -0.20108E+00   -0.57929E+00  1248   0.107E+01    0.322E+00
DAV:   2    -0.201242476077E+02    0.24024E-01   -0.29397E+00  1888   0.344E+00    0.234E+00
DAV:   3    -0.199747282651E+02    0.14952E+00   -0.53034E-01  1696   0.154E+00    0.114E+00
DAV:   4    -0.199600516118E+02    0.14677E-01   -0.11872E-01  1952   0.872E-01    0.825E-01
DAV:   5    -0.199490384598E+02    0.11013E-01   -0.52526E-02  1568   0.568E-01    0.328E-01
DAV:   6    -0.199486302856E+02    0.40817E-03   -0.39648E-03  1472   0.185E-01    0.186E-01
DAV:   7    -0.199490943885E+02   -0.46410E-03   -0.45945E-03  1856   0.950E-02    0.240E-01
DAV:   8    -0.199485152336E+02    0.57915E-03   -0.28955E-03  1792   0.854E-02    0.260E-02
DAV:   9    -0.199485132947E+02    0.19389E-05   -0.50005E-05  1440   0.239E-02    0.162E-02
DAV:  10    -0.199485130899E+02    0.20478E-06   -0.19062E-06  1408   0.532E-03
   4 F= -.19948513E+02 E0= -.19935707E+02  d E =-.256117E-01
       N       E                     dE             d eps       ncg     rms          rms(c)
DAV:   1    -0.199783157417E+02   -0.29802E-01   -0.42138E+00  1536   0.822E+00    0.178E+00
DAV:   2    -0.199948257380E+02   -0.16510E-01   -0.86373E-01  1856   0.207E+00    0.140E+00
DAV:   3    -0.199399923822E+02    0.54833E-01   -0.17655E-01  1728   0.922E-01    0.645E-01
DAV:   4    -0.199350642475E+02    0.49281E-02   -0.37093E-02  1984   0.510E-01    0.425E-01
DAV:   5    -0.199319147145E+02    0.31495E-02   -0.88471E-03  1408   0.294E-01    0.148E-01
DAV:   6    -0.199318959922E+02    0.18722E-04   -0.33424E-04  1696   0.923E-02    0.911E-02
DAV:   7    -0.199318845455E+02    0.11447E-04   -0.43773E-05  1728   0.186E-02    0.286E-02
DAV:   8    -0.199318851013E+02   -0.55584E-06   -0.15333E-05  1792   0.104E-02    0.946E-03
DAV:   9    -0.199318845595E+02    0.54184E-06   -0.16661E-06  1280   0.394E-03
   5 F= -.19931885E+02 E0= -.19921503E+02  d E =-.207631E-01
       N       E                     dE             d eps       ncg     rms          rms(c)
DAV:   1    -0.204487803782E+02   -0.51690E+00   -0.16916E+01  1248   0.206E+01    0.431E+00
DAV:   2    -0.201467389689E+02    0.30204E+00   -0.16113E+00  1856   0.435E+00    0.275E+00
DAV:   3    -0.200668038136E+02    0.79935E-01   -0.97816E-01  1568   0.183E+00    0.196E+00
DAV:   4    -0.199647696481E+02    0.10203E+00   -0.36799E-01  1792   0.149E+00    0.667E-01
DAV:   5    -0.199455149884E+02    0.19255E-01   -0.34762E-02  1472   0.542E-01    0.415E-01
DAV:   6    -0.199414563685E+02    0.40586E-02   -0.17528E-03  1696   0.176E-01    0.297E-01
DAV:   7    -0.199330975555E+02    0.83588E-02   -0.42626E-03  1856   0.179E-01    0.592E-02
DAV:   8    -0.199327673432E+02    0.33021E-03   -0.35938E-04  1632   0.666E-02    0.300E-02
DAV:   9    -0.199322165404E+02    0.55080E-03   -0.68884E-05  1824   0.161E-02    0.197E-02
DAV:  10    -0.199312886652E+02    0.92788E-03   -0.15155E-04  1824   0.172E-02    0.132E-02
DAV:  11    -0.199311786983E+02    0.10997E-03   -0.12912E-05  1856   0.814E-03    0.488E-03
DAV:  12    -0.199310548297E+02    0.12387E-03   -0.28448E-06  1184   0.322E-03    0.189E-03
DAV:  13    -0.199310445639E+02    0.10266E-04   -0.13702E-07   608   0.133E-03    0.822E-04
DAV:  14    -0.199310394408E+02    0.51232E-05   -0.19049E-08   672   0.433E-04    0.394E-04
DAV:  15    -0.199310373091E+02    0.21316E-05   -0.52518E-09   608   0.194E-04    0.141E-04
DAV:  16    -0.199310367669E+02    0.54221E-06   -0.96958E-10   672   0.987E-05
   6 F= -.19931037E+02 E0= -.19920157E+02  d E =-.217591E-01
       N       E                     dE             d eps       ncg     rms          rms(c)
DAV:   1    -0.199984004524E+02   -0.67363E-01   -0.31748E+00  1472   0.713E+00    0.173E+00
DAV:   2    -0.200548304541E+02   -0.56430E-01   -0.13968E+00  1696   0.213E+00    0.185E+00
DAV:   3    -0.199555272299E+02    0.99303E-01   -0.30466E-01  1760   0.103E+00    0.704E-01
DAV:   4    -0.199508498902E+02    0.46773E-02   -0.60723E-02  1824   0.509E-01    0.479E-01
DAV:   5    -0.199472387016E+02    0.36112E-02   -0.97822E-03  1568   0.316E-01    0.134E-01
DAV:   6    -0.199472155384E+02    0.23163E-04   -0.42329E-04  1440   0.821E-02    0.103E-01
DAV:   7    -0.199472349150E+02   -0.19377E-04   -0.41044E-04  1888   0.364E-02    0.656E-02
DAV:   8    -0.199472068894E+02    0.28026E-04   -0.43543E-04  1792   0.279E-02    0.379E-02
DAV:   9    -0.199471928257E+02    0.14064E-04   -0.54757E-05  1792   0.131E-02    0.425E-03
DAV:  10    -0.199471929678E+02   -0.14204E-06   -0.71770E-07   864   0.396E-03
   7 F= -.19947193E+02 E0= -.19934467E+02  d E =-.254518E-01
       N       E                     dE             d eps       ncg     rms          rms(c)
DAV:   1    -0.201479223535E+02   -0.20073E+00   -0.60723E+00  1280   0.110E+01    0.325E+00
DAV:   2    -0.201237917718E+02    0.24131E-01   -0.29333E+00  1824   0.344E+00    0.234E+00
DAV:   3    -0.199746267218E+02    0.14917E+00   -0.52930E-01  1632   0.154E+00    0.114E+00
DAV:   4    -0.199600812545E+02    0.14545E-01   -0.11960E-01  1920   0.878E-01    0.823E-01
DAV:   5    -0.199490619786E+02    0.11019E-01   -0.52928E-02  1568   0.566E-01    0.331E-01
DAV:   6    -0.199486642172E+02    0.39776E-03   -0.45644E-03  1536   0.189E-01    0.190E-01
DAV:   7    -0.199491103938E+02   -0.44618E-03   -0.53291E-03  1792   0.101E-01    0.242E-01
DAV:   8    -0.199485112905E+02    0.59910E-03   -0.27505E-03  1824   0.837E-02    0.204E-02
DAV:   9    -0.199485134621E+02   -0.21716E-05   -0.39415E-05  1280   0.238E-02    0.153E-02
DAV:  10    -0.199485132492E+02    0.21292E-06   -0.12965E-06  1696   0.440E-03
   8 F= -.19948513E+02 E0= -.19935709E+02  d E =-.256083E-01
       N       E                     dE             d eps       ncg     rms          rms(c)
DAV:   1    -0.199794465780E+02   -0.30933E-01   -0.36406E+00  1536   0.762E+00    0.175E+00
DAV:   2    -0.199951838833E+02   -0.15737E-01   -0.85901E-01  1888   0.204E+00    0.141E+00
DAV:   3    -0.199400472766E+02    0.55137E-01   -0.17584E-01  1664   0.911E-01    0.652E-01
DAV:   4    -0.199350650733E+02    0.49822E-02   -0.37743E-02  1984   0.509E-01    0.432E-01
DAV:   5    -0.199319088440E+02    0.31562E-02   -0.88817E-03  1376   0.299E-01    0.142E-01
DAV:   6    -0.199319006864E+02    0.81576E-05   -0.34251E-04  1664   0.902E-02    0.993E-02
DAV:   7    -0.199318917101E+02    0.89763E-05   -0.99794E-05  1664   0.245E-02    0.369E-02
DAV:   8    -0.199318869508E+02    0.47593E-05   -0.58475E-05  1728   0.176E-02    0.158E-02
DAV:   9    -0.199318845614E+02    0.23894E-05   -0.62639E-06  1696   0.699E-03    0.358E-03
DAV:  10    -0.199318845092E+02    0.52227E-07   -0.33252E-07   832   0.227E-03
   9 F= -.19931885E+02 E0= -.19921501E+02  d E =-.207676E-01
       N       E                     dE             d eps       ncg     rms          rms(c)
DAV:   1    -0.203526704971E+02   -0.42079E+00   -0.15193E+01  1280   0.199E+01    0.446E+00
DAV:   2    -0.200731058049E+02    0.27956E+00   -0.16181E+00  1664   0.419E+00    0.270E+00
DAV:   3    -0.200106761265E+02    0.62430E-01   -0.11271E+00  1568   0.190E+00    0.193E+00
DAV:   4    -0.199277760346E+02    0.82900E-01   -0.30630E-01  1920   0.145E+00    0.590E-01
DAV:   5    -0.199238754452E+02    0.39006E-02   -0.29293E-02  1440   0.537E-01    0.437E-01
DAV:   6    -0.199250123706E+02   -0.11369E-02   -0.19668E-03  2048   0.186E-01    0.274E-01
DAV:   7    -0.199291895596E+02   -0.41772E-02   -0.36586E-03  1856   0.147E-01    0.461E-02
DAV:   8    -0.199294865513E+02   -0.29699E-03   -0.31730E-04  1664   0.643E-02    0.294E-02
DAV:   9    -0.199303899437E+02   -0.90339E-03   -0.27202E-04  1888   0.259E-02    0.308E-02
DAV:  10    -0.199308402765E+02   -0.45033E-03   -0.56706E-05  1728   0.130E-02    0.869E-03
DAV:  11    -0.199309061344E+02   -0.65858E-04   -0.19604E-06  1344   0.592E-03    0.561E-03
DAV:  12    -0.199310068116E+02   -0.10068E-03   -0.28141E-06  1568   0.250E-03    0.244E-03
DAV:  13    -0.199310335848E+02   -0.26773E-04   -0.40503E-07   704   0.123E-03    0.386E-04
DAV:  14    -0.199310363298E+02   -0.27450E-05   -0.27942E-08   672   0.490E-04    0.433E-04
DAV:  15    -0.199310361735E+02    0.15631E-06   -0.83537E-09   608   0.208E-04
  10 F= -.19931036E+02 E0= -.19920157E+02  d E =-.217591E-01
       N       E                     dE             d eps       ncg     rms          rms(c)
DAV:   1    -0.199984365663E+02   -0.67400E-01   -0.34920E+00  1536   0.753E+00    0.173E+00
DAV:   2    -0.200549523706E+02   -0.56516E-01   -0.14046E+00  1568   0.215E+00    0.185E+00
DAV:   3    -0.199555465792E+02    0.99406E-01   -0.30712E-01  1856   0.105E+00    0.707E-01
DAV:   4    -0.199508228781E+02    0.47237E-02   -0.60743E-02  1696   0.505E-01    0.473E-01
DAV:   5    -0.199472364365E+02    0.35864E-02   -0.98391E-03  1504   0.317E-01    0.135E-01
DAV:   6    -0.199472170063E+02    0.19430E-04   -0.42795E-04  1536   0.813E-02    0.110E-01
DAV:   7    -0.199472242385E+02   -0.72323E-05   -0.35091E-04  1856   0.356E-02    0.612E-02
DAV:   8    -0.199472120903E+02    0.12148E-04   -0.41288E-04  1728   0.278E-02    0.436E-02
DAV:   9    -0.199471927911E+02    0.19299E-04   -0.78085E-05  1696   0.147E-02    0.352E-03
DAV:  10    -0.199471929723E+02   -0.18121E-06   -0.94149E-07  1088   0.444E-03
  11 F= -.19947193E+02 E0= -.19934467E+02  d E =-.254516E-01
       N       E                     dE             d eps       ncg     rms          rms(c)
DAV:   1    -0.201492653964E+02   -0.20207E+00   -0.54899E+00  1248   0.107E+01    0.325E+00
DAV:   2    -0.201241032192E+02    0.25162E-01   -0.29333E+00  1792   0.342E+00    0.234E+00
DAV:   3    -0.199745157975E+02    0.14959E+00   -0.53050E-01  1568   0.154E+00    0.113E+00
DAV:   4    -0.199600541693E+02    0.14462E-01   -0.11960E-01  1856   0.877E-01    0.818E-01
DAV:   5    -0.199490642475E+02    0.10990E-01   -0.53284E-02  1536   0.568E-01    0.335E-01
DAV:   6    -0.199486634014E+02    0.40085E-03   -0.46389E-03  1568   0.192E-01    0.191E-01
DAV:   7    -0.199491095506E+02   -0.44615E-03   -0.53389E-03  1760   0.101E-01    0.243E-01
DAV:   8    -0.199485127465E+02    0.59680E-03   -0.28510E-03  1824   0.844E-02    0.233E-02
DAV:   9    -0.199485137678E+02   -0.10213E-05   -0.49288E-05  1312   0.244E-02    0.165E-02
DAV:  10    -0.199485133849E+02    0.38288E-06   -0.18300E-06  1632   0.526E-03
  12 F= -.19948513E+02 E0= -.19935710E+02  d E =-.256058E-01
       N       E                     dE             d eps       ncg     rms          rms(c)
DAV:   1    -0.199780611579E+02   -0.29547E-01   -0.43644E+00  1408   0.819E+00    0.177E+00
DAV:   2    -0.199947218248E+02   -0.16661E-01   -0.86464E-01  1920   0.209E+00    0.141E+00
DAV:   3    -0.199399144521E+02    0.54807E-01   -0.17582E-01  1728   0.912E-01    0.642E-01
DAV:   4    -0.199350238009E+02    0.48907E-02   -0.36689E-02  1952   0.508E-01    0.427E-01
DAV:   5    -0.199319144072E+02    0.31094E-02   -0.86814E-03  1408   0.292E-01    0.144E-01
DAV:   6    -0.199318987716E+02    0.15636E-04   -0.33027E-04  1600   0.898E-02    0.946E-02
DAV:   7    -0.199318889610E+02    0.98105E-05   -0.84347E-05  1728   0.231E-02    0.304E-02
DAV:   8    -0.199318860419E+02    0.29191E-05   -0.39390E-05  1696   0.143E-02    0.127E-02
DAV:   9    -0.199318845594E+02    0.14825E-05   -0.35701E-06  1376   0.553E-03    0.406E-03
DAV:  10    -0.199318845368E+02    0.22548E-07   -0.31713E-07   864   0.211E-03
  13 F= -.19931885E+02 E0= -.19921502E+02  d E =-.207658E-01
       N       E                     dE             d eps       ncg     rms          rms(c)
DAV:   1    -0.201676291034E+02   -0.23574E+00   -0.87520E+00  2272   0.133E+01    0.307E+00
DAV:   2    -0.200622944444E+02    0.10533E+00   -0.12950E+00  3072   0.319E+00    0.213E+00
DAV:   3    -0.199964800965E+02    0.65814E-01   -0.45741E-01  2976   0.139E+00    0.113E+00
DAV:   4    -0.199737188596E+02    0.22761E-01   -0.73401E-02  2912   0.914E-01    0.421E-01
DAV:   5    -0.199729875518E+02    0.73131E-03   -0.19708E-02  2944   0.307E-01    0.424E-01
DAV:   6    -0.199714241596E+02    0.15634E-02   -0.88152E-03  2944   0.154E-01    0.242E-01
DAV:   7    -0.199712239847E+02    0.20017E-03   -0.49807E-04  2784   0.911E-02    0.110E-01
DAV:   8    -0.199711880968E+02    0.35888E-04   -0.74264E-05  3008   0.350E-02    0.245E-02
DAV:   9    -0.199711880450E+02    0.51788E-07   -0.64739E-06  2880   0.881E-03
  14 F= -.19971188E+02 E0= -.19960820E+02  d E =-.207370E-01
       N       E                     dE             d eps       ncg     rms          rms(c)
DAV:   1    -0.199655546120E+02    0.56335E-02   -0.22964E+00  2560   0.561E+00    0.621E-01
DAV:   2    -0.199633255635E+02    0.22290E-02   -0.50023E-02  2944   0.851E-01    0.406E-01
DAV:   3    -0.199621748667E+02    0.11507E-02   -0.16825E-02  3104   0.245E-01    0.344E-01
DAV:   4    -0.199606964694E+02    0.14784E-02   -0.89019E-03  2752   0.178E-01    0.190E-01
DAV:   5    -0.199603696530E+02    0.32682E-03   -0.26027E-03  3136   0.869E-02    0.874E-02
DAV:   6    -0.199603046698E+02    0.64983E-04   -0.22366E-04  2848   0.442E-02    0.215E-02
DAV:   7    -0.199603022275E+02    0.24422E-05   -0.18005E-05  2944   0.132E-02    0.589E-03
DAV:   8    -0.199603024631E+02   -0.23552E-06   -0.16032E-06  2816   0.459E-03
  15 F= -.19960302E+02 E0= -.19948548E+02  d E =-.235086E-01
       N       E                     dE             d eps       ncg     rms          rms(c)
DAV:   1    -0.199839477053E+02   -0.23645E-01   -0.15509E+00  2624   0.437E+00    0.114E+00
DAV:   2    -0.199679663988E+02    0.15981E-01   -0.42573E-02  2976   0.734E-01    0.684E-01
DAV:   3    -0.199676138475E+02    0.35255E-03   -0.54336E-02  3104   0.412E-01    0.700E-01
DAV:   4    -0.199603982520E+02    0.72156E-02   -0.29808E-02  2752   0.308E-01    0.173E-01
DAV:   5    -0.199602942953E+02    0.10396E-03   -0.71914E-04  2624   0.112E-01    0.492E-02
DAV:   6    -0.199603036284E+02   -0.93331E-05   -0.68740E-05  2976   0.223E-02    0.281E-02
DAV:   7    -0.199603023993E+02    0.12291E-05   -0.83543E-05  3104   0.131E-02    0.204E-02
DAV:   8    -0.199603018361E+02    0.56322E-06   -0.20909E-05  2912   0.944E-03    0.476E-03
DAV:   9    -0.199603023458E+02   -0.50976E-06   -0.10469E-06  2720   0.376E-03
  16 F= -.19960302E+02 E0= -.19948550E+02  d E =-.235042E-01
       N       E                     dE             d eps       ncg     rms          rms(c)
DAV:   1    -0.199753456362E+02   -0.15044E-01   -0.24150E+00  2304   0.581E+00    0.581E-01
DAV:   2    -0.199735952291E+02    0.17504E-02   -0.45206E-02  3136   0.871E-01    0.347E-01
DAV:   3    -0.199727338107E+02    0.86142E-03   -0.12568E-02  2528   0.217E-01    0.310E-01
DAV:   4    -0.199718002873E+02    0.93352E-03   -0.11594E-02  3328   0.178E-01    0.219E-01
DAV:   5    -0.199712210137E+02    0.57927E-03   -0.29826E-03  2848   0.975E-02    0.684E-02
DAV:   6    -0.199711931770E+02    0.27837E-04   -0.11701E-04  2528   0.377E-02    0.312E-02
DAV:   7    -0.199711889243E+02    0.42527E-05   -0.10258E-05  3040   0.138E-02    0.714E-03
DAV:   8    -0.199711889545E+02   -0.30169E-07   -0.18570E-06  2432   0.497E-03
  17 F= -.19971189E+02 E0= -.19960819E+02  d E =-.207391E-01
       N       E                     dE             d eps       ncg     rms          rms(c)
DAV:   1    -0.200192125931E+02   -0.48024E-01   -0.55736E+00  2560   0.916E+00    0.156E+00
DAV:   2    -0.200030286632E+02    0.16184E-01   -0.28592E-01  3104   0.154E+00    0.134E+00
DAV:   3    -0.199859753804E+02    0.17053E-01   -0.20197E-01  2624   0.660E-01    0.932E-01
DAV:   4    -0.199770804591E+02    0.88949E-02   -0.81971E-02  3168   0.520E-01    0.579E-01
DAV:   5    -0.199710868812E+02    0.59936E-02   -0.20980E-02  2784   0.348E-01    0.153E-01
DAV:   6    -0.199710466277E+02    0.40253E-04   -0.17496E-03  2912   0.127E-01    0.528E-02
DAV:   7    -0.199711369841E+02   -0.90356E-04   -0.18927E-04  2816   0.423E-02    0.230E-02
DAV:   8    -0.199711568475E+02   -0.19863E-04   -0.15194E-05  2944   0.131E-02    0.119E-02
DAV:   9    -0.199711842696E+02   -0.27422E-04   -0.88024E-06  2816   0.819E-03    0.367E-03
DAV:  10    -0.199711861873E+02   -0.19177E-05   -0.10522E-06  2752   0.258E-03    0.145E-03
DAV:  11    -0.199711889700E+02   -0.27827E-05   -0.15302E-07  2144   0.134E-03    0.412E-04
DAV:  12    -0.199711890238E+02   -0.53881E-07   -0.61204E-09  2208   0.351E-04
  18 F= -.19971189E+02 E0= -.19960820E+02  d E =-.207381E-01
       N       E                     dE             d eps       ncg     rms          rms(c)
DAV:   1    -0.199658881109E+02    0.53009E-02   -0.18436E+00  2432   0.533E+00    0.620E-01
DAV:   2    -0.199633127490E+02    0.25754E-02   -0.45812E-02  3040   0.812E-01    0.404E-01
DAV:   3    -0.199621733095E+02    0.11394E-02   -0.16632E-02  2816   0.246E-01    0.344E-01
DAV:   4    -0.199607031777E+02    0.14701E-02   -0.90471E-03  3008   0.180E-01    0.192E-01
DAV:   5    -0.199603681520E+02    0.33503E-03   -0.26107E-03  3008   0.862E-02    0.868E-02
DAV:   6    -0.199603045477E+02    0.63604E-04   -0.22189E-04  3136   0.439E-02    0.219E-02
DAV:   7    -0.199603022101E+02    0.23376E-05   -0.18218E-05  2784   0.132E-02    0.572E-03
DAV:   8    -0.199603024664E+02   -0.25633E-06   -0.15895E-06  2944   0.464E-03
  19 F= -.19960302E+02 E0= -.19948549E+02  d E =-.235076E-01
       N       E                     dE             d eps       ncg     rms          rms(c)
DAV:   1    -0.199837670442E+02   -0.23465E-01   -0.16765E+00  2528   0.477E+00    0.114E+00
DAV:   2    -0.199679543047E+02    0.15813E-01   -0.43775E-02  2848   0.787E-01    0.683E-01
DAV:   3    -0.199675984148E+02    0.35589E-03   -0.54142E-02  3168   0.413E-01    0.699E-01
DAV:   4    -0.199604023212E+02    0.71961E-02   -0.29896E-02  2944   0.308E-01    0.173E-01
DAV:   5    -0.199602937681E+02    0.10855E-03   -0.68931E-04  2432   0.110E-01    0.482E-02
DAV:   6    -0.199602986985E+02   -0.49304E-05   -0.31016E-05  3296   0.209E-02    0.184E-02
DAV:   7    -0.199603047423E+02   -0.60438E-05   -0.36733E-05  2880   0.107E-02    0.193E-02
DAV:   8    -0.199603020076E+02    0.27347E-05   -0.28357E-05  3200   0.783E-03    0.546E-03
DAV:   9    -0.199603023474E+02   -0.33979E-06   -0.15525E-06  2496   0.356E-03
  20 F= -.19960302E+02 E0= -.19948550E+02  d E =-.235042E-01
       N       E                     dE             d eps       ncg     rms          rms(c)
DAV:   1    -0.199758213098E+02   -0.15519E-01   -0.20838E+00  2336   0.550E+00    0.581E-01
DAV:   2    -0.199735793100E+02    0.22420E-02   -0.40851E-02  3136   0.829E-01    0.346E-01
DAV:   3    -0.199727456020E+02    0.83371E-03   -0.12651E-02  2912   0.215E-01    0.312E-01
DAV:   4    -0.199717935895E+02    0.95201E-03   -0.11595E-02  3264   0.176E-01    0.217E-01
DAV:   5    -0.199712203094E+02    0.57328E-03   -0.29327E-03  2816   0.969E-02    0.683E-02
DAV:   6    -0.199711928630E+02    0.27446E-04   -0.11608E-04  2592   0.378E-02    0.300E-02
DAV:   7    -0.199711889425E+02    0.39205E-05   -0.99896E-06  3040   0.137E-02    0.716E-03
DAV:   8    -0.199711889674E+02   -0.24921E-07   -0.19619E-06  2656   0.493E-03
  21 F= -.19971189E+02 E0= -.19960819E+02  d E =-.207391E-01
       N       E                     dE             d eps       ncg     rms          rms(c)
DAV:   1    -0.200187953442E+02   -0.47606E-01   -0.51137E+00  2496   0.851E+00    0.157E+00
DAV:   2    -0.200051592338E+02    0.13636E-01   -0.31583E-01  3136   0.154E+00    0.141E+00
DAV:   3    -0.199848256300E+02    0.20334E-01   -0.21555E-01  2752   0.672E-01    0.915E-01
DAV:   4    -0.199766739036E+02    0.81517E-02   -0.80337E-02  3200   0.521E-01    0.579E-01
DAV:   5    -0.199710171700E+02    0.56567E-02   -0.20156E-02  3136   0.342E-01    0.160E-01
DAV:   6    -0.199710313133E+02   -0.14143E-04   -0.20749E-03  2912   0.131E-01    0.623E-02
DAV:   7    -0.199711313899E+02   -0.10008E-03   -0.25210E-04  2880   0.452E-02    0.247E-02
DAV:   8    -0.199711510303E+02   -0.19640E-04   -0.18903E-05  3008   0.137E-02    0.129E-02
DAV:   9    -0.199711846423E+02   -0.33612E-04   -0.10202E-05  2912   0.881E-03    0.464E-03
DAV:  10    -0.199711855597E+02   -0.91745E-06   -0.13284E-06  2560   0.273E-03
  22 F= -.19971186E+02 E0= -.19960817E+02  d E =-.207379E-01
       N       E                     dE             d eps       ncg     rms          rms(c)
DAV:   1    -0.199656760416E+02    0.55086E-02   -0.18515E+00  2208   0.537E+00    0.618E-01
DAV:   2    -0.199633287379E+02    0.23473E-02   -0.47883E-02  3424   0.842E-01    0.405E-01
DAV:   3    -0.199621756915E+02    0.11530E-02   -0.16631E-02  2720   0.243E-01    0.343E-01
DAV:   4    -0.199607103025E+02    0.14654E-02   -0.90987E-03  3072   0.180E-01    0.193E-01
DAV:   5    -0.199603656940E+02    0.34461E-03   -0.26208E-03  2816   0.864E-02    0.856E-02
DAV:   6    -0.199603045574E+02    0.61137E-04   -0.21680E-04  3040   0.440E-02    0.216E-02
DAV:   7    -0.199603022519E+02    0.23055E-05   -0.18912E-05  2752   0.132E-02    0.567E-03
DAV:   8    -0.199603024580E+02   -0.20612E-06   -0.16985E-06  2944   0.464E-03
  23 F= -.19960302E+02 E0= -.19948548E+02  d E =-.235095E-01
       N       E                     dE             d eps       ncg     rms          rms(c)
DAV:   1    -0.199834201880E+02   -0.23118E-01   -0.16701E+00  2304   0.477E+00    0.114E+00
DAV:   2    -0.199680092598E+02    0.15411E-01   -0.46241E-02  3264   0.817E-01    0.684E-01
DAV:   3    -0.199676011208E+02    0.40814E-03   -0.54025E-02  2976   0.411E-01    0.699E-01
DAV:   4    -0.199603976047E+02    0.72035E-02   -0.29810E-02  2816   0.309E-01    0.171E-01
DAV:   5    -0.199602971154E+02    0.10049E-03   -0.73577E-04  2656   0.110E-01    0.523E-02
DAV:   6    -0.199603278229E+02   -0.30707E-04   -0.26867E-04  3136   0.297E-02    0.535E-02
DAV:   7    -0.199602995898E+02    0.28233E-04   -0.19749E-04  3008   0.198E-02    0.160E-02
DAV:   8    -0.199603017715E+02   -0.21817E-05   -0.98884E-06  2944   0.102E-02    0.510E-03
DAV:   9    -0.199603023250E+02   -0.55351E-06   -0.86734E-07  2816   0.326E-03
  24 F= -.19960302E+02 E0= -.19948550E+02  d E =-.235043E-01
       N       E                     dE             d eps       ncg     rms          rms(c)
DAV:   1    -0.199759737944E+02   -0.15672E-01   -0.20723E+00  2368   0.544E+00    0.582E-01
DAV:   2    -0.199735693781E+02    0.24044E-02   -0.39434E-02  3104   0.817E-01    0.346E-01
DAV:   3    -0.199727341686E+02    0.83521E-03   -0.12571E-02  2784   0.216E-01    0.310E-01
DAV:   4    -0.199717888232E+02    0.94535E-03   -0.11493E-02  3264   0.175E-01    0.217E-01
DAV:   5    -0.199712203115E+02    0.56851E-03   -0.29159E-03  2848   0.966E-02    0.685E-02
DAV:   6    -0.199711927719E+02    0.27540E-04   -0.11450E-04  2688   0.375E-02    0.297E-02
DAV:   7    -0.199711889483E+02    0.38236E-05   -0.97545E-06  3040   0.136E-02    0.698E-03
DAV:   8    -0.199711889605E+02   -0.12245E-07   -0.19097E-06  2560   0.484E-03
  25 F= -.19971189E+02 E0= -.19960819E+02  d E =-.207392E-01
       N       E                     dE             d eps       ncg     rms          rms(c)
DAV:   1    -0.199701496200E+02    0.10393E-02   -0.57710E+00  1152   0.846E+00    0.103E+00
DAV:   2    -0.199721714989E+02   -0.20219E-02   -0.19948E-01  1984   0.145E+00    0.994E-01
DAV:   3    -0.199605029373E+02    0.11669E-01   -0.71549E-02  1568   0.410E-01    0.585E-01
DAV:   4    -0.199535453011E+02    0.69576E-02   -0.23018E-02  1952   0.380E-01    0.108E-01
DAV:   5    -0.199535869988E+02   -0.41698E-04   -0.11971E-03  1600   0.108E-01    0.357E-02
DAV:   6    -0.199535101546E+02    0.76844E-04   -0.77040E-05  1824   0.265E-02    0.197E-02
DAV:   7    -0.199533621610E+02    0.14799E-03   -0.52657E-05  1632   0.181E-02    0.416E-03
DAV:   8    -0.199533068698E+02    0.55291E-04   -0.54168E-06  1888   0.665E-03    0.247E-03
DAV:   9    -0.199532482502E+02    0.58620E-04   -0.19062E-06  1312   0.283E-03    0.105E-03
DAV:  10    -0.199532298561E+02    0.18394E-04   -0.26669E-07  1056   0.119E-03    0.383E-04
DAV:  11    -0.199532123022E+02    0.17554E-04   -0.12684E-07   896   0.681E-04    0.126E-04
DAV:  12    -0.199532024307E+02    0.98716E-05   -0.43549E-08   928   0.425E-04    0.497E-05
DAV:  13    -0.199532018687E+02    0.56198E-06   -0.23519E-09   704   0.188E-04
  26 F= -.19953202E+02 E0= -.19939610E+02  d E =-.271840E-01
       N       E                     dE             d eps       ncg     rms          rms(c)
DAV:   1    -0.199522392190E+02    0.96321E-03   -0.24963E+00  1152   0.371E+00    0.244E-02
DAV:   2    -0.199533029967E+02   -0.10638E-02   -0.10805E-02  1216   0.278E-01    0.145E-02
DAV:   3    -0.199533196074E+02   -0.16611E-04   -0.20675E-04  1888   0.384E-02    0.230E-02
DAV:   4    -0.199533135099E+02    0.60975E-05   -0.25632E-05  1440   0.877E-03    0.307E-03
DAV:   5    -0.199533136170E+02   -0.10713E-06   -0.61894E-07  1760   0.361E-03
  27 F= -.19953314E+02 E0= -.19939720E+02  d E =-.271863E-01
       N       E                     dE             d eps       ncg     rms          rms(c)
DAV:   1    -0.199519692377E+02    0.13443E-02   -0.27435E+00  1152   0.412E+00    0.480E-02
DAV:   2    -0.199532961547E+02   -0.13269E-02   -0.13970E-02  1152   0.325E-01    0.133E-02
DAV:   3    -0.199533129036E+02   -0.16749E-04   -0.19790E-04  1984   0.461E-02    0.691E-03
DAV:   4    -0.199533136041E+02   -0.70045E-06   -0.33144E-06  1344   0.592E-03
  28 F= -.19953314E+02 E0= -.19939721E+02  d E =-.271856E-01
       N       E                     dE             d eps       ncg     rms          rms(c)
DAV:   1    -0.199521041011E+02    0.12088E-02   -0.24968E+00  1152   0.372E+00    0.282E-02
DAV:   2    -0.199531940141E+02   -0.10899E-02   -0.11097E-02  1280   0.276E-01    0.223E-02
DAV:   3    -0.199532061827E+02   -0.12169E-04   -0.23432E-04  1888   0.381E-02    0.222E-02
DAV:   4    -0.199532009412E+02    0.52416E-05   -0.22323E-05  1472   0.863E-03    0.424E-03
DAV:   5    -0.199532013915E+02   -0.45035E-06   -0.75382E-07  1600   0.375E-03
  29 F= -.19953201E+02 E0= -.19939610E+02  d E =-.271831E-01
       N       E                     dE             d eps       ncg     rms          rms(c)
DAV:   1    -0.199499288897E+02    0.32721E-02   -0.38085E+00  1152   0.573E+00    0.439E-01
DAV:   2    -0.199537867730E+02   -0.38579E-02   -0.46596E-02  1344   0.792E-01    0.147E-01
DAV:   3    -0.199543066049E+02   -0.51983E-03   -0.65753E-03  1888   0.167E-01    0.241E-01
DAV:   4    -0.199537047068E+02    0.60190E-03   -0.26843E-03  1600   0.788E-02    0.608E-02
DAV:   5    -0.199537095716E+02   -0.48648E-05   -0.45825E-05  1472   0.285E-02    0.309E-02
DAV:   6    -0.199537111146E+02   -0.15430E-05   -0.63579E-06  1824   0.834E-03    0.996E-03
DAV:   7    -0.199537109696E+02    0.14499E-06   -0.17835E-06  1344   0.368E-03
  30 F= -.19953711E+02 E0= -.19940210E+02  d E =-.270012E-01
       N       E                     dE             d eps       ncg     rms          rms(c)
DAV:   1    -0.199533933622E+02    0.31775E-03   -0.17120E-01  1152   0.112E+00    0.184E-01
DAV:   2    -0.199534574288E+02   -0.64067E-04   -0.37147E-03  1792   0.210E-01    0.920E-02
DAV:   3    -0.199535545976E+02   -0.97169E-04   -0.16537E-03  1760   0.574E-02    0.122E-01
DAV:   4    -0.199534166852E+02    0.13791E-03   -0.58224E-04  1792   0.374E-02    0.346E-02
DAV:   5    -0.199534181658E+02   -0.14805E-05   -0.10889E-05  1376   0.132E-02    0.966E-03
DAV:   6    -0.199534180975E+02    0.68253E-07   -0.14416E-06  1696   0.339E-03
  31 F= -.19953418E+02 E0= -.19939849E+02  d E =-.271390E-01
       N       E                     dE             d eps       ncg     rms          rms(c)
DAV:   1    -0.199539433381E+02   -0.52517E-03   -0.23106E-01  1216   0.131E+00    0.423E-01
DAV:   2    -0.199534361269E+02    0.50721E-03   -0.65144E-03  1760   0.275E-01    0.133E-01
DAV:   3    -0.199534112917E+02    0.24835E-04   -0.41161E-04  1632   0.621E-02    0.561E-02
DAV:   4    -0.199534254980E+02   -0.14206E-04   -0.84502E-05  1792   0.233E-02    0.419E-02
DAV:   5    -0.199534190123E+02    0.64857E-05   -0.65043E-05  1664   0.118E-02    0.211E-02
DAV:   6    -0.199534183032E+02    0.70903E-06   -0.69003E-06  1632   0.605E-03
  32 F= -.19953418E+02 E0= -.19939847E+02  d E =-.271436E-01
       N       E                     dE             d eps       ncg     rms          rms(c)
DAV:   1    -0.199536115591E+02   -0.19255E-03   -0.18597E-01  1216   0.115E+00    0.249E-01
DAV:   2    -0.199537524250E+02   -0.14087E-03   -0.41248E-03  1824   0.222E-01    0.775E-02
DAV:   3    -0.199538983610E+02   -0.14594E-03   -0.18650E-03  1536   0.619E-02    0.132E-01
DAV:   4    -0.199537094786E+02    0.18888E-03   -0.81566E-04  1824   0.428E-02    0.288E-02
DAV:   5    -0.199537108943E+02   -0.14156E-05   -0.11041E-05  1408   0.137E-02    0.143E-02
DAV:   6    -0.199537113589E+02   -0.46465E-06   -0.15606E-06  1728   0.378E-03
  33 F= -.19953711E+02 E0= -.19940210E+02  d E =-.270034E-01
       N       E                     dE             d eps       ncg     rms          rms(c)
DAV:   1    -0.199543373890E+02   -0.62649E-03   -0.14060E+00  1728   0.295E+00    0.450E-01
DAV:   2    -0.199553682775E+02   -0.10309E-02   -0.36144E-02  2720   0.701E-01    0.204E-01
DAV:   3    -0.199560341706E+02   -0.66589E-03   -0.10184E-02  2496   0.157E-01    0.287E-01
DAV:   4    -0.199551049276E+02    0.92924E-03   -0.47951E-03  2656   0.103E-01    0.661E-02
DAV:   5    -0.199551126175E+02   -0.76899E-05   -0.74258E-05  2176   0.343E-02    0.343E-02
DAV:   6    -0.199551244625E+02   -0.11845E-04   -0.10874E-04  3136   0.145E-02    0.341E-02
DAV:   7    -0.199551137626E+02    0.10700E-04   -0.67321E-05  2464   0.117E-02    0.405E-03
DAV:   8    -0.199551139620E+02   -0.19930E-06   -0.15404E-06  2272   0.472E-03
  34 F= -.19955114E+02 E0= -.19941863E+02  d E =-.265011E-01
       N       E                     dE             d eps       ncg     rms          rms(c)
DAV:   1    -0.199524989693E+02    0.26148E-02   -0.84997E-01  1728   0.210E+00    0.893E-02
DAV:   2    -0.199537824267E+02   -0.12835E-02   -0.15557E-02  2816   0.442E-01    0.471E-02
DAV:   3    -0.199538340167E+02   -0.51590E-04   -0.65618E-04  2240   0.428E-02    0.742E-02
DAV:   4    -0.199537690873E+02    0.64929E-04   -0.32319E-04  2944   0.254E-02    0.145E-02
DAV:   5    -0.199537679989E+02    0.10884E-05   -0.79820E-06  2048   0.100E-02    0.651E-03
DAV:   6    -0.199537683843E+02   -0.38546E-06   -0.67514E-06  2912   0.446E-03
  35 F= -.19953768E+02 E0= -.19940261E+02  d E =-.270142E-01
       N       E                     dE             d eps       ncg     rms          rms(c)
DAV:   1    -0.199534526029E+02    0.31540E-03   -0.78536E-01  1728   0.207E+00    0.121E-01
DAV:   2    -0.199538471116E+02   -0.39451E-03   -0.11222E-02  2944   0.419E-01    0.986E-02
DAV:   3    -0.199538586705E+02   -0.11559E-04   -0.10580E-03  2272   0.631E-02    0.961E-02
DAV:   4    -0.199537742929E+02    0.84378E-04   -0.75624E-04  3008   0.398E-02    0.356E-02
DAV:   5    -0.199537670927E+02    0.72002E-05   -0.43077E-05  1984   0.154E-02    0.126E-02
DAV:   6    -0.199537685138E+02   -0.14211E-05   -0.83303E-06  2880   0.869E-03    0.785E-03
DAV:   7    -0.199537680432E+02    0.47069E-06   -0.57645E-06  1824   0.331E-03
  36 F= -.19953768E+02 E0= -.19940260E+02  d E =-.270153E-01
       N       E                     dE             d eps       ncg     rms          rms(c)
DAV:   1    -0.199538663664E+02   -0.97853E-04   -0.87433E-01  1728   0.210E+00    0.641E-02
DAV:   2    -0.199551580440E+02   -0.12917E-02   -0.14223E-02  2944   0.437E-01    0.703E-02
DAV:   3    -0.199551502604E+02    0.77835E-05   -0.42894E-04  2304   0.349E-02    0.611E-02
DAV:   4    -0.199551159976E+02    0.34263E-04   -0.25834E-04  2720   0.254E-02    0.257E-02
DAV:   5    -0.199551141628E+02    0.18349E-05   -0.16571E-05  2304   0.105E-02    0.105E-02
DAV:   6    -0.199551151572E+02   -0.99444E-06   -0.66590E-06  2720   0.492E-03
  37 F= -.19955115E+02 E0= -.19941865E+02  d E =-.264995E-01
       N       E                     dE             d eps       ncg     rms          rms(c)
DAV:   1    -0.199583668182E+02   -0.32527E-02   -0.23144E+00  1152   0.369E+00    0.558E-01
DAV:   2    -0.199576546680E+02    0.71215E-03   -0.45615E-02  1824   0.801E-01    0.170E-01
DAV:   3    -0.199575709134E+02    0.83755E-04   -0.44112E-03  1600   0.149E-01    0.201E-01
DAV:   4    -0.199570833550E+02    0.48756E-03   -0.22000E-03  1984   0.792E-02    0.773E-02
DAV:   5    -0.199569043388E+02    0.17902E-03   -0.17856E-04  1504   0.386E-02    0.280E-02
DAV:   6    -0.199568056397E+02    0.98699E-04   -0.89345E-05  1920   0.252E-02    0.645E-03
DAV:   7    -0.199567871932E+02    0.18447E-04   -0.99945E-06  1440   0.960E-03    0.437E-03
DAV:   8    -0.199567637993E+02    0.23394E-04   -0.82336E-06  1920   0.722E-03    0.188E-03
DAV:   9    -0.199567550652E+02    0.87341E-05   -0.16629E-06  1280   0.370E-03    0.817E-04
DAV:  10    -0.199567528693E+02    0.21960E-05   -0.25730E-07  1312   0.172E-03    0.326E-04
DAV:  11    -0.199567521456E+02    0.72368E-06   -0.46087E-08   992   0.780E-04
  38 F= -.19956752E+02 E0= -.19944358E+02  d E =-.247891E-01
       N       E                     dE             d eps       ncg     rms          rms(c)
DAV:   1    -0.199535915907E+02    0.31613E-02   -0.70479E-01  1152   0.191E+00    0.250E-01
DAV:   2    -0.199542698055E+02   -0.67821E-03   -0.18868E-02  1600   0.449E-01    0.990E-02
DAV:   3    -0.199545762484E+02   -0.30644E-03   -0.31565E-03  1824   0.964E-02    0.184E-01
DAV:   4    -0.199542026528E+02    0.37360E-03   -0.16526E-03  1760   0.595E-02    0.435E-02
DAV:   5    -0.199542014593E+02    0.11935E-05   -0.22475E-05  1440   0.199E-02    0.147E-02
DAV:   6    -0.199542015668E+02   -0.10753E-06   -0.19526E-06  2112   0.454E-03
  39 F= -.19954202E+02 E0= -.19940929E+02  d E =-.265442E-01
       N       E                     dE             d eps       ncg     rms          rms(c)
DAV:   1    -0.199566228317E+02   -0.24214E-02   -0.95847E-01  1152   0.225E+00    0.557E-01
DAV:   2    -0.199543536022E+02    0.22692E-02   -0.26171E-02  1728   0.535E-01    0.153E-01
DAV:   3    -0.199542244074E+02    0.12919E-03   -0.14687E-03  1632   0.114E-01    0.712E-02
DAV:   4    -0.199542361223E+02   -0.11715E-04   -0.49639E-04  1888   0.436E-02    0.778E-02
DAV:   5    -0.199542005773E+02    0.35545E-04   -0.14932E-04  1728   0.226E-02    0.276E-02
DAV:   6    -0.199542012163E+02   -0.63896E-06   -0.10720E-05  1504   0.113E-02    0.727E-03
DAV:   7    -0.199542009211E+02    0.29523E-06   -0.20362E-06  1568   0.336E-03
  40 F= -.19954201E+02 E0= -.19940929E+02  d E =-.265439E-01
       N       E                     dE             d eps       ncg     rms          rms(c)
DAV:   1    -0.199562794295E+02   -0.20782E-02   -0.77002E-01  1152   0.198E+00    0.283E-01
DAV:   2    -0.199568392771E+02   -0.55985E-03   -0.16565E-02  1792   0.449E-01    0.939E-02
DAV:   3    -0.199571169270E+02   -0.27765E-03   -0.30524E-03  1568   0.916E-02    0.174E-01
DAV:   4    -0.199567506143E+02    0.36631E-03   -0.15330E-03  1984   0.608E-02    0.324E-02
DAV:   5    -0.199567506850E+02   -0.70752E-07   -0.17807E-05  1216   0.187E-02    0.147E-02
DAV:   6    -0.199567507966E+02   -0.11155E-06   -0.20539E-06  2080   0.499E-03
  41 F= -.19956751E+02 E0= -.19944357E+02  d E =-.247881E-01
