       N       E                     dE             d eps       ncg     rms          rms(c)
DAV:   1     0.149089066031E+03    0.14909E+03   -0.11050E+04   528   0.911E+02
DAV:   2    -0.753599856182E+01   -0.15663E+03   -0.14649E+03   544   0.227E+02
DAV:   3    -0.201023326498E+02   -0.12566E+02   -0.12384E+02   616   0.677E+01
DAV:   4    -0.204075898365E+02   -0.30526E+00   -0.30371E+00   576   0.109E+01
DAV:   5    -0.204174340150E+02   -0.98442E-02   -0.98408E-02   656   0.197E+00    0.107E+01
DAV:   6    -0.199810428677E+02    0.43639E+00   -0.73766E-01   592   0.347E+00    0.719E+00
DAV:   7    -0.199685296204E+02    0.12513E-01   -0.27422E-01   616   0.187E+00    0.277E+00
DAV:   8    -0.199908847809E+02   -0.22355E-01   -0.23704E-01   576   0.164E+00    0.994E-01
DAV:   9    -0.199536037704E+02    0.37281E-01   -0.46377E-02   584   0.920E-01    0.191E-01
DAV:  10    -0.199533521395E+02    0.25163E-03   -0.40539E-03   640   0.274E-01    0.134E-01
DAV:  11    -0.199533961773E+02   -0.44038E-04   -0.22958E-04   672   0.996E-02    0.603E-02
DAV:  12    -0.199533734299E+02    0.22747E-04   -0.20835E-05   648   0.272E-02    0.313E-02
DAV:  13    -0.199533500063E+02    0.23424E-04   -0.56873E-05   608   0.300E-02    0.915E-03
DAV:  14    -0.199533484384E+02    0.15679E-05   -0.47481E-06   616   0.111E-02    0.462E-03
DAV:  15    -0.199533484971E+02   -0.58717E-07   -0.99464E-08   408   0.193E-03
   1 F= -.19953348E+02 E0= -.19939753E+02  d E =-.271902E-01
 Found     4 degrees of freedom:
 Adding 6 more for cell shape distortion
       N       E                     dE             d eps       ncg     rms          rms(c)
DAV:   1    -0.201132368335E+02   -0.15989E+00   -0.57050E+00  1064   0.160E+01    0.304E+00
DAV:   2    -0.200534154465E+02    0.59821E-01   -0.11408E+00  1104   0.427E+00    0.236E+00
DAV:   3    -0.199610417754E+02    0.92374E-01   -0.40598E-01  1080   0.189E+00    0.123E+00
DAV:   4    -0.199382530582E+02    0.22789E-01   -0.15938E-01  1048   0.146E+00    0.795E-01
DAV:   5    -0.199323510006E+02    0.59021E-02   -0.47792E-02  1192   0.561E-01    0.358E-01
DAV:   6    -0.199326984317E+02   -0.34743E-03   -0.22170E-02  1168   0.311E-01    0.386E-01
DAV:   7    -0.199315029000E+02    0.11955E-02   -0.15072E-02  1176   0.250E-01    0.200E-01
DAV:   8    -0.199310310855E+02    0.47181E-03   -0.22115E-03  1080   0.105E-01    0.205E-02
DAV:   9    -0.199310368859E+02   -0.58004E-05   -0.55119E-05  1128   0.347E-02    0.221E-02
DAV:  10    -0.199310380682E+02   -0.11823E-05   -0.17449E-05  1072   0.158E-02    0.136E-02
DAV:  11    -0.199310385073E+02   -0.43910E-06   -0.58361E-06  1088   0.903E-03
   2 F= -.19931039E+02 E0= -.19920169E+02  d E =-.217387E-01
       N       E                     dE             d eps       ncg     rms          rms(c)
DAV:   1    -0.199944432078E+02   -0.63405E-01   -0.30401E+00  1040   0.998E+00    0.173E+00
DAV:   2    -0.200513756434E+02   -0.56932E-01   -0.12477E+00  1152   0.301E+00    0.183E+00
DAV:   3    -0.199550587660E+02    0.96317E-01   -0.22664E-01  1096   0.150E+00    0.751E-01
DAV:   4    -0.199516181275E+02    0.34406E-02   -0.73833E-02  1136   0.764E-01    0.545E-01
DAV:   5    -0.199472620774E+02    0.43561E-02   -0.15262E-02  1024   0.491E-01    0.186E-01
DAV:   6    -0.199472305650E+02    0.31512E-04   -0.64404E-04  1080   0.132E-01    0.130E-01
DAV:   7    -0.199471979641E+02    0.32601E-04   -0.46260E-05  1104   0.410E-02    0.629E-02
DAV:   8    -0.199471938778E+02    0.40863E-05   -0.20972E-05  1072   0.197E-02    0.129E-02
DAV:   9    -0.199471935845E+02    0.29331E-06   -0.10249E-05   792   0.767E-03    0.109E-02
DAV:  10    -0.199471932409E+02    0.34359E-06   -0.49674E-06   720   0.571E-03
   3 F= -.19947193E+02 E0= -.19934469E+02  d E =-.254481E-01
       N       E                     dE             d eps       ncg     rms          rms(c)
DAV:   1    -0.201429418328E+02   -0.19575E+00   -0.47969E+00  1024   0.143E+01    0.337E+00
DAV:   2    -0.201144974762E+02    0.28444E-01   -0.24379E+00  1112   0.455E+00    0.226E+00
DAV:   3    -0.199731025219E+02    0.14139E+00   -0.34938E-01  1064   0.208E+00    0.113E+00
DAV:   4    -0.199622439182E+02    0.10859E-01   -0.14303E-01  1112   0.127E+00    0.905E-01
DAV:   5    -0.199499738252E+02    0.12270E-01   -0.86479E-02  1040   0.849E-01    0.464E-01
DAV:   6    -0.199490814742E+02    0.89235E-03   -0.14598E-02  1064   0.362E-01    0.245E-01
DAV:   7    -0.199485872124E+02    0.49426E-03   -0.36751E-03  1168   0.151E-01    0.116E-01
DAV:   8    -0.199485774319E+02    0.97806E-05   -0.10595E-03  1128   0.897E-02    0.778E-02
DAV:   9    -0.199485192705E+02    0.58161E-04   -0.31951E-04  1096   0.517E-02    0.298E-02
DAV:  10    -0.199485210409E+02   -0.17704E-05   -0.12774E-05  1096   0.164E-02    0.286E-02
DAV:  11    -0.199485200529E+02    0.98796E-06   -0.32283E-07   680   0.290E-03
   4 F= -.19948520E+02 E0= -.19935736E+02  d E =-.255672E-01
       N       E                     dE             d eps       ncg     rms          rms(c)
DAV:   1    -0.199717815727E+02   -0.23261E-01   -0.34632E+00  1064   0.110E+01    0.204E+00
DAV:   2    -0.199897003621E+02   -0.17919E-01   -0.72611E-01  1128   0.289E+00    0.137E+00
DAV:   3    -0.199390956326E+02    0.50605E-01   -0.11540E-01  1128   0.125E+00    0.615E-01
DAV:   4    -0.199354351301E+02    0.36605E-02   -0.35449E-02  1136   0.727E-01    0.446E-01
DAV:   5    -0.199320867124E+02    0.33484E-02   -0.96501E-03  1040   0.406E-01    0.211E-01
DAV:   6    -0.199319592674E+02    0.12745E-03   -0.13072E-03  1040   0.157E-01    0.948E-02
DAV:   7    -0.199318860141E+02    0.73253E-04   -0.25703E-04  1152   0.562E-02    0.459E-02
DAV:   8    -0.199318948945E+02   -0.88804E-05   -0.65246E-05  1128   0.325E-02    0.276E-02
DAV:   9    -0.199318854664E+02    0.94280E-05   -0.32961E-05  1120   0.208E-02    0.950E-03
DAV:  10    -0.199318854026E+02    0.63869E-07   -0.22833E-06   872   0.728E-03
   5 F= -.19931885E+02 E0= -.19921520E+02  d E =-.207315E-01
       N       E                     dE             d eps       ncg     rms          rms(c)
DAV:   1    -0.204395080764E+02   -0.50762E+00   -0.13990E+01  1064   0.274E+01    0.437E+00
DAV:   2    -0.201409507734E+02    0.29856E+00   -0.13017E+00  1072   0.593E+00    0.272E+00
DAV:   3    -0.200642226763E+02    0.76728E-01   -0.80002E-01  1152   0.248E+00    0.190E+00
DAV:   4    -0.199617868613E+02    0.10244E+00   -0.29637E-01  1088   0.202E+00    0.636E-01
DAV:   5    -0.199451400854E+02    0.16647E-01   -0.30314E-02  1032   0.742E-01    0.457E-01
DAV:   6    -0.199422844675E+02    0.28556E-02   -0.14803E-03  1112   0.223E-01    0.349E-01
DAV:   7    -0.199338296989E+02    0.84548E-02   -0.37583E-03  1080   0.254E-01    0.403E-02
DAV:   8    -0.199328437594E+02    0.98594E-03   -0.42230E-04  1112   0.102E-01    0.270E-02
DAV:   9    -0.199322856932E+02    0.55807E-03   -0.54139E-05  1168   0.237E-02    0.145E-02
DAV:  10    -0.199312375677E+02    0.10481E-02   -0.11871E-04  1168   0.263E-02    0.800E-03
DAV:  11    -0.199311818642E+02    0.55704E-04   -0.13076E-05  1096   0.127E-02    0.605E-03
DAV:  12    -0.199310715917E+02    0.11027E-03   -0.34287E-06   680   0.459E-03    0.183E-03
DAV:  13    -0.199310496421E+02    0.21950E-04   -0.51163E-07   632   0.297E-03    0.991E-04
DAV:  14    -0.199310400193E+02    0.96229E-05   -0.69332E-08   568   0.137E-03    0.521E-04
DAV:  15    -0.199310387414E+02    0.12779E-05   -0.14745E-08   576   0.685E-04    0.303E-04
DAV:  16    -0.199310368509E+02    0.18904E-05   -0.51128E-09   544   0.399E-04    0.190E-04
DAV:  17    -0.199310365904E+02    0.26052E-06   -0.18298E-09   568   0.230E-04
   6 F= -.19931037E+02 E0= -.19920157E+02  d E =-.217591E-01
       N       E                     dE             d eps       ncg     rms          rms(c)
DAV:   1    -0.199946576817E+02   -0.63621E-01   -0.26736E+00  1064   0.950E+00    0.176E+00
DAV:   2    -0.200506953398E+02   -0.56038E-01   -0.12281E+00  1144   0.295E+00    0.181E+00
DAV:   3    -0.199550180575E+02    0.95677E-01   -0.22092E-01  1112   0.146E+00    0.720E-01
DAV:   4    -0.199516092942E+02    0.34088E-02   -0.71089E-02  1136   0.753E-01    0.536E-01
DAV:   5    -0.199472403162E+02    0.43690E-02   -0.13871E-02  1016   0.476E-01    0.177E-01
DAV:   6    -0.199472204150E+02    0.19901E-04   -0.62892E-04  1064   0.133E-01    0.116E-01
DAV:   7    -0.199471959331E+02    0.24482E-04   -0.28345E-05  1144   0.350E-02    0.553E-02
DAV:   8    -0.199471945112E+02    0.14219E-05   -0.25190E-05  1080   0.184E-02    0.123E-02
DAV:   9    -0.199471934505E+02    0.10607E-05   -0.12458E-05   832   0.825E-03    0.913E-03
DAV:  10    -0.199471930240E+02    0.42646E-06   -0.17068E-06   584   0.412E-03
   7 F= -.19947193E+02 E0= -.19934467E+02  d E =-.254513E-01
       N       E                     dE             d eps       ncg     rms          rms(c)
DAV:   1    -0.201410090703E+02   -0.19382E+00   -0.50481E+00  1040   0.146E+01    0.345E+00
DAV:   2    -0.201139988176E+02    0.27010E-01   -0.24423E+00  1128   0.458E+00    0.225E+00
DAV:   3    -0.199730442686E+02    0.14095E+00   -0.35077E-01  1080   0.208E+00    0.113E+00
DAV:   4    -0.199619773735E+02    0.11067E-01   -0.13760E-01  1104   0.126E+00    0.889E-01
DAV:   5    -0.199499996714E+02    0.11978E-01   -0.82959E-02  1040   0.829E-01    0.464E-01
DAV:   6    -0.199493311687E+02    0.66850E-03   -0.17075E-02  1008   0.369E-01    0.282E-01
DAV:   7    -0.199485878220E+02    0.74335E-03   -0.49794E-03  1112   0.166E-01    0.120E-01
DAV:   8    -0.199485771514E+02    0.10671E-04   -0.11003E-03  1064   0.930E-02    0.788E-02
DAV:   9    -0.199485210770E+02    0.56074E-04   -0.33596E-04  1040   0.542E-02    0.326E-02
DAV:  10    -0.199485209161E+02    0.16082E-06   -0.12920E-05  1064   0.171E-02    0.276E-02
DAV:  11    -0.199485180034E+02    0.29127E-05   -0.10265E-06   624   0.393E-03    0.224E-02
DAV:  12    -0.199485127211E+02    0.52823E-05   -0.14560E-05  1064   0.108E-02    0.293E-03
DAV:  13    -0.199485127362E+02   -0.15094E-07   -0.66743E-07   528   0.399E-03
   8 F= -.19948513E+02 E0= -.19935705E+02  d E =-.256155E-01
       N       E                     dE             d eps       ncg     rms          rms(c)
DAV:   1    -0.199740738864E+02   -0.25561E-01   -0.29875E+00  1048   0.102E+01    0.193E+00
DAV:   2    -0.199909062235E+02   -0.16832E-01   -0.72329E-01  1120   0.283E+00    0.136E+00
DAV:   3    -0.199393884649E+02    0.51518E-01   -0.11452E-01  1104   0.123E+00    0.632E-01
DAV:   4    -0.199356968477E+02    0.36916E-02   -0.38824E-02  1128   0.731E-01    0.469E-01
DAV:   5    -0.199320308223E+02    0.36660E-02   -0.11064E-02  1048   0.436E-01    0.206E-01
DAV:   6    -0.199319194050E+02    0.11142E-03   -0.10908E-03   984   0.164E-01    0.774E-02
DAV:   7    -0.199318867121E+02    0.32693E-04   -0.14588E-04  1184   0.487E-02    0.439E-02
DAV:   8    -0.199318898312E+02   -0.31191E-05   -0.48119E-05  1152   0.286E-02    0.195E-02
DAV:   9    -0.199318859734E+02    0.38578E-05   -0.23388E-05  1136   0.167E-02    0.108E-02
DAV:  10    -0.199318853811E+02    0.59227E-06   -0.15169E-06   720   0.584E-03
   9 F= -.19931885E+02 E0= -.19921519E+02  d E =-.207320E-01
       N       E                     dE             d eps       ncg     rms          rms(c)
DAV:   1    -0.203420098426E+02   -0.41012E+00   -0.12768E+01  1056   0.265E+01    0.443E+00
DAV:   2    -0.200688885357E+02    0.27312E+00   -0.13228E+00  1072   0.576E+00    0.265E+00
DAV:   3    -0.200079523896E+02    0.60936E-01   -0.92722E-01  1120   0.254E+00    0.189E+00
DAV:   4    -0.199259070925E+02    0.82045E-01   -0.24011E-01  1080   0.199E+00    0.575E-01
DAV:   5    -0.199239992256E+02    0.19079E-02   -0.27613E-02  1048   0.754E-01    0.454E-01
DAV:   6    -0.199245862892E+02   -0.58706E-03   -0.13209E-03  1120   0.219E-01    0.339E-01
DAV:   7    -0.199287413024E+02   -0.41550E-02   -0.36581E-03  1104   0.238E-01    0.545E-02
DAV:   8    -0.199293793406E+02   -0.63804E-03   -0.57252E-04  1104   0.100E-01    0.256E-02
DAV:   9    -0.199298696539E+02   -0.49031E-03   -0.10806E-04  1112   0.282E-02    0.207E-02
DAV:  10    -0.199307913295E+02   -0.92168E-03   -0.20211E-04  1192   0.304E-02    0.238E-02
DAV:  11    -0.199308418858E+02   -0.50556E-04   -0.20371E-05  1032   0.140E-02    0.721E-03
DAV:  12    -0.199309807567E+02   -0.13887E-03   -0.49157E-06   856   0.623E-03    0.135E-03
DAV:  13    -0.199310212826E+02   -0.40526E-04   -0.57261E-07   560   0.348E-03    0.221E-03
DAV:  14    -0.199310315293E+02   -0.10247E-04   -0.10372E-07   512   0.158E-03    0.150E-03
DAV:  15    -0.199310366265E+02   -0.50971E-05   -0.79433E-08   528   0.103E-03    0.543E-04
DAV:  16    -0.199310365121E+02    0.11440E-06   -0.10945E-08   496   0.543E-04
  10 F= -.19931037E+02 E0= -.19920157E+02  d E =-.217589E-01
       N       E                     dE             d eps       ncg     rms          rms(c)
DAV:   1    -0.199939578666E+02   -0.62921E-01   -0.29462E+00  1040   0.100E+01    0.174E+00
DAV:   2    -0.200511898268E+02   -0.57232E-01   -0.12468E+00  1144   0.303E+00    0.181E+00
DAV:   3    -0.199552559877E+02    0.95934E-01   -0.22442E-01  1120   0.148E+00    0.736E-01
DAV:   4    -0.199515421219E+02    0.37139E-02   -0.70622E-02  1120   0.744E-01    0.538E-01
DAV:   5    -0.199472442469E+02    0.42979E-02   -0.14290E-02  1000   0.489E-01    0.176E-01
DAV:   6    -0.199472269164E+02    0.17330E-04   -0.61922E-04  1088   0.133E-01    0.130E-01
DAV:   7    -0.199471959266E+02    0.30990E-04   -0.57480E-05  1072   0.443E-02    0.521E-02
DAV:   8    -0.199471940401E+02    0.18865E-05   -0.17713E-05  1088   0.178E-02    0.120E-02
DAV:   9    -0.199471937879E+02    0.25222E-06   -0.15856E-05   904   0.861E-03    0.111E-02
DAV:  10    -0.199471930626E+02    0.72531E-06   -0.39925E-06   656   0.560E-03
  11 F= -.19947193E+02 E0= -.19934468E+02  d E =-.254505E-01
       N       E                     dE             d eps       ncg     rms          rms(c)
DAV:   1    -0.201426882667E+02   -0.19549E+00   -0.45679E+00  1040   0.143E+01    0.345E+00
DAV:   2    -0.201147965329E+02    0.27892E-01   -0.24457E+00  1160   0.456E+00    0.226E+00
DAV:   3    -0.199730594022E+02    0.14174E+00   -0.35408E-01  1080   0.209E+00    0.113E+00
DAV:   4    -0.199619885782E+02    0.11071E-01   -0.13939E-01  1104   0.127E+00    0.886E-01
DAV:   5    -0.199499786192E+02    0.12010E-01   -0.82748E-02  1024   0.835E-01    0.469E-01
DAV:   6    -0.199494514089E+02    0.52721E-03   -0.18073E-02  1032   0.379E-01    0.298E-01
DAV:   7    -0.199485542787E+02    0.89713E-03   -0.47374E-03  1136   0.167E-01    0.103E-01
DAV:   8    -0.199485863192E+02   -0.32041E-04   -0.83451E-04  1088   0.890E-02    0.858E-02
DAV:   9    -0.199485274341E+02    0.58885E-04   -0.42177E-04  1096   0.588E-02    0.408E-02
DAV:  10    -0.199485241403E+02    0.32938E-05   -0.15411E-05  1000   0.196E-02    0.319E-02
DAV:  11    -0.199485129431E+02    0.11197E-04   -0.18229E-05  1056   0.122E-02    0.803E-03
DAV:  12    -0.199485127382E+02    0.20490E-06   -0.22375E-06   680   0.591E-03
  12 F= -.19948513E+02 E0= -.19935706E+02  d E =-.256134E-01
       N       E                     dE             d eps       ncg     rms          rms(c)
DAV:   1    -0.199719234883E+02   -0.23411E-01   -0.35640E+00  1032   0.109E+01    0.194E+00
DAV:   2    -0.199903251661E+02   -0.18402E-01   -0.73359E-01  1128   0.292E+00    0.137E+00
DAV:   3    -0.199392659047E+02    0.51059E-01   -0.11450E-01  1104   0.124E+00    0.626E-01
DAV:   4    -0.199356621472E+02    0.36038E-02   -0.38091E-02  1120   0.736E-01    0.469E-01
DAV:   5    -0.199320187043E+02    0.36434E-02   -0.10513E-02  1056   0.425E-01    0.202E-01
DAV:   6    -0.199319136898E+02    0.10501E-03   -0.10043E-03  1024   0.156E-01    0.762E-02
DAV:   7    -0.199318871889E+02    0.26501E-04   -0.13192E-04  1144   0.456E-02    0.433E-02
DAV:   8    -0.199318897429E+02   -0.25540E-05   -0.49719E-05  1160   0.282E-02    0.193E-02
DAV:   9    -0.199318856098E+02    0.41332E-05   -0.20948E-05  1128   0.158E-02    0.936E-03
DAV:  10    -0.199318851380E+02    0.47176E-06   -0.12600E-06   656   0.551E-03
  13 F= -.19931885E+02 E0= -.19921516E+02  d E =-.207383E-01
       N       E                     dE             d eps       ncg     rms          rms(c)
DAV:   1    -0.201588159360E+02   -0.22693E+00   -0.73905E+00  1768   0.177E+01    0.316E+00
DAV:   2    -0.200565461543E+02    0.10227E+00   -0.10678E+00  1808   0.441E+00    0.205E+00
DAV:   3    -0.199952975792E+02    0.61249E-01   -0.32533E-01  1840   0.189E+00    0.109E+00
DAV:   4    -0.199731368049E+02    0.22161E-01   -0.63078E-02  1840   0.125E+00    0.392E-01
DAV:   5    -0.199729385186E+02    0.19829E-03   -0.16488E-02  1848   0.414E-01    0.414E-01
DAV:   6    -0.199714028946E+02    0.15356E-02   -0.75828E-03  1984   0.214E-01    0.227E-01
DAV:   7    -0.199712166192E+02    0.18628E-03   -0.45980E-04  1776   0.128E-01    0.969E-02
DAV:   8    -0.199711895400E+02    0.27079E-04   -0.81977E-05  1928   0.478E-02    0.281E-02
DAV:   9    -0.199711880835E+02    0.14566E-05   -0.13117E-05  1816   0.162E-02    0.104E-02
DAV:  10    -0.199711888326E+02   -0.74916E-06   -0.20541E-06  1608   0.675E-03
  14 F= -.19971189E+02 E0= -.19960820E+02  d E =-.207373E-01
       N       E                     dE             d eps       ncg     rms          rms(c)
DAV:   1    -0.199633254118E+02    0.78627E-02   -0.20149E+00  1640   0.749E+00    0.627E-01
DAV:   2    -0.199630116778E+02    0.31373E-03   -0.67047E-02  1808   0.135E+00    0.416E-01
DAV:   3    -0.199620504543E+02    0.96122E-03   -0.13305E-02  1952   0.430E-01    0.336E-01
DAV:   4    -0.199606597170E+02    0.13907E-02   -0.75778E-03  1912   0.253E-01    0.187E-01
DAV:   5    -0.199603770641E+02    0.28265E-03   -0.25698E-03  1880   0.132E-01    0.975E-02
DAV:   6    -0.199603060992E+02    0.70965E-04   -0.26410E-04  1848   0.651E-02    0.393E-02
DAV:   7    -0.199603026908E+02    0.34084E-05   -0.26557E-05  1808   0.237E-02    0.109E-02
DAV:   8    -0.199603024809E+02    0.20987E-06   -0.24065E-06  1624   0.831E-03
  15 F= -.19960302E+02 E0= -.19948548E+02  d E =-.235097E-01
       N       E                     dE             d eps       ncg     rms          rms(c)
DAV:   1    -0.199823910037E+02   -0.22088E-01   -0.13525E+00  1648   0.583E+00    0.113E+00
DAV:   2    -0.199679384241E+02    0.14453E-01   -0.49288E-02  1816   0.116E+00    0.686E-01
DAV:   3    -0.199672666233E+02    0.67180E-03   -0.40962E-02  1952   0.560E-01    0.682E-01
DAV:   4    -0.199603379077E+02    0.69287E-02   -0.24700E-02  1848   0.420E-01    0.172E-01
DAV:   5    -0.199603123558E+02    0.25552E-04   -0.13612E-03  1808   0.170E-01    0.921E-02
DAV:   6    -0.199603394562E+02   -0.27100E-04   -0.42858E-04  2048   0.528E-02    0.822E-02
DAV:   7    -0.199603009120E+02    0.38544E-04   -0.31749E-04  2024   0.368E-02    0.431E-02
DAV:   8    -0.199603018982E+02   -0.98617E-06   -0.28848E-05  1832   0.225E-02    0.107E-02
DAV:   9    -0.199603022970E+02   -0.39881E-06   -0.23183E-06  1696   0.839E-03
  16 F= -.19960302E+02 E0= -.19948550E+02  d E =-.235039E-01
       N       E                     dE             d eps       ncg     rms          rms(c)
DAV:   1    -0.199733360560E+02   -0.13034E-01   -0.20803E+00  1704   0.775E+00    0.580E-01
DAV:   2    -0.199735837036E+02   -0.24765E-03   -0.60825E-02  1800   0.131E+00    0.354E-01
DAV:   3    -0.199726418121E+02    0.94189E-03   -0.10111E-02  1928   0.353E-01    0.302E-01
DAV:   4    -0.199718174970E+02    0.82432E-03   -0.96904E-03  1992   0.236E-01    0.225E-01
DAV:   5    -0.199712132874E+02    0.60421E-03   -0.28163E-03  1944   0.145E-01    0.751E-02
DAV:   6    -0.199711944766E+02    0.18811E-04   -0.16136E-04  1832   0.569E-02    0.440E-02
DAV:   7    -0.199711889549E+02    0.55217E-05   -0.15280E-05  1904   0.208E-02    0.145E-02
DAV:   8    -0.199711889434E+02    0.11445E-07   -0.23120E-06  1384   0.104E-02
  17 F= -.19971189E+02 E0= -.19960819E+02  d E =-.207389E-01
       N       E                     dE             d eps       ncg     rms          rms(c)
DAV:   1    -0.200129119546E+02   -0.41723E-01   -0.48068E+00  1704   0.122E+01    0.156E+00
DAV:   2    -0.200018676114E+02    0.11044E-01   -0.29407E-01  1832   0.240E+00    0.136E+00
DAV:   3    -0.199857304145E+02    0.16137E-01   -0.16949E-01  1944   0.992E-01    0.918E-01
DAV:   4    -0.199767093423E+02    0.90211E-02   -0.67324E-02  1904   0.680E-01    0.565E-01
DAV:   5    -0.199710295207E+02    0.56798E-02   -0.16562E-02  1944   0.490E-01    0.175E-01
DAV:   6    -0.199710125709E+02    0.16950E-04   -0.18840E-03  1824   0.181E-01    0.828E-02
DAV:   7    -0.199711147939E+02   -0.10222E-03   -0.24911E-04  1920   0.707E-02    0.335E-02
DAV:   8    -0.199711580255E+02   -0.43232E-04   -0.36740E-05  1848   0.295E-02    0.135E-02
DAV:   9    -0.199711802973E+02   -0.22272E-04   -0.69256E-06  1864   0.119E-02    0.337E-03
DAV:  10    -0.199711872773E+02   -0.69800E-05   -0.78714E-07  1352   0.441E-03    0.126E-03
DAV:  11    -0.199711888304E+02   -0.15530E-05   -0.12498E-07  1320   0.224E-03    0.527E-04
DAV:  12    -0.199711890082E+02   -0.17777E-06   -0.29736E-08  1304   0.119E-03
  18 F= -.19971189E+02 E0= -.19960820E+02  d E =-.207380E-01
       N       E                     dE             d eps       ncg     rms          rms(c)
DAV:   1    -0.199637374099E+02    0.74514E-02   -0.15175E+00  1608   0.711E+00    0.622E-01
DAV:   2    -0.199630110196E+02    0.72639E-03   -0.61934E-02  1904   0.130E+00    0.411E-01
DAV:   3    -0.199620709589E+02    0.94006E-03   -0.12895E-02  1864   0.414E-01    0.337E-01
DAV:   4    -0.199606610689E+02    0.14099E-02   -0.77393E-03  1992   0.253E-01    0.188E-01
DAV:   5    -0.199603729305E+02    0.28814E-03   -0.25280E-03  1872   0.131E-01    0.951E-02
DAV:   6    -0.199603061012E+02    0.66829E-04   -0.25929E-04  1848   0.653E-02    0.382E-02
DAV:   7    -0.199603026333E+02    0.34679E-05   -0.27276E-05  1848   0.236E-02    0.107E-02
DAV:   8    -0.199603024832E+02    0.15016E-06   -0.24105E-06  1608   0.832E-03
  19 F= -.19960302E+02 E0= -.19948548E+02  d E =-.235088E-01
       N       E                     dE             d eps       ncg     rms          rms(c)
DAV:   1    -0.199818041675E+02   -0.21502E-01   -0.14284E+00  1656   0.636E+00    0.113E+00
DAV:   2    -0.199679693177E+02    0.13835E-01   -0.53627E-02  1888   0.125E+00    0.685E-01
DAV:   3    -0.199672604840E+02    0.70883E-03   -0.40642E-02  1872   0.559E-01    0.681E-01
DAV:   4    -0.199603382266E+02    0.69223E-02   -0.24653E-02  1888   0.420E-01    0.171E-01
DAV:   5    -0.199603074297E+02    0.30797E-04   -0.13169E-03  1760   0.168E-01    0.899E-02
DAV:   6    -0.199603150338E+02   -0.76042E-05   -0.19748E-04  1976   0.450E-02    0.658E-02
DAV:   7    -0.199603075966E+02    0.74372E-05   -0.24585E-04  1984   0.320E-02    0.461E-02
DAV:   8    -0.199603019339E+02    0.56627E-05   -0.56794E-05  1864   0.233E-02    0.932E-03
DAV:   9    -0.199603022938E+02   -0.35989E-06   -0.32550E-06  1800   0.952E-03
  20 F= -.19960302E+02 E0= -.19948550E+02  d E =-.235036E-01
       N       E                     dE             d eps       ncg     rms          rms(c)
DAV:   1    -0.199739806731E+02   -0.13679E-01   -0.17809E+00  1672   0.733E+00    0.577E-01
DAV:   2    -0.199735746982E+02    0.40597E-03   -0.54466E-02  1824   0.125E+00    0.352E-01
DAV:   3    -0.199726393679E+02    0.93533E-03   -0.10008E-02  1896   0.343E-01    0.302E-01
DAV:   4    -0.199718045380E+02    0.83483E-03   -0.97116E-03  2048   0.235E-01    0.223E-01
DAV:   5    -0.199712132565E+02    0.59128E-03   -0.27365E-03  1912   0.143E-01    0.752E-02
DAV:   6    -0.199711944356E+02    0.18821E-04   -0.15791E-04  1792   0.563E-02    0.439E-02
DAV:   7    -0.199711889794E+02    0.54562E-05   -0.15068E-05  1904   0.207E-02    0.140E-02
DAV:   8    -0.199711889647E+02    0.14680E-07   -0.24956E-06  1472   0.105E-02
  21 F= -.19971189E+02 E0= -.19960819E+02  d E =-.207391E-01
       N       E                     dE             d eps       ncg     rms          rms(c)
DAV:   1    -0.200132719467E+02   -0.42083E-01   -0.43194E+00  1672   0.113E+01    0.157E+00
DAV:   2    -0.200038471496E+02    0.94248E-02   -0.31148E-01  1896   0.233E+00    0.142E+00
DAV:   3    -0.199846120572E+02    0.19235E-01   -0.18142E-01  1912   0.997E-01    0.904E-01
DAV:   4    -0.199762989511E+02    0.83131E-02   -0.66420E-02  1976   0.685E-01    0.563E-01
DAV:   5    -0.199709717049E+02    0.53272E-02   -0.15896E-02  1936   0.485E-01    0.176E-01
DAV:   6    -0.199709475877E+02    0.24117E-04   -0.18771E-03  1864   0.178E-01    0.768E-02
DAV:   7    -0.199711085161E+02   -0.16093E-03   -0.26653E-04  1920   0.731E-02    0.341E-02
DAV:   8    -0.199711517740E+02   -0.43258E-04   -0.40278E-05  1856   0.298E-02    0.136E-02
DAV:   9    -0.199711798689E+02   -0.28095E-04   -0.78836E-06  1880   0.125E-02    0.362E-03
DAV:  10    -0.199711859675E+02   -0.60985E-05   -0.86707E-07  1384   0.439E-03    0.141E-03
DAV:  11    -0.199711890083E+02   -0.30409E-05   -0.15189E-07  1400   0.244E-03    0.595E-04
DAV:  12    -0.199711890474E+02   -0.39058E-07   -0.37204E-08  1376   0.131E-03
  22 F= -.19971189E+02 E0= -.19960820E+02  d E =-.207381E-01
       N       E                     dE             d eps       ncg     rms          rms(c)
DAV:   1    -0.199637561863E+02    0.74328E-02   -0.15901E+00  1680   0.716E+00    0.622E-01
DAV:   2    -0.199630201077E+02    0.73608E-03   -0.61713E-02  1904   0.130E+00    0.412E-01
DAV:   3    -0.199620814464E+02    0.93866E-03   -0.13105E-02  1904   0.417E-01    0.339E-01
DAV:   4    -0.199606928582E+02    0.13886E-02   -0.80405E-03  1944   0.253E-01    0.195E-01
DAV:   5    -0.199603713622E+02    0.32150E-03   -0.26354E-03  1888   0.133E-01    0.935E-02
DAV:   6    -0.199603060806E+02    0.65282E-04   -0.26364E-04  1800   0.659E-02    0.381E-02
DAV:   7    -0.199603027895E+02    0.32911E-05   -0.25786E-05  1872   0.235E-02    0.115E-02
DAV:   8    -0.199603024678E+02    0.32174E-06   -0.24879E-06  1696   0.868E-03
  23 F= -.19960302E+02 E0= -.19948548E+02  d E =-.235095E-01
       N       E                     dE             d eps       ncg     rms          rms(c)
DAV:   1    -0.199818911741E+02   -0.21588E-01   -0.14520E+00  1744   0.637E+00    0.113E+00
DAV:   2    -0.199679563738E+02    0.13935E-01   -0.52974E-02  1896   0.124E+00    0.685E-01
DAV:   3    -0.199672680476E+02    0.68833E-03   -0.40787E-02  1952   0.560E-01    0.681E-01
DAV:   4    -0.199603400948E+02    0.69280E-02   -0.24696E-02  1920   0.419E-01    0.172E-01
DAV:   5    -0.199603304858E+02    0.96091E-05   -0.14498E-03  1856   0.169E-01    0.101E-01
DAV:   6    -0.199603601239E+02   -0.29638E-04   -0.77448E-04  2032   0.618E-02    0.963E-02
DAV:   7    -0.199602986057E+02    0.61518E-04   -0.37311E-04  2024   0.417E-02    0.416E-02
DAV:   8    -0.199603018083E+02   -0.32027E-05   -0.21653E-05  1840   0.231E-02    0.111E-02
DAV:   9    -0.199603022746E+02   -0.46623E-06   -0.20368E-06  1624   0.802E-03
  24 F= -.19960302E+02 E0= -.19948550E+02  d E =-.235035E-01
       N       E                     dE             d eps       ncg     rms          rms(c)
DAV:   1    -0.199740045310E+02   -0.13703E-01   -0.17739E+00  1704   0.726E+00    0.578E-01
DAV:   2    -0.199735856787E+02    0.41885E-03   -0.54471E-02  1888   0.124E+00    0.353E-01
DAV:   3    -0.199726481981E+02    0.93748E-03   -0.10046E-02  1904   0.341E-01    0.302E-01
DAV:   4    -0.199718114920E+02    0.83671E-03   -0.97748E-03  2056   0.235E-01    0.224E-01
DAV:   5    -0.199712132922E+02    0.59820E-03   -0.27585E-03  1904   0.144E-01    0.743E-02
DAV:   6    -0.199711945319E+02    0.18760E-04   -0.15852E-04  1872   0.563E-02    0.438E-02
DAV:   7    -0.199711889909E+02    0.55410E-05   -0.15176E-05  1864   0.207E-02    0.140E-02
DAV:   8    -0.199711889668E+02    0.24121E-07   -0.24883E-06  1560   0.106E-02
  25 F= -.19971189E+02 E0= -.19960819E+02  d E =-.207391E-01
       N       E                     dE             d eps       ncg     rms          rms(c)
DAV:   1    -0.199664430206E+02    0.47460E-02   -0.54158E+00  1016   0.113E+01    0.103E+00
DAV:   2    -0.199715244865E+02   -0.50815E-02   -0.21795E-01  1136   0.221E+00    0.999E-01
DAV:   3    -0.199603336478E+02    0.11191E-01   -0.63153E-02  1160   0.740E-01    0.578E-01
DAV:   4    -0.199534188343E+02    0.69148E-02   -0.19122E-02  1096   0.500E-01    0.804E-02
DAV:   5    -0.199535719371E+02   -0.15310E-03   -0.14228E-03  1120   0.176E-01    0.523E-02
DAV:   6    -0.199535048337E+02    0.67103E-04   -0.77413E-05  1136   0.430E-02    0.289E-02
DAV:   7    -0.199533591080E+02    0.14573E-03   -0.53468E-05  1192   0.271E-02    0.476E-03
DAV:   8    -0.199533100029E+02    0.49105E-04   -0.63244E-06  1120   0.105E-02    0.326E-03
DAV:   9    -0.199532675514E+02    0.42451E-04   -0.96301E-07   824   0.346E-03    0.940E-04
DAV:  10    -0.199532342310E+02    0.33320E-04   -0.59104E-07   704   0.236E-03    0.402E-04
DAV:  11    -0.199532144859E+02    0.19745E-04   -0.19560E-07   688   0.175E-03    0.318E-04
DAV:  12    -0.199532038689E+02    0.10617E-04   -0.77701E-08   688   0.107E-03    0.123E-04
DAV:  13    -0.199532022803E+02    0.15886E-05   -0.17448E-08   656   0.735E-04    0.109E-04
DAV:  14    -0.199532016886E+02    0.59167E-06   -0.50989E-09   656   0.367E-04
  26 F= -.19953202E+02 E0= -.19939610E+02  d E =-.271840E-01
       N       E                     dE             d eps       ncg     rms          rms(c)
DAV:   1    -0.199501656735E+02    0.30366E-02   -0.24543E+00   872   0.495E+00    0.257E-02
DAV:   2    -0.199532402610E+02   -0.30746E-02   -0.30875E-02   936   0.653E-01    0.150E-02
DAV:   3    -0.199533165349E+02   -0.76274E-04   -0.79914E-04  1184   0.108E-01    0.219E-02
DAV:   4    -0.199533136308E+02    0.29041E-05   -0.49827E-05  1096   0.283E-02    0.408E-03
DAV:   5    -0.199533135926E+02    0.38221E-07   -0.27418E-06   992   0.118E-02
  27 F= -.19953314E+02 E0= -.19939721E+02  d E =-.271855E-01
       N       E                     dE             d eps       ncg     rms          rms(c)
DAV:   1    -0.199497751390E+02    0.35385E-02   -0.26956E+00   880   0.549E+00    0.653E-02
DAV:   2    -0.199532173119E+02   -0.34422E-02   -0.35243E-02   904   0.731E-01    0.144E-02
DAV:   3    -0.199533110328E+02   -0.93721E-04   -0.94976E-04  1136   0.126E-01    0.130E-02
DAV:   4    -0.199533134034E+02   -0.23706E-05   -0.33961E-05   984   0.276E-02    0.980E-03
DAV:   5    -0.199533134805E+02   -0.77084E-07   -0.57608E-06   968   0.841E-03
  28 F= -.19953313E+02 E0= -.19939721E+02  d E =-.271850E-01
       N       E                     dE             d eps       ncg     rms          rms(c)
DAV:   1    -0.199500275785E+02    0.32858E-02   -0.24508E+00   880   0.496E+00    0.455E-02
DAV:   2    -0.199531186418E+02   -0.30911E-02   -0.31235E-02   928   0.641E-01    0.183E-02
DAV:   3    -0.199532087672E+02   -0.90125E-04   -0.92413E-04  1232   0.115E-01    0.302E-02
DAV:   4    -0.199532011648E+02    0.76024E-05   -0.59458E-05  1096   0.289E-02    0.108E-02
DAV:   5    -0.199532011164E+02    0.48442E-07   -0.28077E-06   928   0.118E-02
  29 F= -.19953201E+02 E0= -.19939610E+02  d E =-.271829E-01
       N       E                     dE             d eps       ncg     rms          rms(c)
DAV:   1    -0.199477098624E+02    0.54913E-02   -0.36711E+00   896   0.763E+00    0.582E-01
DAV:   2    -0.199537611549E+02   -0.60513E-02   -0.65878E-02  1168   0.127E+00    0.124E-01
DAV:   3    -0.199542999437E+02   -0.53879E-03   -0.63532E-03  1104   0.256E-01    0.229E-01
DAV:   4    -0.199537067363E+02    0.59321E-03   -0.24785E-03  1120   0.126E-01    0.532E-02
DAV:   5    -0.199537102057E+02   -0.34694E-05   -0.10673E-04  1072   0.571E-02    0.254E-02
DAV:   6    -0.199537107956E+02   -0.58994E-06   -0.10361E-05  1088   0.161E-02    0.174E-02
DAV:   7    -0.199537109880E+02   -0.19238E-06   -0.20111E-06   880   0.694E-03
  30 F= -.19953711E+02 E0= -.19940211E+02  d E =-.270002E-01
       N       E                     dE             d eps       ncg     rms          rms(c)
DAV:   1    -0.199530778391E+02    0.63296E-03   -0.11958E-01   880   0.150E+00    0.198E-01
DAV:   2    -0.199534441713E+02   -0.36633E-03   -0.60630E-03  1136   0.348E-01    0.797E-02
DAV:   3    -0.199535562456E+02   -0.11207E-03   -0.15992E-03  1064   0.100E-01    0.120E-01
DAV:   4    -0.199534157192E+02    0.14053E-03   -0.52396E-04  1128   0.554E-02    0.346E-02
DAV:   5    -0.199534178485E+02   -0.21293E-05   -0.20308E-05  1112   0.204E-02    0.247E-02
DAV:   6    -0.199534181416E+02   -0.29311E-06   -0.14773E-06   816   0.593E-03
  31 F= -.19953418E+02 E0= -.19939849E+02  d E =-.271375E-01
       N       E                     dE             d eps       ncg     rms          rms(c)
DAV:   1    -0.199534309609E+02   -0.13112E-04   -0.15352E-01   880   0.175E+00    0.548E-01
DAV:   2    -0.199534608494E+02   -0.29889E-04   -0.82450E-03  1128   0.448E-01    0.933E-02
DAV:   3    -0.199534116436E+02    0.49206E-04   -0.56956E-04  1000   0.112E-01    0.480E-02
DAV:   4    -0.199534356271E+02   -0.23983E-04   -0.20754E-04  1120   0.440E-02    0.608E-02
DAV:   5    -0.199534169298E+02    0.18697E-04   -0.95363E-05  1096   0.223E-02    0.352E-02
DAV:   6    -0.199534184694E+02   -0.15396E-05   -0.63887E-06  1088   0.116E-02    0.617E-03
DAV:   7    -0.199534182069E+02    0.26255E-06   -0.88410E-07   648   0.448E-03
  32 F= -.19953418E+02 E0= -.19939848E+02  d E =-.271396E-01
       N       E                     dE             d eps       ncg     rms          rms(c)
DAV:   1    -0.199532545479E+02    0.16392E-03   -0.12981E-01   880   0.153E+00    0.357E-01
DAV:   2    -0.199537606597E+02   -0.50611E-03   -0.66080E-03  1136   0.368E-01    0.692E-02
DAV:   3    -0.199539016607E+02   -0.14100E-03   -0.17128E-03  1072   0.101E-01    0.129E-01
DAV:   4    -0.199537103161E+02    0.19134E-03   -0.76391E-04  1120   0.622E-02    0.258E-02
DAV:   5    -0.199537110905E+02   -0.77447E-06   -0.31965E-05  1088   0.251E-02    0.121E-02
DAV:   6    -0.199537112297E+02   -0.13914E-06   -0.36184E-06  1032   0.841E-03
  33 F= -.19953711E+02 E0= -.19940210E+02  d E =-.270035E-01
       N       E                     dE             d eps       ncg     rms          rms(c)
DAV:   1    -0.199520906950E+02    0.16204E-02   -0.10631E+00  1296   0.393E+00    0.580E-01
DAV:   2    -0.199554600721E+02   -0.33694E-02   -0.51349E-02  1704   0.111E+00    0.235E-01
DAV:   3    -0.199557862003E+02   -0.32613E-03   -0.80128E-03  1592   0.263E-01    0.260E-01
DAV:   4    -0.199551246116E+02    0.66159E-03   -0.41417E-03  1760   0.142E-01    0.988E-02
DAV:   5    -0.199551108705E+02    0.13741E-04   -0.26183E-04  1592   0.648E-02    0.414E-02
DAV:   6    -0.199551220956E+02   -0.11225E-04   -0.94338E-05  1696   0.281E-02    0.348E-02
DAV:   7    -0.199551146034E+02    0.74921E-05   -0.70988E-05  1712   0.170E-02    0.155E-02
DAV:   8    -0.199551139818E+02    0.62159E-06   -0.51473E-06  1296   0.756E-03
  34 F= -.19955114E+02 E0= -.19941863E+02  d E =-.265014E-01
       N       E                     dE             d eps       ncg     rms          rms(c)
DAV:   1    -0.199513421431E+02    0.37725E-02   -0.69675E-01  1360   0.281E+00    0.104E-01
DAV:   2    -0.199537272708E+02   -0.23851E-02   -0.26307E-02  1640   0.748E-01    0.546E-02
DAV:   3    -0.199538184997E+02   -0.91229E-04   -0.96838E-04  1656   0.126E-01    0.684E-02
DAV:   4    -0.199537693077E+02    0.49192E-04   -0.28299E-04  1688   0.428E-02    0.204E-02
DAV:   5    -0.199537680792E+02    0.12285E-05   -0.11835E-05  1632   0.155E-02    0.102E-02
DAV:   6    -0.199537683409E+02   -0.26166E-06   -0.48037E-06  1368   0.722E-03
  35 F= -.19953768E+02 E0= -.19940262E+02  d E =-.270136E-01
       N       E                     dE             d eps       ncg     rms          rms(c)
DAV:   1    -0.199521025647E+02    0.16655E-02   -0.62825E-01  1352   0.276E+00    0.164E-01
DAV:   2    -0.199538972653E+02   -0.17947E-02   -0.22324E-02  1640   0.744E-01    0.165E-01
DAV:   3    -0.199538287888E+02    0.68477E-04   -0.73594E-04  1688   0.127E-01    0.102E-01
DAV:   4    -0.199538515355E+02   -0.22747E-04   -0.78729E-04  1760   0.608E-02    0.102E-01
DAV:   5    -0.199537658145E+02    0.85721E-04   -0.36611E-04  1680   0.500E-02    0.269E-02
DAV:   6    -0.199537677172E+02   -0.19027E-05   -0.19731E-05  1632   0.207E-02    0.102E-02
DAV:   7    -0.199537682534E+02   -0.53615E-06   -0.30360E-06  1488   0.696E-03
  36 F= -.19953768E+02 E0= -.19940260E+02  d E =-.270157E-01
       N       E                     dE             d eps       ncg     rms          rms(c)
DAV:   1    -0.199525000370E+02    0.12677E-02   -0.69305E-01  1320   0.279E+00    0.176E-01
DAV:   2    -0.199552028850E+02   -0.27028E-02   -0.27692E-02  1656   0.764E-01    0.137E-01
DAV:   3    -0.199551925749E+02    0.10310E-04   -0.10791E-03  1632   0.128E-01    0.103E-01
DAV:   4    -0.199551457539E+02    0.46821E-04   -0.26212E-04  1672   0.421E-02    0.748E-02
DAV:   5    -0.199551142618E+02    0.31492E-04   -0.18996E-04  1624   0.485E-02    0.318E-02
DAV:   6    -0.199551148707E+02   -0.60884E-06   -0.25409E-05  1568   0.196E-02    0.173E-02
DAV:   7    -0.199551144117E+02    0.45896E-06   -0.21915E-06  1176   0.507E-03
  37 F= -.19955114E+02 E0= -.19941862E+02  d E =-.265045E-01
       N       E                     dE             d eps       ncg     rms          rms(c)
DAV:   1    -0.199537815130E+02    0.13334E-02   -0.17724E+00   904   0.492E+00    0.775E-01
DAV:   2    -0.199576584372E+02   -0.38769E-02   -0.79559E-02  1128   0.138E+00    0.177E-01
DAV:   3    -0.199576116709E+02    0.46766E-04   -0.54523E-03  1104   0.310E-01    0.217E-01
DAV:   4    -0.199571508636E+02    0.46081E-03   -0.27581E-03  1152   0.134E-01    0.807E-02
DAV:   5    -0.199569366976E+02    0.21417E-03   -0.27943E-04  1080   0.655E-02    0.355E-02
DAV:   6    -0.199568219371E+02    0.11476E-03   -0.10951E-04  1112   0.441E-02    0.144E-02
DAV:   7    -0.199567900684E+02    0.31869E-04   -0.26850E-05  1160   0.216E-02    0.864E-03
DAV:   8    -0.199567733289E+02    0.16739E-04   -0.34038E-06  1000   0.862E-03    0.386E-03
DAV:   9    -0.199567594252E+02    0.13904E-04   -0.24455E-06   976   0.727E-03    0.129E-03
DAV:  10    -0.199567549239E+02    0.45013E-05   -0.67645E-07   728   0.442E-03    0.115E-03
DAV:  11    -0.199567527762E+02    0.21477E-05   -0.23074E-07   712   0.313E-03    0.518E-04
DAV:  12    -0.199567521237E+02    0.65257E-06   -0.93488E-08   680   0.197E-03
  38 F= -.19956752E+02 E0= -.19944358E+02  d E =-.247891E-01
       N       E                     dE             d eps       ncg     rms          rms(c)
DAV:   1    -0.199526282605E+02    0.41245E-02   -0.53495E-01   872   0.255E+00    0.264E-01
DAV:   2    -0.199542170947E+02   -0.15888E-02   -0.25770E-02  1112   0.721E-01    0.100E-01
DAV:   3    -0.199545337315E+02   -0.31664E-03   -0.30056E-03  1072   0.178E-01    0.175E-01
DAV:   4    -0.199542018727E+02    0.33186E-03   -0.14061E-03  1128   0.873E-02    0.430E-02
DAV:   5    -0.199542022886E+02   -0.41595E-06   -0.40867E-05  1080   0.292E-02    0.268E-02
DAV:   6    -0.199542017249E+02    0.56377E-06   -0.63502E-06  1136   0.103E-02
  39 F= -.19954202E+02 E0= -.19940929E+02  d E =-.265458E-01
       N       E                     dE             d eps       ncg     rms          rms(c)
DAV:   1    -0.199548000913E+02   -0.59780E-03   -0.70493E-01   872   0.300E+00    0.690E-01
DAV:   2    -0.199543724659E+02    0.42763E-03   -0.33653E-02  1120   0.903E-01    0.152E-01
DAV:   3    -0.199542099243E+02    0.16254E-03   -0.21031E-03  1024   0.224E-01    0.591E-02
DAV:   4    -0.199542092267E+02    0.69761E-06   -0.23923E-04  1144   0.672E-02    0.520E-02
DAV:   5    -0.199542125238E+02   -0.32971E-05   -0.13407E-04  1088   0.261E-02    0.453E-02
DAV:   6    -0.199542014870E+02    0.11037E-04   -0.47291E-05  1128   0.197E-02    0.772E-03
DAV:   7    -0.199542010116E+02    0.47545E-06   -0.38304E-06  1040   0.878E-03
  40 F= -.19954201E+02 E0= -.19940929E+02  d E =-.265442E-01
       N       E                     dE             d eps       ncg     rms          rms(c)
DAV:   1    -0.199548213338E+02   -0.61985E-03   -0.56313E-01   872   0.265E+00    0.431E-01
DAV:   2    -0.199568501132E+02   -0.20288E-02   -0.28543E-02  1136   0.760E-01    0.103E-01
DAV:   3    -0.199570680012E+02   -0.21789E-03   -0.29012E-03  1064   0.180E-01    0.165E-01
DAV:   4    -0.199567584467E+02    0.30955E-03   -0.13475E-03  1152   0.893E-02    0.316E-02
DAV:   5    -0.199567505956E+02    0.78511E-05   -0.72857E-05  1096   0.379E-02    0.171E-02
DAV:   6    -0.199567508960E+02   -0.30040E-06   -0.10614E-05  1088   0.142E-02    0.887E-03
DAV:   7    -0.199567508490E+02    0.46963E-07   -0.11304E-06   688   0.454E-03
  41 F= -.19956751E+02 E0= -.19944356E+02  d E =-.247901E-01
