 vasp.6.3.2 27Jun22 (build Jun 14 2024 17:29:11) complex                         
 executed on             LinuxGNU date 2026.03.30  04:21:07
 running on   32 total cores
 distrk:  each k-point on   32 cores,    1 groups
 distr:  one band on NCORE=   1 cores,   32 groups


--------------------------------------------------------------------------------------------------------


 INCAR:
   EDIFF = 1e-06
   ENCUT = 400.0
   IBRION = 6
   ISIF = 3
   ISMEAR = 0
   LCHARG = False
   LREAL = Auto
   LWAVE = False
   NFREE = 4
   NSW = 1
   POTIM = 0.015
   SIGMA = 0.05

 POTCAR:    PAW_PBE Na_pv 19Sep2006               
 POTCAR:    PAW_PBE Si 05Jan2001                  
 POTCAR:    PAW_PBE S 06Sep2000                   
 -----------------------------------------------------------------------------
|                                                                             |
|           W    W    AA    RRRRR   N    N  II  N    N   GGGG   !!!           |
|           W    W   A  A   R    R  NN   N  II  NN   N  G    G  !!!           |
|           W    W  A    A  R    R  N N  N  II  N N  N  G       !!!           |
|           W WW W  AAAAAA  RRRRR   N  N N  II  N  N N  G  GGG   !            |
|           WW  WW  A    A  R   R   N   NN  II  N   NN  G    G                |
|           W    W  A    A  R    R  N    N  II  N    N   GGGG   !!!           |
|                                                                             |
|     For optimal performance we recommend to set                             |
|       NCORE = 2 up to number-of-cores-per-socket                            |
|     NCORE specifies how many cores store one orbital (NPAR=cpu/NCORE).      |
|     This setting can greatly improve the performance of VASP for DFT.       |
|     The default, NCORE=1 might be grossly inefficient on modern             |
|     multi-core architectures or massively parallel machines. Do your        |
|     own testing! More info at https://www.vasp.at/wiki/index.php/NCORE      |
|     Unfortunately you need to use the default for GW and RPA                |
|     calculations (for HF NCORE is supported but not extensively tested      |
|     yet).                                                                   |
|                                                                             |
 -----------------------------------------------------------------------------

 POTCAR:    PAW_PBE Na_pv 19Sep2006               
   SHA256 =  6a2f546d9e11350984debacf3dc457d8cffc0868e817d445faca461816a32b94 Na_pv/POTCAR          
   COPYR  = (c) Copyright 19Sep2006 Georg Kresse                                                    
   COPYR  = This file is part of the software VASP. Any use, copying, and all other rights are regul
   COPYR  = If you do not have a valid VASP license, you may not use, copy or distribute this file. 
   VRHFIN =Na: p6s1                                                                                 
   LEXCH  = PE                                                                                      
   EATOM  =   766.0439 eV,   56.3026 Ry                                                             
                                                                                                    
   TITEL  = PAW_PBE Na_pv 19Sep2006                                                                 
   LULTRA =        F    use ultrasoft PP ?                                                          
   IUNSCR =        1    unscreen: 0-lin 1-nonlin 2-no                                               
   RPACOR =    1.800    partial core radius                                                         
   POMASS =   22.990; ZVAL   =    7.000    mass and valenz                                          
   RCORE  =    2.200    outmost cutoff radius                                                       
   RWIGS  =    2.200; RWIGS  =    1.164    wigner-seitz radius (au A)                               
   ENMAX  =  259.561; ENMIN  =  194.671 eV                                                          
   ICORE  =        2    local potential                                                             
   LCOR   =        T    correct aug charges                                                         
   LPAW   =        T    paw PP                                                                      
   EAUG   =  368.056                                                                                
   DEXC   =    0.000                                                                                
   RMAX   =    2.245    core radius for proj-oper                                                   
   RAUG   =    1.300    factor for augmentation sphere                                              
   RDEP   =    2.259    radius for radial grids                                                     
   RDEPT  =    1.738    core radius for aug-charge                                                  
                                                                                                    
   Atomic configuration                                                                             
    5 entries                                                                                       
     n  l   j            E        occ.                                                              
     1  0  0.50     -1033.6933   2.0000                                                             
     2  0  0.50       -56.7526   2.0000                                                             
     2  1  1.50       -28.6721   6.0000                                                             
     3  0  0.50        -2.7440   1.0000                                                             
     3  2  1.50        -1.3606   0.0000                                                             
   Description                                                                                      
     l       E           TYP  RCUT    TYP  RCUT                                                     
     1    -28.6720912     23  2.000                                                                 
     1      6.8029130     23  2.000                                                                 
     0     -2.7439560     23  2.200                                                                 
     0     34.0145650     23  2.200                                                                 
     2     -1.3605826     23  2.200                                                                 
  local pseudopotential read in
  partial core-charges read in
  partial kinetic energy density read in
  atomic valenz-charges read in
  non local Contribution for L=           1  read in
    real space projection operators read in
  non local Contribution for L=           1  read in
    real space projection operators read in
  non local Contribution for L=           0  read in
    real space projection operators read in
  non local Contribution for L=           0  read in
    real space projection operators read in
    PAW grid and wavefunctions read in

   number of l-projection  operators is LMAX  =           4
   number of lm-projection operators is LMMAX =           8

 POTCAR:    PAW_PBE Si 05Jan2001                  
   SHA256 =  79d9987ad8750f624c4d6acb2a16d13abf6a777132adc04dc6c8399be72b42bb Si/POTCAR             
   COPYR  = (c) Copyright 05Jan2001 Georg Kresse                                                    
   COPYR  = This file is part of the software VASP. Any use, copying, and all other rights are regul
   COPYR  = If you do not have a valid VASP license, you may not use, copy or distribute this file. 
   VRHFIN =Si: s2p2                                                                                 
   LEXCH  = PE                                                                                      
   EATOM  =   103.0669 eV,    7.5752 Ry                                                             
                                                                                                    
   TITEL  = PAW_PBE Si 05Jan2001                                                                    
   LULTRA =        F    use ultrasoft PP ?                                                          
   IUNSCR =        1    unscreen: 0-lin 1-nonlin 2-no                                               
   RPACOR =    1.500    partial core radius                                                         
   POMASS =   28.085; ZVAL   =    4.000    mass and valenz                                          
   RCORE  =    1.900    outmost cutoff radius                                                       
   RWIGS  =    2.480; RWIGS  =    1.312    wigner-seitz radius (au A)                               
   ENMAX  =  245.345; ENMIN  =  184.009 eV                                                          
   ICORE  =        2    local potential                                                             
   LCOR   =        T    correct aug charges                                                         
   LPAW   =        T    paw PP                                                                      
   EAUG   =  322.069                                                                                
   DEXC   =    0.000                                                                                
   RMAX   =    1.950    core radius for proj-oper                                                   
   RAUG   =    1.300    factor for augmentation sphere                                              
   RDEP   =    1.993    radius for radial grids                                                     
   RDEPT  =    1.837    core radius for aug-charge                                                  
                                                                                                    
   Atomic configuration                                                                             
    6 entries                                                                                       
     n  l   j            E        occ.                                                              
     1  0  0.50     -1785.8828   2.0000                                                             
     2  0  0.50      -139.4969   2.0000                                                             
     2  1  1.50       -95.5546   6.0000                                                             
     3  0  0.50       -10.8127   2.0000                                                             
     3  1  0.50        -4.0811   2.0000                                                             
     3  2  1.50        -4.0817   0.0000                                                             
   Description                                                                                      
     l       E           TYP  RCUT    TYP  RCUT                                                     
     0    -10.8127223     23  1.900                                                                 
     0     -7.6451159     23  1.900                                                                 
     1     -4.0811372     23  1.900                                                                 
     1      2.4879257     23  1.900                                                                 
     2     -4.0817478      7  1.900                                                                 
  local pseudopotential read in
  partial core-charges read in
  partial kinetic energy density read in
  atomic valenz-charges read in
  non local Contribution for L=           0  read in
    real space projection operators read in
  non local Contribution for L=           0  read in
    real space projection operators read in
  non local Contribution for L=           1  read in
    real space projection operators read in
  non local Contribution for L=           1  read in
    real space projection operators read in
    PAW grid and wavefunctions read in

   number of l-projection  operators is LMAX  =           4
   number of lm-projection operators is LMMAX =           8

 POTCAR:    PAW_PBE S 06Sep2000                   
   SHA256 =  0fc7481fb0695f01bdc6462160264c5c84044ae9ec85a907d398b887a2bc3132 S/POTCAR              
   COPYR  = (c) Copyright 06Sep2000 Georg Kresse                                                    
   COPYR  = This file is part of the software VASP. Any use, copying, and all other rights are regul
   COPYR  = If you do not have a valid VASP license, you may not use, copy or distribute this file. 
   VRHFIN =S : s2p4                                                                                 
   LEXCH  = PE                                                                                      
   EATOM  =   276.8230 eV,   20.3459 Ry                                                             
                                                                                                    
   TITEL  = PAW_PBE S 06Sep2000                                                                     
   LULTRA =        F    use ultrasoft PP ?                                                          
   IUNSCR =        1    unscreen: 0-lin 1-nonlin 2-no                                               
   RPACOR =    1.500    partial core radius                                                         
   POMASS =   32.066; ZVAL   =    6.000    mass and valenz                                          
   RCORE  =    1.900    outmost cutoff radius                                                       
   RWIGS  =    2.200; RWIGS  =    1.164    wigner-seitz radius (au A)                               
   ENMAX  =  258.689; ENMIN  =  194.016 eV                                                          
   ICORE  =        2    local potential                                                             
   LCOR   =        T    correct aug charges                                                         
   LPAW   =        T    paw PP                                                                      
   EAUG   =  335.092                                                                                
   DEXC   =    0.000                                                                                
   RMAX   =    1.942    core radius for proj-oper                                                   
   RAUG   =    1.300    factor for augmentation sphere                                              
   RDEP   =    1.954    radius for radial grids                                                     
   RDEPT  =    1.744    core radius for aug-charge                                                  
                                                                                                    
   Atomic configuration                                                                             
    6 entries                                                                                       
     n  l   j            E        occ.                                                              
     1  0  0.50     -2405.8406   2.0000                                                             
     2  0  0.50      -211.7007   2.0000                                                             
     2  1  1.50      -156.4958   6.0000                                                             
     3  0  0.50       -17.2562   2.0000                                                             
     3  1  0.50        -7.0085   4.0000                                                             
     3  2  1.50        -6.8029   0.0000                                                             
   Description                                                                                      
     l       E           TYP  RCUT    TYP  RCUT                                                     
     0    -17.2561641     23  1.900                                                                 
     0    -15.8743224     23  1.900                                                                 
     1     -7.0085400     23  1.900                                                                 
     1     -2.7779785     23  1.900                                                                 
     2     -6.8029130     23  1.900                                                                 
  local pseudopotential read in
  partial core-charges read in
  partial kinetic energy density read in
  atomic valenz-charges read in
  non local Contribution for L=           0  read in
    real space projection operators read in
  non local Contribution for L=           0  read in
    real space projection operators read in
  non local Contribution for L=           1  read in
    real space projection operators read in
  non local Contribution for L=           1  read in
    real space projection operators read in
    PAW grid and wavefunctions read in

   number of l-projection  operators is LMAX  =           4
   number of lm-projection operators is LMMAX =           8

 -----------------------------------------------------------------------------
|                                                                             |
|               ----> ADVICE to this user running VASP <----                  |
|                                                                             |
|     You have a (more or less) 'small supercell' and for smaller cells       |
|     it is recommended to use the reciprocal-space projection scheme!        |
|     The real-space optimization is not efficient for small cells and it     |
|     is also less accurate ...                                               |
|     Therefore, set LREAL=.FALSE. in the INCAR file.                         |
|                                                                             |
 -----------------------------------------------------------------------------

 Optimization of the real space projectors (new method)

 maximal supplied QI-value         = 17.01
 optimisation between [QCUT,QGAM] = [ 10.20, 20.41] = [ 29.16,116.64] Ry 
 Optimized for a Real-space Cutoff    1.30 Angstroem

   l    n(q)    QCUT    max X(q) W(low)/X(q) W(high)/X(q)  e(spline) 
   1      7    10.205     4.940    0.23E-03    0.84E-03    0.11E-06
   1      7    10.205     6.253    0.40E-03    0.13E-02    0.18E-06
   0      8    10.205    37.438    0.23E-03    0.37E-03    0.42E-07
   0      8    10.205     9.606    0.16E-03    0.26E-03    0.31E-07
 Optimization of the real space projectors (new method)

 maximal supplied QI-value         = 19.84
 optimisation between [QCUT,QGAM] = [ 10.12, 20.44] = [ 28.68,116.96] Ry 
 Optimized for a Real-space Cutoff    1.23 Angstroem

   l    n(q)    QCUT    max X(q) W(low)/X(q) W(high)/X(q)  e(spline) 
   0      7    10.119   159.560    0.56E-04    0.22E-03    0.45E-07
   0      7    10.119   115.863    0.56E-04    0.21E-03    0.45E-07
   1      7    10.119    88.339    0.34E-03    0.49E-03    0.11E-06
   1      7    10.119    48.592    0.33E-03    0.48E-03    0.11E-06
 Optimization of the real space projectors (new method)

 maximal supplied QI-value         = 19.84
 optimisation between [QCUT,QGAM] = [ 10.12, 20.44] = [ 28.68,116.96] Ry 
 Optimized for a Real-space Cutoff    1.23 Angstroem

   l    n(q)    QCUT    max X(q) W(low)/X(q) W(high)/X(q)  e(spline) 
   0      7    10.119   187.594    0.62E-04    0.28E-03    0.52E-07
   0      7    10.119   164.243    0.61E-04    0.28E-03    0.52E-07
   1      7    10.119    67.533    0.45E-03    0.63E-03    0.13E-06
   1      7    10.119    50.729    0.44E-03    0.62E-03    0.12E-06
  PAW_PBE Na_pv 19Sep2006               :
 energy of atom  1       EATOM= -766.0439
 kinetic energy error for atom=    0.0103 (will be added to EATOM!!)
  PAW_PBE Si 05Jan2001                  :
 energy of atom  2       EATOM= -103.0669
 kinetic energy error for atom=    0.0012 (will be added to EATOM!!)
  PAW_PBE S 06Sep2000                   :
 energy of atom  3       EATOM= -276.8230
 kinetic energy error for atom=    0.0046 (will be added to EATOM!!)


 POSCAR: Na1 Si1 S3
  positions in direct lattice
  velocities in cartesian coordinates
 exchange correlation table for  LEXCH =        8
   RHO(1)=    0.500       N(1)  =     2000
   RHO(2)=  100.500       N(2)  =     4000



--------------------------------------------------------------------------------------------------------


 ion  position               nearest neighbor table
   1  0.000  0.000  0.000-
   2  0.500  0.500  0.500-   3 2.32   4 2.32   5 2.32   3 2.32   4 2.32   5 2.32
   3  0.500  0.500  0.000-   2 2.32   2 2.32
   4  0.500  0.000  0.500-   2 2.32   2 2.32
   5  0.000  0.500  0.500-   2 2.32   2 2.32

  LATTYP: Found a simple cubic cell.
 ALAT       =     4.6351897814
  
  Lattice vectors:
  
 A1 = (   4.6351897814,  -0.0000000000,  -0.0000000000)
 A2 = (  -0.0000000000,   4.6351897814,  -0.0000000000)
 A3 = (   0.0000000000,   0.0000000000,   4.6351897814)


Analysis of symmetry for initial positions (statically):
=====================================================================
 Subroutine PRICEL returns:
 Original cell was already a primitive cell.
 

 Routine SETGRP: Setting up the symmetry group for a 
 simple cubic supercell.


 Subroutine GETGRP returns: Found 48 space group operations
 (whereof 48 operations were pure point group operations)
 out of a pool of 48 trial point group operations.


The static configuration has the point symmetry O_h .


Analysis of symmetry for dynamics (positions and initial velocities):
=====================================================================
 Subroutine PRICEL returns:
 Original cell was already a primitive cell.
 

 Routine SETGRP: Setting up the symmetry group for a 
 simple cubic supercell.


 Subroutine GETGRP returns: Found 48 space group operations
 (whereof 48 operations were pure point group operations)
 out of a pool of 48 trial point group operations.


The dynamic configuration has the point symmetry O_h .


 Subroutine INISYM returns: Found 48 space group operations
 (whereof 48 operations are pure point group operations),
 and found     1 'primitive' translations


----------------------------------------------------------------------------------------

                                     Primitive cell                                     

  volume of cell :      99.5870

  direct lattice vectors                    reciprocal lattice vectors
     4.635189781 -0.000000000 -0.000000000     0.215740897  0.000000000 -0.000000000
    -0.000000000  4.635189781 -0.000000000     0.000000000  0.215740897 -0.000000000
     0.000000000  0.000000000  4.635189781     0.000000000  0.000000000  0.215740897

  length of vectors
     4.635189781  4.635189781  4.635189781     0.215740897  0.215740897  0.215740897

  position of ions in fractional coordinates (direct lattice)
     0.000000000  0.000000000  0.000000000
     0.500000068  0.500000068  0.500000068
     0.500000068  0.500000068  0.000000000
     0.500000068  0.000000000  0.500000068
     0.000000000  0.500000068  0.500000068

  ion indices of the primitive-cell ions
   primitive index   ion index
                 1           1
                 2           2
                 3           3
                 4           4
                 5           5

----------------------------------------------------------------------------------------



 KPOINTS: pymatgen with grid density = 600 / numbe

Automatic generation of k-mesh.
 Grid dimensions read from file:
 generate k-points for:    4    4    4

 Generating k-lattice:

  Cartesian coordinates                     Fractional coordinates (reciprocal lattice)
     0.053935224  0.000000000 -0.000000000     0.250000000  0.000000000  0.000000000
     0.000000000  0.053935224 -0.000000000     0.000000000  0.250000000  0.000000000
     0.000000000  0.000000000  0.053935224     0.000000000  0.000000000  0.250000000

  Length of vectors
     0.053935224  0.053935224  0.053935224

  Shift w.r.t. Gamma in fractional coordinates (k-lattice)
     0.000000000  0.000000000  0.000000000

 
 Subroutine IBZKPT returns following result:
 ===========================================
 
 Found     10 irreducible k-points:
 
 Following reciprocal coordinates:
            Coordinates               Weight
  0.000000  0.000000  0.000000      1.000000
  0.250000  0.000000  0.000000      6.000000
  0.500000  0.000000  0.000000      3.000000
  0.250000  0.250000  0.000000     12.000000
  0.500000  0.250000  0.000000     12.000000
  0.500000  0.500000  0.000000      3.000000
  0.250000  0.250000  0.250000      8.000000
  0.500000  0.250000  0.250000     12.000000
  0.500000  0.500000  0.250000      6.000000
  0.500000  0.500000  0.500000      1.000000
 
 Following cartesian coordinates:
            Coordinates               Weight
  0.000000  0.000000  0.000000      1.000000
  0.053935  0.000000  0.000000      6.000000
  0.107870  0.000000  0.000000      3.000000
  0.053935  0.053935  0.000000     12.000000
  0.107870  0.053935  0.000000     12.000000
  0.107870  0.107870  0.000000      3.000000
  0.053935  0.053935  0.053935      8.000000
  0.107870  0.053935  0.053935     12.000000
  0.107870  0.107870  0.053935      6.000000
  0.107870  0.107870  0.107870      1.000000
 
 
 Subroutine IBZKPT_HF returns following result:
 ==============================================
 
 Found     64 k-points in 1st BZ
 the following     64 k-points will be used (e.g. in the exchange kernel)
 Following reciprocal coordinates:   # in IRBZ
  0.000000  0.000000  0.000000    0.01562500   1 t-inv F
  0.250000  0.000000  0.000000    0.01562500   2 t-inv F
  0.500000  0.000000  0.000000    0.01562500   3 t-inv F
  0.250000  0.250000  0.000000    0.01562500   4 t-inv F
  0.500000  0.250000  0.000000    0.01562500   5 t-inv F
  0.500000  0.500000  0.000000    0.01562500   6 t-inv F
  0.250000  0.250000  0.250000    0.01562500   7 t-inv F
  0.500000  0.250000  0.250000    0.01562500   8 t-inv F
  0.500000  0.500000  0.250000    0.01562500   9 t-inv F
  0.500000  0.500000  0.500000    0.01562500  10 t-inv F
 -0.250000 -0.000000 -0.000000    0.01562500   2 t-inv F
  0.000000  0.250000  0.000000    0.01562500   2 t-inv F
 -0.000000 -0.250000 -0.000000    0.01562500   2 t-inv F
  0.000000  0.000000  0.250000    0.01562500   2 t-inv F
 -0.000000 -0.000000 -0.250000    0.01562500   2 t-inv F
  0.000000  0.500000  0.000000    0.01562500   3 t-inv F
  0.000000  0.000000  0.500000    0.01562500   3 t-inv F
 -0.250000 -0.250000 -0.000000    0.01562500   4 t-inv F
  0.000000  0.250000  0.250000    0.01562500   4 t-inv F
 -0.000000 -0.250000 -0.250000    0.01562500   4 t-inv F
  0.250000  0.000000  0.250000    0.01562500   4 t-inv F
 -0.250000 -0.000000 -0.250000    0.01562500   4 t-inv F
 -0.250000  0.250000  0.000000    0.01562500   4 t-inv F
  0.250000 -0.250000 -0.000000    0.01562500   4 t-inv F
 -0.250000  0.000000  0.250000    0.01562500   4 t-inv F
  0.250000 -0.000000 -0.250000    0.01562500   4 t-inv F
 -0.000000 -0.250000  0.250000    0.01562500   4 t-inv F
  0.000000  0.250000 -0.250000    0.01562500   4 t-inv F
 -0.500000 -0.250000 -0.000000    0.01562500   5 t-inv F
  0.000000  0.500000  0.250000    0.01562500   5 t-inv F
 -0.000000 -0.500000 -0.250000    0.01562500   5 t-inv F
  0.250000  0.000000  0.500000    0.01562500   5 t-inv F
 -0.250000 -0.000000 -0.500000    0.01562500   5 t-inv F
 -0.250000  0.500000  0.000000    0.01562500   5 t-inv F
  0.250000 -0.500000 -0.000000    0.01562500   5 t-inv F
 -0.500000  0.000000  0.250000    0.01562500   5 t-inv F
  0.500000 -0.000000 -0.250000    0.01562500   5 t-inv F
 -0.000000  0.250000  0.500000    0.01562500   5 t-inv F
  0.000000 -0.250000 -0.500000    0.01562500   5 t-inv F
  0.000000  0.500000  0.500000    0.01562500   6 t-inv F
  0.500000  0.000000  0.500000    0.01562500   6 t-inv F
 -0.250000 -0.250000 -0.250000    0.01562500   7 t-inv F
 -0.250000  0.250000  0.250000    0.01562500   7 t-inv F
  0.250000 -0.250000 -0.250000    0.01562500   7 t-inv F
 -0.250000 -0.250000  0.250000    0.01562500   7 t-inv F
  0.250000  0.250000 -0.250000    0.01562500   7 t-inv F
  0.250000 -0.250000  0.250000    0.01562500   7 t-inv F
 -0.250000  0.250000 -0.250000    0.01562500   7 t-inv F
 -0.500000 -0.250000 -0.250000    0.01562500   8 t-inv F
  0.250000  0.500000  0.250000    0.01562500   8 t-inv F
 -0.250000 -0.500000 -0.250000    0.01562500   8 t-inv F
  0.250000  0.250000  0.500000    0.01562500   8 t-inv F
 -0.250000 -0.250000 -0.500000    0.01562500   8 t-inv F
 -0.250000  0.500000  0.250000    0.01562500   8 t-inv F
  0.250000 -0.500000 -0.250000    0.01562500   8 t-inv F
 -0.250000  0.250000  0.500000    0.01562500   8 t-inv F
  0.250000 -0.250000 -0.500000    0.01562500   8 t-inv F
 -0.500000 -0.250000  0.250000    0.01562500   8 t-inv F
  0.500000  0.250000 -0.250000    0.01562500   8 t-inv F
 -0.500000 -0.500000 -0.250000    0.01562500   9 t-inv F
  0.250000  0.500000  0.500000    0.01562500   9 t-inv F
 -0.250000 -0.500000 -0.500000    0.01562500   9 t-inv F
  0.500000  0.250000  0.500000    0.01562500   9 t-inv F
 -0.500000 -0.250000 -0.500000    0.01562500   9 t-inv F


--------------------------------------------------------------------------------------------------------




 Dimension of arrays:
   k-points           NKPTS =     10   k-points in BZ     NKDIM =     10   number of bands    NBANDS=     32
   number of dos      NEDOS =    301   number of ions     NIONS =      5
   non local maximal  LDIM  =      4   non local SUM 2l+1 LMDIM =      8
   total plane-waves  NPLWV =  13824
   max r-space proj   IRMAX =   1331   max aug-charges    IRDMAX=   4840
   dimension x,y,z NGX =    24 NGY =   24 NGZ =   24
   dimension x,y,z NGXF=    48 NGYF=   48 NGZF=   48
   support grid    NGXF=    48 NGYF=   48 NGZF=   48
   ions per type =               1   1   3
   NGX,Y,Z   is equivalent  to a cutoff of   8.61,  8.61,  8.61 a.u.
   NGXF,Y,Z  is equivalent  to a cutoff of  17.22, 17.22, 17.22 a.u.

 SYSTEM =  unknown system                          
 POSCAR =  Na1 Si1 S3                              

 Startparameter for this run:
   NWRITE =      2    write-flag & timer
   PREC   = normal    normal or accurate (medium, high low for compatibility)
   ISTART =      0    job   : 0-new  1-cont  2-samecut
   ICHARG =      2    charge: 1-file 2-atom 10-const
   ISPIN  =      1    spin polarized calculation?
   LNONCOLLINEAR =      F non collinear calculations
   LSORBIT =      F    spin-orbit coupling
   INIWAV =      1    electr: 0-lowe 1-rand  2-diag
   LASPH  =      F    aspherical Exc in radial PAW
 Electronic Relaxation 1
   ENCUT  =  400.0 eV  29.40 Ry    5.42 a.u.   7.56  7.56  7.56*2*pi/ulx,y,z
   ENINI  =  400.0     initial cutoff
   ENAUG  =  368.1 eV  augmentation charge cutoff
   NELM   =     60;   NELMIN=  2; NELMDL= -5     # of ELM steps 
   EDIFF  = 0.1E-05   stopping-criterion for ELM
   LREAL  =      T    real-space projection
   NLSPLINE    = F    spline interpolate recip. space projectors
   LCOMPAT=      F    compatible to vasp.4.4
   GGA_COMPAT  = T    GGA compatible to vasp.4.4-vasp.4.6
   LMAXPAW     = -100 max onsite density
   LMAXMIX     =    2 max onsite mixed and CHGCAR
   VOSKOWN=      0    Vosko Wilk Nusair interpolation
   ROPT   =   -0.00050  -0.00050  -0.00050
 Ionic relaxation
   EDIFFG = 0.1E-04   stopping-criterion for IOM
   NSW    =     97    number of steps for IOM
   NBLOCK =      1;   KBLOCK =     97    inner block; outer block 
   IBRION =      6    ionic relax: 0-MD 1-quasi-New 2-CG
   NFREE  =      4    steps in history (QN), initial steepest desc. (CG)
   ISIF   =      3    stress and relaxation
   IWAVPR =     11    prediction:  0-non 1-charg 2-wave 3-comb
   ISYM   =      2    0-nonsym 1-usesym 2-fastsym
   LCORR  =      T    Harris-Foulkes like correction to forces

   POTIM  = 0.0150    time-step for ionic-motion
   TEIN   =    0.0    initial temperature
   TEBEG  =    0.0;   TEEND  =   0.0 temperature during run
   SMASS  =  -3.00    Nose mass-parameter (am)
   estimated Nose-frequenzy (Omega)   =  0.10E-29 period in steps = 0.42E+48 mass=  -0.491E-27a.u.
   SCALEE = 1.0000    scale energy and forces
   NPACO  =    256;   APACO  = 10.0  distance and # of slots for P.C.
   PSTRESS=    0.0 pullay stress

  Mass of Ions in am
   POMASS =  22.99 28.09 32.07
  Ionic Valenz
   ZVAL   =   7.00  4.00  6.00
  Atomic Wigner-Seitz radii
   RWIGS  =  -1.00 -1.00 -1.00
  virtual crystal weights 
   VCA    =   1.00  1.00  1.00
   NELECT =      29.0000    total number of electrons
   NUPDOWN=      -1.0000    fix difference up-down

 DOS related values:
   EMIN   =  10.00;   EMAX   =-10.00  energy-range for DOS
   EFERMI =   0.00
   ISMEAR =     0;   SIGMA  =   0.05  broadening in eV -4-tet -1-fermi 0-gaus

 Electronic relaxation 2 (details)
   IALGO  =     38    algorithm
   LDIAG  =      T    sub-space diagonalisation (order eigenvalues)
   LSUBROT=      F    optimize rotation matrix (better conditioning)
   TURBO    =      0    0=normal 1=particle mesh
   IRESTART =      0    0=no restart 2=restart with 2 vectors
   NREBOOT  =      0    no. of reboots
   NMIN     =      0    reboot dimension
   EREF     =   0.00    reference energy to select bands
   IMIX   =      4    mixing-type and parameters
     AMIX     =   0.40;   BMIX     =  1.00
     AMIX_MAG =   1.60;   BMIX_MAG =  1.00
     AMIN     =   0.10
     WC   =   100.;   INIMIX=   1;  MIXPRE=   1;  MAXMIX= -45

 Intra band minimization:
   WEIMIN = 0.0010     energy-eigenvalue tresh-hold
   EBREAK =  0.78E-08  absolut break condition
   DEPER  =   0.30     relativ break condition  

   TIME   =   0.40     timestep for ELM

  volume/ion in A,a.u.               =      19.92       134.41
  Fermi-wavevector in a.u.,A,eV,Ry     =   1.085109  2.050558 16.020333  1.177461
  Thomas-Fermi vector in A             =   2.221215

 Write flags
   LWAVE        =      F    write WAVECAR
   LDOWNSAMPLE  =      F    k-point downsampling of WAVECAR
   LCHARG       =      F    write CHGCAR
   LVTOT        =      F    write LOCPOT, total local potential
   LVHAR        =      F    write LOCPOT, Hartree potential only
   LELF         =      F    write electronic localiz. function (ELF)
   LORBIT       =      0    0 simple, 1 ext, 2 COOP (PROOUT), +10 PAW based schemes


 Dipole corrections
   LMONO  =      F    monopole corrections only (constant potential shift)
   LDIPOL =      F    correct potential (dipole corrections)
   IDIPOL =      0    1-x, 2-y, 3-z, 4-all directions 
   EPSILON=  1.0000000 bulk dielectric constant

 Exchange correlation treatment:
   GGA     =    --    GGA type
   LEXCH   =     8    internal setting for exchange type
   LIBXC   =     F    Libxc                    
   VOSKOWN =     0    Vosko Wilk Nusair interpolation
   LHFCALC =     F    Hartree Fock is set to
   LHFONE  =     F    Hartree Fock one center treatment
   AEXX    =    0.0000 exact exchange contribution

 Linear response parameters
   LEPSILON=     F    determine dielectric tensor
   LRPA    =     F    only Hartree local field effects (RPA)
   LNABLA  =     F    use nabla operator in PAW spheres
   LVEL    =     F    velocity operator in full k-point grid
   CSHIFT  =0.1000    complex shift for real part using Kramers Kronig
   OMEGAMAX=  -1.0    maximum frequency
   DEG_THRESHOLD= 0.2000000E-02 threshold for treating states as degnerate
   RTIME   =   -0.100 relaxation time in fs
  (WPLASMAI=    0.000 imaginary part of plasma frequency in eV, 0.658/RTIME)
   DFIELD  = 0.0000000 0.0000000 0.0000000 field for delta impulse in time

  Optional k-point grid parameters
   LKPOINTS_OPT  =     F    use optional k-point grid
   KPOINTS_OPT_MODE=     1    mode for optional k-point grid

 Orbital magnetization related:
   ORBITALMAG=     F  switch on orbital magnetization
   LCHIMAG   =     F  perturbation theory with respect to B field
   DQ        =  0.001000  dq finite difference perturbation B field
   LLRAUG    =     F  two centre corrections for induced B field



--------------------------------------------------------------------------------------------------------


 finite differences with symmetry
 charge density and potential will be updated during run
 non-spin polarized calculation
 Variant of blocked Davidson
 Davidson routine will perform the subspace rotation
 perform sub-space diagonalisation
    after iterative eigenvector-optimisation
 modified Broyden-mixing scheme, WC =      100.0
 initial mixing is a Kerker type mixing with AMIX =  0.4000 and BMIX =      1.0000
 Hartree-type preconditioning will be used
 using additional bands           17
 real space projection scheme for non local part
 use partial core corrections
 calculate Harris-corrections to forces   (improved forces if not selfconsistent)
 use gradient corrections 
 use of overlap-Matrix (Vanderbilt PP)
 Gauss-broadening in eV      SIGMA  =   0.05


--------------------------------------------------------------------------------------------------------


  energy-cutoff  :      400.00
  volume of cell :       99.59
      direct lattice vectors                 reciprocal lattice vectors
     4.635189781 -0.000000000 -0.000000000     0.215740897  0.000000000 -0.000000000
    -0.000000000  4.635189781 -0.000000000     0.000000000  0.215740897 -0.000000000
     0.000000000  0.000000000  4.635189781     0.000000000  0.000000000  0.215740897

  length of vectors
     4.635189781  4.635189781  4.635189781     0.215740897  0.215740897  0.215740897



 k-points in units of 2pi/SCALE and weight: pymatgen with grid density = 600 / numbe
   0.00000000  0.00000000  0.00000000       0.016
   0.05393522  0.00000000  0.00000000       0.094
   0.10787045  0.00000000  0.00000000       0.047
   0.05393522  0.05393522  0.00000000       0.188
   0.10787045  0.05393522  0.00000000       0.188
   0.10787045  0.10787045  0.00000000       0.047
   0.05393522  0.05393522  0.05393522       0.125
   0.10787045  0.05393522  0.05393522       0.188
   0.10787045  0.10787045  0.05393522       0.094
   0.10787045  0.10787045  0.10787045       0.016

 k-points in reciprocal lattice and weights: pymatgen with grid density = 600 / numbe
   0.00000000  0.00000000  0.00000000       0.016
   0.25000000  0.00000000  0.00000000       0.094
   0.50000000  0.00000000  0.00000000       0.047
   0.25000000  0.25000000  0.00000000       0.188
   0.50000000  0.25000000  0.00000000       0.188
   0.50000000  0.50000000  0.00000000       0.047
   0.25000000  0.25000000  0.25000000       0.125
   0.50000000  0.25000000  0.25000000       0.188
   0.50000000  0.50000000  0.25000000       0.094
   0.50000000  0.50000000  0.50000000       0.016

 position of ions in fractional coordinates (direct lattice) 
   0.00000000  0.00000000  0.00000000
   0.50000007  0.50000007  0.50000007
   0.50000007  0.50000007  0.00000000
   0.50000007  0.00000000  0.50000007
   0.00000000  0.50000007  0.50000007

 position of ions in cartesian coordinates  (Angst):
   0.00000000  0.00000000  0.00000000
   2.31759521  2.31759521  2.31759521
   2.31759521  2.31759521  0.00000000
   2.31759521  0.00000000  2.31759521
   0.00000000  2.31759521  2.31759521



--------------------------------------------------------------------------------------------------------


 k-point   1 :   0.0000 0.0000 0.0000  plane waves:    1839
 k-point   2 :   0.2500 0.0000 0.0000  plane waves:    1815
 k-point   3 :   0.5000 0.0000 0.0000  plane waves:    1800
 k-point   4 :   0.2500 0.2500 0.0000  plane waves:    1835
 k-point   5 :   0.5000 0.2500 0.0000  plane waves:    1818
 k-point   6 :   0.5000 0.5000 0.0000  plane waves:    1772
 k-point   7 :   0.2500 0.2500 0.2500  plane waves:    1800
 k-point   8 :   0.5000 0.2500 0.2500  plane waves:    1800
 k-point   9 :   0.5000 0.5000 0.2500  plane waves:    1800
 k-point  10 :   0.5000 0.5000 0.5000  plane waves:    1856

 maximum and minimum number of plane-waves per node :      1856     1772

 maximum number of plane-waves:      1856
 maximum index in each direction: 
   IXMAX=    7   IYMAX=    7   IZMAX=    7
   IXMIN=   -8   IYMIN=   -8   IZMIN=   -8


 serial   3D FFT for wavefunctions
 parallel 3D FFT for charge:
    minimum data exchange during FFTs selected (reduces bandwidth)


 total amount of memory used by VASP MPI-rank0    31882. kBytes
=======================================================================

   base      :      30000. kBytes
   nonlr-proj:        482. kBytes
   fftplans  :        212. kBytes
   grid      :        866. kBytes
   one-center:         15. kBytes
   wavefun   :        307. kBytes

     INWAV:  cpu time      0.0000: real time      0.0001
 Broyden mixing: mesh for mixing (old mesh)
   NGX = 15   NGY = 15   NGZ = 15
  (NGX  = 48   NGY  = 48   NGZ  = 48)
  gives a total of   3375 points

 initial charge density was supplied:
 charge density of overlapping atoms calculated
 number of electron      29.0000000 magnetization 
 keeping initial charge density in first step


--------------------------------------------------------------------------------------------------------


 Maximum index for non-local projection operator         1237
 Maximum index for augmentation-charges          317 (set IRDMAX)


--------------------------------------------------------------------------------------------------------


 First call to EWALD:  gamma=   0.382
 Maximum number of real-space cells 3x 3x 3
 Maximum number of reciprocal cells 3x 3x 3

    FEWALD:  cpu time      0.0006: real time      0.0008


--------------------------------------- Iteration      1(   1)  ---------------------------------------


    POTLOK:  cpu time      0.0113: real time      0.0117
    SETDIJ:  cpu time      0.0019: real time      0.0019
     EDDAV:  cpu time      0.1877: real time      0.1878
       DOS:  cpu time      0.0008: real time      0.0009
    --------------------------------------------
      LOOP:  cpu time      0.2017: real time      0.2023

 eigenvalue-minimisations  :   640
 total energy-change (2. order) : 0.6341267E+02  (-0.1284199E+04)
 number of electron      29.0000000 magnetization 
 augmentation part       29.0000000 magnetization 

 Free energy of the ion-electron system (eV)
  ---------------------------------------------------
  alpha Z        PSCENC =        37.11259345
  Ewald energy   TEWEN  =     -1277.12529568
  -Hartree energ DENC   =      -312.53410732
  -exchange      EXHF   =         0.00000000
  -V(xc)+E(xc)   XCENC  =        52.60886841
  PAW double counting   =      1242.92405422    -1304.33263986
  entropy T*S    EENTRO =        -0.00881606
  eigenvalues    EBANDS =       -74.78652104
  atomic energy  EATOM  =      1699.55453223
  Solvation  Ediel_sol  =         0.00000000
  ---------------------------------------------------
  free energy    TOTEN  =        63.41266835 eV

  energy without entropy =       63.42148442  energy(sigma->0) =       63.41707639


--------------------------------------------------------------------------------------------------------




--------------------------------------- Iteration      1(   2)  ---------------------------------------


     EDDAV:  cpu time      0.3177: real time      0.3182
       DOS:  cpu time      0.0003: real time      0.0004
    --------------------------------------------
      LOOP:  cpu time      0.3180: real time      0.3186

 eigenvalue-minimisations  :   992
 total energy-change (2. order) :-0.8242970E+02  (-0.8217450E+02)
 number of electron      29.0000000 magnetization 
 augmentation part       29.0000000 magnetization 

 Free energy of the ion-electron system (eV)
  ---------------------------------------------------
  alpha Z        PSCENC =        37.11259345
  Ewald energy   TEWEN  =     -1277.12529568
  -Hartree energ DENC   =      -312.53410732
  -exchange      EXHF   =         0.00000000
  -V(xc)+E(xc)   XCENC  =        52.60886841
  PAW double counting   =      1242.92405422    -1304.33263986
  entropy T*S    EENTRO =        -0.01436668
  eigenvalues    EBANDS =      -157.21066776
  atomic energy  EATOM  =      1699.55453223
  Solvation  Ediel_sol  =         0.00000000
  ---------------------------------------------------
  free energy    TOTEN  =       -19.01702898 eV

  energy without entropy =      -19.00266230  energy(sigma->0) =      -19.00984564


--------------------------------------------------------------------------------------------------------




--------------------------------------- Iteration      1(   3)  ---------------------------------------


     EDDAV:  cpu time      0.1643: real time      0.1644
       DOS:  cpu time      0.0003: real time      0.0004
    --------------------------------------------
      LOOP:  cpu time      0.1646: real time      0.1649

 eigenvalue-minimisations  :   672
 total energy-change (2. order) :-0.1394441E+01  (-0.1388409E+01)
 number of electron      29.0000000 magnetization 
 augmentation part       29.0000000 magnetization 

 Free energy of the ion-electron system (eV)
  ---------------------------------------------------
  alpha Z        PSCENC =        37.11259345
  Ewald energy   TEWEN  =     -1277.12529568
  -Hartree energ DENC   =      -312.53410732
  -exchange      EXHF   =         0.00000000
  -V(xc)+E(xc)   XCENC  =        52.60886841
  PAW double counting   =      1242.92405422    -1304.33263986
  entropy T*S    EENTRO =        -0.01878856
  eigenvalues    EBANDS =      -158.60068662
  atomic energy  EATOM  =      1699.55453223
  Solvation  Ediel_sol  =         0.00000000
  ---------------------------------------------------
  free energy    TOTEN  =       -20.41146973 eV

  energy without entropy =      -20.39268117  energy(sigma->0) =      -20.40207545


--------------------------------------------------------------------------------------------------------




--------------------------------------- Iteration      1(   4)  ---------------------------------------


     EDDAV:  cpu time      0.4975: real time      0.4979
       DOS:  cpu time      0.0005: real time      0.0006
    --------------------------------------------
      LOOP:  cpu time      0.4980: real time      0.4985

 eigenvalue-minimisations  :  1248
 total energy-change (2. order) :-0.6290798E-02  (-0.6290434E-02)
 number of electron      29.0000000 magnetization 
 augmentation part       29.0000000 magnetization 

 Free energy of the ion-electron system (eV)
  ---------------------------------------------------
  alpha Z        PSCENC =        37.11259345
  Ewald energy   TEWEN  =     -1277.12529568
  -Hartree energ DENC   =      -312.53410732
  -exchange      EXHF   =         0.00000000
  -V(xc)+E(xc)   XCENC  =        52.60886841
  PAW double counting   =      1242.92405422    -1304.33263986
  entropy T*S    EENTRO =        -0.01875747
  eigenvalues    EBANDS =      -158.60700851
  atomic energy  EATOM  =      1699.55453223
  Solvation  Ediel_sol  =         0.00000000
  ---------------------------------------------------
  free energy    TOTEN  =       -20.41776053 eV

  energy without entropy =      -20.39900306  energy(sigma->0) =      -20.40838179


--------------------------------------------------------------------------------------------------------




--------------------------------------- Iteration      1(   5)  ---------------------------------------


     EDDAV:  cpu time      0.1493: real time      0.1494
       DOS:  cpu time      0.0003: real time      0.0004
    CHARGE:  cpu time      0.0065: real time      0.0065
    MIXING:  cpu time      0.0009: real time      0.0011
    --------------------------------------------
      LOOP:  cpu time      0.1569: real time      0.1574

 eigenvalue-minimisations  :   640
 total energy-change (2. order) :-0.1335090E-05  (-0.1335211E-05)
 number of electron      28.9999871 magnetization 
 augmentation part        1.7117596 magnetization 

 Broyden mixing:
  rms(total) = 0.10636E+01    rms(broyden)= 0.10635E+01
  rms(prec ) = 0.13018E+01
  weight for this iteration     100.00

 Free energy of the ion-electron system (eV)
  ---------------------------------------------------
  alpha Z        PSCENC =        37.11259345
  Ewald energy   TEWEN  =     -1277.12529568
  -Hartree energ DENC   =      -312.53410732
  -exchange      EXHF   =         0.00000000
  -V(xc)+E(xc)   XCENC  =        52.60886841
  PAW double counting   =      1242.92405422    -1304.33263986
  entropy T*S    EENTRO =        -0.01875745
  eigenvalues    EBANDS =      -158.60700986
  atomic energy  EATOM  =      1699.55453223
  Solvation  Ediel_sol  =         0.00000000
  ---------------------------------------------------
  free energy    TOTEN  =       -20.41776186 eV

  energy without entropy =      -20.39900441  energy(sigma->0) =      -20.40838313


--------------------------------------------------------------------------------------------------------




--------------------------------------- Iteration      1(   6)  ---------------------------------------


    POTLOK:  cpu time      0.0056: real time      0.0058
    SETDIJ:  cpu time      0.0011: real time      0.0011
     EDDAV:  cpu time      0.3154: real time      0.3154
       DOS:  cpu time      0.0003: real time      0.0004
    CHARGE:  cpu time      0.0057: real time      0.0057
    MIXING:  cpu time      0.0004: real time      0.0004
    --------------------------------------------
      LOOP:  cpu time      0.3285: real time      0.3289

 eigenvalue-minimisations  :   928
 total energy-change (2. order) : 0.4346228E+00  (-0.1276923E+00)
 number of electron      28.9999871 magnetization 
 augmentation part        1.7456716 magnetization 

 Broyden mixing:
  rms(total) = 0.73386E+00    rms(broyden)= 0.73386E+00
  rms(prec ) = 0.77636E+00
  weight for this iteration     100.00

 eigenvalues of (default mixing * dielectric matrix)
  average eigenvalue GAMMA=   2.6811
  2.6811

 Free energy of the ion-electron system (eV)
  ---------------------------------------------------
  alpha Z        PSCENC =        37.11259345
  Ewald energy   TEWEN  =     -1277.12529568
  -Hartree energ DENC   =      -315.79754124
  -exchange      EXHF   =         0.00000000
  -V(xc)+E(xc)   XCENC  =        53.12173048
  PAW double counting   =      1639.78282470    -1701.11903585
  entropy T*S    EENTRO =        -0.02532682
  eigenvalues    EBANDS =      -155.48762035
  atomic energy  EATOM  =      1699.55453223
  Solvation  Ediel_sol  =         0.00000000
  ---------------------------------------------------
  free energy    TOTEN  =       -19.98313908 eV

  energy without entropy =      -19.95781226  energy(sigma->0) =      -19.97047567


--------------------------------------------------------------------------------------------------------




--------------------------------------- Iteration      1(   7)  ---------------------------------------


    POTLOK:  cpu time      0.0054: real time      0.0056
    SETDIJ:  cpu time      0.0011: real time      0.0011
     EDDAV:  cpu time      0.2792: real time      0.2793
       DOS:  cpu time      0.0003: real time      0.0005
    CHARGE:  cpu time      0.0055: real time      0.0055
    MIXING:  cpu time      0.0002: real time      0.0002
    --------------------------------------------
      LOOP:  cpu time      0.2918: real time      0.2922

 eigenvalue-minimisations  :   896
 total energy-change (2. order) : 0.1642680E-01  (-0.2642532E-01)
 number of electron      28.9999871 magnetization 
 augmentation part        1.7566611 magnetization 

 Broyden mixing:
  rms(total) = 0.27601E+00    rms(broyden)= 0.27601E+00
  rms(prec ) = 0.31774E+00
  weight for this iteration     100.00

 eigenvalues of (default mixing * dielectric matrix)
  average eigenvalue GAMMA=   1.8587
  1.6583  2.0592

 Free energy of the ion-electron system (eV)
  ---------------------------------------------------
  alpha Z        PSCENC =        37.11259345
  Ewald energy   TEWEN  =     -1277.12529568
  -Hartree energ DENC   =      -317.08902787
  -exchange      EXHF   =         0.00000000
  -V(xc)+E(xc)   XCENC  =        53.48065615
  PAW double counting   =      2215.01538563    -2276.40729272
  entropy T*S    EENTRO =        -0.02360929
  eigenvalues    EBANDS =      -154.48465419
  atomic energy  EATOM  =      1699.55453223
  Solvation  Ediel_sol  =         0.00000000
  ---------------------------------------------------
  free energy    TOTEN  =       -19.96671229 eV

  energy without entropy =      -19.94310300  energy(sigma->0) =      -19.95490764


--------------------------------------------------------------------------------------------------------




--------------------------------------- Iteration      1(   8)  ---------------------------------------


    POTLOK:  cpu time      0.0053: real time      0.0055
    SETDIJ:  cpu time      0.0011: real time      0.0011
     EDDAV:  cpu time      0.4335: real time      0.4404
       DOS:  cpu time      0.0004: real time      0.0005
    CHARGE:  cpu time      0.0066: real time      0.0066
    MIXING:  cpu time      0.0003: real time      0.0002
    --------------------------------------------
      LOOP:  cpu time      0.4471: real time      0.4544

 eigenvalue-minimisations  :   992
 total energy-change (2. order) :-0.1432025E-01  (-0.2833523E-01)
 number of electron      28.9999871 magnetization 
 augmentation part        1.7563942 magnetization 

 Broyden mixing:
  rms(total) = 0.85777E-01    rms(broyden)= 0.85775E-01
  rms(prec ) = 0.24492E+00
  weight for this iteration     100.00

 eigenvalues of (default mixing * dielectric matrix)
  average eigenvalue GAMMA=   1.3407
  2.2654  1.4116  0.3451

 Free energy of the ion-electron system (eV)
  ---------------------------------------------------
  alpha Z        PSCENC =        37.11259345
  Ewald energy   TEWEN  =     -1277.12529568
  -Hartree energ DENC   =      -316.15816650
  -exchange      EXHF   =         0.00000000
  -V(xc)+E(xc)   XCENC  =        53.50442116
  PAW double counting   =      2485.49653479    -2547.02062172
  entropy T*S    EENTRO =        -0.01969434
  eigenvalues    EBANDS =      -155.32533592
  atomic energy  EATOM  =      1699.55453223
  Solvation  Ediel_sol  =         0.00000000
  ---------------------------------------------------
  free energy    TOTEN  =       -19.98103254 eV

  energy without entropy =      -19.96133820  energy(sigma->0) =      -19.97118537


--------------------------------------------------------------------------------------------------------




--------------------------------------- Iteration      1(   9)  ---------------------------------------


    POTLOK:  cpu time      0.0060: real time      0.0066
    SETDIJ:  cpu time      0.0011: real time      0.0011
     EDDAV:  cpu time      0.2687: real time      0.2687
       DOS:  cpu time      0.0003: real time      0.0005
    CHARGE:  cpu time      0.0055: real time      0.0055
    MIXING:  cpu time      0.0003: real time      0.0003
    --------------------------------------------
      LOOP:  cpu time      0.2820: real time      0.2827

 eigenvalue-minimisations  :   832
 total energy-change (2. order) : 0.2449869E-01  (-0.3384772E-02)
 number of electron      28.9999871 magnetization 
 augmentation part        1.7564082 magnetization 

 Broyden mixing:
  rms(total) = 0.36425E-01    rms(broyden)= 0.36424E-01
  rms(prec ) = 0.10051E+00
  weight for this iteration     100.00

 eigenvalues of (default mixing * dielectric matrix)
  average eigenvalue GAMMA=   1.3867
  2.3822  1.5171  0.8239  0.8239

 Free energy of the ion-electron system (eV)
  ---------------------------------------------------
  alpha Z        PSCENC =        37.11259345
  Ewald energy   TEWEN  =     -1277.12529568
  -Hartree energ DENC   =      -316.50650727
  -exchange      EXHF   =         0.00000000
  -V(xc)+E(xc)   XCENC  =        53.55818213
  PAW double counting   =      2512.36003178    -2573.88296431
  entropy T*S    EENTRO =        -0.02603057
  eigenvalues    EBANDS =      -155.00107559
  atomic energy  EATOM  =      1699.55453223
  Solvation  Ediel_sol  =         0.00000000
  ---------------------------------------------------
  free energy    TOTEN  =       -19.95653384 eV

  energy without entropy =      -19.93050327  energy(sigma->0) =      -19.94351856


--------------------------------------------------------------------------------------------------------




--------------------------------------- Iteration      1(  10)  ---------------------------------------


    POTLOK:  cpu time      0.0053: real time      0.0055
    SETDIJ:  cpu time      0.0011: real time      0.0011
     EDDAV:  cpu time      0.3064: real time      0.3065
       DOS:  cpu time      0.0003: real time      0.0004
    CHARGE:  cpu time      0.0055: real time      0.0055
    MIXING:  cpu time      0.0003: real time      0.0003
    --------------------------------------------
      LOOP:  cpu time      0.3188: real time      0.3193

 eigenvalue-minimisations  :   928
 total energy-change (2. order) : 0.2944422E-02  (-0.1477662E-02)
 number of electron      28.9999871 magnetization 
 augmentation part        1.7561433 magnetization 

 Broyden mixing:
  rms(total) = 0.12560E-01    rms(broyden)= 0.12557E-01
  rms(prec ) = 0.28807E-01
  weight for this iteration     100.00

 eigenvalues of (default mixing * dielectric matrix)
  average eigenvalue GAMMA=   1.4395
  2.3006  2.3006  1.1859  0.7052  0.7052

 Free energy of the ion-electron system (eV)
  ---------------------------------------------------
  alpha Z        PSCENC =        37.11259345
  Ewald energy   TEWEN  =     -1277.12529568
  -Hartree energ DENC   =      -316.60417945
  -exchange      EXHF   =         0.00000000
  -V(xc)+E(xc)   XCENC  =        53.59543509
  PAW double counting   =      2518.83502763    -2580.39154147
  entropy T*S    EENTRO =        -0.02690921
  eigenvalues    EBANDS =      -154.90325201
  atomic energy  EATOM  =      1699.55453223
  Solvation  Ediel_sol  =         0.00000000
  ---------------------------------------------------
  free energy    TOTEN  =       -19.95358942 eV

  energy without entropy =      -19.92668021  energy(sigma->0) =      -19.94013482


--------------------------------------------------------------------------------------------------------




--------------------------------------- Iteration      1(  11)  ---------------------------------------


    POTLOK:  cpu time      0.0054: real time      0.0057
    SETDIJ:  cpu time      0.0011: real time      0.0011
     EDDAV:  cpu time      0.1496: real time      0.1496
       DOS:  cpu time      0.0003: real time      0.0005
    CHARGE:  cpu time      0.0055: real time      0.0055
    MIXING:  cpu time      0.0002: real time      0.0002
    --------------------------------------------
      LOOP:  cpu time      0.1621: real time      0.1626

 eigenvalue-minimisations  :   640
 total energy-change (2. order) : 0.4001171E-05  (-0.4220109E-04)
 number of electron      28.9999871 magnetization 
 augmentation part        1.7564265 magnetization 

 Broyden mixing:
  rms(total) = 0.10327E-01    rms(broyden)= 0.10327E-01
  rms(prec ) = 0.25556E-01
  weight for this iteration     100.00

 eigenvalues of (default mixing * dielectric matrix)
  average eigenvalue GAMMA=   1.3988
  2.5316  2.5316  1.2024  0.7325  0.7325  0.6622

 Free energy of the ion-electron system (eV)
  ---------------------------------------------------
  alpha Z        PSCENC =        37.11259345
  Ewald energy   TEWEN  =     -1277.12529568
  -Hartree energ DENC   =      -316.48923876
  -exchange      EXHF   =         0.00000000
  -V(xc)+E(xc)   XCENC  =        53.59727242
  PAW double counting   =      2507.72484699    -2569.30484948
  entropy T*S    EENTRO =        -0.02691287
  eigenvalues    EBANDS =      -154.99653371
  atomic energy  EATOM  =      1699.55453223
  Solvation  Ediel_sol  =         0.00000000
  ---------------------------------------------------
  free energy    TOTEN  =       -19.95358542 eV

  energy without entropy =      -19.92667255  energy(sigma->0) =      -19.94012898


--------------------------------------------------------------------------------------------------------




--------------------------------------- Iteration      1(  12)  ---------------------------------------


    POTLOK:  cpu time      0.0054: real time      0.0057
    SETDIJ:  cpu time      0.0011: real time      0.0011
     EDDAV:  cpu time      0.3997: real time      0.4011
       DOS:  cpu time      0.0003: real time      0.0005
    CHARGE:  cpu time      0.0055: real time      0.0055
    MIXING:  cpu time      0.0003: real time      0.0003
    --------------------------------------------
      LOOP:  cpu time      0.4123: real time      0.4141

 eigenvalue-minimisations  :  1088
 total energy-change (2. order) : 0.1447140E-03  (-0.1005576E-04)
 number of electron      28.9999871 magnetization 
 augmentation part        1.7564580 magnetization 

 Broyden mixing:
  rms(total) = 0.59095E-02    rms(broyden)= 0.59095E-02
  rms(prec ) = 0.15894E-01
  weight for this iteration     100.00

 eigenvalues of (default mixing * dielectric matrix)
  average eigenvalue GAMMA=   1.5379
  2.9580  2.5455  1.6498  0.7797  0.7797  1.0262  1.0262

 Free energy of the ion-electron system (eV)
  ---------------------------------------------------
  alpha Z        PSCENC =        37.11259345
  Ewald energy   TEWEN  =     -1277.12529568
  -Hartree energ DENC   =      -316.44074245
  -exchange      EXHF   =         0.00000000
  -V(xc)+E(xc)   XCENC  =        53.59739697
  PAW double counting   =      2507.13248113    -2568.71903245
  entropy T*S    EENTRO =        -0.02703852
  eigenvalues    EBANDS =      -155.03833538
  atomic energy  EATOM  =      1699.55453223
  Solvation  Ediel_sol  =         0.00000000
  ---------------------------------------------------
  free energy    TOTEN  =       -19.95344070 eV

  energy without entropy =      -19.92640219  energy(sigma->0) =      -19.93992145


--------------------------------------------------------------------------------------------------------




--------------------------------------- Iteration      1(  13)  ---------------------------------------


    POTLOK:  cpu time      0.0053: real time      0.0056
    SETDIJ:  cpu time      0.0011: real time      0.0011
     EDDAV:  cpu time      0.2498: real time      0.2503
       DOS:  cpu time      0.0003: real time      0.0005
    CHARGE:  cpu time      0.0055: real time      0.0055
    MIXING:  cpu time      0.0003: real time      0.0003
    --------------------------------------------
      LOOP:  cpu time      0.2624: real time      0.2632

 eigenvalue-minimisations  :   832
 total energy-change (2. order) : 0.9114462E-04  (-0.1669672E-04)
 number of electron      28.9999871 magnetization 
 augmentation part        1.7565428 magnetization 

 Broyden mixing:
  rms(total) = 0.82749E-03    rms(broyden)= 0.82694E-03
  rms(prec ) = 0.22379E-02
  weight for this iteration     100.00

 eigenvalues of (default mixing * dielectric matrix)
  average eigenvalue GAMMA=   1.5218
  3.1653  2.5811  1.8953  0.7784  0.7784  1.1323  0.9217  0.9217

 Free energy of the ion-electron system (eV)
  ---------------------------------------------------
  alpha Z        PSCENC =        37.11259345
  Ewald energy   TEWEN  =     -1277.12529568
  -Hartree energ DENC   =      -316.41210944
  -exchange      EXHF   =         0.00000000
  -V(xc)+E(xc)   XCENC  =        53.59402637
  PAW double counting   =      2503.93904692    -2565.52515228
  entropy T*S    EENTRO =        -0.02717120
  eigenvalues    EBANDS =      -155.06381993
  atomic energy  EATOM  =      1699.55453223
  Solvation  Ediel_sol  =         0.00000000
  ---------------------------------------------------
  free energy    TOTEN  =       -19.95334956 eV

  energy without entropy =      -19.92617836  energy(sigma->0) =      -19.93976396


--------------------------------------------------------------------------------------------------------




--------------------------------------- Iteration      1(  14)  ---------------------------------------


    POTLOK:  cpu time      0.0053: real time      0.0056
    SETDIJ:  cpu time      0.0011: real time      0.0011
     EDDAV:  cpu time      0.3932: real time      0.3948
       DOS:  cpu time      0.0003: real time      0.0004
    CHARGE:  cpu time      0.0056: real time      0.0056
    MIXING:  cpu time      0.0003: real time      0.0003
    --------------------------------------------
      LOOP:  cpu time      0.4059: real time      0.4078

 eigenvalue-minimisations  :  1088
 total energy-change (2. order) : 0.1303782E-05  (-0.1059605E-05)
 number of electron      28.9999871 magnetization 
 augmentation part        1.7565031 magnetization 

 Broyden mixing:
  rms(total) = 0.53679E-03    rms(broyden)= 0.53666E-03
  rms(prec ) = 0.57655E-03
  weight for this iteration     100.00

 eigenvalues of (default mixing * dielectric matrix)
  average eigenvalue GAMMA=   1.5851
  3.1551  2.5539  1.7875  1.7875  1.5299  0.7759  0.7759  0.8345  1.0659

 Free energy of the ion-electron system (eV)
  ---------------------------------------------------
  alpha Z        PSCENC =        37.11259345
  Ewald energy   TEWEN  =     -1277.12529568
  -Hartree energ DENC   =      -316.40738752
  -exchange      EXHF   =         0.00000000
  -V(xc)+E(xc)   XCENC  =        53.59346172
  PAW double counting   =      2503.52224522    -2565.10874690
  entropy T*S    EENTRO =        -0.02718714
  eigenvalues    EBANDS =      -155.06756365
  atomic energy  EATOM  =      1699.55453223
  Solvation  Ediel_sol  =         0.00000000
  ---------------------------------------------------
  free energy    TOTEN  =       -19.95334826 eV

  energy without entropy =      -19.92616112  energy(sigma->0) =      -19.93975469


--------------------------------------------------------------------------------------------------------




--------------------------------------- Iteration      1(  15)  ---------------------------------------


    POTLOK:  cpu time      0.0054: real time      0.0056
    SETDIJ:  cpu time      0.0011: real time      0.0011
     EDDAV:  cpu time      0.1926: real time      0.1926
       DOS:  cpu time      0.0003: real time      0.0005
    --------------------------------------------
      LOOP:  cpu time      0.1994: real time      0.1998

 eigenvalue-minimisations  :   640
 total energy-change (2. order) :-0.8439861E-07  (-0.1095891E-07)
 number of electron      28.9999871 magnetization 
 augmentation part        1.7565031 magnetization 

 Free energy of the ion-electron system (eV)
  ---------------------------------------------------
  alpha Z        PSCENC =        37.11259345
  Ewald energy   TEWEN  =     -1277.12529568
  -Hartree energ DENC   =      -316.40769924
  -exchange      EXHF   =         0.00000000
  -V(xc)+E(xc)   XCENC  =        53.59340868
  PAW double counting   =      2503.51470534    -2565.10133770
  entropy T*S    EENTRO =        -0.02718750
  eigenvalues    EBANDS =      -155.06706791
  atomic energy  EATOM  =      1699.55453223
  Solvation  Ediel_sol  =         0.00000000
  ---------------------------------------------------
  free energy    TOTEN  =       -19.95334834 eV

  energy without entropy =      -19.92616084  energy(sigma->0) =      -19.93975459


--------------------------------------------------------------------------------------------------------




 average (electrostatic) potential at core
  the test charge radii are     0.9254  0.9892  0.9698
  (the norm of the test charge is              1.0000)
       1 -45.2112       2 -86.6909       3 -87.2597       4 -87.2597       5 -87.2597



 E-fermi :   3.6837     XC(G=0):  -9.2604     alpha+bet :-10.3256

 Fermi energy:         3.6836753017

 k-point     1 :       0.0000    0.0000    0.0000
  band No.  band energies     occupation 
      1     -19.3944      2.00000
      2     -19.3944      2.00000
      3     -19.3944      2.00000
      4     -10.7834      2.00000
      5      -7.5158      2.00000
      6      -7.5158      2.00000
      7      -2.1678      2.00000
      8      -2.1678      2.00000
      9      -2.1678      2.00000
     10       0.6654      2.00000
     11       3.0295      2.00000
     12       3.0295      2.00000
     13       3.0295      2.00000
     14       3.2576      2.00000
     15       3.2576      2.00000
     16       3.2576      2.00000
     17       7.8006      0.00000
     18       8.8622      0.00000
     19       8.8622      0.00000
     20       8.8622      0.00000
     21      10.3597      0.00000
     22      10.3597      0.00000
     23      14.5518      0.00000
     24      14.5518      0.00000
     25      14.5518      0.00000
     26      15.2308      0.00000
     27      15.2308      0.00000
     28      15.3547      0.00000
     29      15.3547      0.00000
     30      15.3547      0.00000
     31      15.5804      0.00000
     32      15.5804      0.00000

 k-point     2 :       0.2500    0.0000    0.0000
  band No.  band energies     occupation 
      1     -19.3956      2.00000
      2     -19.3942      2.00000
      3     -19.3942      2.00000
      4     -10.5276      2.00000
      5      -8.0491      2.00000
      6      -7.4957      2.00000
      7      -2.2134      2.00000
      8      -2.0235      2.00000
      9      -2.0235      2.00000
     10       1.4204      2.00000
     11       2.4545      2.00000
     12       2.4545      2.00000
     13       2.7223      2.00000
     14       3.1830      2.00000
     15       3.1830      2.00000
     16       3.2526      2.00000
     17       8.8030      0.00000
     18       9.0516      0.00000
     19       9.9217      0.00000
     20      10.2157      0.00000
     21      10.2157      0.00000
     22      11.4093      0.00000
     23      11.5136      0.00000
     24      13.7302      0.00000
     25      13.7302      0.00000
     26      14.2038      0.00000
     27      14.6896      0.00000
     28      14.6896      0.00000
     29      14.8191      0.00000
     30      15.2543      0.00000
     31      17.5034      0.00000
     32      17.5034      0.00000

 k-point     3 :       0.5000    0.0000    0.0000
  band No.  band energies     occupation 
      1     -19.3967      2.00000
      2     -19.3941      2.00000
      3     -19.3941      2.00000
      4     -10.1348      2.00000
      5      -8.6918      2.00000
      6      -7.4754      2.00000
      7      -2.1591      2.00000
      8      -1.8546      2.00000
      9      -1.8546      2.00000
     10       1.3345      2.00000
     11       1.8857      2.00000
     12       1.8857      2.00000
     13       2.4523      2.00000
     14       3.1970      2.00000
     15       3.1970      2.00000
     16       5.2585      0.00000
     17       6.8966      0.00000
     18       9.2808      0.00000
     19       9.9089      0.00000
     20      11.2534      0.00000
     21      11.8118      0.00000
     22      11.8118      0.00000
     23      13.2957      0.00000
     24      13.3524      0.00000
     25      13.4865      0.00000
     26      13.4865      0.00000
     27      14.3715      0.00000
     28      14.3715      0.00000
     29      15.0806      0.00000
     30      15.2234      0.00000
     31      16.5866      0.00000
     32      16.9706      0.00000

 k-point     4 :       0.2500    0.2500    0.0000
  band No.  band energies     occupation 
      1     -19.3955      2.00000
      2     -19.3954      2.00000
      3     -19.3942      2.00000
      4     -10.2648      2.00000
      5      -8.1423      2.00000
      6      -7.8250      2.00000
      7      -3.2532      2.00000
      8      -1.8745      2.00000
      9      -0.4651      2.00000
     10       0.8739      2.00000
     11       2.1139      2.00000
     12       2.4238      2.00000
     13       2.5859      2.00000
     14       2.8043      2.00000
     15       3.6456      1.71862
     16       3.6700      1.30078
     17       9.4066      0.00000
     18       9.7231      0.00000
     19      10.1407      0.00000
     20      10.3492      0.00000
     21      10.6497      0.00000
     22      11.3729      0.00000
     23      11.6922      0.00000
     24      11.9491      0.00000
     25      12.0554      0.00000
     26      14.1127      0.00000
     27      14.6318      0.00000
     28      15.1637      0.00000
     29      16.2576      0.00000
     30      17.0585      0.00000
     31      17.3881      0.00000
     32      17.5971      0.00000

 k-point     5 :       0.5000    0.2500    0.0000
  band No.  band energies     occupation 
      1     -19.3965      2.00000
      2     -19.3952      2.00000
      3     -19.3941      2.00000
      4      -9.8438      2.00000
      5      -8.6503      2.00000
      6      -7.8994      2.00000
      7      -3.5228      2.00000
      8      -1.6991      2.00000
      9       0.3147      2.00000
     10       0.3401      2.00000
     11       1.8876      2.00000
     12       1.9253      2.00000
     13       2.5434      2.00000
     14       2.7869      2.00000
     15       3.6935      0.78089
     16       5.5830      0.00000
     17       7.0050      0.00000
     18      10.4400      0.00000
     19      10.5777      0.00000
     20      10.6515      0.00000
     21      10.9006      0.00000
     22      11.0318      0.00000
     23      11.6598      0.00000
     24      13.2134      0.00000
     25      13.2210      0.00000
     26      13.4828      0.00000
     27      13.9827      0.00000
     28      15.9079      0.00000
     29      16.2532      0.00000
     30      16.3155      0.00000
     31      17.2442      0.00000
     32      17.8384      0.00000

 k-point     6 :       0.5000    0.5000    0.0000
  band No.  band energies     occupation 
      1     -19.3961      2.00000
      2     -19.3961      2.00000
      3     -19.3938      2.00000
      4      -9.2868      2.00000
      5      -8.6075      2.00000
      6      -8.6075      2.00000
      7      -3.9471      2.00000
      8      -1.5140      2.00000
      9      -0.2127      2.00000
     10       1.9415      2.00000
     11       1.9415      2.00000
     12       1.9662      2.00000
     13       1.9662      2.00000
     14       2.1729      2.00000
     15       4.5126      0.00000
     16       6.8993      0.00000
     17       6.8993      0.00000
     18       7.5222      0.00000
     19       9.8733      0.00000
     20      10.3120      0.00000
     21      12.2414      0.00000
     22      12.2414      0.00000
     23      12.6399      0.00000
     24      13.2471      0.00000
     25      13.2471      0.00000
     26      14.0062      0.00000
     27      14.0062      0.00000
     28      14.6168      0.00000
     29      15.8065      0.00000
     30      16.3371      0.00000
     31      16.6995      0.00000
     32      18.0020      0.00000

 k-point     7 :       0.2500    0.2500    0.2500
  band No.  band energies     occupation 
      1     -19.3953      2.00000
      2     -19.3951      2.00000
      3     -19.3951      2.00000
      4      -9.9989      2.00000
      5      -8.1127      2.00000
      6      -8.1127      2.00000
      7      -4.2933      2.00000
      8      -0.3371      2.00000
      9      -0.3371      2.00000
     10       0.7859      2.00000
     11       1.2529      2.00000
     12       1.2529      2.00000
     13       3.6531      1.61336
     14       3.6531      1.61336
     15       3.6885      0.89064
     16       3.8546      0.00000
     17       9.2051      0.00000
     18       9.6476      0.00000
     19       9.7105      0.00000
     20       9.7105      0.00000
     21      10.8752      0.00000
     22      10.8752      0.00000
     23      12.1448      0.00000
     24      13.0152      0.00000
     25      13.0152      0.00000
     26      14.1741      0.00000
     27      14.8883      0.00000
     28      14.8883      0.00000
     29      15.9615      0.00000
     30      15.9615      0.00000
     31      16.5227      0.00000
     32      16.8968      0.00000

 k-point     8 :       0.5000    0.2500    0.2500
  band No.  band energies     occupation 
      1     -19.3962      2.00000
      2     -19.3950      2.00000
      3     -19.3950      2.00000
      4      -9.5572      2.00000
      5      -8.6125      2.00000
      6      -8.0824      2.00000
      7      -4.7509      2.00000
      8      -0.1184      2.00000
      9       0.3283      2.00000
     10       0.5467      2.00000
     11       0.5730      2.00000
     12       1.5086      2.00000
     13       3.3608      2.00000
     14       3.6840      0.99167
     15       3.8970      0.00000
     16       5.7288      0.00000
     17       7.0026      0.00000
     18       8.7281      0.00000
     19       9.6494      0.00000
     20      10.3440      0.00000
     21      11.2939      0.00000
     22      12.1166      0.00000
     23      12.5902      0.00000
     24      13.1593      0.00000
     25      13.3467      0.00000
     26      13.9903      0.00000
     27      14.2341      0.00000
     28      14.7007      0.00000
     29      16.2526      0.00000
     30      16.2864      0.00000
     31      16.8664      0.00000
     32      18.0555      0.00000

 k-point     9 :       0.5000    0.5000    0.2500
  band No.  band energies     occupation 
      1     -19.3960      2.00000
      2     -19.3960      2.00000
      3     -19.3948      2.00000
      4      -8.9923      2.00000
      5      -8.5737      2.00000
      6      -8.5737      2.00000
      7      -5.4009      2.00000
      8      -0.1163      2.00000
      9       0.4060      2.00000
     10       0.5380      2.00000
     11       0.5380      2.00000
     12       2.1924      2.00000
     13       3.6099      1.96313
     14       3.6099      1.96313
     15       4.5296      0.00000
     16       6.7876      0.00000
     17       6.7876      0.00000
     18       7.2574      0.00000
     19       7.9205      0.00000
     20      11.2445      0.00000
     21      11.9316      0.00000
     22      11.9316      0.00000
     23      12.9139      0.00000
     24      13.5931      0.00000
     25      13.5931      0.00000
     26      14.1973      0.00000
     27      14.6586      0.00000
     28      15.0454      0.00000
     29      15.1135      0.00000
     30      15.1135      0.00000
     31      17.2963      0.00000
     32      18.3121      0.00000

 k-point    10 :       0.5000    0.5000    0.5000
  band No.  band energies     occupation 
      1     -19.3960      2.00000
      2     -19.3960      2.00000
      3     -19.3960      2.00000
      4      -8.5390      2.00000
      5      -8.5390      2.00000
      6      -8.5390      2.00000
      7      -6.4929      2.00000
      8      -0.0131      2.00000
      9      -0.0131      2.00000
     10      -0.0131      2.00000
     11       2.2121      2.00000
     12       2.2121      2.00000
     13       4.5468      0.00000
     14       4.5468      0.00000
     15       4.5468      0.00000
     16       6.3974      0.00000
     17       6.3974      0.00000
     18       6.3974      0.00000
     19       7.1016      0.00000
     20      10.4628      0.00000
     21      12.9746      0.00000
     22      12.9746      0.00000
     23      12.9746      0.00000
     24      14.0048      0.00000
     25      14.0048      0.00000
     26      14.0048      0.00000
     27      14.2331      0.00000
     28      14.2331      0.00000
     29      14.2331      0.00000
     30      16.7193      0.00000
     31      16.7193      0.00000
     32      17.5236      0.00000


--------------------------------------------------------------------------------------------------------


[...]
 --------------------------------------------------------------------------------


  SYMMETRIZED ELASTIC MODULI (kBar)
 Direction    XX          YY          ZZ          XY          YZ          ZX
 --------------------------------------------------------------------------------
 XX         796.8959    506.0693    506.0693     -0.0000     -0.0000      0.0000
 YY         506.0693    796.8959    506.0693     -0.0000      0.0000     -0.0000
 ZZ         506.0693    506.0693    796.8959      0.0000      0.0000      0.0000
 XY          -0.0000     -0.0000      0.0000   -901.7818      0.0000      0.0000
 YZ          -0.0000      0.0000      0.0000      0.0000   -901.7818      0.0000
 ZX           0.0000     -0.0000      0.0000      0.0000      0.0000   -901.7818
 --------------------------------------------------------------------------------

 INTERNAL STRAIN TENSORS FROM STRAINED CELLS
 ============================================

 INTERNAL STRAIN TENSOR FOR ION    1 for displacements in x,y,z  (eV/Angst):
          X           Y           Z          XY          YZ          ZX
  --------------------------------------------------------------------------------
  x    -0.00000    -0.00000     0.00000    -0.00000    -0.00000    -0.00000
  y     0.00000    -0.00000    -0.00000    -0.00000    -0.00000    -0.00000
  z     0.00000     0.00000    -0.00000    -0.00000    -0.00000     0.00000

 INTERNAL STRAIN TENSOR FOR ION    2 for displacements in x,y,z  (eV/Angst):
          X           Y           Z          XY          YZ          ZX
  --------------------------------------------------------------------------------
  x    -0.00000     0.00000     0.00000    -0.00000    -0.00000     0.00000
  y    -0.00000    -0.00000     0.00000     0.00000    -0.00000    -0.00000
  z    -0.00000    -0.00000    -0.00000    -0.00000    -0.00000     0.00000

 INTERNAL STRAIN TENSOR FOR ION    3 for displacements in x,y,z  (eV/Angst):
          X           Y           Z          XY          YZ          ZX
  --------------------------------------------------------------------------------
  x     0.00000    -0.00000     0.00000    -0.00000    -0.00000     0.00000
  y    -0.00000     0.00000     0.00000    -0.00000    -0.00000     0.00000
  z    -0.00000     0.00000     0.00000     0.00000    -0.00000     0.00000

 INTERNAL STRAIN TENSOR FOR ION    4 for displacements in x,y,z  (eV/Angst):
          X           Y           Z          XY          YZ          ZX
  --------------------------------------------------------------------------------
  x     0.00000     0.00000    -0.00000     0.00000     0.00000    -0.00000
  y    -0.00000    -0.00000     0.00000     0.00000     0.00000    -0.00000
  z    -0.00000    -0.00000    -0.00000     0.00000    -0.00000     0.00000

 INTERNAL STRAIN TENSOR FOR ION    5 for displacements in x,y,z  (eV/Angst):
          X           Y           Z          XY          YZ          ZX
  --------------------------------------------------------------------------------
  x     0.00000     0.00000     0.00000    -0.00000     0.00000    -0.00000
  y     0.00000     0.00000    -0.00000     0.00000     0.00000     0.00000
  z     0.00000    -0.00000    -0.00000     0.00000     0.00000    -0.00000

 INTERNAL STRAIN TENSORS FROM DISPLACED ATOMS
 ============================================

 INTERNAL STRAIN TENSOR FOR ION    1 for displacements in x,y,z  (eV/Angst):
          X           Y           Z          XY          YZ          ZX
  --------------------------------------------------------------------------------
  x     0.00000     0.00000     0.00000     0.00000     0.00000     0.00000
  y     0.00000     0.00000     0.00000     0.00000     0.00000     0.00000
  z     0.00000     0.00000     0.00000     0.00000     0.00000     0.00000

 INTERNAL STRAIN TENSOR FOR ION    2 for displacements in x,y,z  (eV/Angst):
          X           Y           Z          XY          YZ          ZX
  --------------------------------------------------------------------------------
  x     0.00000     0.00000     0.00000     0.00000     0.00000     0.00000
  y     0.00000     0.00000     0.00000     0.00000     0.00000     0.00000
  z     0.00000     0.00000     0.00000     0.00000     0.00000     0.00000

 INTERNAL STRAIN TENSOR FOR ION    3 for displacements in x,y,z  (eV/Angst):
          X           Y           Z          XY          YZ          ZX
  --------------------------------------------------------------------------------
  x     0.00000     0.00000     0.00000     0.00000     0.00000     0.00000
  y     0.00000     0.00000     0.00000     0.00000     0.00000     0.00000
  z     0.00000     0.00000     0.00000     0.00000     0.00000     0.00000

 INTERNAL STRAIN TENSOR FOR ION    4 for displacements in x,y,z  (eV/Angst):
          X           Y           Z          XY          YZ          ZX
  --------------------------------------------------------------------------------
  x     0.00000     0.00000     0.00000     0.00000     0.00000     0.00000
  y     0.00000     0.00000     0.00000     0.00000     0.00000     0.00000
  z     0.00000     0.00000     0.00000     0.00000     0.00000     0.00000

 INTERNAL STRAIN TENSOR FOR ION    5 for displacements in x,y,z  (eV/Angst):
          X           Y           Z          XY          YZ          ZX
  --------------------------------------------------------------------------------
  x     0.00000     0.00000     0.00000     0.00000     0.00000     0.00000
  y     0.00000     0.00000     0.00000     0.00000     0.00000     0.00000
  z     0.00000     0.00000     0.00000     0.00000     0.00000     0.00000


--------------------------------------------------------------------------------------------------------



 Eigenvectors and eigenvalues of the dynamical matrix
 ----------------------------------------------------


   1 f  =    2.832381 THz    17.796372 2PiTHz   94.478048 cm-1    11.713780 meV
             X         Y         Z           dx          dy          dz
      0.000000  0.000000  0.000000    -0.022187   -0.014772    0.752483  
      2.317595  2.317595  2.317595     0.009137    0.006083   -0.309885  
      2.317595  2.317595  0.000000     0.008855    0.005895   -0.395118  
      2.317595  0.000000  2.317595     0.008855    0.007757   -0.300307  
      0.000000  2.317595  2.317595     0.011650    0.005895   -0.300307  

   2 f  =    2.832381 THz    17.796372 2PiTHz   94.478048 cm-1    11.713780 meV
             X         Y         Z           dx          dy          dz
      0.000000  0.000000  0.000000     0.410643   -0.631121   -0.000282  
      2.317595  2.317595  2.317595    -0.169110    0.259906    0.000116  
      2.317595  2.317595  0.000000    -0.163883    0.251873    0.000148  
      2.317595  0.000000  2.317595    -0.163883    0.331392    0.000112  
      0.000000  2.317595  2.317595    -0.215623    0.251873    0.000112  

   3 f  =    2.832381 THz    17.796372 2PiTHz   94.478048 cm-1    11.713780 meV
             X         Y         Z           dx          dy          dz
      0.000000  0.000000  0.000000     0.630731    0.410378    0.026654  
      2.317595  2.317595  2.317595    -0.259745   -0.169000   -0.010976  
      2.317595  2.317595  0.000000    -0.251717   -0.163777   -0.013995  
      2.317595  0.000000  2.317595    -0.251717   -0.215483   -0.010637  
      0.000000  2.317595  2.317595    -0.331188   -0.163777   -0.010637  

   4 f/i=    0.881367 THz     5.537793 2PiTHz   29.399243 cm-1     3.645040 meV
             X         Y         Z           dx          dy          dz
      0.000000  0.000000  0.000000     0.258952   -0.596952   -0.013758  
      2.317595  2.317595  2.317595     0.113987   -0.262770   -0.006056  
      2.317595  2.317595  0.000000     0.167008   -0.384998   -0.007964  
      2.317595  0.000000  2.317595     0.167008   -0.345550   -0.008873  
      0.000000  2.317595  2.317595     0.149896   -0.384998   -0.008873  

   5 f/i=    0.881367 THz     5.537793 2PiTHz   29.399243 cm-1     3.645040 meV
             X         Y         Z           dx          dy          dz
      0.000000  0.000000  0.000000     0.597105    0.258947    0.003099  
      2.317595  2.317595  2.317595     0.262837    0.113985    0.001364  
      2.317595  2.317595  0.000000     0.385096    0.167005    0.001794  
      2.317595  0.000000  2.317595     0.385096    0.149893    0.001999  
      0.000000  2.317595  2.317595     0.345638    0.167005    0.001999  

   6 f/i=    0.881367 THz     5.537793 2PiTHz   29.399243 cm-1     3.645040 meV
             X         Y         Z           dx          dy          dz
      0.000000  0.000000  0.000000     0.002632   -0.013855    0.650691  
      2.317595  2.317595  2.317595     0.001158   -0.006099    0.286425  
      2.317595  2.317595  0.000000     0.001697   -0.008936    0.376657  
      2.317595  0.000000  2.317595     0.001697   -0.008020    0.419656  
      0.000000  2.317595  2.317595     0.001523   -0.008936    0.419656  

   7 f/i=    2.367618 THz    14.876184 2PiTHz   78.975240 cm-1     9.791677 meV
             X         Y         Z           dx          dy          dz
      0.000000  0.000000  0.000000    -0.000731    0.001456   -0.061512  
      2.317595  2.317595  2.317595    -0.010684    0.021282   -0.899402  
      2.317595  2.317595  0.000000     0.003388   -0.006748    0.154759  
      2.317595  0.000000  2.317595     0.003388   -0.003662    0.285168  
      0.000000  2.317595  2.317595     0.001838   -0.006748    0.285168  

   8 f/i=    2.367618 THz    14.876184 2PiTHz   78.975240 cm-1     9.791677 meV
             X         Y         Z           dx          dy          dz
      0.000000  0.000000  0.000000    -0.059571   -0.015412    0.000343  
      2.317595  2.317595  2.317595    -0.871026   -0.225343    0.005015  
      2.317595  2.317595  0.000000     0.276171    0.071448   -0.000863  
      2.317595  0.000000  2.317595     0.276171    0.038775   -0.001590  
      0.000000  2.317595  2.317595     0.149876    0.071448   -0.001590  

   9 f/i=    2.367618 THz    14.876184 2PiTHz   78.975240 cm-1     9.791677 meV
             X         Y         Z           dx          dy          dz
      0.000000  0.000000  0.000000     0.015398   -0.059555   -0.001592  
      2.317595  2.317595  2.317595     0.225145   -0.870780   -0.023280  
      2.317595  2.317595  0.000000    -0.071386    0.276093    0.004006  
      2.317595  0.000000  2.317595    -0.071386    0.149834    0.007381  
      0.000000  2.317595  2.317595    -0.038741    0.276093    0.007381  

  10 f/i=    5.482207 THz    34.445721 2PiTHz  182.866733 cm-1    22.672575 meV
             X         Y         Z           dx          dy          dz
      0.000000  0.000000  0.000000    -0.000000   -0.000000   -0.000000  
      2.317595  2.317595  2.317595    -0.000000    0.000000   -0.000000  
      2.317595  2.317595  0.000000    -0.703941    0.066707   -0.000000  
      2.317595  0.000000  2.317595     0.703941   -0.000000    0.004075  
      0.000000  2.317595  2.317595     0.000000   -0.066707   -0.004075  

  11 f/i=    5.482207 THz    34.445721 2PiTHz  182.866733 cm-1    22.672575 meV
             X         Y         Z           dx          dy          dz
      0.000000  0.000000  0.000000    -0.000000    0.000000   -0.000000  
      2.317595  2.317595  2.317595     0.000000   -0.000000   -0.000000  
      2.317595  2.317595  0.000000     0.066731    0.699202   -0.000000  
      2.317595  0.000000  2.317595    -0.066731    0.000000    0.081634  
      0.000000  2.317595  2.317595    -0.000000   -0.699202   -0.081634  

  12 f/i=    5.482207 THz    34.445721 2PiTHz  182.866733 cm-1    22.672575 meV
             X         Y         Z           dx          dy          dz
      0.000000  0.000000  0.000000    -0.000000   -0.000000    0.000000  
      2.317595  2.317595  2.317595     0.000000    0.000000    0.000000  
      2.317595  2.317595  0.000000     0.003672    0.081654    0.000000  
      2.317595  0.000000  2.317595    -0.003672   -0.000000   -0.702367  
      0.000000  2.317595  2.317595    -0.000000   -0.081654    0.702367  

  13 f/i=    9.338919 THz    58.678160 2PiTHz  311.512811 cm-1    38.622649 meV
             X         Y         Z           dx          dy          dz
      0.000000  0.000000  0.000000    -0.030659    0.068808    0.000000  
      2.317595  2.317595  2.317595     0.045107   -0.101232   -0.000000  
      2.317595  2.317595  0.000000     0.158748   -0.356272    0.000000  
      2.317595  0.000000  2.317595     0.158748    0.752000   -0.000000  
      0.000000  2.317595  2.317595    -0.335078   -0.356272    0.000000  

  14 f/i=    9.338919 THz    58.678160 2PiTHz  311.512811 cm-1    38.622649 meV
             X         Y         Z           dx          dy          dz
      0.000000  0.000000  0.000000    -0.000000   -0.000000   -0.075329  
      2.317595  2.317595  2.317595     0.000000    0.000000    0.110827  
      2.317595  2.317595  0.000000     0.000000    0.000000   -0.823275  
      2.317595  0.000000  2.317595     0.000000   -0.000000    0.390039  
      0.000000  2.317595  2.317595    -0.000000    0.000000    0.390039  

  15 f/i=    9.338919 THz    58.678160 2PiTHz  311.512811 cm-1    38.622649 meV
             X         Y         Z           dx          dy          dz
      0.000000  0.000000  0.000000     0.068808    0.030659   -0.000000  
      2.317595  2.317595  2.317595    -0.101232   -0.045107    0.000000  
      2.317595  2.317595  0.000000    -0.356272   -0.158748   -0.000000  
      2.317595  0.000000  2.317595    -0.356272    0.335078    0.000000  
      0.000000  2.317595  2.317595     0.752000   -0.158748    0.000000  



--------------------------------------------------------------------------------------------------------



 ELASTIC MODULI CONTR FROM IONIC RELAXATION (kBar)
 Direction    XX          YY          ZZ          XY          YZ          ZX
 --------------------------------------------------------------------------------
 XX           0.0000      0.0000      0.0000      0.0000      0.0000      0.0000
 YY           0.0000      0.0000      0.0000      0.0000      0.0000      0.0000
 ZZ           0.0000      0.0000      0.0000      0.0000      0.0000      0.0000
 XY           0.0000      0.0000      0.0000      0.0000      0.0000      0.0000
 YZ           0.0000      0.0000      0.0000      0.0000      0.0000      0.0000
 ZX           0.0000      0.0000      0.0000      0.0000      0.0000      0.0000
 --------------------------------------------------------------------------------


 TOTAL ELASTIC MODULI (kBar)
 Direction    XX          YY          ZZ          XY          YZ          ZX
 --------------------------------------------------------------------------------
 XX         796.8959    506.0693    506.0693     -0.0000     -0.0000      0.0000
 YY         506.0693    796.8959    506.0693     -0.0000      0.0000     -0.0000
 ZZ         506.0693    506.0693    796.8959      0.0000      0.0000      0.0000
 XY          -0.0000     -0.0000      0.0000   -901.7818      0.0000      0.0000
 YZ          -0.0000      0.0000      0.0000      0.0000   -901.7818      0.0000
 ZX           0.0000     -0.0000      0.0000      0.0000      0.0000   -901.7818
 --------------------------------------------------------------------------------



--------------------------------------------------------------------------------------------------------


  LATTYP: Found a simple cubic cell.
 ALAT       =     4.6351897814
  
  Lattice vectors:
  
 A1 = (   4.6351897814,  -0.0000000000,  -0.0000000000)
 A2 = (  -0.0000000000,   4.6351897814,  -0.0000000000)
 A3 = (   0.0000000000,   0.0000000000,   4.6351897814)


Analysis of symmetry for initial positions (statically):
=====================================================================
 Subroutine PRICEL returns:
 Original cell was already a primitive cell.
 

 Routine SETGRP: Setting up the symmetry group for a 
 simple cubic supercell.


 Subroutine GETGRP returns: Found 48 space group operations
 (whereof 48 operations were pure point group operations)
 out of a pool of 48 trial point group operations.


The static configuration has the point symmetry O_h .


Analysis of symmetry for dynamics (positions and initial velocities):
=====================================================================
 Subroutine PRICEL returns:
 Original cell was already a primitive cell.
 

 Routine SETGRP: Setting up the symmetry group for a 
 simple cubic supercell.


 Subroutine GETGRP returns: Found 48 space group operations
 (whereof 48 operations were pure point group operations)
 out of a pool of 48 trial point group operations.


The dynamic configuration has the point symmetry O_h .


 Subroutine INISYM returns: Found 48 space group operations
 (whereof 48 operations are pure point group operations),
 and found     1 'primitive' translations


 KPOINTS: pymatgen with grid density = 600 / numbe

Automatic generation of k-mesh.
 Grid dimensions read from file:
 generate k-points for:    4    4    4

 Generating k-lattice:

  Cartesian coordinates                     Fractional coordinates (reciprocal lattice)
     0.053935224  0.000000000 -0.000000000     0.250000000  0.000000000  0.000000000
     0.000000000  0.053935224 -0.000000000     0.000000000  0.250000000  0.000000000
     0.000000000  0.000000000  0.053935224     0.000000000  0.000000000  0.250000000

  Length of vectors
     0.053935224  0.053935224  0.053935224

  Shift w.r.t. Gamma in fractional coordinates (k-lattice)
     0.000000000  0.000000000  0.000000000

 
 Subroutine IBZKPT returns following result:
 ===========================================
 
 Found     10 irreducible k-points:
 
 Following reciprocal coordinates:
            Coordinates               Weight
  0.000000  0.000000  0.000000      1.000000
  0.250000  0.000000  0.000000      6.000000
  0.500000  0.000000  0.000000      3.000000
  0.250000  0.250000  0.000000     12.000000
  0.500000  0.250000  0.000000     12.000000
  0.500000  0.500000  0.000000      3.000000
  0.250000  0.250000  0.250000      8.000000
  0.500000  0.250000  0.250000     12.000000
  0.500000  0.500000  0.250000      6.000000
  0.500000  0.500000  0.500000      1.000000
 
 Following cartesian coordinates:
            Coordinates               Weight
  0.000000  0.000000  0.000000      1.000000
  0.053935  0.000000  0.000000      6.000000
  0.107870  0.000000  0.000000      3.000000
  0.053935  0.053935  0.000000     12.000000
  0.107870  0.053935  0.000000     12.000000
  0.107870  0.107870  0.000000      3.000000
  0.053935  0.053935  0.053935      8.000000
  0.107870  0.053935  0.053935     12.000000
  0.107870  0.107870  0.053935      6.000000
  0.107870  0.107870  0.107870      1.000000
 
     LOOP+:  cpu time      4.3237: real time      4.3345
    4ORBIT:  cpu time      0.0000: real time      0.0000

 total amount of memory used by VASP MPI-rank0    31882. kBytes
=======================================================================

   base      :      30000. kBytes
   nonlr-proj:        482. kBytes
   fftplans  :        212. kBytes
   grid      :        866. kBytes
   one-center:         15. kBytes
   wavefun   :        307. kBytes

  
  
 General timing and accounting informations for this job:
 ========================================================
  
                  Total CPU time used (sec):      264.180
                            User time (sec):      263.081
                          System time (sec):        1.099
                         Elapsed time (sec):      265.540
  
                   Maximum memory used (kb):      126852.
                   Average memory used (kb):          N/A
  
                          Minor page faults:        41822
                          Major page faults:          135
                 Voluntary context switches:         1288
