 vasp.6.3.2 27Jun22 (build Jun 14 2024 17:29:11) complex                         
 executed on             LinuxGNU date 2026.03.30  07:44:09
 running on    8 total cores
 distrk:  each k-point on    8 cores,    1 groups
 distr:  one band on NCORE=   1 cores,    8 groups


--------------------------------------------------------------------------------------------------------


 INCAR:
   EDIFF = 1e-06
   ENCUT = 400.0
   IBRION = 6
   ISIF = 3
   ISMEAR = 0
   LCHARG = False
   LREAL = Auto
   LWAVE = False
   NFREE = 4
   NSW = 1
   POTIM = 0.015
   SIGMA = 0.05

 POTCAR:    PAW_PBE Na_pv 19Sep2006               
 POTCAR:    PAW_PBE Si 05Jan2001                  
 POTCAR:    PAW_PBE S 06Sep2000                   
 -----------------------------------------------------------------------------
|                                                                             |
|           W    W    AA    RRRRR   N    N  II  N    N   GGGG   !!!           |
|           W    W   A  A   R    R  NN   N  II  NN   N  G    G  !!!           |
|           W    W  A    A  R    R  N N  N  II  N N  N  G       !!!           |
|           W WW W  AAAAAA  RRRRR   N  N N  II  N  N N  G  GGG   !            |
|           WW  WW  A    A  R   R   N   NN  II  N   NN  G    G                |
|           W    W  A    A  R    R  N    N  II  N    N   GGGG   !!!           |
|                                                                             |
|     For optimal performance we recommend to set                             |
|       NCORE = 2 up to number-of-cores-per-socket                            |
|     NCORE specifies how many cores store one orbital (NPAR=cpu/NCORE).      |
|     This setting can greatly improve the performance of VASP for DFT.       |
|     The default, NCORE=1 might be grossly inefficient on modern             |
|     multi-core architectures or massively parallel machines. Do your        |
|     own testing! More info at https://www.vasp.at/wiki/index.php/NCORE      |
|     Unfortunately you need to use the default for GW and RPA                |
|     calculations (for HF NCORE is supported but not extensively tested      |
|     yet).                                                                   |
|                                                                             |
 -----------------------------------------------------------------------------

 POTCAR:    PAW_PBE Na_pv 19Sep2006               
   SHA256 =  6a2f546d9e11350984debacf3dc457d8cffc0868e817d445faca461816a32b94 Na_pv/POTCAR          
   COPYR  = (c) Copyright 19Sep2006 Georg Kresse                                                    
   COPYR  = This file is part of the software VASP. Any use, copying, and all other rights are regul
   COPYR  = If you do not have a valid VASP license, you may not use, copy or distribute this file. 
   VRHFIN =Na: p6s1                                                                                 
   LEXCH  = PE                                                                                      
   EATOM  =   766.0439 eV,   56.3026 Ry                                                             
                                                                                                    
   TITEL  = PAW_PBE Na_pv 19Sep2006                                                                 
   LULTRA =        F    use ultrasoft PP ?                                                          
   IUNSCR =        1    unscreen: 0-lin 1-nonlin 2-no                                               
   RPACOR =    1.800    partial core radius                                                         
   POMASS =   22.990; ZVAL   =    7.000    mass and valenz                                          
   RCORE  =    2.200    outmost cutoff radius                                                       
   RWIGS  =    2.200; RWIGS  =    1.164    wigner-seitz radius (au A)                               
   ENMAX  =  259.561; ENMIN  =  194.671 eV                                                          
   ICORE  =        2    local potential                                                             
   LCOR   =        T    correct aug charges                                                         
   LPAW   =        T    paw PP                                                                      
   EAUG   =  368.056                                                                                
   DEXC   =    0.000                                                                                
   RMAX   =    2.245    core radius for proj-oper                                                   
   RAUG   =    1.300    factor for augmentation sphere                                              
   RDEP   =    2.259    radius for radial grids                                                     
   RDEPT  =    1.738    core radius for aug-charge                                                  
                                                                                                    
   Atomic configuration                                                                             
    5 entries                                                                                       
     n  l   j            E        occ.                                                              
     1  0  0.50     -1033.6933   2.0000                                                             
     2  0  0.50       -56.7526   2.0000                                                             
     2  1  1.50       -28.6721   6.0000                                                             
     3  0  0.50        -2.7440   1.0000                                                             
     3  2  1.50        -1.3606   0.0000                                                             
   Description                                                                                      
     l       E           TYP  RCUT    TYP  RCUT                                                     
     1    -28.6720912     23  2.000                                                                 
     1      6.8029130     23  2.000                                                                 
     0     -2.7439560     23  2.200                                                                 
     0     34.0145650     23  2.200                                                                 
     2     -1.3605826     23  2.200                                                                 
  local pseudopotential read in
  partial core-charges read in
  partial kinetic energy density read in
  atomic valenz-charges read in
  non local Contribution for L=           1  read in
    real space projection operators read in
  non local Contribution for L=           1  read in
    real space projection operators read in
  non local Contribution for L=           0  read in
    real space projection operators read in
  non local Contribution for L=           0  read in
    real space projection operators read in
    PAW grid and wavefunctions read in

   number of l-projection  operators is LMAX  =           4
   number of lm-projection operators is LMMAX =           8

 POTCAR:    PAW_PBE Si 05Jan2001                  
   SHA256 =  79d9987ad8750f624c4d6acb2a16d13abf6a777132adc04dc6c8399be72b42bb Si/POTCAR             
   COPYR  = (c) Copyright 05Jan2001 Georg Kresse                                                    
   COPYR  = This file is part of the software VASP. Any use, copying, and all other rights are regul
   COPYR  = If you do not have a valid VASP license, you may not use, copy or distribute this file. 
   VRHFIN =Si: s2p2                                                                                 
   LEXCH  = PE                                                                                      
   EATOM  =   103.0669 eV,    7.5752 Ry                                                             
                                                                                                    
   TITEL  = PAW_PBE Si 05Jan2001                                                                    
   LULTRA =        F    use ultrasoft PP ?                                                          
   IUNSCR =        1    unscreen: 0-lin 1-nonlin 2-no                                               
   RPACOR =    1.500    partial core radius                                                         
   POMASS =   28.085; ZVAL   =    4.000    mass and valenz                                          
   RCORE  =    1.900    outmost cutoff radius                                                       
   RWIGS  =    2.480; RWIGS  =    1.312    wigner-seitz radius (au A)                               
   ENMAX  =  245.345; ENMIN  =  184.009 eV                                                          
   ICORE  =        2    local potential                                                             
   LCOR   =        T    correct aug charges                                                         
   LPAW   =        T    paw PP                                                                      
   EAUG   =  322.069                                                                                
   DEXC   =    0.000                                                                                
   RMAX   =    1.950    core radius for proj-oper                                                   
   RAUG   =    1.300    factor for augmentation sphere                                              
   RDEP   =    1.993    radius for radial grids                                                     
   RDEPT  =    1.837    core radius for aug-charge                                                  
                                                                                                    
   Atomic configuration                                                                             
    6 entries                                                                                       
     n  l   j            E        occ.                                                              
     1  0  0.50     -1785.8828   2.0000                                                             
     2  0  0.50      -139.4969   2.0000                                                             
     2  1  1.50       -95.5546   6.0000                                                             
     3  0  0.50       -10.8127   2.0000                                                             
     3  1  0.50        -4.0811   2.0000                                                             
     3  2  1.50        -4.0817   0.0000                                                             
   Description                                                                                      
     l       E           TYP  RCUT    TYP  RCUT                                                     
     0    -10.8127223     23  1.900                                                                 
     0     -7.6451159     23  1.900                                                                 
     1     -4.0811372     23  1.900                                                                 
     1      2.4879257     23  1.900                                                                 
     2     -4.0817478      7  1.900                                                                 
  local pseudopotential read in
  partial core-charges read in
  partial kinetic energy density read in
  atomic valenz-charges read in
  non local Contribution for L=           0  read in
    real space projection operators read in
  non local Contribution for L=           0  read in
    real space projection operators read in
  non local Contribution for L=           1  read in
    real space projection operators read in
  non local Contribution for L=           1  read in
    real space projection operators read in
    PAW grid and wavefunctions read in

   number of l-projection  operators is LMAX  =           4
   number of lm-projection operators is LMMAX =           8

 POTCAR:    PAW_PBE S 06Sep2000                   
   SHA256 =  0fc7481fb0695f01bdc6462160264c5c84044ae9ec85a907d398b887a2bc3132 S/POTCAR              
   COPYR  = (c) Copyright 06Sep2000 Georg Kresse                                                    
   COPYR  = This file is part of the software VASP. Any use, copying, and all other rights are regul
   COPYR  = If you do not have a valid VASP license, you may not use, copy or distribute this file. 
   VRHFIN =S : s2p4                                                                                 
   LEXCH  = PE                                                                                      
   EATOM  =   276.8230 eV,   20.3459 Ry                                                             
                                                                                                    
   TITEL  = PAW_PBE S 06Sep2000                                                                     
   LULTRA =        F    use ultrasoft PP ?                                                          
   IUNSCR =        1    unscreen: 0-lin 1-nonlin 2-no                                               
   RPACOR =    1.500    partial core radius                                                         
   POMASS =   32.066; ZVAL   =    6.000    mass and valenz                                          
   RCORE  =    1.900    outmost cutoff radius                                                       
   RWIGS  =    2.200; RWIGS  =    1.164    wigner-seitz radius (au A)                               
   ENMAX  =  258.689; ENMIN  =  194.016 eV                                                          
   ICORE  =        2    local potential                                                             
   LCOR   =        T    correct aug charges                                                         
   LPAW   =        T    paw PP                                                                      
   EAUG   =  335.092                                                                                
   DEXC   =    0.000                                                                                
   RMAX   =    1.942    core radius for proj-oper                                                   
   RAUG   =    1.300    factor for augmentation sphere                                              
   RDEP   =    1.954    radius for radial grids                                                     
   RDEPT  =    1.744    core radius for aug-charge                                                  
                                                                                                    
   Atomic configuration                                                                             
    6 entries                                                                                       
     n  l   j            E        occ.                                                              
     1  0  0.50     -2405.8406   2.0000                                                             
     2  0  0.50      -211.7007   2.0000                                                             
     2  1  1.50      -156.4958   6.0000                                                             
     3  0  0.50       -17.2562   2.0000                                                             
     3  1  0.50        -7.0085   4.0000                                                             
     3  2  1.50        -6.8029   0.0000                                                             
   Description                                                                                      
     l       E           TYP  RCUT    TYP  RCUT                                                     
     0    -17.2561641     23  1.900                                                                 
     0    -15.8743224     23  1.900                                                                 
     1     -7.0085400     23  1.900                                                                 
     1     -2.7779785     23  1.900                                                                 
     2     -6.8029130     23  1.900                                                                 
  local pseudopotential read in
  partial core-charges read in
  partial kinetic energy density read in
  atomic valenz-charges read in
  non local Contribution for L=           0  read in
    real space projection operators read in
  non local Contribution for L=           0  read in
    real space projection operators read in
  non local Contribution for L=           1  read in
    real space projection operators read in
  non local Contribution for L=           1  read in
    real space projection operators read in
    PAW grid and wavefunctions read in

   number of l-projection  operators is LMAX  =           4
   number of lm-projection operators is LMMAX =           8

 -----------------------------------------------------------------------------
|                                                                             |
|               ----> ADVICE to this user running VASP <----                  |
|                                                                             |
|     You have a (more or less) 'small supercell' and for smaller cells       |
|     it is recommended to use the reciprocal-space projection scheme!        |
|     The real-space optimization is not efficient for small cells and it     |
|     is also less accurate ...                                               |
|     Therefore, set LREAL=.FALSE. in the INCAR file.                         |
|                                                                             |
 -----------------------------------------------------------------------------

 Optimization of the real space projectors (new method)

 maximal supplied QI-value         = 17.01
 optimisation between [QCUT,QGAM] = [ 10.20, 20.41] = [ 29.16,116.64] Ry 
 Optimized for a Real-space Cutoff    1.30 Angstroem

   l    n(q)    QCUT    max X(q) W(low)/X(q) W(high)/X(q)  e(spline) 
   1      7    10.205     4.940    0.23E-03    0.84E-03    0.11E-06
   1      7    10.205     6.253    0.40E-03    0.13E-02    0.18E-06
   0      8    10.205    37.438    0.23E-03    0.37E-03    0.42E-07
   0      8    10.205     9.606    0.16E-03    0.26E-03    0.31E-07
 Optimization of the real space projectors (new method)

 maximal supplied QI-value         = 19.84
 optimisation between [QCUT,QGAM] = [ 10.12, 20.44] = [ 28.68,116.96] Ry 
 Optimized for a Real-space Cutoff    1.23 Angstroem

   l    n(q)    QCUT    max X(q) W(low)/X(q) W(high)/X(q)  e(spline) 
   0      7    10.119   159.560    0.56E-04    0.22E-03    0.45E-07
   0      7    10.119   115.863    0.56E-04    0.21E-03    0.45E-07
   1      7    10.119    88.339    0.34E-03    0.49E-03    0.11E-06
   1      7    10.119    48.592    0.33E-03    0.48E-03    0.11E-06
 Optimization of the real space projectors (new method)

 maximal supplied QI-value         = 19.84
 optimisation between [QCUT,QGAM] = [ 10.12, 20.44] = [ 28.68,116.96] Ry 
 Optimized for a Real-space Cutoff    1.23 Angstroem

   l    n(q)    QCUT    max X(q) W(low)/X(q) W(high)/X(q)  e(spline) 
   0      7    10.119   187.594    0.62E-04    0.28E-03    0.52E-07
   0      7    10.119   164.243    0.61E-04    0.28E-03    0.52E-07
   1      7    10.119    67.533    0.45E-03    0.63E-03    0.13E-06
   1      7    10.119    50.729    0.44E-03    0.62E-03    0.12E-06
  PAW_PBE Na_pv 19Sep2006               :
 energy of atom  1       EATOM= -766.0439
 kinetic energy error for atom=    0.0103 (will be added to EATOM!!)
  PAW_PBE Si 05Jan2001                  :
 energy of atom  2       EATOM= -103.0669
 kinetic energy error for atom=    0.0012 (will be added to EATOM!!)
  PAW_PBE S 06Sep2000                   :
 energy of atom  3       EATOM= -276.8230
 kinetic energy error for atom=    0.0046 (will be added to EATOM!!)


 POSCAR: Na1 Si1 S3
  positions in direct lattice
  velocities in cartesian coordinates
 exchange correlation table for  LEXCH =        8
   RHO(1)=    0.500       N(1)  =     2000
   RHO(2)=  100.500       N(2)  =     4000



--------------------------------------------------------------------------------------------------------


 ion  position               nearest neighbor table
   1  0.000  0.000  0.000-
   2  0.500  0.500  0.500-   3 2.32   4 2.32   5 2.32   3 2.32   4 2.32   5 2.32
   3  0.500  0.500  0.000-   2 2.32   2 2.32
   4  0.500  0.000  0.500-   2 2.32   2 2.32
   5  0.000  0.500  0.500-   2 2.32   2 2.32

  LATTYP: Found a simple cubic cell.
 ALAT       =     4.6351897814
  
  Lattice vectors:
  
 A1 = (   4.6351897814,  -0.0000000000,  -0.0000000000)
 A2 = (  -0.0000000000,   4.6351897814,  -0.0000000000)
 A3 = (   0.0000000000,   0.0000000000,   4.6351897814)


Analysis of symmetry for initial positions (statically):
=====================================================================
 Subroutine PRICEL returns:
 Original cell was already a primitive cell.
 

 Routine SETGRP: Setting up the symmetry group for a 
 simple cubic supercell.


 Subroutine GETGRP returns: Found 48 space group operations
 (whereof 48 operations were pure point group operations)
 out of a pool of 48 trial point group operations.


The static configuration has the point symmetry O_h .


Analysis of symmetry for dynamics (positions and initial velocities):
=====================================================================
 Subroutine PRICEL returns:
 Original cell was already a primitive cell.
 

 Routine SETGRP: Setting up the symmetry group for a 
 simple cubic supercell.


 Subroutine GETGRP returns: Found 48 space group operations
 (whereof 48 operations were pure point group operations)
 out of a pool of 48 trial point group operations.


The dynamic configuration has the point symmetry O_h .


 Subroutine INISYM returns: Found 48 space group operations
 (whereof 48 operations are pure point group operations),
 and found     1 'primitive' translations


----------------------------------------------------------------------------------------

                                     Primitive cell                                     

  volume of cell :      99.5870

  direct lattice vectors                    reciprocal lattice vectors
     4.635189781 -0.000000000 -0.000000000     0.215740897  0.000000000 -0.000000000
    -0.000000000  4.635189781 -0.000000000     0.000000000  0.215740897 -0.000000000
     0.000000000  0.000000000  4.635189781     0.000000000  0.000000000  0.215740897

  length of vectors
     4.635189781  4.635189781  4.635189781     0.215740897  0.215740897  0.215740897

  position of ions in fractional coordinates (direct lattice)
     0.000000000  0.000000000  0.000000000
     0.500000068  0.500000068  0.500000068
     0.500000068  0.500000068  0.000000000
     0.500000068  0.000000000  0.500000068
     0.000000000  0.500000068  0.500000068

  ion indices of the primitive-cell ions
   primitive index   ion index
                 1           1
                 2           2
                 3           3
                 4           4
                 5           5

----------------------------------------------------------------------------------------



 KPOINTS: pymatgen with grid density = 600 / numbe

Automatic generation of k-mesh.
 Grid dimensions read from file:
 generate k-points for:    4    4    4

 Generating k-lattice:

  Cartesian coordinates                     Fractional coordinates (reciprocal lattice)
     0.053935224  0.000000000 -0.000000000     0.250000000  0.000000000  0.000000000
     0.000000000  0.053935224 -0.000000000     0.000000000  0.250000000  0.000000000
     0.000000000  0.000000000  0.053935224     0.000000000  0.000000000  0.250000000

  Length of vectors
     0.053935224  0.053935224  0.053935224

  Shift w.r.t. Gamma in fractional coordinates (k-lattice)
     0.000000000  0.000000000  0.000000000

 
 Subroutine IBZKPT returns following result:
 ===========================================
 
 Found     10 irreducible k-points:
 
 Following reciprocal coordinates:
            Coordinates               Weight
  0.000000  0.000000  0.000000      1.000000
  0.250000  0.000000  0.000000      6.000000
  0.500000  0.000000  0.000000      3.000000
  0.250000  0.250000  0.000000     12.000000
  0.500000  0.250000  0.000000     12.000000
  0.500000  0.500000  0.000000      3.000000
  0.250000  0.250000  0.250000      8.000000
  0.500000  0.250000  0.250000     12.000000
  0.500000  0.500000  0.250000      6.000000
  0.500000  0.500000  0.500000      1.000000
 
 Following cartesian coordinates:
            Coordinates               Weight
  0.000000  0.000000  0.000000      1.000000
  0.053935  0.000000  0.000000      6.000000
  0.107870  0.000000  0.000000      3.000000
  0.053935  0.053935  0.000000     12.000000
  0.107870  0.053935  0.000000     12.000000
  0.107870  0.107870  0.000000      3.000000
  0.053935  0.053935  0.053935      8.000000
  0.107870  0.053935  0.053935     12.000000
  0.107870  0.107870  0.053935      6.000000
  0.107870  0.107870  0.107870      1.000000
 
 
 Subroutine IBZKPT_HF returns following result:
 ==============================================
 
 Found     64 k-points in 1st BZ
 the following     64 k-points will be used (e.g. in the exchange kernel)
 Following reciprocal coordinates:   # in IRBZ
  0.000000  0.000000  0.000000    0.01562500   1 t-inv F
  0.250000  0.000000  0.000000    0.01562500   2 t-inv F
  0.500000  0.000000  0.000000    0.01562500   3 t-inv F
  0.250000  0.250000  0.000000    0.01562500   4 t-inv F
  0.500000  0.250000  0.000000    0.01562500   5 t-inv F
  0.500000  0.500000  0.000000    0.01562500   6 t-inv F
  0.250000  0.250000  0.250000    0.01562500   7 t-inv F
  0.500000  0.250000  0.250000    0.01562500   8 t-inv F
  0.500000  0.500000  0.250000    0.01562500   9 t-inv F
  0.500000  0.500000  0.500000    0.01562500  10 t-inv F
 -0.250000 -0.000000 -0.000000    0.01562500   2 t-inv F
  0.000000  0.250000  0.000000    0.01562500   2 t-inv F
 -0.000000 -0.250000 -0.000000    0.01562500   2 t-inv F
  0.000000  0.000000  0.250000    0.01562500   2 t-inv F
 -0.000000 -0.000000 -0.250000    0.01562500   2 t-inv F
  0.000000  0.500000  0.000000    0.01562500   3 t-inv F
  0.000000  0.000000  0.500000    0.01562500   3 t-inv F
 -0.250000 -0.250000 -0.000000    0.01562500   4 t-inv F
  0.000000  0.250000  0.250000    0.01562500   4 t-inv F
 -0.000000 -0.250000 -0.250000    0.01562500   4 t-inv F
  0.250000  0.000000  0.250000    0.01562500   4 t-inv F
 -0.250000 -0.000000 -0.250000    0.01562500   4 t-inv F
 -0.250000  0.250000  0.000000    0.01562500   4 t-inv F
  0.250000 -0.250000 -0.000000    0.01562500   4 t-inv F
 -0.250000  0.000000  0.250000    0.01562500   4 t-inv F
  0.250000 -0.000000 -0.250000    0.01562500   4 t-inv F
 -0.000000 -0.250000  0.250000    0.01562500   4 t-inv F
  0.000000  0.250000 -0.250000    0.01562500   4 t-inv F
 -0.500000 -0.250000 -0.000000    0.01562500   5 t-inv F
  0.000000  0.500000  0.250000    0.01562500   5 t-inv F
 -0.000000 -0.500000 -0.250000    0.01562500   5 t-inv F
  0.250000  0.000000  0.500000    0.01562500   5 t-inv F
 -0.250000 -0.000000 -0.500000    0.01562500   5 t-inv F
 -0.250000  0.500000  0.000000    0.01562500   5 t-inv F
  0.250000 -0.500000 -0.000000    0.01562500   5 t-inv F
 -0.500000  0.000000  0.250000    0.01562500   5 t-inv F
  0.500000 -0.000000 -0.250000    0.01562500   5 t-inv F
 -0.000000  0.250000  0.500000    0.01562500   5 t-inv F
  0.000000 -0.250000 -0.500000    0.01562500   5 t-inv F
  0.000000  0.500000  0.500000    0.01562500   6 t-inv F
  0.500000  0.000000  0.500000    0.01562500   6 t-inv F
 -0.250000 -0.250000 -0.250000    0.01562500   7 t-inv F
 -0.250000  0.250000  0.250000    0.01562500   7 t-inv F
  0.250000 -0.250000 -0.250000    0.01562500   7 t-inv F
 -0.250000 -0.250000  0.250000    0.01562500   7 t-inv F
  0.250000  0.250000 -0.250000    0.01562500   7 t-inv F
  0.250000 -0.250000  0.250000    0.01562500   7 t-inv F
 -0.250000  0.250000 -0.250000    0.01562500   7 t-inv F
 -0.500000 -0.250000 -0.250000    0.01562500   8 t-inv F
  0.250000  0.500000  0.250000    0.01562500   8 t-inv F
 -0.250000 -0.500000 -0.250000    0.01562500   8 t-inv F
  0.250000  0.250000  0.500000    0.01562500   8 t-inv F
 -0.250000 -0.250000 -0.500000    0.01562500   8 t-inv F
 -0.250000  0.500000  0.250000    0.01562500   8 t-inv F
  0.250000 -0.500000 -0.250000    0.01562500   8 t-inv F
 -0.250000  0.250000  0.500000    0.01562500   8 t-inv F
  0.250000 -0.250000 -0.500000    0.01562500   8 t-inv F
 -0.500000 -0.250000  0.250000    0.01562500   8 t-inv F
  0.500000  0.250000 -0.250000    0.01562500   8 t-inv F
 -0.500000 -0.500000 -0.250000    0.01562500   9 t-inv F
  0.250000  0.500000  0.500000    0.01562500   9 t-inv F
 -0.250000 -0.500000 -0.500000    0.01562500   9 t-inv F
  0.500000  0.250000  0.500000    0.01562500   9 t-inv F
 -0.500000 -0.250000 -0.500000    0.01562500   9 t-inv F


--------------------------------------------------------------------------------------------------------




 Dimension of arrays:
   k-points           NKPTS =     10   k-points in BZ     NKDIM =     10   number of bands    NBANDS=     24
   number of dos      NEDOS =    301   number of ions     NIONS =      5
   non local maximal  LDIM  =      4   non local SUM 2l+1 LMDIM =      8
   total plane-waves  NPLWV =  13824
   max r-space proj   IRMAX =   1331   max aug-charges    IRDMAX=   4840
   dimension x,y,z NGX =    24 NGY =   24 NGZ =   24
   dimension x,y,z NGXF=    48 NGYF=   48 NGZF=   48
   support grid    NGXF=    48 NGYF=   48 NGZF=   48
   ions per type =               1   1   3
   NGX,Y,Z   is equivalent  to a cutoff of   8.61,  8.61,  8.61 a.u.
   NGXF,Y,Z  is equivalent  to a cutoff of  17.22, 17.22, 17.22 a.u.

 SYSTEM =  unknown system                          
 POSCAR =  Na1 Si1 S3                              

 Startparameter for this run:
   NWRITE =      2    write-flag & timer
   PREC   = normal    normal or accurate (medium, high low for compatibility)
   ISTART =      0    job   : 0-new  1-cont  2-samecut
   ICHARG =      2    charge: 1-file 2-atom 10-const
   ISPIN  =      1    spin polarized calculation?
   LNONCOLLINEAR =      F non collinear calculations
   LSORBIT =      F    spin-orbit coupling
   INIWAV =      1    electr: 0-lowe 1-rand  2-diag
   LASPH  =      F    aspherical Exc in radial PAW
 Electronic Relaxation 1
   ENCUT  =  400.0 eV  29.40 Ry    5.42 a.u.   7.56  7.56  7.56*2*pi/ulx,y,z
   ENINI  =  400.0     initial cutoff
   ENAUG  =  368.1 eV  augmentation charge cutoff
   NELM   =     60;   NELMIN=  2; NELMDL=  0     # of ELM steps 
   EDIFF  = 0.1E-05   stopping-criterion for ELM
   LREAL  =      T    real-space projection
   NLSPLINE    = F    spline interpolate recip. space projectors
   LCOMPAT=      F    compatible to vasp.4.4
   GGA_COMPAT  = T    GGA compatible to vasp.4.4-vasp.4.6
   LMAXPAW     = -100 max onsite density
   LMAXMIX     =    2 max onsite mixed and CHGCAR
   VOSKOWN=      0    Vosko Wilk Nusair interpolation
   ROPT   =   -0.00050  -0.00050  -0.00050
 Ionic relaxation
   EDIFFG = 0.1E-04   stopping-criterion for IOM
   NSW    =     97    number of steps for IOM
   NBLOCK =      1;   KBLOCK =     97    inner block; outer block 
   IBRION =      6    ionic relax: 0-MD 1-quasi-New 2-CG
   NFREE  =      4    steps in history (QN), initial steepest desc. (CG)
   ISIF   =      3    stress and relaxation
   IWAVPR =     11    prediction:  0-non 1-charg 2-wave 3-comb
   ISYM   =      2    0-nonsym 1-usesym 2-fastsym
   LCORR  =      T    Harris-Foulkes like correction to forces

   POTIM  = 0.0150    time-step for ionic-motion
   TEIN   =    0.0    initial temperature
   TEBEG  =    0.0;   TEEND  =   0.0 temperature during run
   SMASS  =  -3.00    Nose mass-parameter (am)
   estimated Nose-frequenzy (Omega)   =  0.10E-29 period in steps = 0.42E+48 mass=  -0.491E-27a.u.
   SCALEE = 1.0000    scale energy and forces
   NPACO  =    256;   APACO  = 10.0  distance and # of slots for P.C.
   PSTRESS=    0.0 pullay stress

  Mass of Ions in am
   POMASS =  22.99 28.09 32.07
  Ionic Valenz
   ZVAL   =   7.00  4.00  6.00
  Atomic Wigner-Seitz radii
   RWIGS  =  -1.00 -1.00 -1.00
  virtual crystal weights 
   VCA    =   1.00  1.00  1.00
   NELECT =      29.0000    total number of electrons
   NUPDOWN=      -1.0000    fix difference up-down

 DOS related values:
   EMIN   =  10.00;   EMAX   =-10.00  energy-range for DOS
   EFERMI =   0.00
   ISMEAR =     0;   SIGMA  =   0.05  broadening in eV -4-tet -1-fermi 0-gaus

 Electronic relaxation 2 (details)
   IALGO  =     38    algorithm
   LDIAG  =      T    sub-space diagonalisation (order eigenvalues)
   LSUBROT=      F    optimize rotation matrix (better conditioning)
   TURBO    =      0    0=normal 1=particle mesh
   IRESTART =      0    0=no restart 2=restart with 2 vectors
   NREBOOT  =      0    no. of reboots
   NMIN     =      0    reboot dimension
   EREF     =   0.00    reference energy to select bands
   IMIX   =      4    mixing-type and parameters
     AMIX     =   0.40;   BMIX     =  1.00
     AMIX_MAG =   1.60;   BMIX_MAG =  1.00
     AMIN     =   0.10
     WC   =   100.;   INIMIX=   1;  MIXPRE=   1;  MAXMIX= -45

 Intra band minimization:
   WEIMIN = 0.0010     energy-eigenvalue tresh-hold
   EBREAK =  0.10E-07  absolut break condition
   DEPER  =   0.30     relativ break condition  

   TIME   =   0.40     timestep for ELM

  volume/ion in A,a.u.               =      19.92       134.41
  Fermi-wavevector in a.u.,A,eV,Ry     =   1.085109  2.050558 16.020333  1.177461
  Thomas-Fermi vector in A             =   2.221215

 Write flags
   LWAVE        =      F    write WAVECAR
   LDOWNSAMPLE  =      F    k-point downsampling of WAVECAR
   LCHARG       =      F    write CHGCAR
   LVTOT        =      F    write LOCPOT, total local potential
   LVHAR        =      F    write LOCPOT, Hartree potential only
   LELF         =      F    write electronic localiz. function (ELF)
   LORBIT       =      0    0 simple, 1 ext, 2 COOP (PROOUT), +10 PAW based schemes


 Dipole corrections
   LMONO  =      F    monopole corrections only (constant potential shift)
   LDIPOL =      F    correct potential (dipole corrections)
   IDIPOL =      0    1-x, 2-y, 3-z, 4-all directions 
   EPSILON=  1.0000000 bulk dielectric constant

 Exchange correlation treatment:
   GGA     =    --    GGA type
   LEXCH   =     8    internal setting for exchange type
   LIBXC   =     F    Libxc                    
   VOSKOWN =     0    Vosko Wilk Nusair interpolation
   LHFCALC =     F    Hartree Fock is set to
   LHFONE  =     F    Hartree Fock one center treatment
   AEXX    =    0.0000 exact exchange contribution

 Linear response parameters
   LEPSILON=     F    determine dielectric tensor
   LRPA    =     F    only Hartree local field effects (RPA)
   LNABLA  =     F    use nabla operator in PAW spheres
   LVEL    =     F    velocity operator in full k-point grid
   CSHIFT  =0.1000    complex shift for real part using Kramers Kronig
   OMEGAMAX=  -1.0    maximum frequency
   DEG_THRESHOLD= 0.2000000E-02 threshold for treating states as degnerate
   RTIME   =   -0.100 relaxation time in fs
  (WPLASMAI=    0.000 imaginary part of plasma frequency in eV, 0.658/RTIME)
   DFIELD  = 0.0000000 0.0000000 0.0000000 field for delta impulse in time

  Optional k-point grid parameters
   LKPOINTS_OPT  =     F    use optional k-point grid
   KPOINTS_OPT_MODE=     1    mode for optional k-point grid

 Orbital magnetization related:
   ORBITALMAG=     F  switch on orbital magnetization
   LCHIMAG   =     F  perturbation theory with respect to B field
   DQ        =  0.001000  dq finite difference perturbation B field
   LLRAUG    =     F  two centre corrections for induced B field



--------------------------------------------------------------------------------------------------------


 finite differences with symmetry
 charge density and potential will be updated during run
 non-spin polarized calculation
 Variant of blocked Davidson
 Davidson routine will perform the subspace rotation
 perform sub-space diagonalisation
    after iterative eigenvector-optimisation
 modified Broyden-mixing scheme, WC =      100.0
 initial mixing is a Kerker type mixing with AMIX =  0.4000 and BMIX =      1.0000
 Hartree-type preconditioning will be used
 using additional bands            9
 real space projection scheme for non local part
 use partial core corrections
 calculate Harris-corrections to forces   (improved forces if not selfconsistent)
 use gradient corrections 
 use of overlap-Matrix (Vanderbilt PP)
 Gauss-broadening in eV      SIGMA  =   0.05


--------------------------------------------------------------------------------------------------------


  energy-cutoff  :      400.00
  volume of cell :       99.59
      direct lattice vectors                 reciprocal lattice vectors
     4.635189781 -0.000000000 -0.000000000     0.215740897  0.000000000 -0.000000000
    -0.000000000  4.635189781 -0.000000000     0.000000000  0.215740897 -0.000000000
     0.000000000  0.000000000  4.635189781     0.000000000  0.000000000  0.215740897

  length of vectors
     4.635189781  4.635189781  4.635189781     0.215740897  0.215740897  0.215740897



 k-points in units of 2pi/SCALE and weight: pymatgen with grid density = 600 / numbe
   0.00000000  0.00000000  0.00000000       0.016
   0.05393522  0.00000000  0.00000000       0.094
   0.10787045  0.00000000  0.00000000       0.047
   0.05393522  0.05393522  0.00000000       0.188
   0.10787045  0.05393522  0.00000000       0.188
   0.10787045  0.10787045  0.00000000       0.047
   0.05393522  0.05393522  0.05393522       0.125
   0.10787045  0.05393522  0.05393522       0.188
   0.10787045  0.10787045  0.05393522       0.094
   0.10787045  0.10787045  0.10787045       0.016

 k-points in reciprocal lattice and weights: pymatgen with grid density = 600 / numbe
   0.00000000  0.00000000  0.00000000       0.016
   0.25000000  0.00000000  0.00000000       0.094
   0.50000000  0.00000000  0.00000000       0.047
   0.25000000  0.25000000  0.00000000       0.188
   0.50000000  0.25000000  0.00000000       0.188
   0.50000000  0.50000000  0.00000000       0.047
   0.25000000  0.25000000  0.25000000       0.125
   0.50000000  0.25000000  0.25000000       0.188
   0.50000000  0.50000000  0.25000000       0.094
   0.50000000  0.50000000  0.50000000       0.016

 position of ions in fractional coordinates (direct lattice) 
   0.00000000  0.00000000  0.00000000
   0.50000007  0.50000007  0.50000007
   0.50000007  0.50000007  0.00000000
   0.50000007  0.00000000  0.50000007
   0.00000000  0.50000007  0.50000007

 position of ions in cartesian coordinates  (Angst):
   0.00000000  0.00000000  0.00000000
   2.31759521  2.31759521  2.31759521
   2.31759521  2.31759521  0.00000000
   2.31759521  0.00000000  2.31759521
   0.00000000  2.31759521  2.31759521



--------------------------------------------------------------------------------------------------------


 k-point   1 :   0.0000 0.0000 0.0000  plane waves:    1839
 k-point   2 :   0.2500 0.0000 0.0000  plane waves:    1815
 k-point   3 :   0.5000 0.0000 0.0000  plane waves:    1800
 k-point   4 :   0.2500 0.2500 0.0000  plane waves:    1835
 k-point   5 :   0.5000 0.2500 0.0000  plane waves:    1818
 k-point   6 :   0.5000 0.5000 0.0000  plane waves:    1772
 k-point   7 :   0.2500 0.2500 0.2500  plane waves:    1800
 k-point   8 :   0.5000 0.2500 0.2500  plane waves:    1800
 k-point   9 :   0.5000 0.5000 0.2500  plane waves:    1800
 k-point  10 :   0.5000 0.5000 0.5000  plane waves:    1856

 maximum and minimum number of plane-waves per node :      1856     1772

 maximum number of plane-waves:      1856
 maximum index in each direction: 
   IXMAX=    7   IYMAX=    7   IZMAX=    7
   IXMIN=   -8   IYMIN=   -8   IZMIN=   -8


 serial   3D FFT for wavefunctions
 parallel 3D FFT for charge:
    minimum data exchange during FFTs selected (reduces bandwidth)


 total amount of memory used by VASP MPI-rank0    33418. kBytes
=======================================================================

   base      :      30000. kBytes
   nonlr-proj:        482. kBytes
   fftplans  :        537. kBytes
   grid      :       1474. kBytes
   one-center:         15. kBytes
   wavefun   :        910. kBytes

     INWAV:  cpu time      0.0000: real time      0.0003
 Broyden mixing: mesh for mixing (old mesh)
   NGX = 15   NGY = 15   NGZ = 15
  (NGX  = 48   NGY  = 48   NGZ  = 48)
  gives a total of   3375 points

 initial charge density was supplied:
 charge density of overlapping atoms calculated
 number of electron      29.0000000 magnetization 
 keeping initial charge density in first step


--------------------------------------------------------------------------------------------------------


 Maximum index for non-local projection operator         1237
 Maximum index for augmentation-charges          591 (set IRDMAX)


--------------------------------------------------------------------------------------------------------


 First call to EWALD:  gamma=   0.382
 Maximum number of real-space cells 3x 3x 3
 Maximum number of reciprocal cells 3x 3x 3

    FEWALD:  cpu time      0.0006: real time      0.0006


--------------------------------------- Iteration      1(   1)  ---------------------------------------


    POTLOK:  cpu time      0.0097: real time      0.0394
    SETDIJ:  cpu time      0.0013: real time      0.0013
     EDDAV:  cpu time      0.1582: real time      0.1583
       DOS:  cpu time      0.0003: real time      0.0004
    --------------------------------------------
      LOOP:  cpu time      0.1696: real time      0.1994

 eigenvalue-minimisations  :   528
 total energy-change (2. order) : 0.1490891E+03  (-0.1104971E+04)
 number of electron      29.0000000 magnetization 
 augmentation part       29.0000000 magnetization 

 Free energy of the ion-electron system (eV)
  ---------------------------------------------------
  alpha Z        PSCENC =        37.11259345
  Ewald energy   TEWEN  =     -1277.12529568
  -Hartree energ DENC   =      -312.53410732
  -exchange      EXHF   =         0.00000000
  -V(xc)+E(xc)   XCENC  =        52.60886841
  PAW double counting   =      1242.92405422    -1304.33263986
  entropy T*S    EENTRO =        -0.00331355
  eigenvalues    EBANDS =        10.88437412
  atomic energy  EATOM  =      1699.55453223
  Solvation  Ediel_sol  =         0.00000000
  ---------------------------------------------------
  free energy    TOTEN  =       149.08906603 eV

  energy without entropy =      149.09237958  energy(sigma->0) =      149.09072281


--------------------------------------------------------------------------------------------------------




--------------------------------------- Iteration      1(   2)  ---------------------------------------


     EDDAV:  cpu time      0.1596: real time      0.1599
       DOS:  cpu time      0.0002: real time      0.0003
    --------------------------------------------
      LOOP:  cpu time      0.1599: real time      0.1602

 eigenvalue-minimisations  :   544
 total energy-change (2. order) :-0.1566251E+03  (-0.1464896E+03)
 number of electron      29.0000000 magnetization 
 augmentation part       29.0000000 magnetization 

 Free energy of the ion-electron system (eV)
  ---------------------------------------------------
  alpha Z        PSCENC =        37.11259345
  Ewald energy   TEWEN  =     -1277.12529568
  -Hartree energ DENC   =      -312.53410732
  -exchange      EXHF   =         0.00000000
  -V(xc)+E(xc)   XCENC  =        52.60886841
  PAW double counting   =      1242.92405422    -1304.33263986
  entropy T*S    EENTRO =        -0.00602837
  eigenvalues    EBANDS =      -145.73797565
  atomic energy  EATOM  =      1699.55453223
  Solvation  Ediel_sol  =         0.00000000
  ---------------------------------------------------
  free energy    TOTEN  =        -7.53599856 eV

  energy without entropy =       -7.52997019  energy(sigma->0) =       -7.53298438


--------------------------------------------------------------------------------------------------------




--------------------------------------- Iteration      1(   3)  ---------------------------------------


     EDDAV:  cpu time      0.1791: real time      0.1792
       DOS:  cpu time      0.0002: real time      0.0004
    --------------------------------------------
      LOOP:  cpu time      0.1794: real time      0.1796

 eigenvalue-minimisations  :   616
 total energy-change (2. order) :-0.1256633E+02  (-0.1238437E+02)
 number of electron      29.0000000 magnetization 
 augmentation part       29.0000000 magnetization 

 Free energy of the ion-electron system (eV)
  ---------------------------------------------------
  alpha Z        PSCENC =        37.11259345
  Ewald energy   TEWEN  =     -1277.12529568
  -Hartree energ DENC   =      -312.53410732
  -exchange      EXHF   =         0.00000000
  -V(xc)+E(xc)   XCENC  =        52.60886841
  PAW double counting   =      1242.92405422    -1304.33263986
  entropy T*S    EENTRO =        -0.02100643
  eigenvalues    EBANDS =      -158.28933167
  atomic energy  EATOM  =      1699.55453223
  Solvation  Ediel_sol  =         0.00000000
  ---------------------------------------------------
  free energy    TOTEN  =       -20.10233265 eV

  energy without entropy =      -20.08132622  energy(sigma->0) =      -20.09182943


--------------------------------------------------------------------------------------------------------




--------------------------------------- Iteration      1(   4)  ---------------------------------------


     EDDAV:  cpu time      0.1673: real time      0.1675
       DOS:  cpu time      0.0003: real time      0.0003
    --------------------------------------------
      LOOP:  cpu time      0.1676: real time      0.1678

 eigenvalue-minimisations  :   576
 total energy-change (2. order) :-0.3052572E+00  (-0.3037103E+00)
 number of electron      29.0000000 magnetization 
 augmentation part       29.0000000 magnetization 

 Free energy of the ion-electron system (eV)
  ---------------------------------------------------
  alpha Z        PSCENC =        37.11259345
  Ewald energy   TEWEN  =     -1277.12529568
  -Hartree energ DENC   =      -312.53410732
  -exchange      EXHF   =         0.00000000
  -V(xc)+E(xc)   XCENC  =        52.60886841
  PAW double counting   =      1242.92405422    -1304.33263986
  entropy T*S    EENTRO =        -0.01885037
  eigenvalues    EBANDS =      -158.59674492
  atomic energy  EATOM  =      1699.55453223
  Solvation  Ediel_sol  =         0.00000000
  ---------------------------------------------------
  free energy    TOTEN  =       -20.40758984 eV

  energy without entropy =      -20.38873946  energy(sigma->0) =      -20.39816465


--------------------------------------------------------------------------------------------------------




--------------------------------------- Iteration      1(   5)  ---------------------------------------


     EDDAV:  cpu time      0.1878: real time      0.1879
       DOS:  cpu time      0.0003: real time      0.0003
    CHARGE:  cpu time      0.0093: real time      0.0094
    MIXING:  cpu time      0.0004: real time      0.0004
    --------------------------------------------
      LOOP:  cpu time      0.1978: real time      0.1981

 eigenvalue-minimisations  :   656
 total energy-change (2. order) :-0.9844179E-02  (-0.9840757E-02)
 number of electron      28.9999871 magnetization 
 augmentation part        1.7124898 magnetization 

 Broyden mixing:
  rms(total) = 0.10743E+01    rms(broyden)= 0.10743E+01
  rms(prec ) = 0.13101E+01
  weight for this iteration     100.00

 Free energy of the ion-electron system (eV)
  ---------------------------------------------------
  alpha Z        PSCENC =        37.11259345
  Ewald energy   TEWEN  =     -1277.12529568
  -Hartree energ DENC   =      -312.53410732
  -exchange      EXHF   =         0.00000000
  -V(xc)+E(xc)   XCENC  =        52.60886841
  PAW double counting   =      1242.92405422    -1304.33263986
  entropy T*S    EENTRO =        -0.01876036
  eigenvalues    EBANDS =      -158.60667912
  atomic energy  EATOM  =      1699.55453223
  Solvation  Ediel_sol  =         0.00000000
  ---------------------------------------------------
  free energy    TOTEN  =       -20.41743401 eV

  energy without entropy =      -20.39867366  energy(sigma->0) =      -20.40805384


--------------------------------------------------------------------------------------------------------




--------------------------------------- Iteration      1(   6)  ---------------------------------------


    POTLOK:  cpu time      0.0090: real time      0.0092
    SETDIJ:  cpu time      0.0011: real time      0.0011
     EDDAV:  cpu time      0.1711: real time      0.1711
       DOS:  cpu time      0.0002: real time      0.0003
    CHARGE:  cpu time      0.0090: real time      0.0090
    MIXING:  cpu time      0.0005: real time      0.0005
    --------------------------------------------
      LOOP:  cpu time      0.1909: real time      0.1913

 eigenvalue-minimisations  :   592
 total energy-change (2. order) : 0.4363911E+00  (-0.7376584E-01)
 number of electron      28.9999871 magnetization 
 augmentation part        1.7421819 magnetization 

 Broyden mixing:
  rms(total) = 0.71855E+00    rms(broyden)= 0.71855E+00
  rms(prec ) = 0.76260E+00
  weight for this iteration     100.00

 eigenvalues of (default mixing * dielectric matrix)
  average eigenvalue GAMMA=   2.6281
  2.6281

 Free energy of the ion-electron system (eV)
  ---------------------------------------------------
  alpha Z        PSCENC =        37.11259345
  Ewald energy   TEWEN  =     -1277.12529568
  -Hartree energ DENC   =      -315.79315333
  -exchange      EXHF   =         0.00000000
  -V(xc)+E(xc)   XCENC  =        53.12220486
  PAW double counting   =      1642.82752286    -1704.16478704
  entropy T*S    EENTRO =        -0.02525712
  eigenvalues    EBANDS =      -155.48940309
  atomic energy  EATOM  =      1699.55453223
  Solvation  Ediel_sol  =         0.00000000
  ---------------------------------------------------
  free energy    TOTEN  =       -19.98104287 eV

  energy without entropy =      -19.95578575  energy(sigma->0) =      -19.96841431


--------------------------------------------------------------------------------------------------------




--------------------------------------- Iteration      1(   7)  ---------------------------------------


    POTLOK:  cpu time      0.0088: real time      0.0090
    SETDIJ:  cpu time      0.0011: real time      0.0011
     EDDAV:  cpu time      0.1774: real time      0.1775
       DOS:  cpu time      0.0003: real time      0.0003
    CHARGE:  cpu time      0.0090: real time      0.0090
    MIXING:  cpu time      0.0004: real time      0.0004
    --------------------------------------------
      LOOP:  cpu time      0.1970: real time      0.1973

 eigenvalue-minimisations  :   616
 total energy-change (2. order) : 0.1251325E-01  (-0.2742226E-01)
 number of electron      28.9999871 magnetization 
 augmentation part        1.7578444 magnetization 

 Broyden mixing:
  rms(total) = 0.27695E+00    rms(broyden)= 0.27695E+00
  rms(prec ) = 0.32253E+00
  weight for this iteration     100.00

 eigenvalues of (default mixing * dielectric matrix)
  average eigenvalue GAMMA=   1.9543
  1.6830  2.2255

 Free energy of the ion-electron system (eV)
  ---------------------------------------------------
  alpha Z        PSCENC =        37.11259345
  Ewald energy   TEWEN  =     -1277.12529568
  -Hartree energ DENC   =      -317.17978035
  -exchange      EXHF   =         0.00000000
  -V(xc)+E(xc)   XCENC  =        53.48864616
  PAW double counting   =      2221.99861748    -2283.39513537
  entropy T*S    EENTRO =        -0.02363754
  eigenvalues    EBANDS =      -154.39907000
  atomic energy  EATOM  =      1699.55453223
  Solvation  Ediel_sol  =         0.00000000
  ---------------------------------------------------
  free energy    TOTEN  =       -19.96852962 eV

  energy without entropy =      -19.94489208  energy(sigma->0) =      -19.95671085


--------------------------------------------------------------------------------------------------------




--------------------------------------- Iteration      1(   8)  ---------------------------------------


    POTLOK:  cpu time      0.0087: real time      0.0089
    SETDIJ:  cpu time      0.0011: real time      0.0011
     EDDAV:  cpu time      0.1732: real time      0.1733
       DOS:  cpu time      0.0003: real time      0.0004
    CHARGE:  cpu time      0.0090: real time      0.0090
    MIXING:  cpu time      0.0005: real time      0.0005
    --------------------------------------------
      LOOP:  cpu time      0.1927: real time      0.1931

 eigenvalue-minimisations  :   576
 total energy-change (2. order) :-0.2235516E-01  (-0.2370399E-01)
 number of electron      28.9999871 magnetization 
 augmentation part        1.7570993 magnetization 

 Broyden mixing:
  rms(total) = 0.99364E-01    rms(broyden)= 0.99362E-01
  rms(prec ) = 0.26956E+00
  weight for this iteration     100.00

 eigenvalues of (default mixing * dielectric matrix)
  average eigenvalue GAMMA=   1.5115
  2.4744  1.0300  1.0300

 Free energy of the ion-electron system (eV)
  ---------------------------------------------------
  alpha Z        PSCENC =        37.11259345
  Ewald energy   TEWEN  =     -1277.12529568
  -Hartree energ DENC   =      -316.02435940
  -exchange      EXHF   =         0.00000000
  -V(xc)+E(xc)   XCENC  =        53.50049877
  PAW double counting   =      2509.76762604    -2571.30919147
  entropy T*S    EENTRO =        -0.01921867
  eigenvalues    EBANDS =      -155.44807004
  atomic energy  EATOM  =      1699.55453223
  Solvation  Ediel_sol  =         0.00000000
  ---------------------------------------------------
  free energy    TOTEN  =       -19.99088478 eV

  energy without entropy =      -19.97166611  energy(sigma->0) =      -19.98127545


--------------------------------------------------------------------------------------------------------




--------------------------------------- Iteration      1(   9)  ---------------------------------------


    POTLOK:  cpu time      0.0090: real time      0.0092
    SETDIJ:  cpu time      0.0011: real time      0.0011
     EDDAV:  cpu time      0.1694: real time      0.1694
       DOS:  cpu time      0.0002: real time      0.0003
    CHARGE:  cpu time      0.0090: real time      0.0090
    MIXING:  cpu time      0.0004: real time      0.0004
    --------------------------------------------
      LOOP:  cpu time      0.1891: real time      0.1894

 eigenvalue-minimisations  :   584
 total energy-change (2. order) : 0.3728101E-01  (-0.4637687E-02)
 number of electron      28.9999871 magnetization 
 augmentation part        1.7557591 magnetization 

 Broyden mixing:
  rms(total) = 0.19079E-01    rms(broyden)= 0.19076E-01
  rms(prec ) = 0.45477E-01
  weight for this iteration     100.00

 eigenvalues of (default mixing * dielectric matrix)
  average eigenvalue GAMMA=   1.3857
  2.4570  1.4178  0.8340  0.8340

 Free energy of the ion-electron system (eV)
  ---------------------------------------------------
  alpha Z        PSCENC =        37.11259345
  Ewald energy   TEWEN  =     -1277.12529568
  -Hartree energ DENC   =      -316.59957682
  -exchange      EXHF   =         0.00000000
  -V(xc)+E(xc)   XCENC  =        53.57597866
  PAW double counting   =      2526.06498159    -2587.59439774
  entropy T*S    EENTRO =        -0.02719887
  eigenvalues    EBANDS =      -154.91522058
  atomic energy  EATOM  =      1699.55453223
  Solvation  Ediel_sol  =         0.00000000
  ---------------------------------------------------
  free energy    TOTEN  =       -19.95360377 eV

  energy without entropy =      -19.92640490  energy(sigma->0) =      -19.94000434


--------------------------------------------------------------------------------------------------------




--------------------------------------- Iteration      1(  10)  ---------------------------------------


    POTLOK:  cpu time      0.0107: real time      0.0109
    SETDIJ:  cpu time      0.0012: real time      0.0012
     EDDAV:  cpu time      0.1851: real time      0.1851
       DOS:  cpu time      0.0003: real time      0.0004
    CHARGE:  cpu time      0.0091: real time      0.0091
    MIXING:  cpu time      0.0004: real time      0.0004
    --------------------------------------------
      LOOP:  cpu time      0.2068: real time      0.2071

 eigenvalue-minimisations  :   640
 total energy-change (2. order) : 0.2516309E-03  (-0.4053908E-03)
 number of electron      28.9999871 magnetization 
 augmentation part        1.7564055 magnetization 

 Broyden mixing:
  rms(total) = 0.13371E-01    rms(broyden)= 0.13370E-01
  rms(prec ) = 0.16649E-01
  weight for this iteration     100.00

 eigenvalues of (default mixing * dielectric matrix)
  average eigenvalue GAMMA=   1.5317
  2.5439  2.5439  0.9525  0.8092  0.8092

 Free energy of the ion-electron system (eV)
  ---------------------------------------------------
  alpha Z        PSCENC =        37.11259345
  Ewald energy   TEWEN  =     -1277.12529568
  -Hartree energ DENC   =      -316.57746134
  -exchange      EXHF   =         0.00000000
  -V(xc)+E(xc)   XCENC  =        53.58896336
  PAW double counting   =      2520.98601105    -2582.54044688
  entropy T*S    EENTRO =        -0.02722137
  eigenvalues    EBANDS =      -154.92502696
  atomic energy  EATOM  =      1699.55453223
  Solvation  Ediel_sol  =         0.00000000
  ---------------------------------------------------
  free energy    TOTEN  =       -19.95335214 eV

  energy without entropy =      -19.92613077  energy(sigma->0) =      -19.93974146


--------------------------------------------------------------------------------------------------------




--------------------------------------- Iteration      1(  11)  ---------------------------------------


    POTLOK:  cpu time      0.0089: real time      0.0090
    SETDIJ:  cpu time      0.0011: real time      0.0011
     EDDAV:  cpu time      0.1895: real time      0.1895
       DOS:  cpu time      0.0002: real time      0.0004
    CHARGE:  cpu time      0.0089: real time      0.0089
    MIXING:  cpu time      0.0004: real time      0.0004
    --------------------------------------------
      LOOP:  cpu time      0.2090: real time      0.2093

 eigenvalue-minimisations  :   672
 total energy-change (2. order) :-0.4403776E-04  (-0.2295829E-04)
 number of electron      28.9999871 magnetization 
 augmentation part        1.7562997 magnetization 

 Broyden mixing:
  rms(total) = 0.60296E-02    rms(broyden)= 0.60294E-02
  rms(prec ) = 0.12153E-01
  weight for this iteration     100.00

 eigenvalues of (default mixing * dielectric matrix)
  average eigenvalue GAMMA=   1.5529
  2.9334  2.4447  1.4110  0.8543  0.8543  0.8200

 Free energy of the ion-electron system (eV)
  ---------------------------------------------------
  alpha Z        PSCENC =        37.11259345
  Ewald energy   TEWEN  =     -1277.12529568
  -Hartree energ DENC   =      -316.43941094
  -exchange      EXHF   =         0.00000000
  -V(xc)+E(xc)   XCENC  =        53.59282185
  PAW double counting   =      2500.79161006    -2562.37318798
  entropy T*S    EENTRO =        -0.02708352
  eigenvalues    EBANDS =      -155.03997565
  atomic energy  EATOM  =      1699.55453223
  Solvation  Ediel_sol  =         0.00000000
  ---------------------------------------------------
  free energy    TOTEN  =       -19.95339618 eV

  energy without entropy =      -19.92631266  energy(sigma->0) =      -19.93985442


--------------------------------------------------------------------------------------------------------




--------------------------------------- Iteration      1(  12)  ---------------------------------------


    POTLOK:  cpu time      0.0088: real time      0.0090
    SETDIJ:  cpu time      0.0011: real time      0.0011
     EDDAV:  cpu time      0.1855: real time      0.1856
       DOS:  cpu time      0.0002: real time      0.0003
    CHARGE:  cpu time      0.0090: real time      0.0090
    MIXING:  cpu time      0.0004: real time      0.0004
    --------------------------------------------
      LOOP:  cpu time      0.2051: real time      0.2054

 eigenvalue-minimisations  :   648
 total energy-change (2. order) : 0.2274732E-04  (-0.2083453E-05)
 number of electron      28.9999871 magnetization 
 augmentation part        1.7564905 magnetization 

 Broyden mixing:
  rms(total) = 0.31290E-02    rms(broyden)= 0.31290E-02
  rms(prec ) = 0.83171E-02
  weight for this iteration     100.00

 eigenvalues of (default mixing * dielectric matrix)
  average eigenvalue GAMMA=   1.5645
  2.9208  2.4689  1.9014  1.0328  1.0328  0.7973  0.7973

 Free energy of the ion-electron system (eV)
  ---------------------------------------------------
  alpha Z        PSCENC =        37.11259345
  Ewald energy   TEWEN  =     -1277.12529568
  -Hartree energ DENC   =      -316.43081010
  -exchange      EXHF   =         0.00000000
  -V(xc)+E(xc)   XCENC  =        53.59555307
  PAW double counting   =      2504.83398344    -2566.41888862
  entropy T*S    EENTRO =        -0.02712312
  eigenvalues    EBANDS =      -155.04791810
  atomic energy  EATOM  =      1699.55453223
  Solvation  Ediel_sol  =         0.00000000
  ---------------------------------------------------
  free energy    TOTEN  =       -19.95337343 eV

  energy without entropy =      -19.92625031  energy(sigma->0) =      -19.93981187


--------------------------------------------------------------------------------------------------------




--------------------------------------- Iteration      1(  13)  ---------------------------------------


    POTLOK:  cpu time      0.0088: real time      0.0091
    SETDIJ:  cpu time      0.0011: real time      0.0011
     EDDAV:  cpu time      0.1745: real time      0.1745
       DOS:  cpu time      0.0002: real time      0.0003
    CHARGE:  cpu time      0.0090: real time      0.0090
    MIXING:  cpu time      0.0005: real time      0.0005
    --------------------------------------------
      LOOP:  cpu time      0.1941: real time      0.1944

 eigenvalue-minimisations  :   608
 total energy-change (2. order) : 0.2342362E-04  (-0.5687310E-05)
 number of electron      28.9999871 magnetization 
 augmentation part        1.7565729 magnetization 

 Broyden mixing:
  rms(total) = 0.91458E-03    rms(broyden)= 0.91432E-03
  rms(prec ) = 0.23883E-02
  weight for this iteration     100.00

 eigenvalues of (default mixing * dielectric matrix)
  average eigenvalue GAMMA=   1.5610
  3.3287  2.4560  1.9246  1.2293  0.7914  0.7914  0.9834  0.9834

 Free energy of the ion-electron system (eV)
  ---------------------------------------------------
  alpha Z        PSCENC =        37.11259345
  Ewald energy   TEWEN  =     -1277.12529568
  -Hartree energ DENC   =      -316.40740708
  -exchange      EXHF   =         0.00000000
  -V(xc)+E(xc)   XCENC  =        53.59306372
  PAW double counting   =      2503.65079453    -2565.23675387
  entropy T*S    EENTRO =        -0.02720055
  eigenvalues    EBANDS =      -155.06767676
  atomic energy  EATOM  =      1699.55453223
  Solvation  Ediel_sol  =         0.00000000
  ---------------------------------------------------
  free energy    TOTEN  =       -19.95335001 eV

  energy without entropy =      -19.92614946  energy(sigma->0) =      -19.93974973


--------------------------------------------------------------------------------------------------------




--------------------------------------- Iteration      1(  14)  ---------------------------------------


    POTLOK:  cpu time      0.0088: real time      0.0089
    SETDIJ:  cpu time      0.0011: real time      0.0011
     EDDAV:  cpu time      0.1765: real time      0.1765
       DOS:  cpu time      0.0002: real time      0.0004
    CHARGE:  cpu time      0.0089: real time      0.0091
    MIXING:  cpu time      0.0004: real time      0.0004
    --------------------------------------------
      LOOP:  cpu time      0.1959: real time      0.1965

 eigenvalue-minimisations  :   616
 total energy-change (2. order) : 0.1567892E-05  (-0.4748081E-06)
 number of electron      28.9999871 magnetization 
 augmentation part        1.7565004 magnetization 

 Broyden mixing:
  rms(total) = 0.46165E-03    rms(broyden)= 0.46165E-03
  rms(prec ) = 0.82919E-03
  weight for this iteration     100.00

 eigenvalues of (default mixing * dielectric matrix)
  average eigenvalue GAMMA=   1.4965
  3.0619  2.5611  2.1145  1.2896  1.0689  1.0689  0.7744  0.7744  0.7553

 Free energy of the ion-electron system (eV)
  ---------------------------------------------------
  alpha Z        PSCENC =        37.11259345
  Ewald energy   TEWEN  =     -1277.12529568
  -Hartree energ DENC   =      -316.40742289
  -exchange      EXHF   =         0.00000000
  -V(xc)+E(xc)   XCENC  =        53.59341540
  PAW double counting   =      2503.51319036    -2565.09984169
  entropy T*S    EENTRO =        -0.02719044
  eigenvalues    EBANDS =      -155.06732917
  atomic energy  EATOM  =      1699.55453223
  Solvation  Ediel_sol  =         0.00000000
  ---------------------------------------------------
  free energy    TOTEN  =       -19.95334844 eV

  energy without entropy =      -19.92615800  energy(sigma->0) =      -19.93975322


--------------------------------------------------------------------------------------------------------




--------------------------------------- Iteration      1(  15)  ---------------------------------------


    POTLOK:  cpu time      0.0087: real time      0.0090
    SETDIJ:  cpu time      0.0011: real time      0.0011
     EDDAV:  cpu time      0.1305: real time      0.1305
       DOS:  cpu time      0.0003: real time      0.0004
    --------------------------------------------
      LOOP:  cpu time      0.1406: real time      0.1409

 eigenvalue-minimisations  :   408
 total energy-change (2. order) :-0.5871652E-07  (-0.9946415E-08)
 number of electron      28.9999871 magnetization 
 augmentation part        1.7565004 magnetization 

 Free energy of the ion-electron system (eV)
  ---------------------------------------------------
  alpha Z        PSCENC =        37.11259345
  Ewald energy   TEWEN  =     -1277.12529568
  -Hartree energ DENC   =      -316.40755520
  -exchange      EXHF   =         0.00000000
  -V(xc)+E(xc)   XCENC  =        53.59329316
  PAW double counting   =      2503.43028645    -2565.01695426
  entropy T*S    EENTRO =        -0.02719023
  eigenvalues    EBANDS =      -155.06705842
  atomic energy  EATOM  =      1699.55453223
  Solvation  Ediel_sol  =         0.00000000
  ---------------------------------------------------
  free energy    TOTEN  =       -19.95334850 eV

  energy without entropy =      -19.92615827  energy(sigma->0) =      -19.93975338


--------------------------------------------------------------------------------------------------------




 average (electrostatic) potential at core
  the test charge radii are     0.9254  0.9892  0.9698
  (the norm of the test charge is              1.0000)
       1 -45.2111       2 -86.6904       3 -87.2599       4 -87.2599       5 -87.2599



 E-fermi :   3.6836     XC(G=0):  -9.2604     alpha+bet :-10.3256

 Fermi energy:         3.6836094132

 k-point     1 :       0.0000    0.0000    0.0000
  band No.  band energies     occupation 
      1     -19.3943      2.00000
      2     -19.3943      2.00000
      3     -19.3943      2.00000
      4     -10.7834      2.00000
      5      -7.5158      2.00000
      6      -7.5158      2.00000
      7      -2.1678      2.00000
      8      -2.1678      2.00000
      9      -2.1678      2.00000
     10       0.6656      2.00000
     11       3.0294      2.00000
     12       3.0294      2.00000
     13       3.0294      2.00000
     14       3.2576      2.00000
     15       3.2576      2.00000
     16       3.2576      2.00000
     17       7.8005      0.00000
     18       8.8622      0.00000
     19       8.8622      0.00000
     20       8.8622      0.00000
     21      10.3596      0.00000
     22      10.3596      0.00000
     23      14.5518      0.00000
     24      14.5518      0.00000

 k-point     2 :       0.2500    0.0000    0.0000
  band No.  band energies     occupation 
      1     -19.3955      2.00000
      2     -19.3941      2.00000
      3     -19.3941      2.00000
      4     -10.5276      2.00000
      5      -8.0492      2.00000
      6      -7.4958      2.00000
      7      -2.2134      2.00000
      8      -2.0234      2.00000
      9      -2.0234      2.00000
     10       1.4204      2.00000
     11       2.4544      2.00000
     12       2.4544      2.00000
     13       2.7222      2.00000
     14       3.1829      2.00000
     15       3.1829      2.00000
     16       3.2526      2.00000
     17       8.8030      0.00000
     18       9.0516      0.00000
     19       9.9217      0.00000
     20      10.2157      0.00000
     21      10.2157      0.00000
     22      11.4093      0.00000
     23      11.5135      0.00000
     24      13.7302      0.00000

 k-point     3 :       0.5000    0.0000    0.0000
  band No.  band energies     occupation 
      1     -19.3966      2.00000
      2     -19.3940      2.00000
      3     -19.3940      2.00000
      4     -10.1348      2.00000
      5      -8.6919      2.00000
      6      -7.4755      2.00000
      7      -2.1590      2.00000
      8      -1.8546      2.00000
      9      -1.8546      2.00000
     10       1.3344      2.00000
     11       1.8857      2.00000
     12       1.8857      2.00000
     13       2.4522      2.00000
     14       3.1969      2.00000
     15       3.1969      2.00000
     16       5.2586      0.00000
     17       6.8968      0.00000
     18       9.2808      0.00000
     19       9.9088      0.00000
     20      11.2534      0.00000
     21      11.8118      0.00000
     22      11.8118      0.00000
     23      13.2956      0.00000
     24      13.3525      0.00000

 k-point     4 :       0.2500    0.2500    0.0000
  band No.  band energies     occupation 
      1     -19.3954      2.00000
      2     -19.3953      2.00000
      3     -19.3941      2.00000
      4     -10.2648      2.00000
      5      -8.1424      2.00000
      6      -7.8251      2.00000
      7      -3.2531      2.00000
      8      -1.8745      2.00000
      9      -0.4651      2.00000
     10       0.8738      2.00000
     11       2.1139      2.00000
     12       2.4237      2.00000
     13       2.5858      2.00000
     14       2.8042      2.00000
     15       3.6455      1.71896
     16       3.6701      1.29813
     17       9.4065      0.00000
     18       9.7232      0.00000
     19      10.1407      0.00000
     20      10.3493      0.00000
     21      10.6498      0.00000
     22      11.3729      0.00000
     23      11.6921      0.00000
     24      11.9492      0.00000

 k-point     5 :       0.5000    0.2500    0.0000
  band No.  band energies     occupation 
      1     -19.3964      2.00000
      2     -19.3951      2.00000
      3     -19.3940      2.00000
      4      -9.8438      2.00000
      5      -8.6503      2.00000
      6      -7.8995      2.00000
      7      -3.5228      2.00000
      8      -1.6991      2.00000
      9       0.3148      2.00000
     10       0.3400      2.00000
     11       1.8875      2.00000
     12       1.9252      2.00000
     13       2.5433      2.00000
     14       2.7868      2.00000
     15       3.6934      0.78155
     16       5.5831      0.00000
     17       7.0051      0.00000
     18      10.4399      0.00000
     19      10.5778      0.00000
     20      10.6515      0.00000
     21      10.9006      0.00000
     22      11.0317      0.00000
     23      11.6598      0.00000
     24      13.2141      0.00000

 k-point     6 :       0.5000    0.5000    0.0000
  band No.  band energies     occupation 
      1     -19.3960      2.00000
      2     -19.3960      2.00000
      3     -19.3937      2.00000
      4      -9.2868      2.00000
      5      -8.6075      2.00000
      6      -8.6075      2.00000
      7      -3.9470      2.00000
      8      -1.5140      2.00000
      9      -0.2128      2.00000
     10       1.9414      2.00000
     11       1.9414      2.00000
     12       1.9661      2.00000
     13       1.9661      2.00000
     14       2.1729      2.00000
     15       4.5125      0.00000
     16       6.8994      0.00000
     17       6.8994      0.00000
     18       7.5223      0.00000
     19       9.8733      0.00000
     20      10.3120      0.00000
     21      12.2414      0.00000
     22      12.2414      0.00000
     23      12.6399      0.00000
     24      13.2471      0.00000

 k-point     7 :       0.2500    0.2500    0.2500
  band No.  band energies     occupation 
      1     -19.3952      2.00000
      2     -19.3950      2.00000
      3     -19.3950      2.00000
      4      -9.9989      2.00000
      5      -8.1127      2.00000
      6      -8.1127      2.00000
      7      -4.2932      2.00000
      8      -0.3370      2.00000
      9      -0.3370      2.00000
     10       0.7858      2.00000
     11       1.2528      2.00000
     12       1.2528      2.00000
     13       3.6530      1.61370
     14       3.6530      1.61370
     15       3.6884      0.89145
     16       3.8548      0.00000
     17       9.2051      0.00000
     18       9.6475      0.00000
     19       9.7106      0.00000
     20       9.7106      0.00000
     21      10.8752      0.00000
     22      10.8752      0.00000
     23      12.1448      0.00000
     24      13.0151      0.00000

 k-point     8 :       0.5000    0.2500    0.2500
  band No.  band energies     occupation 
      1     -19.3961      2.00000
      2     -19.3949      2.00000
      3     -19.3949      2.00000
      4      -9.5572      2.00000
      5      -8.6125      2.00000
      6      -8.0825      2.00000
      7      -4.7508      2.00000
      8      -0.1183      2.00000
      9       0.3283      2.00000
     10       0.5467      2.00000
     11       0.5729      2.00000
     12       1.5085      2.00000
     13       3.3607      2.00000
     14       3.6840      0.99227
     15       3.8969      0.00000
     16       5.7289      0.00000
     17       7.0027      0.00000
     18       8.7281      0.00000
     19       9.6495      0.00000
     20      10.3440      0.00000
     21      11.2938      0.00000
     22      12.1167      0.00000
     23      12.5901      0.00000
     24      13.1598      0.00000

 k-point     9 :       0.5000    0.5000    0.2500
  band No.  band energies     occupation 
      1     -19.3959      2.00000
      2     -19.3959      2.00000
      3     -19.3947      2.00000
      4      -8.9923      2.00000
      5      -8.5737      2.00000
      6      -8.5737      2.00000
      7      -5.4008      2.00000
      8      -0.1164      2.00000
      9       0.4060      2.00000
     10       0.5379      2.00000
     11       0.5379      2.00000
     12       2.1924      2.00000
     13       3.6098      1.96319
     14       3.6098      1.96319
     15       4.5295      0.00000
     16       6.7877      0.00000
     17       6.7877      0.00000
     18       7.2575      0.00000
     19       7.9204      0.00000
     20      11.2446      0.00000
     21      11.9316      0.00000
     22      11.9316      0.00000
     23      12.9138      0.00000
     24      13.5931      0.00000

 k-point    10 :       0.5000    0.5000    0.5000
  band No.  band energies     occupation 
      1     -19.3959      2.00000
      2     -19.3959      2.00000
      3     -19.3959      2.00000
      4      -8.5391      2.00000
      5      -8.5391      2.00000
      6      -8.5391      2.00000
      7      -6.4928      2.00000
      8      -0.0132      2.00000
      9      -0.0132      2.00000
     10      -0.0132      2.00000
     11       2.2121      2.00000
     12       2.2121      2.00000
     13       4.5467      0.00000
     14       4.5467      0.00000
     15       4.5467      0.00000
     16       6.3976      0.00000
     17       6.3976      0.00000
     18       6.3976      0.00000
     19       7.1016      0.00000
     20      10.4629      0.00000
     21      12.9746      0.00000
     22      12.9746      0.00000
     23      12.9746      0.00000
     24      14.0049      0.00000


--------------------------------------------------------------------------------------------------------


 soft charge-density along one line, spin component           1
         0         1         2         3         4         5         6         7         8         9
 total charge-density along one line

 pseudopotential strength for first ion, spin component:           1
-23.991  -0.000  -0.000   1.903   0.000   0.000  -0.000  -0.000
 -0.000 -23.991  -0.000   0.000   1.903   0.000  -0.000  -0.000
 -0.000  -0.000 -23.991   0.000   0.000   1.903  -0.000  -0.000
  1.903   0.000   0.000   6.805   0.000   0.000   0.000  -0.000
  0.000   1.903   0.000   0.000   6.805   0.000   0.000  -0.000
  0.000   0.000   1.903   0.000   0.000   6.805   0.000  -0.000
 -0.000  -0.000  -0.000   0.000   0.000   0.000   1.435   6.976
 -0.000  -0.000  -0.000  -0.000  -0.000  -0.000   6.976  33.738
 total augmentation occupancy for first ion, spin component:           1
  2.001  -0.000   0.000  -0.004   0.000  -0.000   0.000   0.000
  0.000   2.001  -0.000  -0.000  -0.004  -0.000   0.000   0.000
 -0.000   0.000   2.001  -0.000  -0.000  -0.004   0.000   0.000
 -0.004  -0.000  -0.000   0.010   0.000   0.000   0.000   0.000
  0.000  -0.004  -0.000  -0.000   0.010  -0.000   0.000   0.000
 -0.000  -0.000  -0.004  -0.000  -0.000   0.010   0.000   0.000
  0.000   0.000   0.000   0.000   0.000   0.000   0.273  -0.001
  0.000   0.000   0.000   0.000   0.000   0.000  -0.001   0.000


------------------------ aborting loop because EDIFF is reached ----------------------------------------


    CHARGE:  cpu time      0.0089: real time      0.0089
    FORLOC:  cpu time      0.0008: real time      0.0008
    FORNL :  cpu time      0.0433: real time      0.0433
    STRESS:  cpu time      0.1312: real time      0.1313
    FORCOR:  cpu time      0.0093: real time      0.0092
    FORHAR:  cpu time      0.0029: real time      0.0029
    MIXING:  cpu time      0.0004: real time      0.0004
    OFIELD:  cpu time      0.0000: real time      0.0000

  FORCE on cell =-STRESS in cart. coord.  units (eV):
  Direction    XX          YY          ZZ          XY          YZ          ZX
  --------------------------------------------------------------------------------------
  Alpha Z    37.11259    37.11259    37.11259
  Ewald    -425.70876  -425.70876  -425.70876     0.00000     0.00000     0.00000
  Hartree   105.47055   105.47055   105.47055    -0.00000    -0.00000    -0.00000
  E(xc)    -113.78080  -113.78080  -113.78080     0.00000     0.00000     0.00000
  Local    -139.21380  -139.21380  -139.21380    -0.00000    -0.00000    -0.00000
  n-local   230.15546   231.74350   233.26306    -0.68623     0.45446    -0.31919
  augment   -16.20302   -16.20302   -16.20302     0.00000     0.00000    -0.00000
[...]
 --------------------------------------------------------------------------------


  SYMMETRIZED ELASTIC MODULI (kBar)
 Direction    XX          YY          ZZ          XY          YZ          ZX
 --------------------------------------------------------------------------------
 XX         812.2445    512.7257    512.7257     -0.0000      0.0000      0.0000
 YY         512.7257    812.2445    512.7257      0.0000      0.0000     -0.0000
 ZZ         512.7257    512.7257    812.2445      0.0000     -0.0000      0.0000
 XY          -0.0000      0.0000      0.0000   -901.5081      0.0000      0.0000
 YZ           0.0000      0.0000     -0.0000      0.0000   -901.5081      0.0000
 ZX           0.0000     -0.0000      0.0000      0.0000      0.0000   -901.5081
 --------------------------------------------------------------------------------

 INTERNAL STRAIN TENSORS FROM STRAINED CELLS
 ============================================

 INTERNAL STRAIN TENSOR FOR ION    1 for displacements in x,y,z  (eV/Angst):
          X           Y           Z          XY          YZ          ZX
  --------------------------------------------------------------------------------
  x     0.00000     0.00000     0.00000    -0.00000     0.00000    -0.00000
  y    -0.00000     0.00000     0.00000    -0.00000     0.00000     0.00000
  z    -0.00000     0.00000    -0.00000     0.00000     0.00000    -0.00000

 INTERNAL STRAIN TENSOR FOR ION    2 for displacements in x,y,z  (eV/Angst):
          X           Y           Z          XY          YZ          ZX
  --------------------------------------------------------------------------------
  x     0.00000     0.00000     0.00000    -0.00000    -0.00000     0.00000
  y    -0.00000    -0.00000     0.00000    -0.00000     0.00000     0.00000
  z    -0.00000    -0.00000    -0.00000     0.00000    -0.00000     0.00000

 INTERNAL STRAIN TENSOR FOR ION    3 for displacements in x,y,z  (eV/Angst):
          X           Y           Z          XY          YZ          ZX
  --------------------------------------------------------------------------------
  x    -0.00000    -0.00000     0.00000     0.00000     0.00000     0.00000
  y     0.00000     0.00000     0.00000    -0.00000    -0.00000     0.00000
  z    -0.00000     0.00000    -0.00000     0.00000     0.00000    -0.00000

 INTERNAL STRAIN TENSOR FOR ION    4 for displacements in x,y,z  (eV/Angst):
          X           Y           Z          XY          YZ          ZX
  --------------------------------------------------------------------------------
  x     0.00000     0.00000    -0.00000     0.00000    -0.00000    -0.00000
  y    -0.00000    -0.00000     0.00000     0.00000    -0.00000    -0.00000
  z     0.00000    -0.00000     0.00000    -0.00000    -0.00000     0.00000

 INTERNAL STRAIN TENSOR FOR ION    5 for displacements in x,y,z  (eV/Angst):
          X           Y           Z          XY          YZ          ZX
  --------------------------------------------------------------------------------
  x    -0.00000    -0.00000    -0.00000    -0.00000     0.00000     0.00000
  y     0.00000     0.00000    -0.00000     0.00000    -0.00000    -0.00000
  z     0.00000     0.00000     0.00000    -0.00000    -0.00000    -0.00000

 INTERNAL STRAIN TENSORS FROM DISPLACED ATOMS
 ============================================

 INTERNAL STRAIN TENSOR FOR ION    1 for displacements in x,y,z  (eV/Angst):
          X           Y           Z          XY          YZ          ZX
  --------------------------------------------------------------------------------
  x     0.00000     0.00000     0.00000     0.00000     0.00000     0.00000
  y     0.00000     0.00000     0.00000     0.00000     0.00000     0.00000
  z     0.00000     0.00000     0.00000     0.00000     0.00000     0.00000

 INTERNAL STRAIN TENSOR FOR ION    2 for displacements in x,y,z  (eV/Angst):
          X           Y           Z          XY          YZ          ZX
  --------------------------------------------------------------------------------
  x     0.00000     0.00000     0.00000     0.00000     0.00000     0.00000
  y     0.00000     0.00000     0.00000     0.00000     0.00000     0.00000
  z     0.00000     0.00000     0.00000     0.00000     0.00000     0.00000

 INTERNAL STRAIN TENSOR FOR ION    3 for displacements in x,y,z  (eV/Angst):
          X           Y           Z          XY          YZ          ZX
  --------------------------------------------------------------------------------
  x     0.00000     0.00000     0.00000     0.00000     0.00000     0.00000
  y     0.00000     0.00000     0.00000     0.00000     0.00000     0.00000
  z     0.00000     0.00000     0.00000     0.00000     0.00000     0.00000

 INTERNAL STRAIN TENSOR FOR ION    4 for displacements in x,y,z  (eV/Angst):
          X           Y           Z          XY          YZ          ZX
  --------------------------------------------------------------------------------
  x     0.00000     0.00000     0.00000     0.00000     0.00000     0.00000
  y     0.00000     0.00000     0.00000     0.00000     0.00000     0.00000
  z     0.00000     0.00000     0.00000     0.00000     0.00000     0.00000

 INTERNAL STRAIN TENSOR FOR ION    5 for displacements in x,y,z  (eV/Angst):
          X           Y           Z          XY          YZ          ZX
  --------------------------------------------------------------------------------
  x     0.00000     0.00000     0.00000     0.00000     0.00000     0.00000
  y     0.00000     0.00000     0.00000     0.00000     0.00000     0.00000
  z     0.00000     0.00000     0.00000     0.00000     0.00000     0.00000


--------------------------------------------------------------------------------------------------------



 Eigenvectors and eigenvalues of the dynamical matrix
 ----------------------------------------------------


   1 f  =    2.844521 THz    17.872650 2PiTHz   94.882996 cm-1    11.763987 meV
             X         Y         Z           dx          dy          dz
      0.000000  0.000000  0.000000    -0.130271    0.151768   -0.728155  
      2.317595  2.317595  2.317595     0.053098   -0.061860    0.296790  
      2.317595  2.317595  0.000000     0.051629   -0.060148    0.380777  
      2.317595  0.000000  2.317595     0.051629   -0.079365    0.288580  
      0.000000  2.317595  2.317595     0.068123   -0.060148    0.288580  

   2 f  =    2.844521 THz    17.872650 2PiTHz   94.882996 cm-1    11.763987 meV
             X         Y         Z           dx          dy          dz
      0.000000  0.000000  0.000000    -0.570917   -0.494234   -0.000872  
      2.317595  2.317595  2.317595     0.232701    0.201446    0.000355  
      2.317595  2.317595  0.000000     0.226264    0.195874    0.000456  
      2.317595  0.000000  2.317595     0.226264    0.258452    0.000346  
      0.000000  2.317595  2.317595     0.298552    0.195874    0.000346  

   3 f  =    2.844521 THz    17.872650 2PiTHz   94.882996 cm-1    11.763987 meV
             X         Y         Z           dx          dy          dz
      0.000000  0.000000  0.000000     0.476758   -0.550376   -0.200009  
      2.317595  2.317595  2.317595    -0.194322    0.224328    0.081522  
      2.317595  2.317595  0.000000    -0.188947    0.218123    0.104591  
      2.317595  0.000000  2.317595    -0.188947    0.287810    0.079267  
      0.000000  2.317595  2.317595    -0.249313    0.218123    0.079267  

   4 f/i=    0.874081 THz     5.492016 2PiTHz   29.156218 cm-1     3.614909 meV
             X         Y         Z           dx          dy          dz
      0.000000  0.000000  0.000000    -0.320717   -0.309088    0.471235  
      2.317595  2.317595  2.317595    -0.141541   -0.136409    0.207969  
      2.317595  2.317595  0.000000    -0.207933   -0.200393    0.275948  
      2.317595  0.000000  2.317595    -0.207933   -0.180997    0.305520  
      0.000000  2.317595  2.317595    -0.187807   -0.200393    0.305520  

   5 f/i=    0.874081 THz     5.492016 2PiTHz   29.156218 cm-1     3.614909 meV
             X         Y         Z           dx          dy          dz
      0.000000  0.000000  0.000000     0.519880   -0.371558    0.110116  
      2.317595  2.317595  2.317595     0.229438   -0.163979    0.048597  
      2.317595  2.317595  0.000000     0.337059   -0.240896    0.064482  
      2.317595  0.000000  2.317595     0.337059   -0.217579    0.071392  
      0.000000  2.317595  2.317595     0.304434   -0.240896    0.071392  

   6 f/i=    0.874081 THz     5.492016 2PiTHz   29.156218 cm-1     3.614909 meV
             X         Y         Z           dx          dy          dz
      0.000000  0.000000  0.000000     0.217536    0.432280    0.431589  
      2.317595  2.317595  2.317595     0.096005    0.190777    0.190472  
      2.317595  2.317595  0.000000     0.141037    0.280264    0.252732  
      2.317595  0.000000  2.317595     0.141037    0.253137    0.279816  
      0.000000  2.317595  2.317595     0.127386    0.280264    0.279816  

   7 f/i=    2.352903 THz    14.783723 2PiTHz   78.484382 cm-1     9.730819 meV
             X         Y         Z           dx          dy          dz
      0.000000  0.000000  0.000000    -0.001100   -0.001839   -0.061277  
      2.317595  2.317595  2.317595    -0.016156   -0.027003   -0.899916  
      2.317595  2.317595  0.000000     0.005104    0.008531    0.153283  
      2.317595  0.000000  2.317595     0.005104    0.004599    0.284323  
      0.000000  2.317595  2.317595     0.002752    0.008531    0.284323  

   8 f/i=    2.352903 THz    14.783723 2PiTHz   78.484382 cm-1     9.730819 meV
             X         Y         Z           dx          dy          dz
      0.000000  0.000000  0.000000     0.061241   -0.002830   -0.001015  
      2.317595  2.317595  2.317595     0.899383   -0.041567   -0.014899  
      2.317595  2.317595  0.000000    -0.284155    0.013133    0.002538  
      2.317595  0.000000  2.317595    -0.284155    0.007080    0.004707  
      0.000000  2.317595  2.317595    -0.153192    0.013133    0.004707  

   9 f/i=    2.352903 THz    14.783723 2PiTHz   78.484382 cm-1     9.730819 meV
             X         Y         Z           dx          dy          dz
      0.000000  0.000000  0.000000    -0.002798   -0.061222    0.001887  
      2.317595  2.317595  2.317595    -0.041094   -0.899101    0.027716  
      2.317595  2.317595  0.000000     0.012984    0.284066   -0.004721  
      2.317595  0.000000  2.317595     0.012984    0.153144   -0.008757  
      0.000000  2.317595  2.317595     0.007000    0.284066   -0.008757  

  10 f/i=    5.467768 THz    34.355001 2PiTHz  182.385115 cm-1    22.612862 meV
             X         Y         Z           dx          dy          dz
      0.000000  0.000000  0.000000     0.000000   -0.000000   -0.000000  
      2.317595  2.317595  2.317595     0.000000    0.000000    0.000000  
      2.317595  2.317595  0.000000    -0.705542    0.046984    0.000000  
      2.317595  0.000000  2.317595     0.705542   -0.000000   -0.001595  
      0.000000  2.317595  2.317595     0.000000   -0.046984    0.001595  

  11 f/i=    5.467768 THz    34.355001 2PiTHz  182.385115 cm-1    22.612862 meV
             X         Y         Z           dx          dy          dz
      0.000000  0.000000  0.000000     0.000000   -0.000000   -0.000000  
      2.317595  2.317595  2.317595     0.000000    0.000000    0.000000  
      2.317595  2.317595  0.000000    -0.008090   -0.097716   -0.000000  
      2.317595  0.000000  2.317595     0.008090   -0.000000    0.700276  
      0.000000  2.317595  2.317595     0.000000    0.097716   -0.700276  

  12 f/i=    5.467768 THz    34.355001 2PiTHz  182.385115 cm-1    22.612862 meV
             X         Y         Z           dx          dy          dz
      0.000000  0.000000  0.000000     0.000000   -0.000000    0.000000  
      2.317595  2.317595  2.317595     0.000000    0.000000   -0.000000  
      2.317595  2.317595  0.000000    -0.046310   -0.698745    0.000000  
      2.317595  0.000000  2.317595     0.046310   -0.000000   -0.098038  
      0.000000  2.317595  2.317595     0.000000    0.698745    0.098038  

  13 f/i=    9.314612 THz    58.525434 2PiTHz  310.702018 cm-1    38.522123 meV
             X         Y         Z           dx          dy          dz
      0.000000  0.000000  0.000000     0.000000    0.000000   -0.074629  
      2.317595  2.317595  2.317595    -0.000000   -0.000000    0.111973  
      2.317595  2.317595  0.000000    -0.000000   -0.000000   -0.822415  
      2.317595  0.000000  2.317595    -0.000000    0.000000    0.390850  
      0.000000  2.317595  2.317595     0.000000   -0.000000    0.390850  

  14 f/i=    9.314612 THz    58.525434 2PiTHz  310.702018 cm-1    38.522123 meV
             X         Y         Z           dx          dy          dz
      0.000000  0.000000  0.000000     0.068043   -0.030653    0.000000  
      2.317595  2.317595  2.317595    -0.102092    0.045992    0.000000  
      2.317595  2.317595  0.000000    -0.356358    0.160538   -0.000000  
      2.317595  0.000000  2.317595    -0.356358   -0.337800    0.000000  
      0.000000  2.317595  2.317595     0.749838    0.160538    0.000000  

  15 f/i=    9.314612 THz    58.525434 2PiTHz  310.702018 cm-1    38.522123 meV
             X         Y         Z           dx          dy          dz
      0.000000  0.000000  0.000000    -0.030653   -0.068043    0.000000  
      2.317595  2.317595  2.317595     0.045992    0.102092    0.000000  
      2.317595  2.317595  0.000000     0.160538    0.356358   -0.000000  
      2.317595  0.000000  2.317595     0.160538   -0.749838    0.000000  
      0.000000  2.317595  2.317595    -0.337800    0.356358    0.000000  



--------------------------------------------------------------------------------------------------------



 ELASTIC MODULI CONTR FROM IONIC RELAXATION (kBar)
 Direction    XX          YY          ZZ          XY          YZ          ZX
 --------------------------------------------------------------------------------
 XX           0.0000      0.0000      0.0000      0.0000      0.0000      0.0000
 YY           0.0000      0.0000      0.0000      0.0000      0.0000      0.0000
 ZZ           0.0000      0.0000      0.0000      0.0000      0.0000      0.0000
 XY           0.0000      0.0000      0.0000      0.0000      0.0000      0.0000
 YZ           0.0000      0.0000      0.0000      0.0000      0.0000      0.0000
 ZX           0.0000      0.0000      0.0000      0.0000      0.0000      0.0000
 --------------------------------------------------------------------------------


 TOTAL ELASTIC MODULI (kBar)
 Direction    XX          YY          ZZ          XY          YZ          ZX
 --------------------------------------------------------------------------------
 XX         812.2445    512.7257    512.7257     -0.0000      0.0000      0.0000
 YY         512.7257    812.2445    512.7257      0.0000      0.0000     -0.0000
 ZZ         512.7257    512.7257    812.2445      0.0000     -0.0000      0.0000
 XY          -0.0000      0.0000      0.0000   -901.5081      0.0000      0.0000
 YZ           0.0000      0.0000     -0.0000      0.0000   -901.5081      0.0000
 ZX           0.0000     -0.0000      0.0000      0.0000      0.0000   -901.5081
 --------------------------------------------------------------------------------



--------------------------------------------------------------------------------------------------------


  LATTYP: Found a simple cubic cell.
 ALAT       =     4.6351897814
  
  Lattice vectors:
  
 A1 = (   4.6351897814,  -0.0000000000,  -0.0000000000)
 A2 = (  -0.0000000000,   4.6351897814,  -0.0000000000)
 A3 = (   0.0000000000,   0.0000000000,   4.6351897814)


Analysis of symmetry for initial positions (statically):
=====================================================================
 Subroutine PRICEL returns:
 Original cell was already a primitive cell.
 

 Routine SETGRP: Setting up the symmetry group for a 
 simple cubic supercell.


 Subroutine GETGRP returns: Found 48 space group operations
 (whereof 48 operations were pure point group operations)
 out of a pool of 48 trial point group operations.


The static configuration has the point symmetry O_h .


Analysis of symmetry for dynamics (positions and initial velocities):
=====================================================================
 Subroutine PRICEL returns:
 Original cell was already a primitive cell.
 

 Routine SETGRP: Setting up the symmetry group for a 
 simple cubic supercell.


 Subroutine GETGRP returns: Found 48 space group operations
 (whereof 48 operations were pure point group operations)
 out of a pool of 48 trial point group operations.


The dynamic configuration has the point symmetry O_h .


 Subroutine INISYM returns: Found 48 space group operations
 (whereof 48 operations are pure point group operations),
 and found     1 'primitive' translations


 KPOINTS: pymatgen with grid density = 600 / numbe

Automatic generation of k-mesh.
 Grid dimensions read from file:
 generate k-points for:    4    4    4

 Generating k-lattice:

  Cartesian coordinates                     Fractional coordinates (reciprocal lattice)
     0.053935224  0.000000000 -0.000000000     0.250000000  0.000000000  0.000000000
     0.000000000  0.053935224 -0.000000000     0.000000000  0.250000000  0.000000000
     0.000000000  0.000000000  0.053935224     0.000000000  0.000000000  0.250000000

  Length of vectors
     0.053935224  0.053935224  0.053935224

  Shift w.r.t. Gamma in fractional coordinates (k-lattice)
     0.000000000  0.000000000  0.000000000

 
 Subroutine IBZKPT returns following result:
 ===========================================
 
 Found     10 irreducible k-points:
 
 Following reciprocal coordinates:
            Coordinates               Weight
  0.000000  0.000000  0.000000      1.000000
  0.250000  0.000000  0.000000      6.000000
  0.500000  0.000000  0.000000      3.000000
  0.250000  0.250000  0.000000     12.000000
  0.500000  0.250000  0.000000     12.000000
  0.500000  0.500000  0.000000      3.000000
  0.250000  0.250000  0.250000      8.000000
  0.500000  0.250000  0.250000     12.000000
  0.500000  0.500000  0.250000      6.000000
  0.500000  0.500000  0.500000      1.000000
 
 Following cartesian coordinates:
            Coordinates               Weight
  0.000000  0.000000  0.000000      1.000000
  0.053935  0.000000  0.000000      6.000000
  0.107870  0.000000  0.000000      3.000000
  0.053935  0.053935  0.000000     12.000000
  0.107870  0.053935  0.000000     12.000000
  0.107870  0.107870  0.000000      3.000000
  0.053935  0.053935  0.053935      8.000000
  0.107870  0.053935  0.053935     12.000000
  0.107870  0.107870  0.053935      6.000000
  0.107870  0.107870  0.107870      1.000000
 
     LOOP+:  cpu time      2.5158: real time      2.5468
    4ORBIT:  cpu time      0.0000: real time      0.0000

 total amount of memory used by VASP MPI-rank0    33418. kBytes
=======================================================================

   base      :      30000. kBytes
   nonlr-proj:        482. kBytes
   fftplans  :        537. kBytes
   grid      :       1474. kBytes
   one-center:         15. kBytes
   wavefun   :        910. kBytes

  
  
 General timing and accounting informations for this job:
 ========================================================
  
                  Total CPU time used (sec):      167.786
                            User time (sec):      167.037
                          System time (sec):        0.749
                         Elapsed time (sec):      170.492
  
                   Maximum memory used (kb):      115304.
                   Average memory used (kb):          N/A
  
                          Minor page faults:        42246
                          Major page faults:           43
                 Voluntary context switches:         1241
