phonopy:
  version: "2.22.0"
  frequency_unit_conversion_factor: 15.633302
  symmetry_tolerance: 1.00000e-05
  configuration:
    create_displacements: ".true."
    dim: "2 2 1"

physical_unit:
  atomic_mass: "AMU"
  length: "angstrom"
  force_constants: "eV/angstrom^2"

space_group:
  type: "I-42d"
  number: 122
  Hall_symbol: "I -4 2bw"

supercell_matrix:
- [   2,   0,   0 ]
- [   0,   2,   0 ]
- [   0,   0,   1 ]

primitive_cell:
  lattice:
  - [     9.698802450830753,     0.000000000000000,     0.000000000000001 ] # a
  - [     0.000000000000001,     9.698802450830753,     0.000000000000001 ] # b
  - [     0.000000000000000,     0.000000000000000,    11.955032377358368 ] # c
  points:
  - symbol: Na # 1
    coordinates: [  0.000000000000000,  0.000000000000000,  0.828464528392286 ]
    mass: 22.989769
  - symbol: Na # 2
    coordinates: [  0.000000000000000,  0.000000000000000,  0.171535471607715 ]
    mass: 22.989769
  - symbol: Na # 3
    coordinates: [  0.000000000000000,  0.500000000000000,  0.421535471607714 ]
    mass: 22.989769
  - symbol: Na # 4
    coordinates: [  0.000000000000000,  0.500000000000000,  0.078464528392286 ]
    mass: 22.989769
  - symbol: Na # 5
    coordinates: [  0.250000000000000,  0.228677542850322,  0.375000000000000 ]
    mass: 22.989769
  - symbol: Na # 6
    coordinates: [  0.771322457149678,  0.250000000000000,  0.625000000000000 ]
    mass: 22.989769
  - symbol: Na # 7
    coordinates: [  0.728677542850322,  0.250000000000000,  0.125000000000000 ]
    mass: 22.989769
  - symbol: Na # 8
    coordinates: [  0.250000000000000,  0.271322457149678,  0.875000000000000 ]
    mass: 22.989769
  - symbol: Na # 9
    coordinates: [  0.500000000000000,  0.500000000000000,  0.328464528392286 ]
    mass: 22.989769
  - symbol: Na # 10
    coordinates: [  0.500000000000000,  0.500000000000000,  0.671535471607714 ]
    mass: 22.989769
  - symbol: Na # 11
    coordinates: [  0.500000000000000,  0.000000000000000,  0.921535471607714 ]
    mass: 22.989769
  - symbol: Na # 12
    coordinates: [  0.500000000000000,  0.000000000000000,  0.578464528392286 ]
    mass: 22.989769
  - symbol: Na # 13
    coordinates: [  0.750000000000000,  0.728677542850322,  0.875000000000000 ]
    mass: 22.989769
  - symbol: Na # 14
    coordinates: [  0.271322457149678,  0.750000000000000,  0.125000000000000 ]
    mass: 22.989769
  - symbol: Na # 15
    coordinates: [  0.228677542850322,  0.750000000000000,  0.625000000000000 ]
    mass: 22.989769
  - symbol: Na # 16
    coordinates: [  0.750000000000000,  0.771322457149678,  0.375000000000000 ]
    mass: 22.989769
  - symbol: S  # 17
    coordinates: [  0.247888614359250,  0.467150947981731,  0.203909833012225 ]
    mass: 32.065000
  - symbol: S  # 18
    coordinates: [  0.532849052018269,  0.247888614359250,  0.796090166987775 ]
    mass: 32.065000
  - symbol: S  # 19
    coordinates: [  0.967150947981731,  0.252111385640750,  0.296090166987775 ]
    mass: 32.065000
  - symbol: S  # 20
    coordinates: [  0.247888614359250,  0.032849052018269,  0.046090166987775 ]
    mass: 32.065000
  - symbol: S  # 21
    coordinates: [  0.752111385640750,  0.967150947981731,  0.046090166987775 ]
    mass: 32.065000
  - symbol: S  # 22
    coordinates: [  0.252111385640750,  0.032849052018269,  0.703909833012225 ]
    mass: 32.065000
  - symbol: S  # 23
    coordinates: [  0.467150947981731,  0.747888614359250,  0.453909833012225 ]
    mass: 32.065000
  - symbol: S  # 24
    coordinates: [  0.532849052018269,  0.252111385640750,  0.453909833012225 ]
    mass: 32.065000
  - symbol: S  # 25
    coordinates: [  0.381480676601315,  0.352979152300389,  0.102681473783061 ]
    mass: 32.065000
  - symbol: S  # 26
    coordinates: [  0.147020847699611,  0.881480676601314,  0.397318526216939 ]
    mass: 32.065000
  - symbol: S  # 27
    coordinates: [  0.352979152300389,  0.618519323398686,  0.897318526216939 ]
    mass: 32.065000
  - symbol: S  # 28
    coordinates: [  0.381480676601315,  0.147020847699611,  0.147318526216939 ]
    mass: 32.065000
  - symbol: S  # 29
    coordinates: [  0.618519323398686,  0.852979152300390,  0.147318526216939 ]
    mass: 32.065000
  - symbol: S  # 30
    coordinates: [  0.118519323398685,  0.147020847699611,  0.602681473783061 ]
    mass: 32.065000
  - symbol: S  # 31
    coordinates: [  0.352979152300389,  0.881480676601314,  0.352681473783061 ]
    mass: 32.065000
  - symbol: S  # 32
    coordinates: [  0.647020847699610,  0.118519323398685,  0.352681473783061 ]
    mass: 32.065000
  - symbol: S  # 33
    coordinates: [  0.747888614359250,  0.967150947981731,  0.703909833012225 ]
    mass: 32.065000
  - symbol: S  # 34
    coordinates: [  0.032849052018269,  0.747888614359250,  0.296090166987775 ]
    mass: 32.065000
  - symbol: S  # 35
    coordinates: [  0.467150947981731,  0.752111385640750,  0.796090166987775 ]
    mass: 32.065000
  - symbol: S  # 36
    coordinates: [  0.747888614359250,  0.532849052018269,  0.546090166987775 ]
    mass: 32.065000
  - symbol: S  # 37
    coordinates: [  0.252111385640750,  0.467150947981731,  0.546090166987775 ]
    mass: 32.065000
  - symbol: S  # 38
    coordinates: [  0.752111385640750,  0.532849052018269,  0.203909833012225 ]
    mass: 32.065000
  - symbol: S  # 39
    coordinates: [  0.967150947981731,  0.247888614359250,  0.953909833012225 ]
    mass: 32.065000
  - symbol: S  # 40
    coordinates: [  0.032849052018269,  0.752111385640750,  0.953909833012225 ]
    mass: 32.065000
  - symbol: S  # 41
    coordinates: [  0.881480676601314,  0.852979152300390,  0.602681473783061 ]
    mass: 32.065000
  - symbol: S  # 42
    coordinates: [  0.647020847699610,  0.381480676601315,  0.897318526216939 ]
    mass: 32.065000
  - symbol: S  # 43
    coordinates: [  0.852979152300390,  0.118519323398685,  0.397318526216939 ]
    mass: 32.065000
  - symbol: S  # 44
    coordinates: [  0.881480676601314,  0.647020847699610,  0.647318526216939 ]
    mass: 32.065000
  - symbol: S  # 45
    coordinates: [  0.118519323398685,  0.352979152300389,  0.647318526216939 ]
    mass: 32.065000
  - symbol: S  # 46
    coordinates: [  0.618519323398686,  0.647020847699610,  0.102681473783061 ]
    mass: 32.065000
  - symbol: S  # 47
    coordinates: [  0.852979152300390,  0.381480676601315,  0.852681473783061 ]
    mass: 32.065000
  - symbol: S  # 48
    coordinates: [  0.147020847699611,  0.618519323398686,  0.852681473783061 ]
    mass: 32.065000
  reciprocal_lattice: # without 2pi
  - [     0.103105512775378,    -0.000000000000000,     0.000000000000000 ] # a*
  - [     0.000000000000000,     0.103105512775378,     0.000000000000000 ] # b*
  - [    -0.000000000000000,    -0.000000000000000,     0.083646783081399 ] # c*

unit_cell:
  lattice:
  - [     9.698802450830753,     0.000000000000000,     0.000000000000001 ] # a
  - [     0.000000000000001,     9.698802450830753,     0.000000000000001 ] # b
  - [     0.000000000000000,     0.000000000000000,    11.955032377358368 ] # c
  points:
  - symbol: Na # 1
    coordinates: [ -0.000000000000000, -0.000000000000000,  0.828464528392286 ]
    mass: 22.989769
    reduced_to: 1
  - symbol: Na # 2
    coordinates: [ -0.000000000000000, -0.000000000000000,  0.171535471607715 ]
    mass: 22.989769
    reduced_to: 2
  - symbol: Na # 3
    coordinates: [ -0.000000000000000,  0.500000000000000,  0.421535471607714 ]
    mass: 22.989769
    reduced_to: 3
  - symbol: Na # 4
    coordinates: [ -0.000000000000000,  0.500000000000000,  0.078464528392286 ]
    mass: 22.989769
    reduced_to: 4
  - symbol: Na # 5
    coordinates: [  0.250000000000000,  0.228677542850322,  0.375000000000000 ]
    mass: 22.989769
    reduced_to: 5
  - symbol: Na # 6
    coordinates: [  0.771322457149678,  0.250000000000000,  0.625000000000000 ]
    mass: 22.989769
    reduced_to: 6
  - symbol: Na # 7
    coordinates: [  0.728677542850322,  0.250000000000000,  0.125000000000000 ]
    mass: 22.989769
    reduced_to: 7
  - symbol: Na # 8
    coordinates: [  0.250000000000000,  0.271322457149678,  0.875000000000000 ]
    mass: 22.989769
    reduced_to: 8
  - symbol: Na # 9
    coordinates: [  0.500000000000000,  0.500000000000000,  0.328464528392286 ]
    mass: 22.989769
    reduced_to: 9
  - symbol: Na # 10
    coordinates: [  0.500000000000000,  0.500000000000000,  0.671535471607714 ]
    mass: 22.989769
    reduced_to: 10
  - symbol: Na # 11
    coordinates: [  0.500000000000000, -0.000000000000000,  0.921535471607714 ]
    mass: 22.989769
    reduced_to: 11
  - symbol: Na # 12
    coordinates: [  0.500000000000000, -0.000000000000000,  0.578464528392286 ]
    mass: 22.989769
    reduced_to: 12
  - symbol: Na # 13
    coordinates: [  0.750000000000000,  0.728677542850322,  0.875000000000000 ]
    mass: 22.989769
    reduced_to: 13
  - symbol: Na # 14
    coordinates: [  0.271322457149678,  0.750000000000000,  0.125000000000000 ]
    mass: 22.989769
    reduced_to: 14
  - symbol: Na # 15
    coordinates: [  0.228677542850322,  0.750000000000000,  0.625000000000000 ]
    mass: 22.989769
    reduced_to: 15
  - symbol: Na # 16
    coordinates: [  0.750000000000000,  0.771322457149678,  0.375000000000000 ]
    mass: 22.989769
    reduced_to: 16
  - symbol: S  # 17
    coordinates: [  0.247888614359250,  0.467150947981731,  0.203909833012225 ]
    mass: 32.065000
    reduced_to: 17
  - symbol: S  # 18
    coordinates: [  0.532849052018269,  0.247888614359250,  0.796090166987775 ]
    mass: 32.065000
    reduced_to: 18
  - symbol: S  # 19
    coordinates: [  0.967150947981731,  0.252111385640750,  0.296090166987775 ]
    mass: 32.065000
    reduced_to: 19
  - symbol: S  # 20
    coordinates: [  0.247888614359250,  0.032849052018269,  0.046090166987775 ]
    mass: 32.065000
    reduced_to: 20
  - symbol: S  # 21
    coordinates: [  0.752111385640750,  0.967150947981731,  0.046090166987775 ]
    mass: 32.065000
    reduced_to: 21
  - symbol: S  # 22
    coordinates: [  0.252111385640750,  0.032849052018269,  0.703909833012225 ]
    mass: 32.065000
    reduced_to: 22
  - symbol: S  # 23
    coordinates: [  0.467150947981731,  0.747888614359250,  0.453909833012225 ]
    mass: 32.065000
    reduced_to: 23
  - symbol: S  # 24
    coordinates: [  0.532849052018269,  0.252111385640750,  0.453909833012225 ]
    mass: 32.065000
    reduced_to: 24
  - symbol: S  # 25
    coordinates: [  0.381480676601315,  0.352979152300389,  0.102681473783061 ]
    mass: 32.065000
    reduced_to: 25
  - symbol: S  # 26
    coordinates: [  0.147020847699611,  0.881480676601314,  0.397318526216939 ]
    mass: 32.065000
    reduced_to: 26
  - symbol: S  # 27
    coordinates: [  0.352979152300389,  0.618519323398686,  0.897318526216939 ]
    mass: 32.065000
    reduced_to: 27
  - symbol: S  # 28
    coordinates: [  0.381480676601315,  0.147020847699611,  0.147318526216939 ]
    mass: 32.065000
    reduced_to: 28
  - symbol: S  # 29
    coordinates: [  0.618519323398686,  0.852979152300390,  0.147318526216939 ]
    mass: 32.065000
    reduced_to: 29
  - symbol: S  # 30
    coordinates: [  0.118519323398685,  0.147020847699611,  0.602681473783061 ]
    mass: 32.065000
    reduced_to: 30
  - symbol: S  # 31
    coordinates: [  0.352979152300389,  0.881480676601314,  0.352681473783061 ]
    mass: 32.065000
    reduced_to: 31
  - symbol: S  # 32
    coordinates: [  0.647020847699610,  0.118519323398685,  0.352681473783061 ]
    mass: 32.065000
    reduced_to: 32
  - symbol: S  # 33
    coordinates: [  0.747888614359250,  0.967150947981731,  0.703909833012225 ]
    mass: 32.065000
    reduced_to: 33
  - symbol: S  # 34
    coordinates: [  0.032849052018269,  0.747888614359250,  0.296090166987775 ]
    mass: 32.065000
    reduced_to: 34
  - symbol: S  # 35
    coordinates: [  0.467150947981731,  0.752111385640750,  0.796090166987775 ]
    mass: 32.065000
    reduced_to: 35
  - symbol: S  # 36
    coordinates: [  0.747888614359250,  0.532849052018269,  0.546090166987775 ]
    mass: 32.065000
    reduced_to: 36
  - symbol: S  # 37
    coordinates: [  0.252111385640750,  0.467150947981731,  0.546090166987775 ]
    mass: 32.065000
    reduced_to: 37
  - symbol: S  # 38
    coordinates: [  0.752111385640750,  0.532849052018269,  0.203909833012225 ]
    mass: 32.065000
    reduced_to: 38
  - symbol: S  # 39
    coordinates: [  0.967150947981731,  0.247888614359250,  0.953909833012225 ]
    mass: 32.065000
    reduced_to: 39
  - symbol: S  # 40
    coordinates: [  0.032849052018269,  0.752111385640750,  0.953909833012225 ]
    mass: 32.065000
    reduced_to: 40
  - symbol: S  # 41
    coordinates: [  0.881480676601314,  0.852979152300390,  0.602681473783061 ]
    mass: 32.065000
    reduced_to: 41
  - symbol: S  # 42
    coordinates: [  0.647020847699610,  0.381480676601315,  0.897318526216939 ]
    mass: 32.065000
    reduced_to: 42
  - symbol: S  # 43
    coordinates: [  0.852979152300390,  0.118519323398685,  0.397318526216939 ]
    mass: 32.065000
    reduced_to: 43
  - symbol: S  # 44
    coordinates: [  0.881480676601314,  0.647020847699610,  0.647318526216939 ]
    mass: 32.065000
    reduced_to: 44
  - symbol: S  # 45
    coordinates: [  0.118519323398685,  0.352979152300389,  0.647318526216939 ]
    mass: 32.065000
    reduced_to: 45
  - symbol: S  # 46
    coordinates: [  0.618519323398686,  0.647020847699610,  0.102681473783061 ]
    mass: 32.065000
    reduced_to: 46
  - symbol: S  # 47
    coordinates: [  0.852979152300390,  0.381480676601315,  0.852681473783061 ]
    mass: 32.065000
    reduced_to: 47
  - symbol: S  # 48
    coordinates: [  0.147020847699611,  0.618519323398686,  0.852681473783061 ]
    mass: 32.065000
    reduced_to: 48

supercell:
  lattice:
  - [    19.397604901661506,     0.000000000000000,     0.000000000000001 ] # a
  - [     0.000000000000003,    19.397604901661506,     0.000000000000001 ] # b
  - [     0.000000000000000,     0.000000000000000,    11.955032377358368 ] # c
  points:
  - symbol: Na # 1
    coordinates: [  0.000000000000000,  0.000000000000000,  0.828464528392286 ]
    mass: 22.989769
    reduced_to: 1
  - symbol: Na # 2
    coordinates: [  0.500000000000000,  0.000000000000000,  0.828464528392286 ]
    mass: 22.989769
    reduced_to: 1
  - symbol: Na # 3
    coordinates: [  0.000000000000000,  0.500000000000000,  0.828464528392286 ]
    mass: 22.989769
    reduced_to: 1
  - symbol: Na # 4
    coordinates: [  0.500000000000000,  0.500000000000000,  0.828464528392286 ]
    mass: 22.989769
    reduced_to: 1
  - symbol: Na # 5
    coordinates: [  0.000000000000000,  0.000000000000000,  0.171535471607715 ]
    mass: 22.989769
    reduced_to: 5
  - symbol: Na # 6
    coordinates: [  0.500000000000000,  0.000000000000000,  0.171535471607715 ]
    mass: 22.989769
    reduced_to: 5
  - symbol: Na # 7
    coordinates: [  0.000000000000000,  0.500000000000000,  0.171535471607715 ]
    mass: 22.989769
    reduced_to: 5
  - symbol: Na # 8
    coordinates: [  0.500000000000000,  0.500000000000000,  0.171535471607715 ]
    mass: 22.989769
    reduced_to: 5
  - symbol: Na # 9
    coordinates: [  0.000000000000000,  0.250000000000000,  0.421535471607714 ]
    mass: 22.989769
    reduced_to: 9
  - symbol: Na # 10
    coordinates: [  0.500000000000000,  0.250000000000000,  0.421535471607714 ]
    mass: 22.989769
    reduced_to: 9
  - symbol: Na # 11
    coordinates: [  0.000000000000000,  0.750000000000000,  0.421535471607714 ]
    mass: 22.989769
    reduced_to: 9
  - symbol: Na # 12
    coordinates: [  0.500000000000000,  0.750000000000000,  0.421535471607714 ]
    mass: 22.989769
    reduced_to: 9
  - symbol: Na # 13
    coordinates: [  0.000000000000000,  0.250000000000000,  0.078464528392286 ]
    mass: 22.989769
    reduced_to: 13
  - symbol: Na # 14
    coordinates: [  0.500000000000000,  0.250000000000000,  0.078464528392286 ]
    mass: 22.989769
    reduced_to: 13
  - symbol: Na # 15
    coordinates: [  0.000000000000000,  0.750000000000000,  0.078464528392286 ]
    mass: 22.989769
    reduced_to: 13
  - symbol: Na # 16
    coordinates: [  0.500000000000000,  0.750000000000000,  0.078464528392286 ]
    mass: 22.989769
    reduced_to: 13
  - symbol: Na # 17
    coordinates: [  0.125000000000000,  0.114338771425161,  0.375000000000000 ]
    mass: 22.989769
    reduced_to: 17
  - symbol: Na # 18
    coordinates: [  0.625000000000000,  0.114338771425161,  0.375000000000000 ]
    mass: 22.989769
    reduced_to: 17
  - symbol: Na # 19
    coordinates: [  0.125000000000000,  0.614338771425161,  0.375000000000000 ]
    mass: 22.989769
    reduced_to: 17
  - symbol: Na # 20
    coordinates: [  0.625000000000000,  0.614338771425161,  0.375000000000000 ]
    mass: 22.989769
    reduced_to: 17
  - symbol: Na # 21
    coordinates: [  0.385661228574839,  0.125000000000000,  0.625000000000000 ]
    mass: 22.989769
    reduced_to: 21
  - symbol: Na # 22
    coordinates: [  0.885661228574839,  0.125000000000000,  0.625000000000000 ]
    mass: 22.989769
    reduced_to: 21
  - symbol: Na # 23
    coordinates: [  0.385661228574839,  0.625000000000000,  0.625000000000000 ]
    mass: 22.989769
    reduced_to: 21
  - symbol: Na # 24
    coordinates: [  0.885661228574839,  0.625000000000000,  0.625000000000000 ]
    mass: 22.989769
    reduced_to: 21
  - symbol: Na # 25
    coordinates: [  0.364338771425161,  0.125000000000000,  0.125000000000000 ]
    mass: 22.989769
    reduced_to: 25
  - symbol: Na # 26
    coordinates: [  0.864338771425161,  0.125000000000000,  0.125000000000000 ]
    mass: 22.989769
    reduced_to: 25
  - symbol: Na # 27
    coordinates: [  0.364338771425161,  0.625000000000000,  0.125000000000000 ]
    mass: 22.989769
    reduced_to: 25
  - symbol: Na # 28
    coordinates: [  0.864338771425161,  0.625000000000000,  0.125000000000000 ]
    mass: 22.989769
    reduced_to: 25
  - symbol: Na # 29
    coordinates: [  0.125000000000000,  0.135661228574839,  0.875000000000000 ]
    mass: 22.989769
    reduced_to: 29
  - symbol: Na # 30
    coordinates: [  0.625000000000000,  0.135661228574839,  0.875000000000000 ]
    mass: 22.989769
    reduced_to: 29
  - symbol: Na # 31
    coordinates: [  0.125000000000000,  0.635661228574839,  0.875000000000000 ]
    mass: 22.989769
    reduced_to: 29
  - symbol: Na # 32
    coordinates: [  0.625000000000000,  0.635661228574839,  0.875000000000000 ]
    mass: 22.989769
    reduced_to: 29
  - symbol: Na # 33
    coordinates: [  0.250000000000000,  0.250000000000000,  0.328464528392286 ]
    mass: 22.989769
    reduced_to: 33
  - symbol: Na # 34
    coordinates: [  0.750000000000000,  0.250000000000000,  0.328464528392286 ]
    mass: 22.989769
    reduced_to: 33
  - symbol: Na # 35
    coordinates: [  0.250000000000000,  0.750000000000000,  0.328464528392286 ]
    mass: 22.989769
    reduced_to: 33
  - symbol: Na # 36
    coordinates: [  0.750000000000000,  0.750000000000000,  0.328464528392286 ]
    mass: 22.989769
    reduced_to: 33
  - symbol: Na # 37
    coordinates: [  0.250000000000000,  0.250000000000000,  0.671535471607714 ]
    mass: 22.989769
    reduced_to: 37
  - symbol: Na # 38
    coordinates: [  0.750000000000000,  0.250000000000000,  0.671535471607714 ]
    mass: 22.989769
    reduced_to: 37
  - symbol: Na # 39
    coordinates: [  0.250000000000000,  0.750000000000000,  0.671535471607714 ]
    mass: 22.989769
    reduced_to: 37
  - symbol: Na # 40
    coordinates: [  0.750000000000000,  0.750000000000000,  0.671535471607714 ]
    mass: 22.989769
    reduced_to: 37
  - symbol: Na # 41
    coordinates: [  0.250000000000000,  0.000000000000000,  0.921535471607714 ]
    mass: 22.989769
    reduced_to: 41
  - symbol: Na # 42
    coordinates: [  0.750000000000000,  0.000000000000000,  0.921535471607714 ]
    mass: 22.989769
    reduced_to: 41
  - symbol: Na # 43
    coordinates: [  0.250000000000000,  0.500000000000000,  0.921535471607714 ]
    mass: 22.989769
    reduced_to: 41
  - symbol: Na # 44
    coordinates: [  0.750000000000000,  0.500000000000000,  0.921535471607714 ]
    mass: 22.989769
    reduced_to: 41
  - symbol: Na # 45
    coordinates: [  0.250000000000000,  0.000000000000000,  0.578464528392286 ]
    mass: 22.989769
    reduced_to: 45
  - symbol: Na # 46
    coordinates: [  0.750000000000000,  0.000000000000000,  0.578464528392286 ]
    mass: 22.989769
    reduced_to: 45
  - symbol: Na # 47
    coordinates: [  0.250000000000000,  0.500000000000000,  0.578464528392286 ]
    mass: 22.989769
    reduced_to: 45
  - symbol: Na # 48
    coordinates: [  0.750000000000000,  0.500000000000000,  0.578464528392286 ]
    mass: 22.989769
    reduced_to: 45
  - symbol: Na # 49
    coordinates: [  0.375000000000000,  0.364338771425161,  0.875000000000000 ]
    mass: 22.989769
    reduced_to: 49
  - symbol: Na # 50
    coordinates: [  0.875000000000000,  0.364338771425161,  0.875000000000000 ]
    mass: 22.989769
    reduced_to: 49
  - symbol: Na # 51
    coordinates: [  0.375000000000000,  0.864338771425161,  0.875000000000000 ]
    mass: 22.989769
    reduced_to: 49
  - symbol: Na # 52
    coordinates: [  0.875000000000000,  0.864338771425161,  0.875000000000000 ]
    mass: 22.989769
    reduced_to: 49
  - symbol: Na # 53
    coordinates: [  0.135661228574839,  0.375000000000000,  0.125000000000000 ]
    mass: 22.989769
    reduced_to: 53
  - symbol: Na # 54
    coordinates: [  0.635661228574839,  0.375000000000000,  0.125000000000000 ]
    mass: 22.989769
    reduced_to: 53
  - symbol: Na # 55
    coordinates: [  0.135661228574839,  0.875000000000000,  0.125000000000000 ]
    mass: 22.989769
    reduced_to: 53
  - symbol: Na # 56
    coordinates: [  0.635661228574839,  0.875000000000000,  0.125000000000000 ]
    mass: 22.989769
    reduced_to: 53
  - symbol: Na # 57
    coordinates: [  0.114338771425161,  0.375000000000000,  0.625000000000000 ]
    mass: 22.989769
    reduced_to: 57
  - symbol: Na # 58
    coordinates: [  0.614338771425161,  0.375000000000000,  0.625000000000000 ]
    mass: 22.989769
    reduced_to: 57
  - symbol: Na # 59
    coordinates: [  0.114338771425161,  0.875000000000000,  0.625000000000000 ]
    mass: 22.989769
    reduced_to: 57
  - symbol: Na # 60
    coordinates: [  0.614338771425161,  0.875000000000000,  0.625000000000000 ]
    mass: 22.989769
    reduced_to: 57
  - symbol: Na # 61
    coordinates: [  0.375000000000000,  0.385661228574839,  0.375000000000000 ]
    mass: 22.989769
    reduced_to: 61
  - symbol: Na # 62
    coordinates: [  0.875000000000000,  0.385661228574839,  0.375000000000000 ]
    mass: 22.989769
    reduced_to: 61
  - symbol: Na # 63
    coordinates: [  0.375000000000000,  0.885661228574839,  0.375000000000000 ]
    mass: 22.989769
    reduced_to: 61
  - symbol: Na # 64
    coordinates: [  0.875000000000000,  0.885661228574839,  0.375000000000000 ]
    mass: 22.989769
    reduced_to: 61
  - symbol: S  # 65
    coordinates: [  0.123944307179625,  0.233575473990865,  0.203909833012225 ]
    mass: 32.065000
    reduced_to: 65
  - symbol: S  # 66
    coordinates: [  0.623944307179625,  0.233575473990865,  0.203909833012225 ]
    mass: 32.065000
    reduced_to: 65
  - symbol: S  # 67
    coordinates: [  0.123944307179625,  0.733575473990865,  0.203909833012225 ]
    mass: 32.065000
    reduced_to: 65
  - symbol: S  # 68
    coordinates: [  0.623944307179625,  0.733575473990865,  0.203909833012225 ]
    mass: 32.065000
    reduced_to: 65
  - symbol: S  # 69
    coordinates: [  0.266424526009135,  0.123944307179625,  0.796090166987775 ]
    mass: 32.065000
    reduced_to: 69
  - symbol: S  # 70
    coordinates: [  0.766424526009134,  0.123944307179625,  0.796090166987775 ]
    mass: 32.065000
    reduced_to: 69
  - symbol: S  # 71
    coordinates: [  0.266424526009135,  0.623944307179625,  0.796090166987775 ]
    mass: 32.065000
    reduced_to: 69
  - symbol: S  # 72
    coordinates: [  0.766424526009134,  0.623944307179625,  0.796090166987775 ]
    mass: 32.065000
    reduced_to: 69
  - symbol: S  # 73
    coordinates: [  0.483575473990865,  0.126055692820375,  0.296090166987775 ]
    mass: 32.065000
    reduced_to: 73
  - symbol: S  # 74
    coordinates: [  0.983575473990866,  0.126055692820375,  0.296090166987775 ]
    mass: 32.065000
    reduced_to: 73
  - symbol: S  # 75
    coordinates: [  0.483575473990865,  0.626055692820375,  0.296090166987775 ]
    mass: 32.065000
    reduced_to: 73
  - symbol: S  # 76
    coordinates: [  0.983575473990866,  0.626055692820375,  0.296090166987775 ]
    mass: 32.065000
    reduced_to: 73
  - symbol: S  # 77
    coordinates: [  0.123944307179625,  0.016424526009135,  0.046090166987775 ]
    mass: 32.065000
    reduced_to: 77
  - symbol: S  # 78
    coordinates: [  0.623944307179625,  0.016424526009135,  0.046090166987775 ]
    mass: 32.065000
    reduced_to: 77
  - symbol: S  # 79
    coordinates: [  0.123944307179625,  0.516424526009135,  0.046090166987775 ]
    mass: 32.065000
    reduced_to: 77
  - symbol: S  # 80
    coordinates: [  0.623944307179625,  0.516424526009135,  0.046090166987775 ]
    mass: 32.065000
    reduced_to: 77
  - symbol: S  # 81
    coordinates: [  0.376055692820375,  0.483575473990865,  0.046090166987775 ]
    mass: 32.065000
    reduced_to: 81
  - symbol: S  # 82
    coordinates: [  0.876055692820375,  0.483575473990865,  0.046090166987775 ]
    mass: 32.065000
    reduced_to: 81
  - symbol: S  # 83
    coordinates: [  0.376055692820375,  0.983575473990866,  0.046090166987775 ]
    mass: 32.065000
    reduced_to: 81
  - symbol: S  # 84
    coordinates: [  0.876055692820375,  0.983575473990866,  0.046090166987775 ]
    mass: 32.065000
    reduced_to: 81
  - symbol: S  # 85
    coordinates: [  0.126055692820375,  0.016424526009135,  0.703909833012225 ]
    mass: 32.065000
    reduced_to: 85
  - symbol: S  # 86
    coordinates: [  0.626055692820375,  0.016424526009135,  0.703909833012225 ]
    mass: 32.065000
    reduced_to: 85
  - symbol: S  # 87
    coordinates: [  0.126055692820375,  0.516424526009135,  0.703909833012225 ]
    mass: 32.065000
    reduced_to: 85
  - symbol: S  # 88
    coordinates: [  0.626055692820375,  0.516424526009135,  0.703909833012225 ]
    mass: 32.065000
    reduced_to: 85
  - symbol: S  # 89
    coordinates: [  0.233575473990865,  0.373944307179625,  0.453909833012225 ]
    mass: 32.065000
    reduced_to: 89
  - symbol: S  # 90
    coordinates: [  0.733575473990865,  0.373944307179625,  0.453909833012225 ]
    mass: 32.065000
    reduced_to: 89
  - symbol: S  # 91
    coordinates: [  0.233575473990865,  0.873944307179625,  0.453909833012225 ]
    mass: 32.065000
    reduced_to: 89
  - symbol: S  # 92
    coordinates: [  0.733575473990865,  0.873944307179625,  0.453909833012225 ]
    mass: 32.065000
    reduced_to: 89
  - symbol: S  # 93
    coordinates: [  0.266424526009135,  0.126055692820375,  0.453909833012225 ]
    mass: 32.065000
    reduced_to: 93
  - symbol: S  # 94
    coordinates: [  0.766424526009134,  0.126055692820375,  0.453909833012225 ]
    mass: 32.065000
    reduced_to: 93
  - symbol: S  # 95
    coordinates: [  0.266424526009135,  0.626055692820375,  0.453909833012225 ]
    mass: 32.065000
    reduced_to: 93
  - symbol: S  # 96
    coordinates: [  0.766424526009134,  0.626055692820375,  0.453909833012225 ]
    mass: 32.065000
    reduced_to: 93
  - symbol: S  # 97
    coordinates: [  0.190740338300657,  0.176489576150195,  0.102681473783061 ]
    mass: 32.065000
    reduced_to: 97
  - symbol: S  # 98
    coordinates: [  0.690740338300657,  0.176489576150195,  0.102681473783061 ]
    mass: 32.065000
    reduced_to: 97
  - symbol: S  # 99
    coordinates: [  0.190740338300657,  0.676489576150195,  0.102681473783061 ]
    mass: 32.065000
    reduced_to: 97
  - symbol: S  # 100
    coordinates: [  0.690740338300657,  0.676489576150195,  0.102681473783061 ]
    mass: 32.065000
    reduced_to: 97
  - symbol: S  # 101
    coordinates: [  0.073510423849805,  0.440740338300657,  0.397318526216939 ]
    mass: 32.065000
    reduced_to: 101
  - symbol: S  # 102
    coordinates: [  0.573510423849805,  0.440740338300657,  0.397318526216939 ]
    mass: 32.065000
    reduced_to: 101
  - symbol: S  # 103
    coordinates: [  0.073510423849805,  0.940740338300657,  0.397318526216939 ]
    mass: 32.065000
    reduced_to: 101
  - symbol: S  # 104
    coordinates: [  0.573510423849805,  0.940740338300657,  0.397318526216939 ]
    mass: 32.065000
    reduced_to: 101
  - symbol: S  # 105
    coordinates: [  0.176489576150195,  0.309259661699343,  0.897318526216939 ]
    mass: 32.065000
    reduced_to: 105
  - symbol: S  # 106
    coordinates: [  0.676489576150195,  0.309259661699343,  0.897318526216939 ]
    mass: 32.065000
    reduced_to: 105
  - symbol: S  # 107
    coordinates: [  0.176489576150195,  0.809259661699343,  0.897318526216939 ]
    mass: 32.065000
    reduced_to: 105
  - symbol: S  # 108
    coordinates: [  0.676489576150195,  0.809259661699343,  0.897318526216939 ]
    mass: 32.065000
    reduced_to: 105
  - symbol: S  # 109
    coordinates: [  0.190740338300657,  0.073510423849805,  0.147318526216939 ]
    mass: 32.065000
    reduced_to: 109
  - symbol: S  # 110
    coordinates: [  0.690740338300657,  0.073510423849805,  0.147318526216939 ]
    mass: 32.065000
    reduced_to: 109
  - symbol: S  # 111
    coordinates: [  0.190740338300657,  0.573510423849805,  0.147318526216939 ]
    mass: 32.065000
    reduced_to: 109
  - symbol: S  # 112
    coordinates: [  0.690740338300657,  0.573510423849805,  0.147318526216939 ]
    mass: 32.065000
    reduced_to: 109
  - symbol: S  # 113
    coordinates: [  0.309259661699343,  0.426489576150195,  0.147318526216939 ]
    mass: 32.065000
    reduced_to: 113
  - symbol: S  # 114
    coordinates: [  0.809259661699343,  0.426489576150195,  0.147318526216939 ]
    mass: 32.065000
    reduced_to: 113
  - symbol: S  # 115
    coordinates: [  0.309259661699343,  0.926489576150195,  0.147318526216939 ]
    mass: 32.065000
    reduced_to: 113
  - symbol: S  # 116