  19  19   0   0
  0.2504161E+02  0.6834254E-09  0.8835925E-09  0.7880486E-09  0.0000000E+00
   1.0000000000000000E-004
  CAR 
 NEB_bottleneck                          
      9.71570659    -24.08220721  301      0.94604948      1.00000000
    -24.082  0.0000E+00  0.0000E+00
    -23.970  0.0000E+00  0.0000E+00
    -23.857  0.0000E+00  0.0000E+00
    -23.744 -0.5120E-31 -0.5769E-32
    -23.632 -0.4139E-27 -0.4663E-28
    -23.519 -0.1764E-23 -0.1988E-24
    -23.406 -0.3970E-20 -0.4475E-21
    -23.294 -0.4718E-17 -0.5319E-18
    -23.181 -0.2861E-14 -0.3229E-15
    -23.068 -0.9363E-12 -0.1058E-12
    -22.956 -0.1605E-09 -0.1819E-10
    -22.843 -0.1434E-07 -0.1633E-08
    -22.730 -0.6604E-06 -0.7603E-07
    -22.618 -0.1539E-04 -0.1810E-05
    -22.505 -0.1737E-03 -0.2138E-04
    -22.392 -0.8322E-03 -0.1151E-03
    -22.280 -0.6094E-03 -0.1838E-03
    -22.167  0.6784E-02  0.5805E-03
    -22.054  0.1963E-01  0.2792E-02
    -21.942  0.2169E-01  0.5236E-02
    -21.829  0.1830E-01  0.7297E-02
    -21.716  0.1966E-01  0.9512E-02
    -21.604  0.2701E-01  0.1256E-01
    -21.491  0.6454E-01  0.1983E-01
    -21.378  0.1102E+00  0.3224E-01
    -21.266  0.1090E+00  0.4453E-01
    -21.153  0.6589E-01  0.5195E-01
    -21.040  0.2152E-01  0.5437E-01
    -20.928  0.1221E-03  0.5439E-01
    -20.815 -0.2524E-02  0.5410E-01
    -20.702 -0.8027E-03  0.5401E-01
    -20.590 -0.1061E-03  0.5400E-01
    -20.477 -0.6799E-05  0.5400E-01
    -20.364 -0.2207E-06  0.5400E-01
    -20.252 -0.3696E-08  0.5400E-01
    -20.139 -0.3224E-10  0.5400E-01
    -20.026 -0.1473E-12  0.5400E-01
    -19.914 -0.3548E-15  0.5400E-01
    -19.801  0.0000E+00  0.5400E-01
    -19.688  0.0000E+00  0.5400E-01
    -19.576  0.0000E+00  0.5400E-01
    -19.463  0.0000E+00  0.5400E-01
    -19.350  0.0000E+00  0.5400E-01
    -19.238  0.0000E+00  0.5400E-01
    -19.125  0.0000E+00  0.5400E-01
    -19.013  0.0000E+00  0.5400E-01
    -18.900  0.0000E+00  0.5400E-01
    -18.787  0.0000E+00  0.5400E-01
    -18.675  0.0000E+00  0.5400E-01
    -18.562  0.0000E+00  0.5400E-01
    -18.449  0.0000E+00  0.5400E-01
    -18.337  0.0000E+00  0.5400E-01
    -18.224  0.0000E+00  0.5400E-01
    -18.111  0.0000E+00  0.5400E-01
    -17.999  0.0000E+00  0.5400E-01
    -17.886  0.0000E+00  0.5400E-01
    -17.773  0.0000E+00  0.5400E-01
    -17.661  0.0000E+00  0.5400E-01
    -17.548  0.0000E+00  0.5400E-01
    -17.435  0.0000E+00  0.5400E-01
    -17.323  0.0000E+00  0.5400E-01
    -17.210  0.0000E+00  0.5400E-01
    -17.097  0.0000E+00  0.5400E-01
    -16.985  0.0000E+00  0.5400E-01
    -16.872  0.0000E+00  0.5400E-01
    -16.759  0.0000E+00  0.5400E-01
    -16.647  0.0000E+00  0.5400E-01
    -16.534  0.0000E+00  0.5400E-01
    -16.421  0.0000E+00  0.5400E-01
    -16.309  0.0000E+00  0.5400E-01
    -16.196  0.0000E+00  0.5400E-01
    -16.083  0.0000E+00  0.5400E-01
    -15.971  0.0000E+00  0.5400E-01
    -15.858  0.0000E+00  0.5400E-01
    -15.745  0.0000E+00  0.5400E-01
    -15.633  0.0000E+00  0.5400E-01
    -15.520  0.0000E+00  0.5400E-01
    -15.407  0.0000E+00  0.5400E-01
    -15.295  0.0000E+00  0.5400E-01
    -15.182  0.0000E+00  0.5400E-01
    -15.069  0.0000E+00  0.5400E-01
    -14.957  0.0000E+00  0.5400E-01
    -14.844  0.0000E+00  0.5400E-01
    -14.731  0.0000E+00  0.5400E-01
    -14.619  0.0000E+00  0.5400E-01
    -14.506  0.0000E+00  0.5400E-01
    -14.393 -0.8564E-32  0.5400E-01
    -14.281 -0.7585E-28  0.5400E-01
    -14.168 -0.3535E-24  0.5400E-01
    -14.055 -0.8690E-21  0.5400E-01
    -13.943 -0.1127E-17  0.5400E-01
    -13.830 -0.7464E-15  0.5400E-01
    -13.718 -0.2666E-12  0.5400E-01
    -13.605 -0.5001E-10  0.5400E-01
    -13.492 -0.4913E-08  0.5400E-01
    -13.380 -0.2515E-06  0.5400E-01
    -13.267 -0.6641E-05  0.5400E-01
    -13.154 -0.8836E-04  0.5399E-01
    -13.042 -0.5553E-03  0.5393E-01
    -12.929 -0.1256E-02  0.5379E-01
    -12.816  0.1828E-02  0.5399E-01
    -12.704  0.1479E-01  0.5566E-01
    -12.591  0.3431E-01  0.5952E-01
    -12.478  0.4756E-01  0.6488E-01
    -12.366  0.4308E-01  0.6973E-01
    -12.253  0.2684E-01  0.7276E-01
    -12.140  0.1124E-01  0.7402E-01
    -12.028  0.1362E-02  0.7418E-01
    -11.915 -0.1064E-02  0.7406E-01
    -11.802 -0.4487E-03  0.7401E-01
    -11.690 -0.6647E-04  0.7400E-01
    -11.577 -0.4526E-05  0.7400E-01
    -11.464 -0.1521E-06  0.7400E-01
    -11.352 -0.2600E-08  0.7400E-01
    -11.239 -0.2536E-10  0.7400E-01
    -11.126 -0.3384E-09  0.7400E-01
    -11.014 -0.2443E-07  0.7400E-01
    -10.901 -0.8969E-06  0.7400E-01
    -10.788 -0.1627E-04  0.7400E-01
    -10.676 -0.1363E-03  0.7398E-01
    -10.563 -0.4108E-03  0.7394E-01
    -10.450  0.4383E-03  0.7399E-01
    -10.338  0.4440E-02  0.7449E-01
    -10.225  0.8122E-02  0.7540E-01
    -10.112  0.8368E-02  0.7634E-01
    -10.000  0.8311E-02  0.7728E-01
     -9.887  0.5251E-02  0.7787E-01
     -9.774  0.5791E-03  0.7794E-01
     -9.662  0.2038E-02  0.7817E-01
     -9.549  0.1107E-01  0.7941E-01
     -9.436  0.2502E-01  0.8223E-01
     -9.324  0.3584E-01  0.8627E-01
     -9.211  0.2754E-01  0.8937E-01
     -9.098  0.7961E-02  0.9027E-01
     -8.986 -0.1103E-02  0.9015E-01
     -8.873 -0.1063E-02  0.9003E-01
     -8.760 -0.2116E-03  0.9000E-01
     -8.648 -0.1845E-04  0.9000E-01
     -8.535 -0.7910E-06  0.9000E-01
     -8.423 -0.1734E-07  0.9000E-01
     -8.310 -0.1976E-09  0.9000E-01
     -8.197 -0.1180E-11  0.9000E-01
     -8.085 -0.3709E-14  0.9000E-01
     -7.972 -0.3942E-17  0.9000E-01
     -7.859  0.0000E+00  0.9000E-01
     -7.747  0.0000E+00  0.9000E-01
     -7.634  0.0000E+00  0.9000E-01
     -7.521  0.0000E+00  0.9000E-01
     -7.409  0.0000E+00  0.9000E-01
     -7.296  0.0000E+00  0.9000E-01
     -7.183  0.0000E+00  0.9000E-01
     -7.071  0.0000E+00  0.9000E-01
     -6.958  0.0000E+00  0.9000E-01
     -6.845  0.0000E+00  0.9000E-01
     -6.733  0.0000E+00  0.9000E-01
     -6.620  0.0000E+00  0.9000E-01
     -6.507  0.0000E+00  0.9000E-01
     -6.395  0.0000E+00  0.9000E-01
     -6.282  0.0000E+00  0.9000E-01
     -6.169  0.0000E+00  0.9000E-01
     -6.057  0.0000E+00  0.9000E-01
     -5.944  0.0000E+00  0.9000E-01
     -5.831  0.0000E+00  0.9000E-01
     -5.719  0.0000E+00  0.9000E-01
     -5.606  0.0000E+00  0.9000E-01
     -5.493  0.0000E+00  0.9000E-01
     -5.381  0.0000E+00  0.9000E-01
     -5.268  0.0000E+00  0.9000E-01
     -5.155  0.0000E+00  0.9000E-01
     -5.043 -0.1478E-29  0.9000E-01
     -4.930 -0.9113E-26  0.9000E-01
     -4.817 -0.2962E-22  0.9000E-01
     -4.705 -0.5071E-19  0.9000E-01
     -4.592 -0.4467E-16  0.9000E-01
     -4.479 -0.2081E-13  0.9000E-01
     -4.367 -0.5104E-11  0.9000E-01
     -4.254 -0.6502E-09  0.9000E-01
     -4.141 -0.4266E-07  0.9000E-01
     -4.029 -0.1419E-05  0.9000E-01
     -3.916 -0.2318E-04  0.9000E-01
     -3.803 -0.1714E-03  0.8998E-01
     -3.691 -0.4108E-03  0.8993E-01
     -3.578  0.8718E-03  0.9003E-01
     -3.465  0.5247E-02  0.9062E-01
     -3.353  0.7778E-02  0.9150E-01
     -3.240  0.6515E-02  0.9223E-01
     -3.128  0.7439E-02  0.9307E-01
     -3.015  0.6722E-02  0.9383E-01
     -2.902  0.2156E-02  0.9407E-01
     -2.790 -0.2846E-03  0.9404E-01
     -2.677 -0.2759E-03  0.9401E-01
     -2.564 -0.5170E-04  0.9400E-01
     -2.452 -0.4126E-05  0.9400E-01
     -2.339 -0.1590E-06  0.9400E-01
     -2.226 -0.3553E-07  0.9400E-01
     -2.114 -0.1149E-05  0.9400E-01
     -2.001 -0.2028E-04  0.9400E-01
     -1.888 -0.1692E-03  0.9398E-01
     -1.776 -0.5507E-03  0.9392E-01
     -1.663  0.2267E-03  0.9394E-01
     -1.550  0.5243E-02  0.9453E-01
     -1.438  0.1218E-01  0.9591E-01
     -1.325  0.1527E-01  0.9763E-01
     -1.212  0.1801E-01  0.9965E-01
     -1.100  0.2088E-01  0.1020E+00
     -0.987  0.1458E-01  0.1036E+00
     -0.874  0.3940E-02  0.1041E+00
     -0.762  0.2261E-02  0.1043E+00
     -0.649  0.6689E-02  0.1051E+00
     -0.536  0.5565E-02  0.1057E+00
     -0.424  0.2287E-02  0.1060E+00
     -0.311  0.8768E-02  0.1070E+00
     -0.198  0.2149E-01  0.1094E+00
     -0.086  0.2953E-01  0.1127E+00
      0.027  0.2976E-01  0.1161E+00
      0.140  0.2633E-01  0.1190E+00
      0.252  0.2614E-01  0.1220E+00
      0.365  0.2495E-01  0.1248E+00
      0.478  0.2037E-01  0.1271E+00
      0.590  0.1825E-01  0.1291E+00
      0.703  0.2080E-01  0.1315E+00
      0.816  0.2540E-01  0.1344E+00
      0.928  0.2116E-01  0.1367E+00
      1.041  0.1018E-01  0.1379E+00
      1.154  0.2099E-02  0.1381E+00
      1.266 -0.5561E-03  0.1381E+00
      1.379 -0.4092E-03  0.1380E+00
      1.492 -0.8294E-04  0.1380E+00
      1.604 -0.7461E-05  0.1380E+00
      1.717 -0.3263E-06  0.1380E+00
      1.830 -0.7190E-08  0.1380E+00
      1.942 -0.8123E-10  0.1380E+00
      2.055 -0.6172E-12  0.1380E+00
      2.168 -0.2795E-10  0.1380E+00
      2.280 -0.2853E-08  0.1380E+00
      2.393 -0.1494E-06  0.1380E+00
      2.505 -0.3933E-05  0.1380E+00
      2.618 -0.4989E-04  0.1380E+00
      2.731 -0.2701E-03  0.1380E+00
      2.843 -0.2852E-03  0.1379E+00
      2.956  0.2192E-02  0.1382E+00
      3.069  0.7042E-02  0.1390E+00
      3.181  0.7257E-02  0.1398E+00
      3.294  0.2459E-02  0.1401E+00
      3.407 -0.2371E-03  0.1400E+00
      3.519 -0.2889E-03  0.1400E+00
      3.632 -0.5904E-04  0.1400E+00
      3.745 -0.3951E-04  0.1400E+00
      3.857 -0.2204E-03  0.1400E+00
      3.970 -0.3717E-03  0.1399E+00
      4.083  0.1526E-02  0.1401E+00
      4.195  0.6366E-02  0.1408E+00
      4.308  0.7730E-02  0.1417E+00
      4.421  0.3239E-02  0.1421E+00
      4.533 -0.5379E-04  0.1420E+00
      4.646 -0.3381E-03  0.1420E+00
      4.759 -0.7893E-04  0.1420E+00
      4.871 -0.1333E-04  0.1420E+00
      4.984 -0.6789E-04  0.1420E+00
      5.097 -0.3167E-03  0.1420E+00
      5.209 -0.1743E-03  0.1419E+00
      5.322  0.2686E-02  0.1422E+00
      5.435  0.7081E-02  0.1430E+00
      5.547  0.7358E-02  0.1439E+00
      5.660  0.6624E-02  0.1446E+00
      5.773  0.8555E-02  0.1456E+00
      5.885  0.1243E-01  0.1470E+00
      5.998  0.1869E-01  0.1491E+00
      6.111  0.2131E-01  0.1515E+00
      6.223  0.1616E-01  0.1533E+00
      6.336  0.6547E-02  0.1540E+00
      6.449 -0.1208E-04  0.1540E+00
      6.561 -0.1684E-03  0.1540E+00
      6.674  0.4340E-02  0.1545E+00
      6.787  0.8228E-02  0.1554E+00
      6.899  0.8926E-02  0.1564E+00
      7.012  0.1225E-01  0.1578E+00
      7.125  0.2003E-01  0.1601E+00
      7.237  0.2210E-01  0.1626E+00
      7.350  0.1206E-01  0.1639E+00
      7.463  0.5020E-02  0.1645E+00
      7.575  0.8308E-02  0.1654E+00
      7.688  0.1149E-01  0.1667E+00
      7.800  0.8872E-02  0.1677E+00
      7.913  0.3114E-02  0.1681E+00
      8.026 -0.1554E-03  0.1681E+00
      8.138 -0.3795E-03  0.1680E+00
      8.251 -0.8924E-04  0.1680E+00
      8.364 -0.8632E-05  0.1680E+00
      8.476 -0.3975E-06  0.1680E+00
      8.589 -0.9151E-08  0.1680E+00
      8.702 -0.1077E-09  0.1680E+00
      8.814 -0.6554E-12  0.1680E+00
      8.927 -0.2077E-14  0.1680E+00
      9.040 -0.3942E-17  0.1680E+00
      9.152  0.0000E+00  0.1680E+00
      9.265  0.0000E+00  0.1680E+00
      9.378  0.0000E+00  0.1680E+00
      9.490  0.0000E+00  0.1680E+00
      9.603  0.0000E+00  0.1680E+00
      9.716  0.0000E+00  0.1680E+00
