  19  19   0   0
  0.2504161E+02  0.6834254E-09  0.8835925E-09  0.7880486E-09  0.0000000E+00
   1.0000000000000000E-004
  CAR 
 NEB_bottleneck                          
      9.74346288    -24.13985641  301      0.97998888      1.00000000
    -24.140  0.0000E+00  0.0000E+00
    -24.027  0.0000E+00  0.0000E+00
    -23.914  0.0000E+00  0.0000E+00
    -23.801 -0.5261E-31 -0.5942E-32
    -23.688 -0.4356E-27 -0.4920E-28
    -23.575 -0.1885E-23 -0.2129E-24
    -23.462 -0.4298E-20 -0.4857E-21
    -23.349 -0.5163E-17 -0.5836E-18
    -23.236 -0.3157E-14 -0.3571E-15
    -23.123 -0.1040E-11 -0.1178E-12
    -23.010 -0.1791E-09 -0.2035E-10
    -22.897 -0.1603E-07 -0.1831E-08
    -22.785 -0.7381E-06 -0.8519E-07
    -22.672 -0.1712E-04 -0.2019E-05
    -22.559 -0.1910E-03 -0.2360E-04
    -22.446 -0.8895E-03 -0.1241E-03
    -22.333 -0.4963E-03 -0.1801E-03
    -22.220  0.7664E-02  0.6854E-03
    -22.107  0.2065E-01  0.3018E-02
    -21.994  0.2116E-01  0.5408E-02
    -21.881  0.1747E-01  0.7380E-02
    -21.768  0.1909E-01  0.9536E-02
    -21.655  0.1614E-01  0.1136E-01
    -21.542  0.3722E-01  0.1556E-01
    -21.429  0.9644E-01  0.2646E-01
    -21.316  0.1308E+00  0.4123E-01
    -21.203  0.9129E-01  0.5154E-01
    -21.090  0.2754E-01  0.5465E-01
    -20.977 -0.1481E-02  0.5449E-01
    -20.864 -0.3296E-02  0.5411E-01
    -20.752 -0.8897E-03  0.5401E-01
    -20.639 -0.1081E-03  0.5400E-01
    -20.526 -0.6630E-05  0.5400E-01
    -20.413 -0.2109E-06  0.5400E-01
    -20.300 -0.3507E-08  0.5400E-01
    -20.187 -0.3060E-10  0.5400E-01
    -20.074 -0.1403E-12  0.5400E-01
    -19.961 -0.3421E-15  0.5400E-01
    -19.848  0.0000E+00  0.5400E-01
    -19.735  0.0000E+00  0.5400E-01
    -19.622  0.0000E+00  0.5400E-01
    -19.509  0.0000E+00  0.5400E-01
    -19.396  0.0000E+00  0.5400E-01
    -19.283  0.0000E+00  0.5400E-01
    -19.170  0.0000E+00  0.5400E-01
    -19.057  0.0000E+00  0.5400E-01
    -18.944  0.0000E+00  0.5400E-01
    -18.831  0.0000E+00  0.5400E-01
    -18.719  0.0000E+00  0.5400E-01
    -18.606  0.0000E+00  0.5400E-01
    -18.493  0.0000E+00  0.5400E-01
    -18.380  0.0000E+00  0.5400E-01
    -18.267  0.0000E+00  0.5400E-01
    -18.154  0.0000E+00  0.5400E-01
    -18.041  0.0000E+00  0.5400E-01
    -17.928  0.0000E+00  0.5400E-01
    -17.815  0.0000E+00  0.5400E-01
    -17.702  0.0000E+00  0.5400E-01
    -17.589  0.0000E+00  0.5400E-01
    -17.476  0.0000E+00  0.5400E-01
    -17.363  0.0000E+00  0.5400E-01
    -17.250  0.0000E+00  0.5400E-01
    -17.137  0.0000E+00  0.5400E-01
    -17.024  0.0000E+00  0.5400E-01
    -16.911  0.0000E+00  0.5400E-01
    -16.798  0.0000E+00  0.5400E-01
    -16.686  0.0000E+00  0.5400E-01
    -16.573  0.0000E+00  0.5400E-01
    -16.460  0.0000E+00  0.5400E-01
    -16.347  0.0000E+00  0.5400E-01
    -16.234  0.0000E+00  0.5400E-01
    -16.121  0.0000E+00  0.5400E-01
    -16.008  0.0000E+00  0.5400E-01
    -15.895  0.0000E+00  0.5400E-01
    -15.782  0.0000E+00  0.5400E-01
    -15.669  0.0000E+00  0.5400E-01
    -15.556  0.0000E+00  0.5400E-01
    -15.443  0.0000E+00  0.5400E-01
    -15.330  0.0000E+00  0.5400E-01
    -15.217  0.0000E+00  0.5400E-01
    -15.104  0.0000E+00  0.5400E-01
    -14.991  0.0000E+00  0.5400E-01
    -14.878  0.0000E+00  0.5400E-01
    -14.765  0.0000E+00  0.5400E-01
    -14.653  0.0000E+00  0.5400E-01
    -14.540  0.0000E+00  0.5400E-01
    -14.427  0.0000E+00  0.5400E-01
    -14.314 -0.1317E-31  0.5400E-01
    -14.201 -0.1243E-27  0.5400E-01
    -14.088 -0.5994E-24  0.5400E-01
    -13.975 -0.1522E-20  0.5400E-01
    -13.862 -0.2035E-17  0.5400E-01
    -13.749 -0.1387E-14  0.5400E-01
    -13.636 -0.5079E-12  0.5400E-01
    -13.523 -0.9724E-10  0.5400E-01
    -13.410 -0.9685E-08  0.5400E-01
    -13.297 -0.4978E-06  0.5400E-01
    -13.184 -0.1302E-04  0.5400E-01
    -13.071 -0.1680E-03  0.5398E-01
    -12.958 -0.9841E-03  0.5387E-01
    -12.845 -0.1745E-02  0.5367E-01
    -12.732  0.5276E-02  0.5427E-01
    -12.620  0.2711E-01  0.5733E-01
    -12.507  0.4791E-01  0.6274E-01
    -12.394  0.4901E-01  0.6828E-01
    -12.281  0.3490E-01  0.7222E-01
    -12.168  0.1575E-01  0.7400E-01
    -12.055  0.2055E-02  0.7423E-01
    -11.942 -0.1346E-02  0.7408E-01
    -11.829 -0.5866E-03  0.7401E-01
    -11.716 -0.8940E-04  0.7400E-01
    -11.603 -0.6300E-05  0.7400E-01
    -11.490 -0.2198E-06  0.7400E-01
    -11.377 -0.3901E-08  0.7400E-01
    -11.264 -0.3882E-10  0.7400E-01
    -11.151 -0.4282E-09  0.7400E-01
    -11.038 -0.3015E-07  0.7400E-01
    -10.925 -0.1075E-05  0.7400E-01
    -10.812 -0.1884E-04  0.7400E-01
    -10.699 -0.1507E-03  0.7398E-01
    -10.587 -0.4156E-03  0.7393E-01
    -10.474  0.6102E-03  0.7400E-01
    -10.361  0.4790E-02  0.7454E-01
    -10.248  0.8136E-02  0.7546E-01
    -10.135  0.8080E-02  0.7638E-01
    -10.022  0.8087E-02  0.7729E-01
     -9.909  0.5168E-02  0.7787E-01
     -9.796  0.1852E-02  0.7808E-01
     -9.683  0.4173E-02  0.7855E-01
     -9.570  0.7931E-02  0.7945E-01
     -9.457  0.1538E-01  0.8119E-01
     -9.344  0.2979E-01  0.8455E-01
     -9.231  0.3237E-01  0.8821E-01
     -9.118  0.1612E-01  0.9003E-01
     -9.005  0.1704E-02  0.9022E-01
     -8.892 -0.1362E-02  0.9007E-01
     -8.779 -0.5051E-03  0.9001E-01
     -8.666 -0.6820E-04  0.9000E-01
     -8.554 -0.4307E-05  0.9000E-01
     -8.441 -0.1355E-06  0.9000E-01
     -8.328 -0.2177E-08  0.9000E-01
     -8.215 -0.1809E-10  0.9000E-01
     -8.102 -0.7819E-13  0.9000E-01
     -7.989 -0.1769E-15  0.9000E-01
     -7.876  0.0000E+00  0.9000E-01
     -7.763  0.0000E+00  0.9000E-01
     -7.650  0.0000E+00  0.9000E-01
     -7.537  0.0000E+00  0.9000E-01
     -7.424  0.0000E+00  0.9000E-01
     -7.311  0.0000E+00  0.9000E-01
     -7.198  0.0000E+00  0.9000E-01
     -7.085  0.0000E+00  0.9000E-01
     -6.972  0.0000E+00  0.9000E-01
     -6.859  0.0000E+00  0.9000E-01
     -6.746  0.0000E+00  0.9000E-01
     -6.633  0.0000E+00  0.9000E-01
     -6.521  0.0000E+00  0.9000E-01
     -6.408  0.0000E+00  0.9000E-01
     -6.295  0.0000E+00  0.9000E-01
     -6.182  0.0000E+00  0.9000E-01
     -6.069  0.0000E+00  0.9000E-01
     -5.956  0.0000E+00  0.9000E-01
     -5.843  0.0000E+00  0.9000E-01
     -5.730  0.0000E+00  0.9000E-01
     -5.617  0.0000E+00  0.9000E-01
     -5.504  0.0000E+00  0.9000E-01
     -5.391  0.0000E+00  0.9000E-01
     -5.278  0.0000E+00  0.9000E-01
     -5.165  0.0000E+00  0.9000E-01
     -5.052 -0.7444E-30  0.9000E-01
     -4.939 -0.4921E-26  0.9000E-01
     -4.826 -0.1709E-22  0.9000E-01
     -4.713 -0.3117E-19  0.9000E-01
     -4.600 -0.2882E-16  0.9000E-01
     -4.488 -0.1439E-13  0.9000E-01
     -4.375 -0.3725E-11  0.9000E-01
     -4.262 -0.4994E-09  0.9000E-01
     -4.149 -0.3440E-07  0.9000E-01
     -4.036 -0.1198E-05  0.9000E-01
     -3.923 -0.2048E-04  0.9000E-01
     -3.810 -0.1590E-03  0.8998E-01
     -3.697 -0.4147E-03  0.8993E-01
     -3.584  0.7176E-03  0.9001E-01
     -3.471  0.4983E-02  0.9058E-01
     -3.358  0.8013E-02  0.9148E-01
     -3.245  0.7581E-02  0.9234E-01
     -3.132  0.8055E-02  0.9325E-01
     -3.019  0.5935E-02  0.9392E-01
     -2.906  0.1367E-02  0.9407E-01
     -2.793 -0.3887E-03  0.9403E-01
     -2.680 -0.2159E-03  0.9400E-01
     -2.567 -0.3337E-04  0.9400E-01
     -2.455 -0.2275E-05  0.9400E-01
     -2.342 -0.7703E-07  0.9400E-01
     -2.229 -0.9881E-07  0.9400E-01
     -2.116 -0.2813E-05  0.9400E-01
     -2.003 -0.3938E-04  0.9400E-01
     -1.890 -0.2442E-03  0.9397E-01
     -1.777 -0.4380E-03  0.9392E-01
     -1.664  0.1327E-02  0.9407E-01
     -1.551  0.6200E-02  0.9477E-01
     -1.438  0.1036E-01  0.9594E-01
     -1.325  0.1328E-01  0.9744E-01
     -1.212  0.1762E-01  0.9943E-01
     -1.099  0.2023E-01  0.1017E+00
     -0.986  0.1521E-01  0.1034E+00
     -0.873  0.7136E-02  0.1042E+00
     -0.760  0.6265E-02  0.1049E+00
     -0.647  0.6479E-02  0.1057E+00
     -0.534  0.2258E-02  0.1059E+00
     -0.422  0.2735E-02  0.1062E+00
     -0.309  0.1140E-01  0.1075E+00
     -0.196  0.2091E-01  0.1099E+00
     -0.083  0.2585E-01  0.1128E+00
      0.030  0.2584E-01  0.1157E+00
      0.143  0.2323E-01  0.1184E+00
      0.256  0.2413E-01  0.1211E+00
      0.369  0.2858E-01  0.1243E+00
      0.482  0.2729E-01  0.1274E+00
      0.595  0.1767E-01  0.1294E+00
      0.708  0.1361E-01  0.1309E+00
      0.821  0.2166E-01  0.1334E+00
      0.934  0.2465E-01  0.1361E+00
      1.047  0.1443E-01  0.1378E+00
      1.160  0.3287E-02  0.1382E+00
      1.273 -0.6767E-03  0.1381E+00
      1.386 -0.5345E-03  0.1380E+00
      1.499 -0.1095E-03  0.1380E+00
      1.611 -0.1006E-04  0.1380E+00
      1.724 -0.4534E-06  0.1380E+00
      1.837 -0.1034E-07  0.1380E+00
      1.950 -0.1211E-09  0.1380E+00
      2.063 -0.1114E-11  0.1380E+00
      2.176 -0.6736E-10  0.1380E+00
      2.289 -0.6168E-08  0.1380E+00
      2.402 -0.2879E-06  0.1380E+00
      2.515 -0.6697E-05  0.1380E+00
      2.628 -0.7380E-04  0.1380E+00
      2.741 -0.3292E-03  0.1380E+00
      2.854 -0.9027E-04  0.1379E+00
      2.967  0.3114E-02  0.1383E+00
      3.080  0.7673E-02  0.1392E+00
      3.193  0.6455E-02  0.1399E+00
      3.306  0.1594E-02  0.1401E+00
      3.419 -0.3656E-03  0.1400E+00
      3.532 -0.2240E-03  0.1400E+00
      3.644 -0.3700E-04  0.1400E+00
      3.757 -0.2468E-04  0.1400E+00
      3.870 -0.1672E-03  0.1400E+00
      3.983 -0.4067E-03  0.1399E+00
      4.096  0.8948E-03  0.1400E+00
      4.209  0.5489E-02  0.1407E+00
      4.322  0.8034E-02  0.1416E+00
      4.435  0.4147E-02  0.1420E+00
      4.548  0.2420E-03  0.1421E+00
      4.661 -0.3815E-03  0.1420E+00
      4.774 -0.1091E-03  0.1420E+00
      4.887 -0.2701E-04  0.1420E+00
      5.000 -0.1331E-03  0.1420E+00
      5.113 -0.4162E-03  0.1419E+00
      5.226  0.3526E-03  0.1420E+00
      5.339  0.4259E-02  0.1425E+00
      5.452  0.8257E-02  0.1434E+00
      5.565  0.9405E-02  0.1445E+00
      5.677  0.1117E-01  0.1457E+00
      5.790  0.1236E-01  0.1471E+00
      5.903  0.1282E-01  0.1486E+00
      6.016  0.1459E-01  0.1502E+00
      6.129  0.1312E-01  0.1517E+00
      6.242  0.9833E-02  0.1528E+00
      6.355  0.7497E-02  0.1536E+00
      6.468  0.2942E-02  0.1540E+00
      6.581  0.1040E-02  0.1541E+00
      6.694  0.5148E-02  0.1547E+00
      6.807  0.8955E-02  0.1557E+00
      6.920  0.1052E-01  0.1569E+00
      7.033  0.1464E-01  0.1585E+00
      7.146  0.2033E-01  0.1608E+00
      7.259  0.1900E-01  0.1630E+00
      7.372  0.9258E-02  0.1640E+00
      7.485  0.4845E-02  0.1646E+00
      7.598  0.8399E-02  0.1655E+00
      7.710  0.1069E-01  0.1667E+00
      7.823  0.8557E-02  0.1677E+00
      7.936  0.3326E-02  0.1681E+00
      8.049 -0.5338E-04  0.1681E+00
      8.162 -0.3813E-03  0.1680E+00
      8.275 -0.9453E-04  0.1680E+00
      8.388 -0.9386E-05  0.1680E+00
      8.501 -0.4394E-06  0.1680E+00
      8.614 -0.1023E-07  0.1680E+00
      8.727 -0.1211E-09  0.1680E+00
      8.840 -0.7395E-12  0.1680E+00
      8.953 -0.2343E-14  0.1680E+00
      9.066 -0.3932E-17  0.1680E+00
      9.179  0.0000E+00  0.1680E+00
      9.292  0.0000E+00  0.1680E+00
      9.405  0.0000E+00  0.1680E+00
      9.518  0.0000E+00  0.1680E+00
      9.631  0.0000E+00  0.1680E+00
      9.743  0.0000E+00  0.1680E+00
