 vasp.6.3.2 27Jun22 (build Jun 14 2024 17:29:11) complex                         
 POSCAR found type information on POSCAR NaInS 
 09/POSCAR found :  3 types and      19 ions
 LDA part: xc-table for Pade appr. of Perdew
 POSCAR found type information on POSCAR NaInS 
 00/POSCAR found :  3 types and      19 ions
 POSCAR found type information on POSCAR NaInS 
 10/POSCAR found :  3 types and      19 ions
 POSCAR, INCAR and KPOINTS ok, starting setup
 FFT: planning ... GRIDC
 FFT: planning ... GRID_SOFT
 FFT: planning ... GRID
 WAVECAR not read
 entering main loop
       N       E                     dE             d eps       ncg     rms          rms(c)
DAV:   1     0.146249537031E+04    0.14625E+04   -0.62105E+04   168   0.168E+03
DAV:   2     0.173311997729E+03   -0.12892E+04   -0.12534E+04   168   0.458E+02
DAV:   3    -0.529402333376E+02   -0.22625E+03   -0.22186E+03   198   0.195E+02
DAV:   4    -0.706860770185E+02   -0.17746E+02   -0.17634E+02   201   0.488E+01
DAV:   5    -0.712984970929E+02   -0.61242E+00   -0.61116E+00   237   0.105E+01    0.142E+01
RMM:   6    -0.669803793644E+02    0.43181E+01   -0.75622E+00   189   0.686E+00    0.862E+00
RMM:   7    -0.668230539366E+02    0.15733E+00   -0.70843E+00   200   0.521E+00    0.519E+00
RMM:   8    -0.667862147315E+02    0.36839E-01   -0.45818E-01   196   0.289E+00    0.313E+00
RMM:   9    -0.668273140352E+02   -0.41099E-01   -0.40601E-01   198   0.194E+00    0.124E+00
RMM:  10    -0.667969016238E+02    0.30412E-01   -0.62557E-02   210   0.122E+00    0.870E-01
RMM:  11    -0.667943059504E+02    0.25957E-02   -0.34520E-02   228   0.531E-01    0.750E-01
RMM:  12    -0.667942024729E+02    0.10348E-03   -0.72488E-03   260   0.263E-01    0.113E+00
RMM:  13    -0.667994619609E+02   -0.52595E-02   -0.81484E-03   169   0.234E-01    0.342E-01
RMM:  14    -0.667998559750E+02   -0.39401E-03   -0.13986E-03   201   0.128E-01    0.285E-01
RMM:  15    -0.667998691475E+02   -0.13173E-04   -0.24061E-04   233   0.575E-02    0.304E-01
RMM:  16    -0.667999437500E+02   -0.74603E-04   -0.14216E-04   176   0.353E-02    0.182E-01
RMM:  17    -0.667999726254E+02   -0.28875E-04   -0.80312E-05   182   0.267E-02    0.927E-02
RMM:  18    -0.667999673644E+02    0.52610E-05   -0.22243E-05   180   0.169E-02    0.750E-02
RMM:  19    -0.667999668260E+02    0.53846E-06   -0.12415E-05   159   0.107E-02    0.529E-02
RMM:  20    -0.667999674840E+02   -0.65801E-06   -0.28610E-06   130   0.683E-03
   1 F= -.66799967E+02 E0= -.66797503E+02  d E =-.668000E+02
quench:  g(F)=  0.000E+00 g(S)=  0.000E+00 dE (1.order)= 0.000E+00
 bond charge predicted
       N       E                     dE             d eps       ncg     rms          rms(c)
DAV:   1    -0.667999671437E+02   -0.31772E-06   -0.19100E-06   123   0.853E-03    0.121E-02
RMM:   2    -0.667999669159E+02    0.22774E-06   -0.10788E-06   102   0.413E-03
   2 F= -.66799967E+02 E0= -.66797516E+02  d E =0.568036E-06
quench:  g(F)=  0.000E+00 g(S)=  0.000E+00 dE (1.order)= 0.000E+00
 bond charge predicted
       N       E                     dE             d eps       ncg     rms          rms(c)
DAV:   1    -0.667999668749E+02    0.26882E-06   -0.10105E-06   120   0.448E-03    0.233E-03
RMM:   2    -0.667999669385E+02   -0.63643E-07   -0.29127E-07    97   0.242E-03
   3 F= -.66799967E+02 E0= -.66797524E+02  d E =-.225682E-07
quench:  g(F)=  0.000E+00 g(S)=  0.000E+00 dE (1.order)= 0.000E+00
 bond charge predicted
       N       E                     dE             d eps       ncg     rms          rms(c)
DAV:   1    -0.667999668778E+02   -0.28867E-08   -0.56532E-07   129   0.240E-03    0.162E-03
RMM:   2    -0.667999669098E+02   -0.32089E-07   -0.70331E-08    79   0.121E-03
   4 F= -.66799967E+02 E0= -.66797515E+02  d E =0.286673E-07
quench:  g(F)=  0.000E+00 g(S)=  0.000E+00 dE (1.order)= 0.000E+00
 bond charge predicted
       N       E                     dE             d eps       ncg     rms          rms(c)
DAV:   1    -0.667999669384E+02   -0.60687E-07   -0.41653E-08   120   0.106E-03    0.574E-04
RMM:   2    -0.667999669359E+02    0.25648E-08   -0.37348E-09    24   0.638E-04
   5 F= -.66799967E+02 E0= -.66797515E+02  d E =-.260334E-07
quench:  g(F)=  0.000E+00 g(S)=  0.000E+00 dE (1.order)= 0.000E+00
 bond charge predicted
       N       E                     dE             d eps       ncg     rms          rms(c)
DAV:   1    -0.667999669350E+02    0.34415E-08   -0.22954E-08   120   0.640E-04    0.430E-04
RMM:   2    -0.667999669345E+02    0.48931E-09    0.16976-225    13   0.366E-04
   6 F= -.66799967E+02 E0= -.66797515E+02  d E =0.136606E-08
quench:  g(F)=  0.000E+00 g(S)=  0.000E+00 dE (1.order)= 0.000E+00
 bond charge predicted
       N       E                     dE             d eps       ncg     rms          rms(c)
DAV:   1    -0.667999669357E+02   -0.66757E-09   -0.85176E-09   111   0.393E-04    0.210E-04
RMM:   2    -0.667999669311E+02    0.45329E-08    0.67679-226    12   0.259E-04
   7 F= -.66799967E+02 E0= -.66797515E+02  d E =0.337604E-08
quench:  g(F)=  0.000E+00 g(S)=  0.000E+00 dE (1.order)= 0.000E+00
 bond charge predicted
       N       E                     dE             d eps       ncg     rms          rms(c)
DAV:   1    -0.667999669300E+02    0.56370E-08   -0.43341E-09   120   0.277E-04    0.128E-04
RMM:   2    -0.667999669307E+02   -0.62755E-09    0.39602-226    11   0.196E-04
   8 F= -.66799967E+02 E0= -.66797516E+02  d E =0.476575E-09
quench:  g(F)=  0.000E+00 g(S)=  0.000E+00 dE (1.order)= 0.000E+00
 bond charge predicted
       N       E                     dE             d eps       ncg     rms          rms(c)
DAV:   1    -0.667999669320E+02   -0.20209E-08   -0.16349E-09   111   0.208E-04    0.101E-04
RMM:   2    -0.667999669295E+02    0.25575E-08    0.00000E+00     9   0.158E-04
   9 F= -.66799967E+02 E0= -.66797515E+02  d E =0.116415E-08
quench:  g(F)=  0.000E+00 g(S)=  0.000E+00 dE (1.order)= 0.000E+00
 bond charge predicted
       N       E                     dE             d eps       ncg     rms          rms(c)
DAV:   1    -0.667999669288E+02    0.32742E-08   -0.10934E-09   120   0.169E-04    0.606E-05
RMM:   2    -0.667999669298E+02   -0.97862E-09    0.17674-226    10   0.110E-04
  10 F= -.66799967E+02 E0= -.66797516E+02  d E =-.261934E-09
quench:  g(F)=  0.000E+00 g(S)=  0.000E+00 dE (1.order)= 0.000E+00
 bond charge predicted
       N       E                     dE             d eps       ncg     rms          rms(c)
DAV:   1    -0.667999669296E+02   -0.84947E-09   -0.52522E-10    93   0.117E-04    0.450E-05
RMM:   2    -0.667999669293E+02    0.35834E-09    0.00000E+00     7   0.910E-05
  11 F= -.66799967E+02 E0= -.66797516E+02  d E =0.487489E-09
quench:  g(F)=  0.000E+00 g(S)=  0.000E+00 dE (1.order)= 0.000E+00
 bond charge predicted
       N       E                     dE             d eps       ncg     rms          rms(c)
DAV:   1    -0.667999669290E+02    0.62937E-09   -0.23659E-10    93   0.963E-05    0.319E-05
RMM:   2    -0.667999669295E+02   -0.51296E-09    0.00000E+00     7   0.683E-05
  12 F= -.66799967E+02 E0= -.66797516E+02  d E =-.241926E-09
quench:  g(F)=  0.000E+00 g(S)=  0.000E+00 dE (1.order)= 0.000E+00
 bond charge predicted
       N       E                     dE             d eps       ncg     rms          rms(c)
DAV:   1    -0.667999669299E+02   -0.88585E-09   -0.25592E-10    93   0.727E-05    0.261E-05
RMM:   2    -0.667999669291E+02    0.75306E-09    0.00000E+00     6   0.565E-05
  13 F= -.66799967E+02 E0= -.66797516E+02  d E =0.380169E-09
quench:  g(F)=  0.000E+00 g(S)=  0.000E+00 dE (1.order)= 0.000E+00
 bond charge predicted
       N       E                     dE             d eps       ncg     rms          rms(c)
DAV:   1    -0.667999669282E+02    0.17280E-08   -0.19523E-10    93   0.601E-05    0.185E-05
RMM:   2    -0.667999669294E+02   -0.12114E-08    0.00000E+00     6   0.435E-05
  14 F= -.66799967E+02 E0= -.66797516E+02  d E =-.236469E-09
quench:  g(F)=  0.000E+00 g(S)=  0.000E+00 dE (1.order)= 0.000E+00
 bond charge predicted
       N       E                     dE             d eps       ncg     rms          rms(c)
DAV:   1    -0.667999669300E+02   -0.18645E-08   -0.51882E-11    93   0.462E-05    0.142E-05
RMM:   2    -0.667999669291E+02    0.92768E-09    0.00000E+00     6   0.359E-05
  15 F= -.66799967E+02 E0= -.66797516E+02  d E =0.274667E-09
quench:  g(F)=  0.000E+00 g(S)=  0.000E+00 dE (1.order)= 0.000E+00
 bond charge predicted
       N       E                     dE             d eps       ncg     rms          rms(c)
DAV:   1    -0.667999669290E+02    0.99681E-09   -0.74951E-12    93   0.381E-05    0.111E-05
RMM:   2    -0.667999669292E+02   -0.18372E-09    0.00000E+00     4   0.279E-05
  16 F= -.66799967E+02 E0= -.66797516E+02  d E =-.114596E-09
quench:  g(F)=  0.000E+00 g(S)=  0.000E+00 dE (1.order)= 0.000E+00
 bond charge predicted
       N       E                     dE             d eps       ncg     rms          rms(c)
DAV:   1    -0.667999669285E+02    0.49840E-09   -0.25008E-11    93   0.298E-05    0.842E-06
RMM:   2    -0.667999669292E+02   -0.64756E-09    0.00000E+00     4   0.229E-05
  17 F= -.66799967E+02 E0= -.66797516E+02  d E =0.345608E-10
quench:  g(F)=  0.000E+00 g(S)=  0.000E+00 dE (1.order)= 0.000E+00
 bond charge predicted
       N       E                     dE             d eps       ncg     rms          rms(c)
DAV:   1    -0.667999669283E+02    0.22192E-09   -0.70062E-12    93   0.243E-05    0.685E-06
RMM:   2    -0.667999669291E+02   -0.79308E-09    0.00000E+00     4   0.180E-05
  18 F= -.66799967E+02 E0= -.66797516E+02  d E =0.763976E-10
quench:  g(F)=  0.000E+00 g(S)=  0.000E+00 dE (1.order)= 0.000E+00
 bond charge predicted
       N       E                     dE             d eps       ncg     rms          rms(c)
DAV:   1    -0.667999669300E+02   -0.16553E-08   -0.49008E-11    93   0.192E-05    0.524E-06
RMM:   2    -0.667999669290E+02    0.90586E-09    0.00000E+00     4   0.147E-05
  19 F= -.66799967E+02 E0= -.66797516E+02  d E =0.436557E-10
quench:  g(F)=  0.000E+00 g(S)=  0.000E+00 dE (1.order)= 0.000E+00
 bond charge predicted
       N       E                     dE             d eps       ncg     rms          rms(c)
DAV:   1    -0.667999669296E+02    0.36380E-09   -0.17221E-10    93   0.156E-05    0.434E-06
RMM:   2    -0.667999669291E+02    0.50932E-09    0.00000E+00     3   0.116E-05
  20 F= -.66799967E+02 E0= -.66797516E+02  d E =-.327418E-10
quench:  g(F)=  0.000E+00 g(S)=  0.000E+00 dE (1.order)= 0.000E+00
 bond charge predicted
       N       E                     dE             d eps       ncg     rms          rms(c)
DAV:   1    -0.667999669293E+02    0.27285E-09   -0.45574E-11    93   0.124E-05    0.322E-06
RMM:   2    -0.667999669291E+02    0.26012E-09    0.00000E+00     3   0.946E-06
  21 F= -.66799967E+02 E0= -.66797516E+02  d E =0.236469E-10
quench:  g(F)=  0.000E+00 g(S)=  0.000E+00 dE (1.order)= 0.000E+00
 bond charge predicted
       N       E                     dE             d eps       ncg     rms          rms(c)
DAV:   1    -0.667999669289E+02    0.45293E-09    0.39682E-11    93   0.100E-05    0.275E-06
RMM:   2    -0.667999669291E+02   -0.18917E-09    0.00000E+00     3   0.740E-06
  22 F= -.66799967E+02 E0= -.66797516E+02  d E =0.363798E-11
quench:  g(F)=  0.000E+00 g(S)=  0.000E+00 dE (1.order)= 0.000E+00
 bond charge predicted
       N       E                     dE             d eps       ncg     rms          rms(c)
DAV:   1    -0.667999669294E+02   -0.52751E-09    0.60690E-11    93   0.794E-06    0.201E-06
RMM:   2    -0.667999669289E+02    0.46930E-09    0.00000E+00     3   0.611E-06
  23 F= -.66799967E+02 E0= -.66797516E+02  d E =0.130967E-09
quench:  g(F)=  0.000E+00 g(S)=  0.000E+00 dE (1.order)= 0.000E+00
 bond charge predicted
       N       E                     dE             d eps       ncg     rms          rms(c)
DAV:   1    -0.667999669293E+02    0.12733E-09   -0.11096E-10    93   0.646E-06    0.174E-06
RMM:   2    -0.667999669290E+02    0.26375E-09    0.00000E+00     2   0.476E-06
  24 F= -.66799967E+02 E0= -.66797516E+02  d E =-.782165E-10
quench:  g(F)=  0.000E+00 g(S)=  0.000E+00 dE (1.order)= 0.000E+00
 bond charge predicted
       N       E                     dE             d eps       ncg     rms          rms(c)
DAV:   1    -0.667999669294E+02   -0.14916E-09   -0.69224E-11    93   0.513E-06    0.128E-06
RMM:   2    -0.667999669291E+02    0.33106E-09    0.00000E+00     2   0.392E-06
  25 F= -.66799967E+02 E0= -.66797516E+02  d E =-.818545E-10
quench:  g(F)=  0.000E+00 g(S)=  0.000E+00 dE (1.order)= 0.000E+00
 bond charge predicted
       N       E                     dE             d eps       ncg     rms          rms(c)
DAV:   1    -0.667999669294E+02    0.49113E-10    0.42863E-11    93   0.416E-06    0.110E-06
RMM:   2    -0.667999669290E+02    0.32560E-09    0.00000E+00     2   0.305E-06
  26 F= -.66799967E+02 E0= -.66797516E+02  d E =0.436557E-10
quench:  g(F)=  0.000E+00 g(S)=  0.000E+00 dE (1.order)= 0.000E+00
 bond charge predicted
       N       E                     dE             d eps       ncg     rms          rms(c)
DAV:   1    -0.667999669285E+02    0.90949E-09   -0.92331E-11    93   0.330E-06    0.789E-07
RMM:   2    -0.667999669289E+02   -0.47839E-09    0.00000E+00     2   0.252E-06
  27 F= -.66799967E+02 E0= -.66797516E+02  d E =0.105501E-09
quench:  g(F)=  0.000E+00 g(S)=  0.000E+00 dE (1.order)= 0.000E+00
 bond charge predicted
       N       E                     dE             d eps       ncg     rms          rms(c)
DAV:   1    -0.667999669289E+02   -0.42019E-09    0.44839E-11    93   0.267E-06    0.701E-07
RMM:   2    -0.667999669290E+02   -0.15461E-09    0.00000E+00     2   0.197E-06
  28 F= -.66799967E+02 E0= -.66797516E+02  d E =-.964064E-10
quench:  g(F)=  0.000E+00 g(S)=  0.000E+00 dE (1.order)= 0.000E+00
 bond charge predicted
       N       E                     dE             d eps       ncg     rms          rms(c)
DAV:   1    -0.667999669291E+02   -0.22192E-09   -0.45522E-11    93   0.214E-06    0.510E-07
RMM:   2    -0.667999669290E+02    0.90949E-10    0.00000E+00     2   0.164E-06
  29 F= -.66799967E+02 E0= -.66797516E+02  d E =0.236469E-10
quench:  g(F)=  0.000E+00 g(S)=  0.000E+00 dE (1.order)= 0.000E+00
 bond charge predicted
       N       E                     dE             d eps       ncg     rms          rms(c)
DAV:   1    -0.667999669287E+02    0.35288E-09   -0.12191E-11    93   0.174E-06    0.443E-07
RMM:   2    -0.667999669289E+02   -0.20373E-09    0.00000E+00     2   0.128E-06
  30 F= -.66799967E+02 E0= -.66797516E+02  d E =0.582077E-10
quench:  g(F)=  0.000E+00 g(S)=  0.000E+00 dE (1.order)= 0.000E+00
 bond charge predicted
       N       E                     dE             d eps       ncg     rms          rms(c)
DAV:   1    -0.667999669293E+02   -0.52205E-09   -0.34359E-11    93   0.139E-06    0.320E-07
RMM:   2    -0.667999669291E+02    0.14188E-09    0.00000E+00     2   0.106E-06
  31 F= -.66799967E+02 E0= -.66797516E+02  d E =-.176442E-09
quench:  g(F)=  0.000E+00 g(S)=  0.000E+00 dE (1.order)= 0.000E+00
 bond charge predicted
       N       E                     dE             d eps       ncg     rms          rms(c)
DAV:   1    -0.667999669290E+02    0.28194E-09    0.97622E-11    93   0.113E-06    0.285E-07
RMM:   2    -0.667999669290E+02    0.25466E-10    0.00000E+00     2   0.835E-07
  32 F= -.66799967E+02 E0= -.66797516E+02  d E =0.165528E-09
quench:  g(F)=  0.000E+00 g(S)=  0.000E+00 dE (1.order)= 0.000E+00
 bond charge predicted
       N       E                     dE             d eps       ncg     rms          rms(c)
DAV:   1    -0.667999669289E+02    0.83674E-10    0.16085E-11    93   0.910E-07    0.210E-07
RMM:   2    -0.667999669290E+02   -0.76398E-10    0.00000E+00     2   0.694E-07
  33 F= -.66799967E+02 E0= -.66797516E+02  d E =-.181899E-10
quench:  g(F)=  0.000E+00 g(S)=  0.000E+00 dE (1.order)= 0.000E+00
 bond charge predicted
       N       E                     dE             d eps       ncg     rms          rms(c)
DAV:   1    -0.667999669292E+02   -0.30195E-09   -0.33908E-11    93   0.741E-07    0.183E-07
RMM:   2    -0.667999669290E+02    0.22737E-09    0.00000E+00     2   0.546E-07
  34 F= -.66799967E+02 E0= -.66797516E+02  d E =0.181899E-11
quench:  g(F)=  0.000E+00 g(S)=  0.000E+00 dE (1.order)= 0.000E+00
 bond charge predicted
       N       E                     dE             d eps       ncg     rms          rms(c)
DAV:   1    -0.667999669287E+02    0.50568E-09    0.34870E-11    93   0.595E-07    0.134E-07
RMM:   2    -0.667999669291E+02   -0.36562E-09    0.00000E+00     2   0.455E-07
  35 F= -.66799967E+02 E0= -.66797516E+02  d E =-.873115E-10
quench:  g(F)=  0.000E+00 g(S)=  0.000E+00 dE (1.order)= 0.000E+00
 bond charge predicted
       N       E                     dE             d eps       ncg     rms          rms(c)
DAV:   1    -0.667999669289E+02   -0.22919E-09    0.27589E-11    93   0.486E-07    0.119E-07
RMM:   2    -0.667999669290E+02   -0.89130E-10    0.00000E+00     2   0.358E-07
  36 F= -.66799967E+02 E0= -.66797516E+02  d E =0.472937E-10
quench:  g(F)=  0.000E+00 g(S)=  0.000E+00 dE (1.order)= 0.000E+00
 bond charge predicted
       N       E                     dE             d eps       ncg     rms          rms(c)
DAV:   1    -0.667999669292E+02   -0.25830E-09   -0.61958E-11    93   0.391E-07    0.903E-08
RMM:   2    -0.667999669289E+02    0.24011E-09    0.00000E+00     2   0.298E-07
  37 F= -.66799967E+02 E0= -.66797516E+02  d E =0.709406E-10
quench:  g(F)=  0.000E+00 g(S)=  0.000E+00 dE (1.order)= 0.000E+00
 bond charge predicted
       N       E                     dE             d eps       ncg     rms          rms(c)
DAV:   1    -0.667999669284E+02    0.74215E-09    0.76553E-11    93   0.319E-07    0.777E-08
RMM:   2    -0.667999669289E+02   -0.49658E-09    0.00000E+00     2   0.235E-07
  38 F= -.66799967E+02 E0= -.66797516E+02  d E =0.545697E-11
quench:  g(F)=  0.000E+00 g(S)=  0.000E+00 dE (1.order)= 0.000E+00
 bond charge predicted
       N       E                     dE             d eps       ncg     rms          rms(c)
DAV:   1    -0.667999669295E+02   -0.10696E-08    0.84697E-11    93   0.256E-07    0.573E-08
RMM:   2    -0.667999669289E+02    0.59117E-09    0.00000E+00     2   0.196E-07
  39 F= -.66799967E+02 E0= -.66797516E+02  d E =0.181899E-10
quench:  g(F)=  0.000E+00 g(S)=  0.000E+00 dE (1.order)= 0.000E+00
 bond charge predicted
       N       E                     dE             d eps       ncg     rms          rms(c)
DAV:   1    -0.667999669287E+02    0.84401E-09    0.33934E-11    93   0.210E-07    0.508E-08
RMM:   2    -0.667999669290E+02   -0.28194E-09    0.00000E+00     2   0.155E-07
  40 F= -.66799967E+02 E0= -.66797516E+02  d E =-.291038E-10
quench:  g(F)=  0.000E+00 g(S)=  0.000E+00 dE (1.order)= 0.000E+00
 bond charge predicted
       N       E                     dE             d eps       ncg     rms          rms(c)
DAV:   1    -0.667999669292E+02   -0.53114E-09    0.67313E-11    93   0.169E-07    0.379E-08
RMM:   2    -0.667999669289E+02    0.25284E-09    0.00000E+00     2   0.129E-07
  41 F= -.66799967E+02 E0= -.66797516E+02  d E =0.363798E-11
quench:  g(F)=  0.000E+00 g(S)=  0.000E+00 dE (1.order)= 0.000E+00
 bond charge predicted
       N       E                     dE             d eps       ncg     rms          rms(c)
DAV:   1    -0.667999669297E+02   -0.45111E-09    0.10525E-10    93   0.138E-07    0.335E-08
RMM:   2    -0.667999669290E+02    0.67121E-09    0.00000E+00     2   0.102E-07
  42 F= -.66799967E+02 E0= -.66797516E+02  d E =-.327418E-10
quench:  g(F)=  0.000E+00 g(S)=  0.000E+00 dE (1.order)= 0.000E+00
 bond charge predicted
       N       E                     dE             d eps       ncg     rms          rms(c)
DAV:   1    -0.667999669289E+02    0.75852E-09   -0.54741E-11    93   0.111E-07    0.256E-08
RMM:   2    -0.667999669289E+02   -0.21828E-10    0.00000E+00     2   0.851E-08
  43 F= -.66799967E+02 E0= -.66797516E+02  d E =0.654836E-10
quench:  g(F)=  0.000E+00 g(S)=  0.000E+00 dE (1.order)= 0.000E+00
 bond charge predicted
       N       E                     dE             d eps       ncg     rms          rms(c)
DAV:   1    -0.667999669285E+02    0.41473E-09    0.13565E-11    93   0.911E-08    0.218E-08
RMM:   2    -0.667999669290E+02   -0.55843E-09    0.00000E+00     2   0.671E-08
  44 F= -.66799967E+02 E0= -.66797516E+02  d E =-.121872E-09
quench:  g(F)=  0.000E+00 g(S)=  0.000E+00 dE (1.order)= 0.000E+00
 bond charge predicted
       N       E                     dE             d eps       ncg     rms          rms(c)
DAV:   1    -0.667999669292E+02   -0.67666E-09    0.15502E-10    93   0.732E-08    0.162E-08
RMM:   2    -0.667999669290E+02    0.12005E-09    0.00000E+00     2   0.561E-08
  45 F= -.66799967E+02 E0= -.66797516E+02  d E =0.181899E-11
quench:  g(F)=  0.000E+00 g(S)=  0.000E+00 dE (1.order)= 0.000E+00
 bond charge predicted
       N       E                     dE             d eps       ncg     rms          rms(c)
DAV:   1    -0.667999669289E+02    0.30195E-09    0.14115E-10    93   0.600E-08    0.143E-08
RMM:   2    -0.667999669290E+02   -0.12005E-09    0.00000E+00     2   0.443E-08
  46 F= -.66799967E+02 E0= -.66797516E+02  d E =0.618456E-10
quench:  g(F)=  0.000E+00 g(S)=  0.000E+00 dE (1.order)= 0.000E+00
 bond charge predicted
       N       E                     dE             d eps       ncg     rms          rms(c)
DAV:   1    -0.667999669293E+02   -0.42201E-09    0.85744E-12    93   0.485E-08    0.110E-08
RMM:   2    -0.667999669290E+02    0.24738E-09    0.00000E+00     2   0.370E-08
  47 F= -.66799967E+02 E0= -.66797516E+02  d E =-.545697E-10
quench:  g(F)=  0.000E+00 g(S)=  0.000E+00 dE (1.order)= 0.000E+00
 bond charge predicted
       N       E                     dE             d eps       ncg     rms          rms(c)
DAV:   1    -0.667999669292E+02    0.69122E-10    0.15337E-10    87   0.397E-08    0.937E-09
RMM:   2    -0.667999669290E+02    0.22010E-09    0.00000E+00     1   0.292E-08
  48 F= -.66799967E+02 E0= -.66797516E+02  d E =0.418368E-10
quench:  g(F)=  0.000E+00 g(S)=  0.000E+00 dE (1.order)= 0.000E+00
 bond charge predicted
       N       E                     dE             d eps       ncg     rms          rms(c)
DAV:   1    -0.667999669295E+02   -0.32560E-09   -0.25176E-12    84   0.317E-08    0.706E-09
RMM:   2    -0.667999669290E+02    0.54206E-09    0.00000E+00     1   0.244E-08
  49 F= -.66799967E+02 E0= -.66797516E+02  d E =-.363798E-11
quench:  g(F)=  0.000E+00 g(S)=  0.000E+00 dE (1.order)= 0.000E+00
 bond charge predicted
       N       E                     dE             d eps       ncg     rms          rms(c)
DAV:   1    -0.667999669288E+02    0.75488E-09    0.60612E-11    84   0.261E-08    0.613E-09
RMM:   2    -0.667999669290E+02   -0.23829E-09    0.00000E+00     1   0.192E-08
  50 F= -.66799967E+02 E0= -.66797516E+02  d E =-.254659E-10
quench:  g(F)=  0.000E+00 g(S)=  0.000E+00 dE (1.order)= 0.000E+00
 bond charge predicted
       N       E                     dE             d eps       ncg     rms          rms(c)
DAV:   1    -0.667999669295E+02   -0.74033E-09    0.52601E-11    84   0.209E-08    0.487E-09
RMM:   2    -0.667999669290E+02    0.54933E-09    0.00000E+00     1   0.160E-08
  51 F= -.66799967E+02 E0= -.66797516E+02  d E =0.472937E-10
quench:  g(F)=  0.000E+00 g(S)=  0.000E+00 dE (1.order)= 0.000E+00
 bond charge predicted
       N       E                     dE             d eps       ncg     rms          rms(c)
DAV:   1    -0.667999669292E+02    0.28194E-09    0.37936E-11    84   0.172E-08    0.410E-09
RMM:   2    -0.667999669291E+02    0.16007E-09    0.00000E+00     1   0.127E-08
  52 F= -.66799967E+02 E0= -.66797516E+02  d E =-.107320E-09
quench:  g(F)=  0.000E+00 g(S)=  0.000E+00 dE (1.order)= 0.000E+00
 bond charge predicted
       N       E                     dE             d eps       ncg     rms          rms(c)
DAV:   1    -0.667999669286E+02    0.68394E-09    0.82541E-11    84   0.139E-08    0.306E-09
RMM:   2    -0.667999669290E+02   -0.45657E-09    0.00000E+00     1   0.106E-08
  53 F= -.66799967E+02 E0= -.66797516E+02  d E =0.673026E-10
quench:  g(F)=  0.000E+00 g(S)=  0.000E+00 dE (1.order)= 0.000E+00
 bond charge predicted
       N       E                     dE             d eps       ncg     rms          rms(c)
DAV:   1    -0.667999669292E+02   -0.66393E-09    0.12375E-11    84   0.114E-08    0.269E-09
RMM:   2    -0.667999669291E+02    0.15098E-09    0.00000E+00     1   0.837E-09
  54 F= -.66799967E+02 E0= -.66797516E+02  d E =-.563887E-10
quench:  g(F)=  0.000E+00 g(S)=  0.000E+00 dE (1.order)= 0.000E+00
 bond charge predicted
       N       E                     dE             d eps       ncg     rms          rms(c)
DAV:   1    -0.667999669289E+02    0.29650E-09   -0.59726E-12    84   0.897E-09    0.216E-09
RMM:   2    -0.667999669290E+02   -0.45475E-10    0.00000E+00     1   0.693E-09
  55 F= -.66799967E+02 E0= -.66797516E+02  d E =0.100044E-09
quench:  g(F)=  0.000E+00 g(S)=  0.000E+00 dE (1.order)= 0.000E+00
 bond charge predicted
       N       E                     dE             d eps       ncg     rms          rms(c)
DAV:   1    -0.667999669290E+02   -0.38199E-10    0.35838E-11    84   0.747E-09    0.187E-09
RMM:   2    -0.667999669291E+02   -0.12369E-09    0.00000E+00     1   0.553E-09
  56 F= -.66799967E+02 E0= -.66797516E+02  d E =-.116415E-09
quench:  g(F)=  0.000E+00 g(S)=  0.000E+00 dE (1.order)= 0.000E+00
 bond charge predicted
       N       E                     dE             d eps       ncg     rms          rms(c)
DAV:   1    -0.667999669292E+02   -0.29104E-09    0.23130E-11    84   0.590E-09    0.147E-09
RMM:   2    -0.667999669290E+02    0.23647E-09    0.00000E+00     1   0.454E-09
  57 F= -.66799967E+02 E0= -.66797516E+02  d E =0.691216E-10
quench:  g(F)=  0.000E+00 g(S)=  0.000E+00 dE (1.order)= 0.000E+00
 bond charge predicted
       N       E                     dE             d eps       ncg     rms          rms(c)
DAV:   1    -0.667999669291E+02    0.16917E-09    0.57110E-11    84   0.496E-09    0.117E-09
RMM:   2    -0.667999669289E+02    0.12915E-09    0.00000E+00     1   0.366E-09
  58 F= -.66799967E+02 E0= -.66797516E+02  d E =0.618456E-10
quench:  g(F)=  0.000E+00 g(S)=  0.000E+00 dE (1.order)= 0.000E+00
 bond charge predicted
       N       E                     dE             d eps       ncg     rms          rms(c)
DAV:   1    -0.667999669291E+02   -0.49113E-10    0.96838E-12    84   0.401E-09    0.868E-10
RMM:   2    -0.667999669290E+02    0.11642E-09    0.00000E+00     1   0.297E-09
  59 F= -.66799967E+02 E0= -.66797516E+02  d E =-.618456E-10
quench:  g(F)=  0.000E+00 g(S)=  0.000E+00 dE (1.order)= 0.000E+00
 bond charge predicted
       N       E                     dE             d eps       ncg     rms          rms(c)
DAV:   1    -0.667999669296E+02   -0.49295E-09    0.64995E-11    84   0.330E-09    0.740E-10
RMM:   2    -0.667999669290E+02    0.63301E-09    0.00000E+00     1   0.242E-09
  60 F= -.66799967E+02 E0= -.66797516E+02  d E =0.236469E-10
quench:  g(F)=  0.000E+00 g(S)=  0.000E+00 dE (1.order)= 0.000E+00
 bond charge predicted
       N       E                     dE             d eps       ncg     rms          rms(c)
DAV:   1    -0.667999669288E+02    0.85493E-09    0.49686E-11    84   0.290E-09    0.505E-10
RMM:   2    -0.667999669291E+02   -0.33469E-09    0.00000E+00     1   0.201E-09
  61 F= -.66799967E+02 E0= -.66797516E+02  d E =-.112777E-09
quench:  g(F)=  0.000E+00 g(S)=  0.000E+00 dE (1.order)= 0.000E+00
 bond charge predicted
       N       E                     dE             d eps       ncg     rms          rms(c)
DAV:   1    -0.667999669293E+02   -0.53842E-09    0.47566E-11    84   0.232E-09    0.555E-10
RMM:   2    -0.667999669290E+02    0.32560E-09    0.00000E+00     1   0.166E-09
  62 F= -.66799967E+02 E0= -.66797516E+02  d E =0.121872E-09
quench:  g(F)=  0.000E+00 g(S)=  0.000E+00 dE (1.order)= 0.000E+00
 bond charge predicted
       N       E                     dE             d eps       ncg     rms          rms(c)
DAV:   1    -0.667999669291E+02    0.23829E-09    0.47581E-11    84   0.177E-09    0.399E-10
RMM:   2    -0.667999669290E+02    0.27285E-10    0.00000E+00     1   0.133E-09
  63 F= -.66799967E+02 E0= -.66797516E+02  d E =-.600267E-10
quench:  g(F)=  0.000E+00 g(S)=  0.000E+00 dE (1.order)= 0.000E+00
 bond charge predicted
       N       E                     dE             d eps       ncg     rms          rms(c)
DAV:   1    -0.667999669296E+02   -0.51659E-09    0.18640E-11    84   0.137E-09    0.427E-10
RMM:   2    -0.667999669291E+02    0.47839E-09    0.00000E+00     1   0.109E-09
  64 F= -.66799967E+02 E0= -.66797516E+02  d E =-.654836E-10
quench:  g(F)=  0.000E+00 g(S)=  0.000E+00 dE (1.order)= 0.000E+00
 bond charge predicted
       N       E                     dE             d eps       ncg     rms          rms(c)
DAV:   1    -0.667999669295E+02    0.41837E-10    0.13468E-11    84   0.117E-09    0.376E-10
RMM:   2    -0.667999669290E+02    0.56389E-09    0.00000E+00     1   0.893E-10
  65 F= -.66799967E+02 E0= -.66797516E+02  d E =0.127329E-09
quench:  g(F)=  0.000E+00 g(S)=  0.000E+00 dE (1.order)= 0.000E+00
 bond charge predicted
       N       E                     dE             d eps       ncg     rms          rms(c)
DAV:   1    -0.667999669294E+02    0.15825E-09    0.36753E-11    84   0.104E-09    0.238E-10
RMM:   2    -0.667999669290E+02    0.40200E-09    0.00000E+00     1   0.742E-10
  66 F= -.66799967E+02 E0= -.66797516E+02  d E =-.363798E-11
quench:  g(F)=  0.000E+00 g(S)=  0.000E+00 dE (1.order)= 0.000E+00
 bond charge predicted
       N       E                     dE             d eps       ncg     rms          rms(c)
DAV:   1    -0.667999669292E+02    0.20373E-09    0.68245E-11    84   0.801E-10    0.232E-10
RMM:   2    -0.667999669290E+02    0.22555E-09    0.00000E+00     1   0.605E-10
  67 F= -.66799967E+02 E0= -.66797516E+02  d E =0.272848E-10
quench:  g(F)=  0.000E+00 g(S)=  0.000E+00 dE (1.order)= 0.000E+00
 bond charge predicted
       N       E                     dE             d eps       ncg     rms          rms(c)
DAV:   1    -0.667999669291E+02    0.11278E-09    0.12416E-11    84   0.639E-10    0.210E-10
RMM:   2    -0.667999669289E+02    0.11823E-09    0.00000E+00     1   0.488E-10
  68 F= -.66799967E+02 E0= -.66797516E+02  d E =0.545697E-11
quench:  g(F)=  0.000E+00 g(S)=  0.000E+00 dE (1.order)= 0.000E+00
 bond charge predicted
       N       E                     dE             d eps       ncg     rms          rms(c)
DAV:   1    -0.667999669281E+02    0.93314E-09    0.40902E-11    84   0.500E-10    0.263E-10
RMM:   2    -0.667999669290E+02   -0.88221E-09    0.00000E+00     1   0.422E-10
  69 F= -.66799967E+02 E0= -.66797516E+02  d E =-.673026E-10
quench:  g(F)=  0.000E+00 g(S)=  0.000E+00 dE (1.order)= 0.000E+00
 bond charge predicted
       N       E                     dE             d eps       ncg     rms          rms(c)
DAV:   1    -0.667999669291E+02   -0.97680E-09    0.94997E-12    84   0.459E-10    0.249E-10
RMM:   2    -0.667999669291E+02   -0.23647E-10    0.00000E+00     1   0.356E-10
  70 F= -.66799967E+02 E0= -.66797516E+02  d E =-.118234E-09
quench:  g(F)=  0.000E+00 g(S)=  0.000E+00 dE (1.order)= 0.000E+00
 bond charge predicted
       N       E                     dE             d eps       ncg     rms          rms(c)
DAV:   1    -0.667999669289E+02    0.18372E-09    0.30983E-11    84   0.420E-10    0.228E-10
RMM:   2    -0.667999669290E+02   -0.85493E-10    0.00000E+00     1   0.374E-10
  71 F= -.66799967E+02 E0= -.66797516E+02  d E =0.121872E-09
quench:  g(F)=  0.000E+00 g(S)=  0.000E+00 dE (1.order)= 0.000E+00
 bond charge predicted
       N       E                     dE             d eps       ncg     rms          rms(c)
DAV:   1    -0.667999669294E+02   -0.51841E-09    0.12867E-11    84   0.413E-10    0.215E-10
RMM:   2    -0.667999669291E+02    0.38926E-09    0.00000E+00     1   0.292E-10
  72 F= -.66799967E+02 E0= -.66797516E+02  d E =-.436557E-10
quench:  g(F)=  0.000E+00 g(S)=  0.000E+00 dE (1.order)= 0.000E+00
 bond charge predicted
       N       E                     dE             d eps       ncg     rms          rms(c)
DAV:   1    -0.667999669288E+02    0.60936E-09    0.93915E-11    84   0.336E-10    0.278E-10
RMM:   2    -0.667999669290E+02   -0.16189E-09    0.00000E+00     1   0.251E-10
  73 F= -.66799967E+02 E0= -.66797516E+02  d E =0.582077E-10
quench:  g(F)=  0.000E+00 g(S)=  0.000E+00 dE (1.order)= 0.000E+00
 bond charge predicted
       N       E                     dE             d eps       ncg     rms          rms(c)
DAV:   1    -0.667999669290E+02   -0.16735E-09    0.55510E-11    84   0.305E-10    0.186E-10
RMM:   2    -0.667999669290E+02   -0.27285E-10    0.00000E+00     1   0.221E-10
  74 F= -.66799967E+02 E0= -.66797516E+02  d E =-.327418E-10
quench:  g(F)=  0.000E+00 g(S)=  0.000E+00 dE (1.order)= 0.000E+00
 bond charge predicted
       N       E                     dE             d eps       ncg     rms          rms(c)
DAV:   1    -0.667999669283E+02    0.67303E-09    0.81268E-12    84   0.224E-10    0.163E-10
RMM:   2    -0.667999669291E+02   -0.77853E-09    0.00000E+00     1   0.184E-10
  75 F= -.66799967E+02 E0= -.66797516E+02  d E =-.782165E-10
quench:  g(F)=  0.000E+00 g(S)=  0.000E+00 dE (1.order)= 0.000E+00
 bond charge predicted
       N       E                     dE             d eps       ncg     rms          rms(c)
DAV:   1    -0.667999669293E+02   -0.98044E-09    0.52315E-11    84   0.190E-10    0.223E-10
RMM:   2    -0.667999669290E+02    0.29104E-09    0.00000E+00     1   0.169E-10
  76 F= -.66799967E+02 E0= -.66797516E+02  d E =0.891305E-10
quench:  g(F)=  0.000E+00 g(S)=  0.000E+00 dE (1.order)= 0.000E+00
 bond charge predicted
       N       E                     dE             d eps       ncg     rms          rms(c)
DAV:   1    -0.667999669290E+02    0.26193E-09    0.28011E-11    84   0.213E-10    0.233E-10
RMM:   2    -0.667999669291E+02   -0.56389E-10    0.00000E+00     1   0.169E-10
  77 F= -.66799967E+02 E0= -.66797516E+02  d E =-.854925E-10
quench:  g(F)=  0.000E+00 g(S)=  0.000E+00 dE (1.order)= 0.000E+00
 bond charge predicted
       N       E                     dE             d eps       ncg     rms          rms(c)
DAV:   1    -0.667999669294E+02   -0.31287E-09    0.75244E-11    84   0.189E-10    0.146E-10
RMM:   2    -0.667999669291E+02    0.29286E-09    0.00000E+00     1   0.139E-10
  78 F= -.66799967E+02 E0= -.66797516E+02  d E =0.363798E-10
quench:  g(F)=  0.000E+00 g(S)=  0.000E+00 dE (1.order)= 0.000E+00
 bond charge predicted
       N       E                     dE             d eps       ncg     rms          rms(c)
DAV:   1    -0.667999669286E+02    0.72760E-09    0.20804E-11    84   0.165E-10    0.317E-10
RMM:   2    -0.667999669290E+02   -0.40382E-09    0.00000E+00     1   0.183E-10
  79 F= -.66799967E+02 E0= -.66797516E+02  d E =0.309228E-10
quench:  g(F)=  0.000E+00 g(S)=  0.000E+00 dE (1.order)= 0.000E+00
 bond charge predicted
       N       E                     dE             d eps       ncg     rms          rms(c)
DAV:   1    -0.667999669291E+02   -0.46020E-09    0.61852E-11    84   0.198E-10    0.306E-10
RMM:   2    -0.667999669291E+02    0.00000E+00    0.00000E+00     1   0.167E-10
  80 F= -.66799967E+02 E0= -.66797516E+02  d E =-.563887E-10
quench:  g(F)=  0.000E+00 g(S)=  0.000E+00 dE (1.order)= 0.000E+00
 bond charge predicted
       N       E                     dE             d eps       ncg     rms          rms(c)
DAV:   1    -0.667999669287E+02    0.41291E-09    0.16658E-11    84   0.197E-10    0.217E-10
RMM:   2    -0.667999669291E+02   -0.37471E-09    0.00000E+00     1   0.136E-10
  81 F= -.66799967E+02 E0= -.66797516E+02  d E =0.381988E-10
quench:  g(F)=  0.000E+00 g(S)=  0.000E+00 dE (1.order)= 0.000E+00
 bond charge predicted
       N       E                     dE             d eps       ncg     rms          rms(c)
DAV:   1    -0.667999669287E+02    0.14552E-10    0.30855E-11    84   0.155E-10    0.310E-10
RMM:   2    -0.667999669291E+02   -0.41655E-09    0.00000E+00     1   0.144E-10
  82 F= -.66799967E+02 E0= -.66797516E+02  d E =-.272848E-10
quench:  g(F)=  0.000E+00 g(S)=  0.000E+00 dE (1.order)= 0.000E+00
 bond charge predicted
       N       E                     dE             d eps       ncg     rms          rms(c)
DAV:   1    -0.667999669291E+02   -0.48385E-09    0.49423E-11    84   0.160E-10    0.237E-10
RMM:   2    -0.667999669290E+02    0.12733E-09    0.00000E+00     1   0.157E-10
  83 F= -.66799967E+02 E0= -.66797516E+02  d E =0.600267E-10
quench:  g(F)=  0.000E+00 g(S)=  0.000E+00 dE (1.order)= 0.000E+00
 bond charge predicted
       N       E                     dE             d eps       ncg     rms          rms(c)
DAV:   1    -0.667999669285E+02    0.66211E-09    0.15521E-11    84   0.180E-10    0.268E-10
RMM:   2    -0.667999669290E+02   -0.51841E-09    0.00000E+00     1   0.156E-10
  84 F= -.66799967E+02 E0= -.66797516E+02  d E =0.163709E-10
quench:  g(F)=  0.000E+00 g(S)=  0.000E+00 dE (1.order)= 0.000E+00
 bond charge predicted
       N       E                     dE             d eps       ncg     rms          rms(c)
DAV:   1    -0.667999669295E+02   -0.96588E-09    0.85270E-12    84   0.146E-10    0.211E-10
RMM:   2    -0.667999669290E+02    0.42564E-09    0.00000E+00     1   0.150E-10
  85 F= -.66799967E+02 E0= -.66797516E+02  d E =-.218279E-10
quench:  g(F)=  0.000E+00 g(S)=  0.000E+00 dE (1.order)= 0.000E+00
 bond charge predicted
       N       E                     dE             d eps       ncg     rms          rms(c)
DAV:   1    -0.667999669288E+02    0.62391E-09    0.59446E-11    84   0.167E-10    0.236E-10
RMM:   2    -0.667999669290E+02   -0.18008E-09    0.00000E+00     1   0.149E-10
  86 F= -.66799967E+02 E0= -.66797516E+02  d E =0.181899E-10
quench:  g(F)=  0.000E+00 g(S)=  0.000E+00 dE (1.order)= 0.000E+00
 bond charge predicted
       N       E                     dE             d eps       ncg     rms          rms(c)
DAV:   1    -0.667999669286E+02    0.20191E-09    0.55137E-11    84   0.190E-10    0.176E-10
RMM:   2    -0.667999669289E+02   -0.30195E-09    0.00000E+00     1   0.105E-10
  87 F= -.66799967E+02 E0= -.66797516E+02  d E =0.800355E-10
quench:  g(F)=  0.000E+00 g(S)=  0.000E+00 dE (1.order)= 0.000E+00
 bond charge predicted
       N       E                     dE             d eps       ncg     rms          rms(c)
DAV:   1    -0.667999669288E+02   -0.21282E-09    0.55289E-11    84   0.123E-10    0.308E-10
RMM:   2    -0.667999669290E+02   -0.12551E-09    0.00000E+00     1   0.175E-10
  88 F= -.66799967E+02 E0= -.66797516E+02  d E =-.363798E-10
quench:  g(F)=  0.000E+00 g(S)=  0.000E+00 dE (1.order)= 0.000E+00
 bond charge predicted
       N       E                     dE             d eps       ncg     rms          rms(c)
DAV:   1    -0.667999669290E+02   -0.18190E-09    0.10332E-10    84   0.237E-10    0.227E-10
RMM:   2    -0.667999669291E+02   -0.63665E-10    0.00000E+00     1   0.169E-10
  89 F= -.66799967E+02 E0= -.66797516E+02  d E =-.120053E-09
quench:  g(F)=  0.000E+00 g(S)=  0.000E+00 dE (1.order)= 0.000E+00
 bond charge predicted
       N       E                     dE             d eps       ncg     rms          rms(c)
DAV:   1    -0.667999669287E+02    0.32742E-09    0.68149E-11    84   0.185E-10    0.150E-10
RMM:   2    -0.667999669291E+02   -0.36744E-09    0.00000E+00     1   0.168E-10
  90 F= -.66799967E+02 E0= -.66797516E+02  d E =0.236469E-10
quench:  g(F)=  0.000E+00 g(S)=  0.000E+00 dE (1.order)= 0.000E+00
 bond charge predicted
       N       E                     dE             d eps       ncg     rms          rms(c)
DAV:   1    -0.667999669289E+02   -0.18190E-09    0.38916E-11    84   0.135E-10    0.193E-10
RMM:   2    -0.667999669290E+02   -0.11278E-09    0.00000E+00     1   0.129E-10
  91 F= -.66799967E+02 E0= -.66797516E+02  d E =0.727596E-10
quench:  g(F)=  0.000E+00 g(S)=  0.000E+00 dE (1.order)= 0.000E+00
 bond charge predicted
       N       E                     dE             d eps       ncg     rms          rms(c)
DAV:   1    -0.667999669283E+02    0.56207E-09    0.19237E-11    84   0.169E-10    0.140E-10
RMM:   2    -0.667999669290E+02   -0.68394E-09    0.00000E+00     1   0.148E-10
  92 F= -.66799967E+02 E0= -.66797516E+02  d E =-.909495E-11
quench:  g(F)=  0.000E+00 g(S)=  0.000E+00 dE (1.order)= 0.000E+00
 bond charge predicted
       N       E                     dE             d eps       ncg     rms          rms(c)
DAV:   1    -0.667999669300E+02   -0.16444E-08   -0.86773E-12    84   0.142E-10    0.458E-10
RMM:   2    -0.667999669290E+02    0.93860E-09    0.00000E+00     1   0.214E-10
  93 F= -.66799967E+02 E0= -.66797516E+02  d E =-.218279E-10
quench:  g(F)=  0.000E+00 g(S)=  0.000E+00 dE (1.order)= 0.000E+00
 bond charge predicted
       N       E                     dE             d eps       ncg     rms          rms(c)
DAV:   1    -0.667999669289E+02    0.10896E-08    0.32159E-11    84   0.252E-10    0.217E-10
RMM:   2    -0.667999669290E+02   -0.15825E-09    0.00000E+00     1   0.172E-10
  94 F= -.66799967E+02 E0= -.66797516E+02  d E =-.727596E-11
quench:  g(F)=  0.000E+00 g(S)=  0.000E+00 dE (1.order)= 0.000E+00
 bond charge predicted
       N       E                     dE             d eps       ncg     rms          rms(c)
DAV:   1    -0.667999669293E+02   -0.40745E-09   -0.53311E-12    84   0.173E-10    0.173E-10
RMM:   2    -0.667999669290E+02    0.27103E-09    0.00000E+00     1   0.129E-10
  95 F= -.66799967E+02 E0= -.66797516E+02  d E =0.218279E-10
quench:  g(F)=  0.000E+00 g(S)=  0.000E+00 dE (1.order)= 0.000E+00
 bond charge predicted
       N       E                     dE             d eps       ncg     rms          rms(c)
DAV:   1    -0.667999669287E+02    0.57480E-09    0.22641E-11    84   0.149E-10    0.188E-10
RMM:   2    -0.667999669290E+02   -0.30377E-09    0.00000E+00     1   0.123E-10
  96 F= -.66799967E+02 E0= -.66797516E+02  d E =0.000000E+00
quench:  g(F)=  0.000E+00 g(S)=  0.000E+00 dE (1.order)= 0.000E+00
 bond charge predicted
       N       E                     dE             d eps       ncg     rms          rms(c)
DAV:   1    -0.667999669289E+02   -0.18008E-09    0.18431E-12    84   0.156E-10    0.119E-10
RMM:   2    -0.667999669291E+02   -0.18554E-09    0.00000E+00     1   0.961E-11
  97 F= -.66799967E+02 E0= -.66797516E+02  d E =-.618456E-10
quench:  g(F)=  0.000E+00 g(S)=  0.000E+00 dE (1.order)= 0.000E+00
 bond charge predicted
       N       E                     dE             d eps       ncg     rms          rms(c)
DAV:   1    -0.667999669284E+02    0.45839E-09   -0.11495E-11    84   0.119E-10    0.205E-10
RMM:   2    -0.667999669290E+02   -0.60027E-09    0.00000E+00     1   0.142E-10
  98 F= -.66799967E+02 E0= -.66797516E+02  d E =0.436557E-10
quench:  g(F)=  0.000E+00 g(S)=  0.000E+00 dE (1.order)= 0.000E+00
 bond charge predicted
       N       E                     dE             d eps       ncg     rms          rms(c)
DAV:   1    -0.667999669291E+02   -0.63119E-09    0.43821E-11    84   0.175E-10    0.170E-10
RMM:   2    -0.667999669291E+02   -0.58208E-10    0.00000E+00     1   0.120E-10
  99 F= -.66799967E+02 E0= -.66797516E+02  d E =-.891305E-10
quench:  g(F)=  0.000E+00 g(S)=  0.000E+00 dE (1.order)= 0.000E+00
 bond charge predicted
       N       E                     dE             d eps       ncg     rms          rms(c)
DAV:   1    -0.667999669299E+02   -0.82582E-09    0.84617E-11    84   0.127E-10    0.210E-10
RMM:   2    -0.667999669291E+02    0.80217E-09    0.00000E+00     1   0.130E-10
 100 F= -.66799967E+02 E0= -.66797516E+02  d E =0.345608E-10
quench:  g(F)=  0.000E+00 g(S)=  0.000E+00 dE (1.order)= 0.000E+00
 bond charge predicted
       N       E                     dE             d eps       ncg     rms          rms(c)
DAV:   1    -0.667999669290E+02    0.85493E-09    0.64878E-11    84   0.172E-10    0.322E-10
RMM:   2    -0.667999669290E+02    0.36380E-11    0.00000E+00     1   0.158E-10
 101 F= -.66799967E+02 E0= -.66797516E+02  d E =0.563887E-10
quench:  g(F)=  0.000E+00 g(S)=  0.000E+00 dE (1.order)= 0.000E+00
 bond charge predicted
       N       E                     dE             d eps       ncg     rms          rms(c)
DAV:   1    -0.667999669288E+02    0.27103E-09   -0.37419E-12    84   0.208E-10    0.221E-10
RMM:   2    -0.667999669290E+02   -0.21100E-09    0.00000E+00     1   0.144E-10
 102 F= -.66799967E+02 E0= -.66797516E+02  d E =0.563887E-10
quench:  g(F)=  0.000E+00 g(S)=  0.000E+00 dE (1.order)= 0.000E+00
 bond charge predicted
       N       E                     dE             d eps       ncg     rms          rms(c)
DAV:   1    -0.667999669293E+02   -0.54570E-09    0.67028E-11    84   0.191E-10    0.181E-10
RMM:   2    -0.667999669290E+02    0.25830E-09    0.00000E+00     1   0.135E-10
 103 F= -.66799967E+02 E0= -.66797516E+02  d E =-.763976E-10
quench:  g(F)=  0.000E+00 g(S)=  0.000E+00 dE (1.order)= 0.000E+00
 bond charge predicted
       N       E                     dE             d eps       ncg     rms          rms(c)
DAV:   1    -0.667999669298E+02   -0.49477E-09    0.10943E-10    84   0.152E-10    0.165E-10
RMM:   2    -0.667999669290E+02    0.76761E-09    0.00000E+00     1   0.107E-10
 104 F= -.66799967E+02 E0= -.66797516E+02  d E =0.145519E-10
quench:  g(F)=  0.000E+00 g(S)=  0.000E+00 dE (1.order)= 0.000E+00
 bond charge predicted
       N       E                     dE             d eps       ncg     rms          rms(c)
DAV:   1    -0.667999669286E+02    0.11478E-08    0.47555E-11    84   0.106E-10    0.286E-10
RMM:   2    -0.667999669290E+02   -0.31287E-09    0.00000E+00     1   0.138E-10
 105 F= -.66799967E+02 E0= -.66797516E+02  d E =0.673026E-10
quench:  g(F)=  0.000E+00 g(S)=  0.000E+00 dE (1.order)= 0.000E+00
 bond charge predicted
       N       E                     dE             d eps       ncg     rms          rms(c)
DAV:   1    -0.667999669290E+02   -0.37471E-09    0.32603E-11    84   0.203E-10    0.153E-10
RMM:   2    -0.667999669290E+02    0.32742E-10    0.00000E+00     1   0.119E-10
 106 F= -.66799967E+02 E0= -.66797516E+02  d E =-.291038E-10
quench:  g(F)=  0.000E+00 g(S)=  0.000E+00 dE (1.order)= 0.000E+00
 bond charge predicted
       N       E                     dE             d eps       ncg     rms          rms(c)
DAV:   1    -0.667999669294E+02   -0.33833E-09    0.59223E-11    84   0.133E-10    0.200E-10
RMM:   2    -0.667999669290E+02    0.32742E-09    0.00000E+00     1   0.163E-10
 107 F= -.66799967E+02 E0= -.66797516E+02  d E =-.436557E-10
quench:  g(F)=  0.000E+00 g(S)=  0.000E+00 dE (1.order)= 0.000E+00
 bond charge predicted
       N       E                     dE             d eps       ncg     rms          rms(c)
DAV:   1    -0.667999669288E+02    0.55479E-09    0.39353E-11    84   0.200E-10    0.453E-10
RMM:   2    -0.667999669291E+02   -0.24556E-09    0.00000E+00     1   0.220E-10
 108 F= -.66799967E+02 E0= -.66797516E+02  d E =-.181899E-10
quench:  g(F)=  0.000E+00 g(S)=  0.000E+00 dE (1.order)= 0.000E+00
 bond charge predicted
       N       E                     dE             d eps       ncg     rms          rms(c)
DAV:   1    -0.667999669292E+02   -0.35106E-09    0.16846E-11    84   0.310E-10    0.132E-10
RMM:   2    -0.667999669291E+02    0.94587E-10    0.00000E+00     1   0.138E-10
 109 F= -.66799967E+02 E0= -.66797516E+02  d E =-.109139E-10
quench:  g(F)=  0.000E+00 g(S)=  0.000E+00 dE (1.order)= 0.000E+00
 bond charge predicted
       N       E                     dE             d eps       ncg     rms          rms(c)
DAV:   1    -0.667999669297E+02   -0.51296E-09    0.26735E-11    84   0.142E-10    0.250E-10
RMM:   2    -0.667999669290E+02    0.65847E-09    0.00000E+00     1   0.124E-10
 110 F= -.66799967E+02 E0= -.66797516E+02  d E =0.509317E-10
quench:  g(F)=  0.000E+00 g(S)=  0.000E+00 dE (1.order)= 0.000E+00
 bond charge predicted
       N       E                     dE             d eps       ncg     rms          rms(c)
DAV:   1    -0.667999669286E+02    0.10205E-08    0.13988E-11    84   0.148E-10    0.285E-10
RMM:   2    -0.667999669291E+02   -0.42019E-09    0.00000E+00     1   0.146E-10
 111 F= -.66799967E+02 E0= -.66797516E+02  d E =-.582077E-10
quench:  g(F)=  0.000E+00 g(S)=  0.000E+00 dE (1.order)= 0.000E+00
 bond charge predicted
       N       E                     dE             d eps       ncg     rms          rms(c)
DAV:   1    -0.667999669288E+02   -0.14552E-09    0.13099E-11    84   0.182E-10    0.183E-10
RMM:   2    -0.667999669290E+02   -0.22374E-09    0.00000E+00     1   0.107E-10
 112 F= -.66799967E+02 E0= -.66797516E+02  d E =0.509317E-10
quench:  g(F)=  0.000E+00 g(S)=  0.000E+00 dE (1.order)= 0.000E+00
 bond charge predicted
       N       E                     dE             d eps       ncg     rms          rms(c)
DAV:   1    -0.667999669290E+02   -0.17644E-09    0.36024E-11    84   0.126E-10    0.228E-10
RMM:   2    -0.667999669290E+02   -0.58208E-10    0.00000E+00     1   0.146E-10
 113 F= -.66799967E+02 E0= -.66797516E+02  d E =-.109139E-10
quench:  g(F)=  0.000E+00 g(S)=  0.000E+00 dE (1.order)= 0.000E+00
 bond charge predicted
       N       E                     dE             d eps       ncg     rms          rms(c)
DAV:   1    -0.667999669290E+02   -0.20009E-10    0.45953E-11    84   0.201E-10    0.142E-10
RMM:   2    -0.667999669290E+02    0.36380E-11    0.00000E+00     0   0.113E-10
 114 F= -.66799967E+02 E0= -.66797516E+02  d E =0.418368E-10
quench:  g(F)=  0.000E+00 g(S)=  0.000E+00 dE (1.order)= 0.000E+00
 bond charge predicted
       N       E                     dE             d eps       ncg     rms          rms(c)
DAV:   1    -0.667999669281E+02    0.91131E-09    0.47068E-11    84   0.125E-10    0.191E-10
RMM:   2    -0.667999669291E+02   -0.99499E-09    0.00000E+00     1   0.138E-10
 115 F= -.66799967E+02 E0= -.66797516E+02  d E =-.873115E-10
quench:  g(F)=  0.000E+00 g(S)=  0.000E+00 dE (1.order)= 0.000E+00
 bond charge predicted
       N       E                     dE             d eps       ncg     rms          rms(c)
DAV:   1    -0.667999669291E+02   -0.10696E-08    0.69286E-11    84   0.184E-10    0.206E-10
RMM:   2    -0.667999669290E+02    0.13461E-09    0.00000E+00     0   0.138E-10
 116 F= -.66799967E+02 E0= -.66797516E+02  d E =0.600267E-10
quench:  g(F)=  0.000E+00 g(S)=  0.000E+00 dE (1.order)= 0.000E+00
 bond charge predicted
       N       E                     dE             d eps       ncg     rms          rms(c)
DAV:   1    -0.667999669294E+02   -0.29831E-09    0.80630E-11    84   0.144E-10    0.333E-10
RMM:   2    -0.667999669290E+02    0.40200E-09    0.00000E+00     1   0.155E-10
 117 F= -.66799967E+02 E0= -.66797516E+02  d E =-.309228E-10
quench:  g(F)=  0.000E+00 g(S)=  0.000E+00 dE (1.order)= 0.000E+00
 bond charge predicted
       N       E                     dE             d eps       ncg     rms          rms(c)
DAV:   1    -0.667999669290E+02    0.46748E-09    0.12124E-11    84   0.204E-10    0.233E-10
RMM:   2    -0.667999669290E+02   -0.30923E-10    0.00000E+00     0   0.146E-10
 118 F= -.66799967E+02 E0= -.66797516E+02  d E =0.345608E-10
quench:  g(F)=  0.000E+00 g(S)=  0.000E+00 dE (1.order)= 0.000E+00
 bond charge predicted
       N       E                     dE             d eps       ncg     rms          rms(c)
DAV:   1    -0.667999669289E+02    0.89130E-10    0.52303E-11    84   0.153E-10    0.221E-10
RMM:   2    -0.667999669291E+02   -0.21100E-09    0.00000E+00     1   0.152E-10
 119 F= -.66799967E+02 E0= -.66797516E+02  d E =-.909495E-10
quench:  g(F)=  0.000E+00 g(S)=  0.000E+00 dE (1.order)= 0.000E+00
 bond charge predicted
       N       E                     dE             d eps       ncg     rms          rms(c)
DAV:   1    -0.667999669292E+02   -0.28558E-09    0.10396E-11    84   0.174E-10    0.253E-10
RMM:   2    -0.667999669290E+02    0.14370E-09    0.00000E+00     0   0.162E-10
 120 F= -.66799967E+02 E0= -.66797516E+02  d E =0.691216E-10
quench:  g(F)=  0.000E+00 g(S)=  0.000E+00 dE (1.order)= 0.000E+00
 bond charge predicted
       N       E                     dE             d eps       ncg     rms          rms(c)
DAV:   1    -0.667999669296E+02   -0.45657E-09    0.56722E-11    84   0.196E-10    0.234E-10
RMM:   2    -0.667999669290E+02    0.67303E-09    0.00000E+00     1   0.145E-10
 121 F= -.66799967E+02 E0= -.66797516E+02  d E =0.727596E-10
quench:  g(F)=  0.000E+00 g(S)=  0.000E+00 dE (1.order)= 0.000E+00
 bond charge predicted
       N       E                     dE             d eps       ncg     rms          rms(c)
DAV:   1    -0.667999669291E+02    0.51477E-09   -0.13212E-11    84   0.184E-10    0.173E-10
RMM:   2    -0.667999669291E+02    0.16371E-10    0.00000E+00     0   0.176E-10
 122 F= -.66799967E+02 E0= -.66797516E+02  d E =-.141881E-09
quench:  g(F)=  0.000E+00 g(S)=  0.000E+00 dE (1.order)= 0.000E+00
 bond charge predicted
       N       E                     dE             d eps       ncg     rms          rms(c)
DAV:   1    -0.667999669292E+02   -0.10550E-09    0.60588E-11    84   0.178E-10    0.164E-10
RMM:   2    -0.667999669290E+02    0.18190E-09    0.00000E+00     1   0.137E-10
 123 F= -.66799967E+02 E0= -.66797516E+02  d E =0.600267E-10
quench:  g(F)=  0.000E+00 g(S)=  0.000E+00 dE (1.order)= 0.000E+00
 bond charge predicted
       N       E                     dE             d eps       ncg     rms          rms(c)
DAV:   1    -0.667999669286E+02    0.61118E-09    0.19404E-11    84   0.149E-10    0.133E-10
RMM:   2    -0.667999669290E+02   -0.36562E-09    0.00000E+00     0   0.108E-10
 124 F= -.66799967E+02 E0= -.66797516E+02  d E =0.636646E-10
quench:  g(F)=  0.000E+00 g(S)=  0.000E+00 dE (1.order)= 0.000E+00
 bond charge predicted
       N       E                     dE             d eps       ncg     rms          rms(c)
DAV:   1    -0.667999669292E+02   -0.55661E-09    0.47357E-11    84   0.136E-10    0.177E-10
RMM:   2    -0.667999669290E+02    0.13279E-09    0.00000E+00     1   0.111E-10
 125 F= -.66799967E+02 E0= -.66797516E+02  d E =-.582077E-10
quench:  g(F)=  0.000E+00 g(S)=  0.000E+00 dE (1.order)= 0.000E+00
 bond charge predicted
       N       E                     dE             d eps       ncg     rms          rms(c)
DAV:   1    -0.667999669290E+02    0.13097E-09    0.53285E-11    84   0.151E-10    0.176E-10
RMM:   2    -0.667999669291E+02   -0.38199E-10    0.00000E+00     0   0.119E-10
 126 F= -.66799967E+02 E0= -.66797516E+02  d E =-.400178E-10
quench:  g(F)=  0.000E+00 g(S)=  0.000E+00 dE (1.order)= 0.000E+00
 bond charge predicted
       N       E                     dE             d eps       ncg     rms          rms(c)
DAV:   1    -0.667999669291E+02   -0.34561E-10    0.19188E-11    84   0.140E-10    0.264E-10
RMM:   2    -0.667999669290E+02    0.72760E-10    0.00000E+00     1   0.146E-10
 127 F= -.66799967E+02 E0= -.66797516E+02  d E =0.763976E-10
quench:  g(F)=  0.000E+00 g(S)=  0.000E+00 dE (1.order)= 0.000E+00
 bond charge predicted
       N       E                     dE             d eps       ncg     rms          rms(c)
DAV:   1    -0.667999669291E+02   -0.29104E-10    0.20526E-11    84   0.183E-10    0.930E-11
RMM:   2    -0.667999669291E+02    0.25466E-10    0.00000E+00     0   0.131E-10
 128 F= -.66799967E+02 E0= -.66797516E+02  d E =-.763976E-10
quench:  g(F)=  0.000E+00 g(S)=  0.000E+00 dE (1.order)= 0.000E+00
 bond charge predicted
       N       E                     dE             d eps       ncg     rms          rms(c)
DAV:   1    -0.667999669293E+02   -0.23283E-09    0.32149E-11    84   0.120E-10    0.243E-10
RMM:   2    -0.667999669291E+02    0.21282E-09    0.00000E+00     1   0.139E-10
 129 F= -.66799967E+02 E0= -.66797516E+02  d E =-.454747E-10
quench:  g(F)=  0.000E+00 g(S)=  0.000E+00 dE (1.order)= 0.000E+00
 bond charge predicted
       N       E                     dE             d eps       ncg     rms          rms(c)
DAV:   1    -0.667999669292E+02    0.89130E-10    0.49478E-11    84   0.163E-10    0.167E-10
RMM:   2    -0.667999669290E+02    0.20736E-09    0.00000E+00     0   0.110E-10
 130 F= -.66799967E+02 E0= -.66797516E+02  d E =0.836735E-10
quench:  g(F)=  0.000E+00 g(S)=  0.000E+00 dE (1.order)= 0.000E+00
 bond charge predicted
       N       E                     dE             d eps       ncg     rms          rms(c)
DAV:   1    -0.667999669290E+02    0.23465E-09    0.36450E-12    84   0.133E-10    0.250E-10
RMM:   2    -0.667999669290E+02    0.47294E-10    0.00000E+00     1   0.140E-10
 131 F= -.66799967E+02 E0= -.66797516E+02  d E =0.745786E-10
quench:  g(F)=  0.000E+00 g(S)=  0.000E+00 dE (1.order)= 0.000E+00
 bond charge predicted
       N       E                     dE             d eps       ncg     rms          rms(c)
DAV:   1    -0.667999669284E+02    0.61300E-09    0.37658E-11    84   0.193E-10    0.288E-10
RMM:   2    -0.667999669290E+02   -0.64574E-09    0.00000E+00     0   0.159E-10
 132 F= -.66799967E+02 E0= -.66797516E+02  d E =-.800355E-10
quench:  g(F)=  0.000E+00 g(S)=  0.000E+00 dE (1.order)= 0.000E+00
 bond charge predicted
       N       E                     dE             d eps       ncg     rms          rms(c)
DAV:   1    -0.667999669291E+02   -0.69849E-09    0.36015E-11    84   0.207E-10    0.183E-10
RMM:   2    -0.667999669290E+02    0.72760E-10    0.00000E+00     1   0.126E-10
 133 F= -.66799967E+02 E0= -.66797516E+02  d E =0.200089E-10
quench:  g(F)=  0.000E+00 g(S)=  0.000E+00 dE (1.order)= 0.000E+00
 bond charge predicted
       N       E                     dE             d eps       ncg     rms          rms(c)
DAV:   1    -0.667999669297E+02   -0.56571E-09   -0.23822E-11    84   0.133E-10    0.232E-10
RMM:   2    -0.667999669290E+02    0.65484E-09    0.00000E+00     0   0.153E-10
 134 F= -.66799967E+02 E0= -.66797516E+02  d E =0.163709E-10
quench:  g(F)=  0.000E+00 g(S)=  0.000E+00 dE (1.order)= 0.000E+00
 bond charge predicted
       N       E                     dE             d eps       ncg     rms          rms(c)
DAV:   1    -0.667999669291E+02    0.54388E-09    0.73538E-11    84   0.171E-10    0.256E-10
RMM:   2    -0.667999669291E+02   -0.18190E-11    0.00000E+00     1   0.140E-10
 135 F= -.66799967E+02 E0= -.66797516E+02  d E =-.112777E-09
quench:  g(F)=  0.000E+00 g(S)=  0.000E+00 dE (1.order)= 0.000E+00
 bond charge predicted
       N       E                     dE             d eps       ncg     rms          rms(c)
DAV:   1    -0.667999669285E+02    0.58208E-09    0.27756E-11    84   0.169E-10    0.183E-10
RMM:   2    -0.667999669291E+02   -0.52569E-09    0.00000E+00     0   0.166E-10
 136 F= -.66799967E+02 E0= -.66797516E+02  d E =0.582077E-10
quench:  g(F)=  0.000E+00 g(S)=  0.000E+00 dE (1.order)= 0.000E+00
 bond charge predicted
       N       E                     dE             d eps       ncg     rms          rms(c)
DAV:   1    -0.667999669291E+02   -0.52387E-09    0.20216E-11    84   0.192E-10    0.289E-10
RMM:   2    -0.667999669290E+02    0.10914E-10    0.00000E+00     1   0.142E-10
 137 F= -.66799967E+02 E0= -.66797516E+02  d E =0.127329E-10
quench:  g(F)=  0.000E+00 g(S)=  0.000E+00 dE (1.order)= 0.000E+00
 bond charge predicted
       N       E                     dE             d eps       ncg     rms          rms(c)
DAV:   1    -0.667999669286E+02    0.45839E-09    0.52468E-12    84   0.178E-10    0.978E-11
RMM:   2    -0.667999669290E+02   -0.42564E-09    0.00000E+00     0   0.889E-11
 138 F= -.66799967E+02 E0= -.66797516E+02  d E =0.218279E-10
quench:  g(F)=  0.000E+00 g(S)=  0.000E+00 dE (1.order)= 0.000E+00
 bond charge predicted
       N       E                     dE             d eps       ncg     rms          rms(c)
DAV:   1    -0.667999669291E+02   -0.45839E-09    0.76446E-11    84   0.108E-10    0.338E-10
RMM:   2    -0.667999669291E+02   -0.47294E-10    0.00000E+00     1   0.160E-10
 139 F= -.66799967E+02 E0= -.66797516E+02  d E =-.800355E-10
quench:  g(F)=  0.000E+00 g(S)=  0.000E+00 dE (1.order)= 0.000E+00
 bond charge predicted
       N       E                     dE             d eps       ncg     rms          rms(c)
DAV:   1    -0.667999669294E+02   -0.35652E-09    0.68843E-11    84   0.221E-10    0.140E-10
RMM:   2    -0.667999669290E+02    0.46202E-09    0.00000E+00     0   0.143E-10
 140 F= -.66799967E+02 E0= -.66797516E+02  d E =0.152795E-09
quench:  g(F)=  0.000E+00 g(S)=  0.000E+00 dE (1.order)= 0.000E+00
 bond charge predicted
       N       E                     dE             d eps       ncg     rms          rms(c)
DAV:   1    -0.667999669287E+02    0.67485E-09    0.26602E-11    84   0.164E-10    0.390E-10
RMM:   2    -0.667999669291E+02   -0.32742E-09    0.00000E+00     1   0.216E-10
 141 F= -.66799967E+02 E0= -.66797516E+02  d E =-.114596E-09
quench:  g(F)=  0.000E+00 g(S)=  0.000E+00 dE (1.order)= 0.000E+00
 bond charge predicted
       N       E                     dE             d eps       ncg     rms          rms(c)
DAV:   1    -0.667999669289E+02   -0.12369E-09    0.80393E-11    84   0.268E-10    0.217E-10
RMM:   2    -0.667999669290E+02   -0.12369E-09    0.00000E+00     0   0.156E-10
 142 F= -.66799967E+02 E0= -.66797516E+02  d E =0.800355E-10
quench:  g(F)=  0.000E+00 g(S)=  0.000E+00 dE (1.order)= 0.000E+00
 bond charge predicted
       N       E                     dE             d eps       ncg     rms          rms(c)
DAV:   1    -0.667999669290E+02   -0.15461E-09    0.20516E-11    84   0.167E-10    0.160E-10
RMM:   2    -0.667999669290E+02   -0.54570E-11    0.00000E+00     1   0.128E-10
 143 F= -.66799967E+02 E0= -.66797516E+02  d E =-.363798E-10
quench:  g(F)=  0.000E+00 g(S)=  0.000E+00 dE (1.order)= 0.000E+00
 bond charge predicted
       N       E                     dE             d eps       ncg     rms          rms(c)
DAV:   1    -0.667999669290E+02    0.16371E-10    0.58628E-11    84   0.163E-10    0.215E-10
RMM:   2    -0.667999669289E+02    0.65484E-10    0.00000E+00     0   0.139E-10
 144 F= -.66799967E+02 E0= -.66797516E+02  d E =0.873115E-10
quench:  g(F)=  0.000E+00 g(S)=  0.000E+00 dE (1.order)= 0.000E+00
 bond charge predicted
       N       E                     dE             d eps       ncg     rms          rms(c)
DAV:   1    -0.667999669289E+02    0.12915E-09    0.96717E-12    84   0.162E-10    0.174E-10
RMM:   2    -0.667999669290E+02   -0.14734E-09    0.00000E+00     1   0.122E-10
 145 F= -.66799967E+02 E0= -.66797516E+02  d E =-.836735E-10
quench:  g(F)=  0.000E+00 g(S)=  0.000E+00 dE (1.order)= 0.000E+00
 bond charge predicted
       N       E                     dE             d eps       ncg     rms          rms(c)
DAV:   1    -0.667999669293E+02   -0.41473E-09    0.68635E-11    84   0.145E-10    0.272E-10
RMM:   2    -0.667999669290E+02    0.29650E-09    0.00000E+00     0   0.134E-10
 146 F= -.66799967E+02 E0= -.66797516E+02  d E =0.291038E-10
quench:  g(F)=  0.000E+00 g(S)=  0.000E+00 dE (1.order)= 0.000E+00
 bond charge predicted
       N       E                     dE             d eps       ncg     rms          rms(c)
DAV:   1    -0.667999669289E+02    0.40382E-09    0.30665E-11    84   0.179E-10    0.367E-10
RMM:   2    -0.667999669291E+02   -0.24193E-09    0.00000E+00     1   0.167E-10
 147 F= -.66799967E+02 E0= -.66797516E+02  d E =-.134605E-09
quench:  g(F)=  0.000E+00 g(S)=  0.000E+00 dE (1.order)= 0.000E+00
 bond charge predicted
       N       E                     dE             d eps       ncg     rms          rms(c)
DAV:   1    -0.667999669291E+02   -0.24193E-09    0.61740E-11    84   0.248E-10    0.195E-10
RMM:   2    -0.667999669290E+02    0.10914E-09    0.00000E+00     0   0.191E-10
 148 F= -.66799967E+02 E0= -.66797516E+02  d E =0.109139E-09
quench:  g(F)=  0.000E+00 g(S)=  0.000E+00 dE (1.order)= 0.000E+00
 bond charge predicted
       N       E                     dE             d eps       ncg     rms          rms(c)
DAV:   1    -0.667999669293E+02   -0.15098E-09    0.65651E-11    84   0.187E-10    0.157E-10
RMM:   2    -0.667999669290E+02    0.25648E-09    0.00000E+00     1   0.127E-10
 149 F= -.66799967E+02 E0= -.66797516E+02  d E =-.363798E-11
quench:  g(F)=  0.000E+00 g(S)=  0.000E+00 dE (1.order)= 0.000E+00
 bond charge predicted
       N       E                     dE             d eps       ncg     rms          rms(c)
DAV:   1    -0.667999669292E+02    0.76398E-10    0.10053E-10    84   0.141E-10    0.154E-10
RMM:   2    -0.667999669290E+02    0.16735E-09    0.00000E+00     0   0.103E-10
 150 F= -.66799967E+02 E0= -.66797516E+02  d E =-.127329E-10
quench:  g(F)=  0.000E+00 g(S)=  0.000E+00 dE (1.order)= 0.000E+00
 bond charge predicted
       N       E                     dE             d eps       ncg     rms          rms(c)
DAV:   1    -0.667999669291E+02    0.14370E-09    0.62688E-11    84   0.121E-10    0.134E-10
RMM:   2    -0.667999669289E+02    0.12733E-09    0.00000E+00     1   0.131E-10
 151 F= -.66799967E+02 E0= -.66797516E+02  d E =0.103682E-09
quench:  g(F)=  0.000E+00 g(S)=  0.000E+00 dE (1.order)= 0.000E+00
 bond charge predicted
       N       E                     dE             d eps       ncg     rms          rms(c)
DAV:   1    -0.667999669297E+02   -0.64210E-09    0.64260E-11    84   0.119E-10    0.255E-10
RMM:   2    -0.667999669291E+02    0.60754E-09    0.00000E+00     0   0.150E-10
 152 F= -.66799967E+02 E0= -.66797516E+02  d E =-.161890E-09
quench:  g(F)=  0.000E+00 g(S)=  0.000E+00 dE (1.order)= 0.000E+00
 bond charge predicted
       N       E                     dE             d eps       ncg     rms          rms(c)
DAV:   1    -0.667999669287E+02    0.10223E-08   -0.17676E-11    84   0.185E-10    0.118E-10
RMM:   2    -0.667999669291E+02   -0.43656E-09    0.00000E+00     1   0.123E-10
 153 F= -.66799967E+02 E0= -.66797516E+02  d E =-.218279E-10
quench:  g(F)=  0.000E+00 g(S)=  0.000E+00 dE (1.order)= 0.000E+00
 bond charge predicted
       N       E                     dE             d eps       ncg     rms          rms(c)
DAV:   1    -0.667999669302E+02   -0.15680E-08    0.41219E-11    84   0.136E-10    0.225E-10
RMM:   2    -0.667999669290E+02    0.12860E-08    0.00000E+00     0   0.161E-10
 154 F= -.66799967E+02 E0= -.66797516E+02  d E =0.154614E-09
quench:  g(F)=  0.000E+00 g(S)=  0.000E+00 dE (1.order)= 0.000E+00
 bond charge predicted
       N       E                     dE             d eps       ncg     rms          rms(c)
DAV:   1    -0.667999669285E+02    0.17662E-08    0.48353E-11    84   0.195E-10    0.195E-10
RMM:   2    -0.667999669291E+02   -0.58026E-09    0.00000E+00     0   0.159E-10
 155 F= -.66799967E+02 E0= -.66797516E+02  d E =-.100044E-09
quench:  g(F)=  0.000E+00 g(S)=  0.000E+00 dE (1.order)= 0.000E+00
 bond charge predicted
       N       E                     dE             d eps       ncg     rms          rms(c)
DAV:   1    -0.667999669291E+02   -0.58571E-09   -0.36562E-11    84   0.181E-10    0.300E-10
RMM:   2    -0.667999669291E+02    0.72760E-11    0.00000E+00     0   0.182E-10
 156 F= -.66799967E+02 E0= -.66797516E+02  d E =0.181899E-11
quench:  g(F)=  0.000E+00 g(S)=  0.000E+00 dE (1.order)= 0.000E+00
 bond charge predicted
       N       E                     dE             d eps       ncg     rms          rms(c)
DAV:   1    -0.667999669287E+02    0.35834E-09    0.59038E-11    84   0.216E-10    0.164E-10
RMM:   2    -0.667999669291E+02   -0.35106E-09    0.00000E+00     0   0.125E-10
 157 F= -.66799967E+02 E0= -.66797516E+02  d E =0.000000E+00
quench:  g(F)=  0.000E+00 g(S)=  0.000E+00 dE (1.order)= 0.000E+00
 bond charge predicted
       N       E                     dE             d eps       ncg     rms          rms(c)
DAV:   1    -0.667999669293E+02   -0.60936E-09    0.53754E-11    84   0.139E-10    0.127E-10
RMM:   2    -0.667999669290E+02    0.26921E-09    0.00000E+00     0   0.121E-10
 158 F= -.66799967E+02 E0= -.66797516E+02  d E =0.109139E-10
quench:  g(F)=  0.000E+00 g(S)=  0.000E+00 dE (1.order)= 0.000E+00
 bond charge predicted
       N       E                     dE             d eps       ncg     rms          rms(c)
DAV:   1    -0.667999669295E+02   -0.23283E-09   -0.57166E-12    84   0.134E-10    0.364E-10
RMM:   2    -0.667999669290E+02    0.59481E-09    0.00000E+00     0   0.150E-10
 159 F= -.66799967E+02 E0= -.66797516E+02  d E =0.927685E-10
quench:  g(F)=  0.000E+00 g(S)=  0.000E+00 dE (1.order)= 0.000E+00
 bond charge predicted
       N       E                     dE             d eps       ncg     rms          rms(c)
DAV:   1    -0.667999669291E+02    0.49840E-09    0.44774E-11    84   0.202E-10    0.286E-10
RMM:   2    -0.667999669290E+02    0.58208E-10    0.00000E+00     0   0.167E-10
 160 F= -.66799967E+02 E0= -.66797516E+02  d E =-.381988E-10
quench:  g(F)=  0.000E+00 g(S)=  0.000E+00 dE (1.order)= 0.000E+00
 bond charge predicted
       N       E                     dE             d eps       ncg     rms          rms(c)
DAV:   1    -0.667999669296E+02   -0.59299E-09    0.62115E-11    84   0.188E-10    0.203E-10
RMM:   2    -0.667999669290E+02    0.63847E-09    0.00000E+00     0   0.173E-10
 161 F= -.66799967E+02 E0= -.66797516E+02  d E =-.127329E-10
quench:  g(F)=  0.000E+00 g(S)=  0.000E+00 dE (1.order)= 0.000E+00
 bond charge predicted
       N       E                     dE             d eps       ncg     rms          rms(c)
DAV:   1    -0.667999669294E+02    0.20555E-09    0.40428E-11    84   0.167E-10    0.214E-10
RMM:   2    -0.667999669290E+02    0.39108E-09    0.00000E+00     0   0.172E-10
 162 F= -.66799967E+02 E0= -.66797516E+02  d E =-.418368E-10
quench:  g(F)=  0.000E+00 g(S)=  0.000E+00 dE (1.order)= 0.000E+00
 bond charge predicted
       N       E                     dE             d eps       ncg     rms          rms(c)
DAV:   1    -0.667999669292E+02    0.25284E-09    0.54283E-12    84   0.183E-10    0.136E-10
RMM:   2    -0.667999669290E+02    0.17280E-09    0.00000E+00     0   0.104E-10
 163 F= -.66799967E+02 E0= -.66797516E+02  d E =0.345608E-10
quench:  g(F)=  0.000E+00 g(S)=  0.000E+00 dE (1.order)= 0.000E+00
 bond charge predicted
       N       E                     dE             d eps       ncg     rms          rms(c)
DAV:   1    -0.667999669293E+02   -0.15643E-09    0.74168E-11    84   0.110E-10    0.153E-10
RMM:   2    -0.667999669290E+02    0.38381E-09    0.00000E+00     0   0.141E-10
 164 F= -.66799967E+02 E0= -.66797516E+02  d E =0.545697E-10
quench:  g(F)=  0.000E+00 g(S)=  0.000E+00 dE (1.order)= 0.000E+00
 bond charge predicted
       N       E                     dE             d eps       ncg     rms          rms(c)
DAV:   1    -0.667999669294E+02   -0.36380E-10    0.46956E-12    84   0.128E-10    0.206E-10
RMM:   2    -0.667999669291E+02    0.31832E-09    0.00000E+00     0   0.140E-10
 165 F= -.66799967E+02 E0= -.66797516E+02  d E =-.101863E-09
quench:  g(F)=  0.000E+00 g(S)=  0.000E+00 dE (1.order)= 0.000E+00
 bond charge predicted
       N       E                     dE             d eps       ncg     rms          rms(c)
DAV:   1    -0.667999669295E+02   -0.10004E-09    0.75256E-11    84   0.183E-10    0.259E-10
RMM:   2    -0.667999669290E+02    0.50204E-09    0.00000E+00     0   0.159E-10
 166 F= -.66799967E+02 E0= -.66797516E+02  d E =0.836735E-10
quench:  g(F)=  0.000E+00 g(S)=  0.000E+00 dE (1.order)= 0.000E+00
 bond charge predicted
       N       E                     dE             d eps       ncg     rms          rms(c)
DAV:   1    -0.667999669290E+02    0.45839E-09    0.10642E-10    84   0.195E-10    0.300E-10
RMM:   2    -0.667999669290E+02   -0.27285E-10    0.00000E+00     0   0.169E-10
 167 F= -.66799967E+02 E0= -.66797516E+02  d E =-.709406E-10
quench:  g(F)=  0.000E+00 g(S)=  0.000E+00 dE (1.order)= 0.000E+00
 bond charge predicted
       N       E                     dE             d eps       ncg     rms          rms(c)
DAV:   1    -0.667999669301E+02   -0.11114E-08   -0.24258E-11    84   0.202E-10    0.146E-10
RMM:   2    -0.667999669290E+02    0.11059E-08    0.00000E+00     0   0.136E-10
 168 F= -.66799967E+02 E0= -.66797516E+02  d E =0.218279E-10
quench:  g(F)=  0.000E+00 g(S)=  0.000E+00 dE (1.order)= 0.000E+00
 bond charge predicted
       N       E                     dE             d eps       ncg     rms          rms(c)
DAV:   1    -0.667999669293E+02    0.87130E-09    0.54604E-11    84   0.146E-10    0.188E-10
RMM:   2    -0.667999669290E+02    0.22192E-09    0.00000E+00     0   0.107E-10
 169 F= -.66799967E+02 E0= -.66797516E+02  d E =-.127329E-10
quench:  g(F)=  0.000E+00 g(S)=  0.000E+00 dE (1.order)= 0.000E+00
 bond charge predicted
       N       E                     dE             d eps       ncg     rms          rms(c)
DAV:   1    -0.667999669296E+02   -0.29831E-09    0.44856E-11    84   0.161E-10    0.197E-10
RMM:   2    -0.667999669289E+02    0.63665E-09    0.00000E+00     0   0.114E-10
 170 F= -.66799967E+02 E0= -.66797516E+02  d E =0.116415E-09
quench:  g(F)=  0.000E+00 g(S)=  0.000E+00 dE (1.order)= 0.000E+00
 bond charge predicted
       N       E                     dE             d eps       ncg     rms          rms(c)
DAV:   1    -0.667999669291E+02    0.43292E-09   -0.19933E-11    84   0.158E-10    0.273E-10
RMM:   2    -0.667999669291E+02    0.65484E-10    0.00000E+00     0   0.192E-10
 171 F= -.66799967E+02 E0= -.66797516E+02  d E =-.138243E-09
quench:  g(F)=  0.000E+00 g(S)=  0.000E+00 dE (1.order)= 0.000E+00
 bond charge predicted
       N       E                     dE             d eps       ncg     rms          rms(c)
DAV:   1    -0.667999669289E+02    0.26557E-09    0.12065E-10    84   0.172E-10    0.219E-10
RMM:   2    -0.667999669291E+02   -0.21464E-09    0.00000E+00     0   0.162E-10
 172 F= -.66799967E+02 E0= -.66797516E+02  d E =-.145519E-10
quench:  g(F)=  0.000E+00 g(S)=  0.000E+00 dE (1.order)= 0.000E+00
 bond charge predicted
       N       E                     dE             d eps       ncg     rms          rms(c)
DAV:   1    -0.667999669295E+02   -0.61118E-09   -0.13639E-11    84   0.168E-10    0.213E-10
RMM:   2    -0.667999669291E+02    0.38199E-09    0.00000E+00     0   0.145E-10
 173 F= -.66799967E+02 E0= -.66797516E+02  d E =-.145519E-10
quench:  g(F)=  0.000E+00 g(S)=  0.000E+00 dE (1.order)= 0.000E+00
 bond charge predicted
       N       E                     dE             d eps       ncg     rms          rms(c)
DAV:   1    -0.667999669288E+02    0.62937E-09    0.79650E-12    84   0.172E-10    0.261E-10
RMM:   2    -0.667999669290E+02   -0.14006E-09    0.00000E+00     0   0.167E-10
 174 F= -.66799967E+02 E0= -.66797516E+02  d E =0.107320E-09
quench:  g(F)=  0.000E+00 g(S)=  0.000E+00 dE (1.order)= 0.000E+00
 bond charge predicted
       N       E                     dE             d eps       ncg     rms          rms(c)
DAV:   1    -0.667999669283E+02    0.58935E-09    0.55137E-11    84   0.195E-10    0.271E-10
RMM:   2    -0.667999669290E+02   -0.74033E-09    0.00000E+00     0   0.152E-10
 175 F= -.66799967E+02 E0= -.66797516E+02  d E =-.109139E-10
quench:  g(F)=  0.000E+00 g(S)=  0.000E+00 dE (1.order)= 0.000E+00
 bond charge predicted
       N       E                     dE             d eps       ncg     rms          rms(c)
DAV:   1    -0.667999669292E+02   -0.99317E-09    0.25426E-11    84   0.169E-10    0.185E-10
RMM:   2    -0.667999669291E+02    0.18736E-09    0.00000E+00     0   0.116E-10
 176 F= -.66799967E+02 E0= -.66797516E+02  d E =-.654836E-10
quench:  g(F)=  0.000E+00 g(S)=  0.000E+00 dE (1.order)= 0.000E+00
 bond charge predicted
       N       E                     dE             d eps       ncg     rms          rms(c)
DAV:   1    -0.667999669288E+02    0.41109E-09    0.27945E-11    84   0.140E-10    0.228E-10
RMM:   2    -0.667999669290E+02   -0.16553E-09    0.00000E+00     0   0.158E-10
 177 F= -.66799967E+02 E0= -.66797516E+02  d E =0.582077E-10
quench:  g(F)=  0.000E+00 g(S)=  0.000E+00 dE (1.order)= 0.000E+00
 bond charge predicted
       N       E                     dE             d eps       ncg     rms          rms(c)
DAV:   1    -0.667999669298E+02   -0.93678E-09    0.71223E-11    84   0.204E-10    0.421E-10
RMM:   2    -0.667999669291E+02    0.71304E-09    0.00000E+00     0   0.198E-10
 178 F= -.66799967E+02 E0= -.66797516E+02  d E =-.582077E-10
quench:  g(F)=  0.000E+00 g(S)=  0.000E+00 dE (1.order)= 0.000E+00
 bond charge predicted
       N       E                     dE             d eps       ncg     rms          rms(c)
DAV:   1    -0.667999669296E+02    0.19645E-09    0.88748E-13    84   0.287E-10    0.154E-10
RMM:   2    -0.667999669290E+02    0.58208E-09    0.00000E+00     0   0.133E-10
 179 F= -.66799967E+02 E0= -.66797516E+02  d E =0.654836E-10
quench:  g(F)=  0.000E+00 g(S)=  0.000E+00 dE (1.order)= 0.000E+00
 bond charge predicted
       N       E                     dE             d eps       ncg     rms          rms(c)
DAV:   1    -0.667999669290E+02    0.59117E-09    0.31669E-12    84   0.146E-10    0.213E-10
RMM:   2    -0.667999669289E+02    0.60027E-10    0.00000E+00     0   0.120E-10
 180 F= -.66799967E+02 E0= -.66797516E+02  d E =0.691216E-10
quench:  g(F)=  0.000E+00 g(S)=  0.000E+00 dE (1.order)= 0.000E+00
 bond charge predicted
       N       E                     dE             d eps       ncg     rms          rms(c)
DAV:   1    -0.667999669288E+02    0.17280E-09    0.79238E-11    84   0.160E-10    0.201E-10
RMM:   2    -0.667999669290E+02   -0.16917E-09    0.00000E+00     0   0.153E-10
 181 F= -.66799967E+02 E0= -.66797516E+02  d E =-.563887E-10
quench:  g(F)=  0.000E+00 g(S)=  0.000E+00 dE (1.order)= 0.000E+00
 bond charge predicted
       N       E                     dE             d eps       ncg     rms          rms(c)
DAV:   1    -0.667999669289E+02   -0.12733E-09   -0.49032E-12    84   0.157E-10    0.214E-10
RMM:   2    -0.667999669291E+02   -0.12733E-09    0.00000E+00     0   0.138E-10
 182 F= -.66799967E+02 E0= -.66797516E+02  d E =-.854925E-10
quench:  g(F)=  0.000E+00 g(S)=  0.000E+00 dE (1.order)= 0.000E+00
 bond charge predicted
       N       E                     dE             d eps       ncg     rms          rms(c)
DAV:   1    -0.667999669291E+02   -0.12551E-09    0.15604E-11    84   0.170E-10    0.160E-10
RMM:   2    -0.667999669290E+02    0.45475E-10    0.00000E+00     0   0.130E-10
 183 F= -.66799967E+02 E0= -.66797516E+02  d E =0.472937E-10
quench:  g(F)=  0.000E+00 g(S)=  0.000E+00 dE (1.order)= 0.000E+00
 bond charge predicted
       N       E                     dE             d eps       ncg     rms          rms(c)
DAV:   1    -0.667999669289E+02    0.15643E-09    0.77444E-11    84   0.133E-10    0.323E-10
RMM:   2    -0.667999669290E+02   -0.85493E-10    0.00000E+00     0   0.176E-10
 184 F= -.66799967E+02 E0= -.66797516E+02  d E =0.254659E-10
quench:  g(F)=  0.000E+00 g(S)=  0.000E+00 dE (1.order)= 0.000E+00
 bond charge predicted
       N       E                     dE             d eps       ncg     rms          rms(c)
DAV:   1    -0.667999669291E+02   -0.19827E-09    0.17543E-11    84   0.219E-10    0.247E-10
RMM:   2    -0.667999669290E+02    0.14552E-09    0.00000E+00     0   0.151E-10
 185 F= -.66799967E+02 E0= -.66797516E+02  d E =0.327418E-10
quench:  g(F)=  0.000E+00 g(S)=  0.000E+00 dE (1.order)= 0.000E+00
 bond charge predicted
       N       E                     dE             d eps       ncg     rms          rms(c)
DAV:   1    -0.667999669295E+02   -0.36744E-09    0.30315E-11    84   0.143E-10    0.133E-10
RMM:   2    -0.667999669291E+02    0.41291E-09    0.00000E+00     0   0.880E-11
 186 F= -.66799967E+02 E0= -.66797516E+02  d E =-.100044E-09
quench:  g(F)=  0.000E+00 g(S)=  0.000E+00 dE (1.order)= 0.000E+00
 bond charge predicted
       N       E                     dE             d eps       ncg     rms          rms(c)
DAV:   1    -0.667999669290E+02    0.46384E-09    0.71230E-11    84   0.117E-10    0.397E-10
RMM:   2    -0.667999669290E+02   -0.72760E-11    0.00000E+00     0   0.176E-10
 187 F= -.66799967E+02 E0= -.66797516E+02  d E =0.436557E-10
quench:  g(F)=  0.000E+00 g(S)=  0.000E+00 dE (1.order)= 0.000E+00
 bond charge predicted
[...]
 bond charge predicted
       N       E                     dE             d eps       ncg     rms          rms(c)
DAV:   1    -0.667999669291E+02    0.11460E-09    0.39987E-11    84   0.133E-10    0.223E-10
RMM:   2    -0.667999669290E+02    0.80036E-10    0.00000E+00     0   0.149E-10
 953 F= -.66799967E+02 E0= -.66797516E+02  d E =0.125510E-09
quench:  g(F)=  0.000E+00 g(S)=  0.000E+00 dE (1.order)= 0.000E+00
 bond charge predicted
       N       E                     dE             d eps       ncg     rms          rms(c)
DAV:   1    -0.667999669289E+02    0.15643E-09    0.29434E-11    84   0.170E-10    0.136E-10
RMM:   2    -0.667999669290E+02   -0.11642E-09    0.00000E+00     0   0.130E-10
 954 F= -.66799967E+02 E0= -.66797516E+02  d E =-.400178E-10
quench:  g(F)=  0.000E+00 g(S)=  0.000E+00 dE (1.order)= 0.000E+00
 bond charge predicted
       N       E                     dE             d eps       ncg     rms          rms(c)
DAV:   1    -0.667999669287E+02    0.20009E-09   -0.88189E-13    84   0.138E-10    0.160E-10
RMM:   2    -0.667999669290E+02   -0.32560E-09    0.00000E+00     0   0.119E-10
 955 F= -.66799967E+02 E0= -.66797516E+02  d E =-.909495E-11
quench:  g(F)=  0.000E+00 g(S)=  0.000E+00 dE (1.order)= 0.000E+00
 bond charge predicted
       N       E                     dE             d eps       ncg     rms          rms(c)
DAV:   1    -0.667999669287E+02   -0.16371E-10    0.95281E-11    84   0.149E-10    0.118E-10
RMM:   2    -0.667999669291E+02   -0.33651E-09    0.00000E+00     0   0.110E-10
 956 F= -.66799967E+02 E0= -.66797516E+02  d E =-.272848E-10
quench:  g(F)=  0.000E+00 g(S)=  0.000E+00 dE (1.order)= 0.000E+00
 bond charge predicted
       N       E                     dE             d eps       ncg     rms          rms(c)
DAV:   1    -0.667999669292E+02   -0.51114E-09   -0.29348E-11    84   0.129E-10    0.255E-10
RMM:   2    -0.667999669291E+02    0.18554E-09    0.00000E+00     0   0.145E-10
 957 F= -.66799967E+02 E0= -.66797516E+02  d E =0.109139E-10
quench:  g(F)=  0.000E+00 g(S)=  0.000E+00 dE (1.order)= 0.000E+00
 bond charge predicted
       N       E                     dE             d eps       ncg     rms          rms(c)
DAV:   1    -0.667999669291E+02    0.16189E-09    0.57291E-12    84   0.207E-10    0.258E-10
RMM:   2    -0.667999669291E+02   -0.12733E-10    0.00000E+00     0   0.137E-10
 958 F= -.66799967E+02 E0= -.66797516E+02  d E =-.363798E-10
quench:  g(F)=  0.000E+00 g(S)=  0.000E+00 dE (1.order)= 0.000E+00
 bond charge predicted
       N       E                     dE             d eps       ncg     rms          rms(c)
DAV:   1    -0.667999669289E+02    0.13279E-09    0.33099E-11    84   0.168E-10    0.363E-10
RMM:   2    -0.667999669291E+02   -0.16189E-09    0.00000E+00     0   0.208E-10
 959 F= -.66799967E+02 E0= -.66797516E+02  d E =-.163709E-10
quench:  g(F)=  0.000E+00 g(S)=  0.000E+00 dE (1.order)= 0.000E+00
 bond charge predicted
       N       E                     dE             d eps       ncg     rms          rms(c)
DAV:   1    -0.667999669298E+02   -0.87675E-09    0.35161E-11    84   0.256E-10    0.232E-10
RMM:   2    -0.667999669290E+02    0.84765E-09    0.00000E+00     0   0.167E-10
 960 F= -.66799967E+02 E0= -.66797516E+02  d E =0.132786E-09
quench:  g(F)=  0.000E+00 g(S)=  0.000E+00 dE (1.order)= 0.000E+00
 bond charge predicted
       N       E                     dE             d eps       ncg     rms          rms(c)
DAV:   1    -0.667999669292E+02    0.57116E-09    0.42984E-11    84   0.217E-10    0.189E-10
RMM:   2    -0.667999669290E+02    0.24193E-09    0.00000E+00     0   0.139E-10
 961 F= -.66799967E+02 E0= -.66797516E+02  d E =-.345608E-10
quench:  g(F)=  0.000E+00 g(S)=  0.000E+00 dE (1.order)= 0.000E+00
 bond charge predicted
       N       E                     dE             d eps       ncg     rms          rms(c)
DAV:   1    -0.667999669288E+02    0.40200E-09    0.43450E-11    84   0.151E-10    0.249E-10
RMM:   2    -0.667999669290E+02   -0.17826E-09    0.00000E+00     0   0.125E-10
 962 F= -.66799967E+02 E0= -.66797516E+02  d E =-.181899E-10
quench:  g(F)=  0.000E+00 g(S)=  0.000E+00 dE (1.order)= 0.000E+00
 bond charge predicted
       N       E                     dE             d eps       ncg     rms          rms(c)
DAV:   1    -0.667999669294E+02   -0.53296E-09   -0.18047E-11    84   0.169E-10    0.166E-10
RMM:   2    -0.667999669289E+02    0.43474E-09    0.00000E+00     0   0.113E-10
 963 F= -.66799967E+02 E0= -.66797516E+02  d E =0.800355E-10
quench:  g(F)=  0.000E+00 g(S)=  0.000E+00 dE (1.order)= 0.000E+00
 bond charge predicted
       N       E                     dE             d eps       ncg     rms          rms(c)
DAV:   1    -0.667999669293E+02    0.11096E-09   -0.16320E-11    84   0.131E-10    0.457E-10
RMM:   2    -0.667999669291E+02    0.16553E-09    0.00000E+00     0   0.235E-10
 964 F= -.66799967E+02 E0= -.66797516E+02  d E =-.158252E-09
quench:  g(F)=  0.000E+00 g(S)=  0.000E+00 dE (1.order)= 0.000E+00
 bond charge predicted
       N       E                     dE             d eps       ncg     rms          rms(c)
DAV:   1    -0.667999669293E+02    0.54570E-11    0.22219E-11    84   0.297E-10    0.369E-10
RMM:   2    -0.667999669289E+02    0.31650E-09    0.00000E+00     0   0.209E-10
 965 F= -.66799967E+02 E0= -.66797516E+02  d E =0.156433E-09
quench:  g(F)=  0.000E+00 g(S)=  0.000E+00 dE (1.order)= 0.000E+00
 bond charge predicted
       N       E                     dE             d eps       ncg     rms          rms(c)
DAV:   1    -0.667999669290E+02    0.26739E-09    0.38986E-11    84   0.271E-10    0.154E-10
RMM:   2    -0.667999669290E+02    0.25466E-10    0.00000E+00     0   0.162E-10
 966 F= -.66799967E+02 E0= -.66797516E+02  d E =-.236469E-10
quench:  g(F)=  0.000E+00 g(S)=  0.000E+00 dE (1.order)= 0.000E+00
 bond charge predicted
       N       E                     dE             d eps       ncg     rms          rms(c)
DAV:   1    -0.667999669288E+02    0.19281E-09    0.27647E-11    84   0.163E-10    0.136E-10
RMM:   2    -0.667999669290E+02   -0.18917E-09    0.00000E+00     0   0.109E-10
 967 F= -.66799967E+02 E0= -.66797516E+02  d E =-.218279E-10
quench:  g(F)=  0.000E+00 g(S)=  0.000E+00 dE (1.order)= 0.000E+00
 bond charge predicted
       N       E                     dE             d eps       ncg     rms          rms(c)
DAV:   1    -0.667999669296E+02   -0.83310E-09    0.61864E-11    84   0.112E-10    0.225E-10
RMM:   2    -0.667999669289E+02    0.68940E-09    0.00000E+00     0   0.129E-10
 968 F= -.66799967E+02 E0= -.66797516E+02  d E =0.454747E-10
quench:  g(F)=  0.000E+00 g(S)=  0.000E+00 dE (1.order)= 0.000E+00
 bond charge predicted
       N       E                     dE             d eps       ncg     rms          rms(c)
DAV:   1    -0.667999669281E+02    0.15025E-08   -0.34482E-11    84   0.141E-10    0.151E-10
RMM:   2    -0.667999669291E+02   -0.98044E-09    0.00000E+00     0   0.112E-10
 969 F= -.66799967E+02 E0= -.66797516E+02  d E =-.167347E-09
quench:  g(F)=  0.000E+00 g(S)=  0.000E+00 dE (1.order)= 0.000E+00
 bond charge predicted
       N       E                     dE             d eps       ncg     rms          rms(c)
DAV:   1    -0.667999669288E+02   -0.66575E-09    0.38326E-11    84   0.141E-10    0.107E-10
RMM:   2    -0.667999669291E+02   -0.29650E-09    0.00000E+00     0   0.107E-10
 970 F= -.66799967E+02 E0= -.66797516E+02  d E =0.181899E-10
quench:  g(F)=  0.000E+00 g(S)=  0.000E+00 dE (1.order)= 0.000E+00
 bond charge predicted
       N       E                     dE             d eps       ncg     rms          rms(c)
DAV:   1    -0.667999669294E+02   -0.62209E-09    0.77000E-11    84   0.128E-10    0.297E-10
RMM:   2    -0.667999669290E+02    0.42928E-09    0.00000E+00     0   0.154E-10
 971 F= -.66799967E+02 E0= -.66797516E+02  d E =0.103682E-09
quench:  g(F)=  0.000E+00 g(S)=  0.000E+00 dE (1.order)= 0.000E+00
 bond charge predicted
       N       E                     dE             d eps       ncg     rms          rms(c)
DAV:   1    -0.667999669290E+02    0.37289E-09    0.10690E-10    84   0.210E-10    0.239E-10
RMM:   2    -0.667999669291E+02   -0.72760E-11    0.00000E+00     0   0.139E-10
 972 F= -.66799967E+02 E0= -.66797516E+02  d E =-.636646E-10
quench:  g(F)=  0.000E+00 g(S)=  0.000E+00 dE (1.order)= 0.000E+00
 bond charge predicted
       N       E                     dE             d eps       ncg     rms          rms(c)
DAV:   1    -0.667999669293E+02   -0.28740E-09    0.43290E-11    84   0.171E-10    0.162E-10
RMM:   2    -0.667999669291E+02    0.27467E-09    0.00000E+00     0   0.119E-10
 973 F= -.66799967E+02 E0= -.66797516E+02  d E =-.545697E-11
quench:  g(F)=  0.000E+00 g(S)=  0.000E+00 dE (1.order)= 0.000E+00
 bond charge predicted
       N       E                     dE             d eps       ncg     rms          rms(c)
DAV:   1    -0.667999669283E+02    0.10841E-08    0.40129E-11    84   0.131E-10    0.172E-10
RMM:   2    -0.667999669290E+02   -0.79854E-09    0.00000E+00     0   0.113E-10
 974 F= -.66799967E+02 E0= -.66797516E+02  d E =0.109139E-10
quench:  g(F)=  0.000E+00 g(S)=  0.000E+00 dE (1.order)= 0.000E+00
 bond charge predicted
       N       E                     dE             d eps       ncg     rms          rms(c)
DAV:   1    -0.667999669292E+02   -0.92041E-09    0.70801E-12    84   0.108E-10    0.399E-10
RMM:   2    -0.667999669291E+02    0.11460E-09    0.00000E+00     0   0.180E-10
 975 F= -.66799967E+02 E0= -.66797516E+02  d E =-.727596E-11
quench:  g(F)=  0.000E+00 g(S)=  0.000E+00 dE (1.order)= 0.000E+00
 bond charge predicted
       N       E                     dE             d eps       ncg     rms          rms(c)
DAV:   1    -0.667999669288E+02    0.38744E-09    0.54730E-11    84   0.244E-10    0.239E-10
RMM:   2    -0.667999669290E+02   -0.25830E-09    0.00000E+00     0   0.137E-10
 976 F= -.66799967E+02 E0= -.66797516E+02  d E =0.145519E-10
quench:  g(F)=  0.000E+00 g(S)=  0.000E+00 dE (1.order)= 0.000E+00
 bond charge predicted
       N       E                     dE             d eps       ncg     rms          rms(c)
DAV:   1    -0.667999669290E+02   -0.21464E-09   -0.31454E-15    84   0.160E-10    0.141E-10
RMM:   2    -0.667999669291E+02   -0.87311E-10    0.00000E+00     0   0.122E-10
 977 F= -.66799967E+02 E0= -.66797516E+02  d E =-.436557E-10
quench:  g(F)=  0.000E+00 g(S)=  0.000E+00 dE (1.order)= 0.000E+00
 bond charge predicted
       N       E                     dE             d eps       ncg     rms          rms(c)
DAV:   1    -0.667999669288E+02    0.18917E-09    0.79429E-11    84   0.117E-10    0.164E-10
RMM:   2    -0.667999669290E+02   -0.21464E-09    0.00000E+00     0   0.990E-11
 978 F= -.66799967E+02 E0= -.66797516E+02  d E =0.618456E-10
quench:  g(F)=  0.000E+00 g(S)=  0.000E+00 dE (1.order)= 0.000E+00
 bond charge predicted
       N       E                     dE             d eps       ncg     rms          rms(c)
DAV:   1    -0.667999669294E+02   -0.58571E-09    0.40871E-11    84   0.130E-10    0.173E-10
RMM:   2    -0.667999669290E+02    0.40927E-09    0.00000E+00     0   0.109E-10
 979 F= -.66799967E+02 E0= -.66797516E+02  d E =0.381988E-10
quench:  g(F)=  0.000E+00 g(S)=  0.000E+00 dE (1.order)= 0.000E+00
 bond charge predicted
       N       E                     dE             d eps       ncg     rms          rms(c)
DAV:   1    -0.667999669291E+02    0.32196E-09    0.37124E-12    84   0.143E-10    0.211E-10
RMM:   2    -0.667999669291E+02    0.20009E-10    0.00000E+00     0   0.119E-10
 980 F= -.66799967E+02 E0= -.66797516E+02  d E =-.673026E-10
quench:  g(F)=  0.000E+00 g(S)=  0.000E+00 dE (1.order)= 0.000E+00
 bond charge predicted
       N       E                     dE             d eps       ncg     rms          rms(c)
DAV:   1    -0.667999669291E+02   -0.36380E-11    0.40032E-11    84   0.140E-10    0.232E-10
RMM:   2    -0.667999669291E+02    0.18190E-10    0.00000E+00     0   0.146E-10
 981 F= -.66799967E+02 E0= -.66797516E+02  d E =-.545697E-11
quench:  g(F)=  0.000E+00 g(S)=  0.000E+00 dE (1.order)= 0.000E+00
 bond charge predicted
       N       E                     dE             d eps       ncg     rms          rms(c)
DAV:   1    -0.667999669283E+02    0.76034E-09    0.61197E-11    84   0.146E-10    0.171E-10
RMM:   2    -0.667999669290E+02   -0.71668E-09    0.00000E+00     0   0.984E-11
 982 F= -.66799967E+02 E0= -.66797516E+02  d E =0.254659E-10
quench:  g(F)=  0.000E+00 g(S)=  0.000E+00 dE (1.order)= 0.000E+00
 bond charge predicted
       N       E                     dE             d eps       ncg     rms          rms(c)
DAV:   1    -0.667999669292E+02   -0.91677E-09    0.12673E-11    84   0.128E-10    0.293E-10
RMM:   2    -0.667999669291E+02    0.17280E-09    0.00000E+00     0   0.151E-10
 983 F= -.66799967E+02 E0= -.66797516E+02  d E =-.272848E-10
quench:  g(F)=  0.000E+00 g(S)=  0.000E+00 dE (1.order)= 0.000E+00
 bond charge predicted
       N       E                     dE             d eps       ncg     rms          rms(c)
DAV:   1    -0.667999669292E+02    0.50932E-10    0.40792E-11    84   0.203E-10    0.186E-10
RMM:   2    -0.667999669290E+02    0.14188E-09    0.00000E+00     0   0.127E-10
 984 F= -.66799967E+02 E0= -.66797516E+02  d E =0.200089E-10
quench:  g(F)=  0.000E+00 g(S)=  0.000E+00 dE (1.order)= 0.000E+00
 bond charge predicted
       N       E                     dE             d eps       ncg     rms          rms(c)
DAV:   1    -0.667999669295E+02   -0.32742E-09    0.43964E-11    84   0.133E-10    0.195E-10
RMM:   2    -0.667999669290E+02    0.55843E-09    0.00000E+00     0   0.129E-10
 985 F= -.66799967E+02 E0= -.66797516E+02  d E =0.891305E-10
quench:  g(F)=  0.000E+00 g(S)=  0.000E+00 dE (1.order)= 0.000E+00
 bond charge predicted
       N       E                     dE             d eps       ncg     rms          rms(c)
DAV:   1    -0.667999669293E+02    0.18372E-09    0.27743E-11    84   0.175E-10    0.118E-10
RMM:   2    -0.667999669290E+02    0.29650E-09    0.00000E+00     0   0.110E-10
 986 F= -.66799967E+02 E0= -.66797516E+02  d E =-.782165E-10
quench:  g(F)=  0.000E+00 g(S)=  0.000E+00 dE (1.order)= 0.000E+00
 bond charge predicted
       N       E                     dE             d eps       ncg     rms          rms(c)
DAV:   1    -0.667999669298E+02   -0.45475E-09    0.62645E-11    84   0.121E-10    0.330E-10
RMM:   2    -0.667999669290E+02    0.77489E-09    0.00000E+00     0   0.141E-10
 987 F= -.66799967E+02 E0= -.66797516E+02  d E =0.236469E-10
quench:  g(F)=  0.000E+00 g(S)=  0.000E+00 dE (1.order)= 0.000E+00
 bond charge predicted
       N       E                     dE             d eps       ncg     rms          rms(c)
DAV:   1    -0.667999669288E+02    0.96952E-09    0.25458E-11    84   0.158E-10    0.276E-10
RMM:   2    -0.667999669290E+02   -0.23829E-09    0.00000E+00     0   0.152E-10
 988 F= -.66799967E+02 E0= -.66797516E+02  d E =-.436557E-10
quench:  g(F)=  0.000E+00 g(S)=  0.000E+00 dE (1.order)= 0.000E+00
 bond charge predicted
       N       E                     dE             d eps       ncg     rms          rms(c)
DAV:   1    -0.667999669291E+02   -0.30377E-09    0.56845E-11    84   0.178E-10    0.109E-10
RMM:   2    -0.667999669291E+02    0.29104E-10    0.00000E+00     0   0.102E-10
 989 F= -.66799967E+02 E0= -.66797516E+02  d E =-.363798E-10
quench:  g(F)=  0.000E+00 g(S)=  0.000E+00 dE (1.order)= 0.000E+00
 bond charge predicted
       N       E                     dE             d eps       ncg     rms          rms(c)
DAV:   1    -0.667999669292E+02   -0.10732E-09    0.17170E-11    84   0.132E-10    0.208E-10
RMM:   2    -0.667999669290E+02    0.17462E-09    0.00000E+00     0   0.133E-10
 990 F= -.66799967E+02 E0= -.66797516E+02  d E =0.381988E-10
quench:  g(F)=  0.000E+00 g(S)=  0.000E+00 dE (1.order)= 0.000E+00
 bond charge predicted
       N       E                     dE             d eps       ncg     rms          rms(c)
DAV:   1    -0.667999669291E+02    0.13097E-09    0.39879E-11    84   0.154E-10    0.137E-10
RMM:   2    -0.667999669290E+02    0.10914E-09    0.00000E+00     0   0.117E-10
 991 F= -.66799967E+02 E0= -.66797516E+02  d E =0.654836E-10
quench:  g(F)=  0.000E+00 g(S)=  0.000E+00 dE (1.order)= 0.000E+00
 bond charge predicted
       N       E                     dE             d eps       ncg     rms          rms(c)
DAV:   1    -0.667999669297E+02   -0.58935E-09    0.27528E-11    84   0.145E-10    0.120E-10
RMM:   2    -0.667999669291E+02    0.62937E-09    0.00000E+00     0   0.117E-10
 992 F= -.66799967E+02 E0= -.66797516E+02  d E =-.691216E-10
quench:  g(F)=  0.000E+00 g(S)=  0.000E+00 dE (1.order)= 0.000E+00
 bond charge predicted
       N       E                     dE             d eps       ncg     rms          rms(c)
DAV:   1    -0.667999669291E+02    0.60209E-09    0.15455E-11    84   0.157E-10    0.174E-10
RMM:   2    -0.667999669290E+02    0.11460E-09    0.00000E+00     0   0.136E-10
 993 F= -.66799967E+02 E0= -.66797516E+02  d E =0.873115E-10
quench:  g(F)=  0.000E+00 g(S)=  0.000E+00 dE (1.order)= 0.000E+00
 bond charge predicted
       N       E                     dE             d eps       ncg     rms          rms(c)
DAV:   1    -0.667999669288E+02    0.30923E-09    0.64340E-12    84   0.143E-10    0.214E-10
RMM:   2    -0.667999669291E+02   -0.35106E-09    0.00000E+00     0   0.143E-10
 994 F= -.66799967E+02 E0= -.66797516E+02  d E =-.156433E-09
quench:  g(F)=  0.000E+00 g(S)=  0.000E+00 dE (1.order)= 0.000E+00
 bond charge predicted
       N       E                     dE             d eps       ncg     rms          rms(c)
DAV:   1    -0.667999669283E+02    0.44565E-09    0.13513E-11    84   0.203E-10    0.255E-10
RMM:   2    -0.667999669291E+02   -0.74215E-09    0.00000E+00     0   0.174E-10
 995 F= -.66799967E+02 E0= -.66797516E+02  d E =0.545697E-10
quench:  g(F)=  0.000E+00 g(S)=  0.000E+00 dE (1.order)= 0.000E+00
 bond charge predicted
       N       E                     dE             d eps       ncg     rms          rms(c)
DAV:   1    -0.667999669292E+02   -0.89858E-09   -0.93861E-12    84   0.217E-10    0.131E-10
RMM:   2    -0.667999669291E+02    0.10368E-09    0.00000E+00     0   0.136E-10
 996 F= -.66799967E+02 E0= -.66797516E+02  d E =-.527507E-10
quench:  g(F)=  0.000E+00 g(S)=  0.000E+00 dE (1.order)= 0.000E+00
 bond charge predicted
       N       E                     dE             d eps       ncg     rms          rms(c)
DAV:   1    -0.667999669286E+02    0.59117E-09    0.54686E-11    84   0.132E-10    0.152E-10
RMM:   2    -0.667999669290E+02   -0.33469E-09    0.00000E+00     0   0.124E-10
 997 F= -.66799967E+02 E0= -.66797516E+02  d E =0.152795E-09
quench:  g(F)=  0.000E+00 g(S)=  0.000E+00 dE (1.order)= 0.000E+00
 bond charge predicted
       N       E                     dE             d eps       ncg     rms          rms(c)
DAV:   1    -0.667999669288E+02   -0.12733E-09    0.36779E-11    84   0.154E-10    0.132E-10
RMM:   2    -0.667999669291E+02   -0.29468E-09    0.00000E+00     0   0.122E-10
 998 F= -.66799967E+02 E0= -.66797516E+02  d E =-.873115E-10
quench:  g(F)=  0.000E+00 g(S)=  0.000E+00 dE (1.order)= 0.000E+00
 bond charge predicted
       N       E                     dE             d eps       ncg     rms          rms(c)
DAV:   1    -0.667999669292E+02   -0.47112E-09    0.21543E-11    84   0.145E-10    0.104E-10
RMM:   2    -0.667999669291E+02    0.13824E-09    0.00000E+00     0   0.120E-10
 999 F= -.66799967E+02 E0= -.66797516E+02  d E =-.381988E-10
quench:  g(F)=  0.000E+00 g(S)=  0.000E+00 dE (1.order)= 0.000E+00
 bond charge predicted
       N       E                     dE             d eps       ncg     rms          rms(c)
DAV:   1    -0.667999669286E+02    0.59299E-09    0.31520E-11    84   0.133E-10    0.208E-10
RMM:   2    -0.667999669290E+02   -0.41291E-09    0.00000E+00     0   0.132E-10
1000 F= -.66799967E+02 E0= -.66797516E+02  d E =0.418368E-10
quench:  g(F)=  0.000E+00 g(S)=  0.000E+00 dE (1.order)= 0.000E+00
