LAMMPS (2 Aug 2023 - Update 2)
  using 1 OpenMP thread(s) per MPI task
units           real
atom_style      full
dimension 3
boundary        p p p

read_data       ../model_solvation/sol_N10_1.data
Reading data file ...
  orthogonal box = (0.167499 0.000499 0.000499) to (22.4475 35.0955 35.0955)
  2 by 4 by 4 MPI processor grid
  reading atoms ...
  1196 atoms
  scanning bonds ...
  6 = max bonds/atom
  scanning angles ...
  6 = max angles/atom
  reading bonds ...
  1345 bonds
  reading angles ...
  1110 angles
Finding 1-2 1-3 1-4 neighbors ...
  special bond factors lj:    0        0        0       
  special bond factors coul:  0        0        0       
     6 = max # of 1-2 neighbors
    15 = max # of 1-3 neighbors
    72 = max # of 1-4 neighbors
    30 = max # of special neighbors
  special bonds CPU = 0.002 seconds
  read_data CPU = 0.055 seconds

# Define groups
group mos2  type 6 7 14 15 16 17     # MoS2 backbone
420 atoms in group mos2
group water type 4 5 9     # 4 and 5 are H1 and H2 atoms, 9 is O atom
720 atoms in group water
group hcro  type 2 3 10 11 12 13     # HCRO4- ions
30 atoms in group hcro
group slvn  type 1 2 3 8 10 11 12  13 # solvent
56 atoms in group slvn
group sol   type 1 2 3 4 5 8 9 10 11 12  13 # solvent and solution
776 atoms in group sol
group dmp   type 1 2 3 6 7 8 10 11 12 13 14 15 16 17 # all without water
476 atoms in group dmp

# Pair style and kspace
pair_style      lj/cut/coul/long 10.0
special_bonds lj 0.0 0.0 0.5 coul 0.0 0.0 0.83333333
Finding 1-2 1-3 1-4 neighbors ...
  special bond factors lj:    0        0        0.5     
  special bond factors coul:  0        0        0.83333333
     6 = max # of 1-2 neighbors
    15 = max # of 1-3 neighbors
    72 = max # of 1-4 neighbors
    30 = max # of special neighbors
  special bonds CPU = 0.001 seconds
pair_modify     mix arithmetic
kspace_style    pppm 1.0e-4
#kspace_style ewald 1e-8

# Pair Coeff
pair_coeff 1 1     0.070   3.5600000   # Cl-Cl
pair_coeff 2 2     0.050   2.5000000   # CR-CR
pair_coeff 3 3     0.001   1.0000000   # H-H
pair_coeff 4 4     0.0     0.0         # H1-H1
pair_coeff 5 5     0.0     0.0         # H2-H2
pair_coeff 6 6     0.0134  4.2000000   # Mo1-Mo1
pair_coeff 7 7     0.0134  4.2000000   # Mo2-Mo2
pair_coeff 8 8     0.0469  2.4300000   # Na-Na
pair_coeff 9 9     0.1521  3.1507      # OW-OW
pair_coeff 10 10   0.1000  3.0000000   # O1-O1
pair_coeff 11 11   0.1000  3.0000000   # O2-O2
pair_coeff 12 12   0.1000  3.0000000   # O3-O3
pair_coeff 13 13   0.1000  3.0000000   # O4-O4
pair_coeff 14 14   0.4610  3.1300000   # S1-S1
pair_coeff 15 15   0.4610  3.1300000   # S2-S2
pair_coeff 16 16   0.4610  3.1300000   # S3-S3
pair_coeff 17 17   0.4610  3.1300000   # S4-S4

bond_style harmonic
bond_coeff 1 650 2.4127                # Mo-S bond
bond_coeff 2 650 1.600                 # CR-O bond in HCRO4
bond_coeff 3 450 0.600                 # O-H bond  in HCRO4
bond_coeff 4 450 0.957                 # O-H bond  in water

angle_style     harmonic
angle_coeff 1 100 82.38                # Mo-S-Mo angle in MoS2
angle_coeff 2 55 104.52                # O-CR-O angle in HCRO4
angle_coeff 3 80 109.50                # H-O-H angle in water

## Minimize the system first
velocity all create 300.0 12345 dist gaussian mom yes rot yes
min_style cg
minimize 1.0e-4 1.0e-6 1000 10000
PPPM initialization ...
WARNING: System is not charge neutral, net charge = 0.00012 (src/src/kspace.cpp:327)
  using 12-bit tables for long-range coulomb (src/src/kspace.cpp:342)
  G vector (1/distance) = 0.2571481
  grid = 12 16 16
  stencil order = 5
  estimated absolute RMS force accuracy = 0.028448941
  estimated relative force accuracy = 8.5673142e-05
  using double precision FFTW3
  3d grid and FFT values/proc = 1053 96
Generated 136 of 136 mixed pair_coeff terms from arithmetic mixing rule
Neighbor list info ...
  update: every = 1 steps, delay = 0 steps, check = yes
  max neighbors/atom: 2000, page size: 100000
  master list distance cutoff = 12
  ghost atom cutoff = 12
  binsize = 6, bins = 4 6 6
  1 neighbor lists, perpetual/occasional/extra = 1 0 0
  (1) pair lj/cut/coul/long, perpetual
      attributes: half, newton on
      pair build: half/bin/newton
      stencil: half/bin/3d
      bin: standard
WARNING: Inconsistent image flags (src/src/domain.cpp:815)
Per MPI rank memory allocation (min/avg/max) = 11.62 | 11.72 | 11.96 Mbytes
   Step          Temp          E_pair         E_mol          TotEng         Press     
         0   300            1.3126792e+13  648.90202      1.3126792e+13  1.3120097e+14
       304   300           -23289.349      4230.7032     -17990.025     -333.08885    
Loop time of 3.47595 on 32 procs for 304 steps with 1196 atoms

97.7% CPU use with 32 MPI tasks x 1 OpenMP threads

Minimization stats:
  Stopping criterion = energy tolerance
  Energy initial, next-to-last, final = 
      13126792483695.5  -19056.7766599578  -19058.6458316508
  Force two-norm initial, final = 6.8889864e+14 67.275142
  Force max component initial, final = 3.0247017e+14 22.303684
  Final line search alpha, max atom move = 0.0020699956 0.046168528
  Iterations, force evaluations = 304 541

MPI task timing breakdown:
Section |  min time  |  avg time  |  max time  |%varavg| %total
---------------------------------------------------------------
Pair    | 5.8013e-05 | 0.23216    | 1.9295     |  86.8 |  6.68
Bond    | 6.654e-05  | 0.0022219  | 0.0070854  |   5.3 |  0.06
Kspace  | 1.1676     | 2.8718     | 3.1122     |  24.8 | 82.62
Neigh   | 0.29988    | 0.30016    | 0.30078    |   0.0 |  8.64
Comm    | 0.029073   | 0.049094   | 0.059722   |   3.4 |  1.41
Output  | 0          | 0          | 0          |   0.0 |  0.00
Modify  | 0          | 0          | 0          |   0.0 |  0.00
Other   |            | 0.02054    |            |       |  0.59

Nlocal:         37.375 ave         128 max           0 min
Histogram: 14 10 0 0 0 0 0 0 0 8
Nghost:        1625.59 ave        1777 max        1440 min
Histogram: 8 0 0 0 0 9 7 0 0 8
Neighs:          12734 ave       61572 max           0 min
Histogram: 24 0 0 0 1 1 2 0 2 2

Total # of neighbors = 407487
Ave neighs/atom = 340.70819
Ave special neighs/atom = 10.69398
Neighbor list builds = 16
Dangerous builds = 0

# *************** Setting ******************************
# Neighbor settings
neigh_modify delay 0 every 1 check yes
#neigh_modify    delay 5 every 1

# Define SHAKE constraints for water (O-H bonds and H-O-H angle)
fix spce_model water shake 0.0001 20 0 b 4 a 2
Finding SHAKE clusters ...
       0 = # of size 2 clusters
     240 = # of size 3 clusters
       0 = # of size 4 clusters
       0 = # of frozen angles
  find clusters CPU = 0.001 seconds

# Fix MoS2 as rigid (zero force and velocity)
fix mos_hold mos2 setforce 0.0 0.0 0.0
velocity mos2 set 0.0 0.0 0.0

### Setup for HCrO- transport in radial and axial directions
# Define acceleration/gravity field along x direction (unit kcal/g/A = 4.18*10^7 nm/ns^2)
fix 1 hcro gravity 0.3 vector 1 0 0
# Define force along radial direction (0.001 kcal/mol·e·Å)
# Tube center coordinates: Y=17.5, Z=17.5 (from box bounds)
variable ycenter equal 17.548
variable zcenter equal 17.548
variable r atom sqrt((y-${ycenter})^2+(z-${zcenter})^2)
variable r atom sqrt((y-17.548)^2+(z-${zcenter})^2)
variable r atom sqrt((y-17.548)^2+(z-17.548)^2)
variable fy atom 1.7*(y-${ycenter})/v_r  # positive = outward from tube center
variable fy atom 1.7*(y-17.548)/v_r  
variable fz atom 1.7*(z-${zcenter})/v_r  # positive = outward from tube center
variable fz atom 1.7*(z-17.548)/v_r  
fix radial_out hcro addforce 0 v_fy v_fz

# Set timestep
reset_timestep  0
timestep        1  # fs
fix fix_nvt sol nvt temp 300.0 300.0 200.0

# Thermostat output
thermo          1000
thermo_style    custom step temp etotal press
# dump every 1000fs = 1ps
dump d1 dmp custom 1000 dump.lammpstrj id type mol xu yu zu q

# Run for 5 ns (5,000,000 steps)
run 5000000
PPPM initialization ...
  using 12-bit tables for long-range coulomb (src/src/kspace.cpp:342)
  G vector (1/distance) = 0.2571481
  grid = 12 16 16
  stencil order = 5
  estimated absolute RMS force accuracy = 0.028448941
  estimated relative force accuracy = 8.5673142e-05
  using double precision FFTW3
  3d grid and FFT values/proc = 1053 96
Generated 136 of 136 mixed pair_coeff terms from arithmetic mixing rule
WARNING: Inconsistent image flags (src/src/domain.cpp:815)
Per MPI rank memory allocation (min/avg/max) = 11.87 | 11.94 | 12.1 Mbytes
   Step          Temp          TotEng         Press     
         0   227.54083     -18583.77      -3480.1727    
      1000   192.71206     -17824.703      1450.8629    
      2000   171.3414      -17921.337      1466.7128    
      3000   179.17232     -17942.713      1047.5841    
      4000   176.95318     -17966.723      1159.396     
      5000   178.93337     -17948.558      1559.462     
      6000   180.33196     -17934.494      1624.8259    
      7000   178.73192     -17915.726      1320.6531    
      8000   182.91468     -17931.505      1556.7506    
      9000   180.23008     -17968.222      1650.0785    
     10000   180.1449      -18008.341      804.08612    
     11000   174.25718     -17953.495      1126.9397    
     12000   174.69347     -17960.827      1237.5144    
     13000   173.99934     -18058.504      770.09601    
     14000   186.03533     -17951.5        1143.1087    
     15000   178.63538     -17984.316      1086.5677    
     16000   175.1699      -18046.696      889.26442    
     17000   168.22109     -18019.052      769.83545    
     18000   178.71315     -17996.573      931.30135    
     19000   173.40703     -17986.527      726.00272    
     20000   181.4909      -17961.785      1620.224     
     21000   187.22014     -17953.336      1193.2507    
     22000   178.62794     -17993.189      1308.8963    
     23000   172.43135     -17989.987      1343.3795    
     24000   180.33978     -17982.851      1131.6799    
     25000   188.20438     -17924.93       1400.0596    
     26000   178.97445     -17993.722      1180.0669    
     27000   172.40262     -18041.003      901.46389    
     28000   174.64454     -18022.262      1570.9537    
     29000   172.42995     -18029.8        1088.1107    
     30000   182.63631     -17988.034      1298.5458    
     31000   186.80103     -17970.294      1018.2098    
     32000   180.11825     -18001.834      1521.6377    
     33000   174.48054     -18018.61       798.71568    
     34000   175.31535     -18008.011      1208.1988    
     35000   175.55927     -17983.057      917.89075    
     36000   189.03464     -17975.142      1052.4166    
     37000   185.92666     -18001.791      925.58971    
     38000   179.09794     -18021.828      938.0562     
     39000   181.19178     -17938.504      1482.8881    
     40000   188.35112     -17968.719      961.4001     
     41000   182.65118     -18002.03       814.56311    
     42000   175.57464     -18019.215      1250.715     
     43000   180.89487     -18043.991      1106.1842    
     44000   169.36061     -18041.847      1348.9155    
     45000   181.09111     -17981.506      1747.6775    
     46000   179.53794     -17971.13       1554.2034    
     47000   172.17193     -18052.356      1123.1006    
     48000   174.77573     -18012.351      988.2812     
     49000   179.24285     -17999.836      1313.2164    
     50000   173.10577     -17999.143      1157.1774    
     51000   173.10986     -18032.929      1173.8048    
     52000   174.62924     -18036.918      1236.4871    
     53000   179.20082     -18011.027      573.426      
     54000   179.12581     -17962.153      1618.8436    
     55000   187.38734     -17942.14       1025.5365    
     56000   173.70929     -17992.173      762.29658    
     57000   176.74379     -18018.986      872.9753     
     58000   167.64755     -18044.935      799.23689    
     59000   171.56283     -18039.313      1235.5901    
     60000   175.26906     -17971.161      1602.1822    
     61000   173.29652     -18026.179      502.38972    
     62000   182.20144     -18003.346      957.10987    
     63000   182.25671     -17974.508      1154.8766    
     64000   182.37817     -17979.207      797.60947    
     65000   169.11944     -17993.225      871.71199    
     66000   189.78257     -17980.046      1079.6866    
     67000   180.22902     -17962.508      1640.1292    
     68000   181.2101      -17949.756      796.88206    
     69000   176.10486     -18010.351      1374.3312    
     70000   182.37918     -17971.201      1450.8665    
     71000   185.83147     -17974.292      739.89975    
     72000   171.01832     -18016.191      1097.876     
     73000   181.99982     -18015.492      586.50162    
     74000   179.68716     -18003.809      1164.8947    
     75000   190.65638     -17950.107      902.368      
     76000   173.53325     -18061.654      1019.427     
     77000   177.68324     -18025.078      693.19982    
     78000   183.00371     -17990.479      1205.8718    
     79000   179.79814     -18023.829      937.66132    
     80000   174.17907     -18035.374      997.10943    
     81000   187.54221     -18014.084      1217.7468    
     82000   186.199       -17970.131      1354.4576    
     83000   182.07447     -18012.753      1339.0362    
     84000   172.74681     -18044.535      1172.284     
     85000   179.64145     -18058.164      547.82264    
     86000   180.37265     -18024.719      1086.1191    
     87000   180.8917      -18068.821      1043.5342    
     88000   170.6343      -18078.417      1033.2729    
     89000   178.21761     -18080.152      516.27184    
     90000   182.62476     -18026.88       1007.8533    
     91000   172.2872      -18060.638      670.68094    
     92000   179.13889     -18038.651      818.04109    
     93000   188.76189     -17994.939      1091.6831    
     94000   175.3348      -18020.101      1118.6363    
     95000   177.56256     -18033.951      636.16517    
     96000   178.44139     -18054.913      563.31157    
     97000   169.7306      -18091.887      595.16801    
     98000   178.79903     -18032.975      650.37744    
     99000   175.71211     -18027.562      1043.296     
    100000   183.94546     -18055.461      613.65729    
    101000   171.57493     -18107.828      26.496923    
    102000   180.09901     -18065.864      492.75687    
    103000   180.7779      -18040.856      619.64779    
    104000   176.07847     -18031.608      586.61923    
    105000   183.46207     -17983.901      702.28736    
    106000   193.27831     -17977.205      1004.8931    
    107000   170.965       -18059.567      545.06235    
    108000   182.36745     -18020.749      696.32635    
    109000   176.74967     -18048.759      763.98596    
    110000   172.1566      -18076.187      848.23882    
    111000   170.65734     -18076.621      724.30034    
    112000   181.10178     -18043.624      641.47164    
    113000   179.1376      -18041.974      438.65252    
    114000   172.1684      -18066.412      561.8851     
    115000   177.61824     -18047.346      932.02457    
    116000   168.50067     -18050.177      760.03894    
    117000   179.13369     -18079.279      514.84487    
    118000   188.6146      -18066.677      436.44628    
    119000   185.50392     -18015.654      717.96048    
    120000   185.30439     -18010.562      406.87139    
    121000   181.11388     -18023.602      461.46034    
    122000   187.32233     -18041.551      419.8194     
    123000   165.01029     -18110.031      627.5077     
    124000   168.36991     -18102.473      273.37519    
    125000   184.27889     -18042.793      162.74877    
    126000   184.53815     -18050.741      540.49309    
    127000   172.88381     -18073.002      30.34028     
    128000   175.19286     -18111.613      166.42553    
    129000   181.04075     -18048.737      558.72518    
    130000   171.28938     -18085.225      432.75324    
    131000   185.7359      -18082.34       366.42379    
    132000   173.80197     -18050.475      287.04806    
    133000   174.97819     -18056.904      1036.7736    
    134000   177.96473     -18065.075      224.64203    
    135000   174.61818     -18115.471      282.58675    
    136000   174.75245     -18086.403      456.2751     
    137000   180.41984     -18078.576      508.96799    
    138000   183.59031     -18039.715      483.18754    
    139000   178.69423     -18058.009      737.6536     
    140000   180.24501     -18062.56       408.91233    
    141000   182.67899     -18013.37       726.65059    
    142000   183.16334     -18013.531      673.15564    
    143000   185.22677     -18040.544      390.03063    
    144000   179.1343      -18054.417      189.61145    
    145000   177.20533     -18047.575      901.37738    
    146000   186.72516     -18022.67       451.92079    
    147000   187.01483     -18017.973      983.54442    
    148000   165.64923     -18096.3        318.15866    
    149000   170.20945     -18075.92       387.71058    
    150000   180.99698     -18044.041      539.33553    
    151000   181.91849     -18038.978      67.838396    
    152000   162.26083     -18142.971      151.18721    
    153000   181.86887     -18039.777      291.21992    
    154000   181.82542     -18063.501      233.24933    
    155000   175.57046     -18047.539      594.88554    
    156000   176.24741     -18042.281      526.20937    
    157000   183.37866     -18011.696      384.51066    
    158000   175.76828     -18054.838      681.98609    
    159000   169.9544      -18065.432      219.11856    
    160000   185.10918     -18068.008      339.88696    
    161000   186.8595      -18021.493      829.70001    
    162000   184.373       -17994.423      780.56258    
    163000   178.86236     -18072.012      81.19472     
    164000   165.07092     -18099.794     -70.557629    
    165000   176.81058     -18052.965      743.17769    
    166000   180.59707     -18042.874      1312.8157    
    167000   190.07933     -18036.462      205.53426    
    168000   179.68213     -18071.332      684.75992    
    169000   172.87359     -18091.07       564.53063    
    170000   177.2011      -18052.255      1029.2706    
    171000   180.58241     -18033.378      1134.3593    
    172000   172.83188     -18077.368      557.84615    
    173000   173.85106     -18093.75       463.60942    
    174000   165.26689     -18063.872      568.29165    
    175000   191.50674     -18032.423      589.37343    
    176000   189.05716     -18043.622      512.91774    
    177000   174.3335      -18047.52       713.1858     
    178000   176.45851     -18102.119      120.64337    
    179000   176.88113     -18055.692      611.89682    
    180000   176.34055     -18100.075      135.28168    
    181000   185.86691     -18052.306      690.11992    
    182000   183.65602     -18040.993      518.1895     
    183000   174.78566     -18071.413      835.70422    
    184000   179.21984     -18013.894      982.00423    
    185000   190.26753     -17998.649      806.20102    
    186000   181.4942      -18089.914      20.368844    
    187000   178.62225     -18080.145      500.04686    
    188000   184.46838     -18057.858      453.37597    
    189000   178.53555     -18058.243      341.5187     
    190000   173.62285     -18114.531      209.6934     
    191000   182.92361     -18066.92      -104.95008    
    192000   175.40699     -18050.348      654.13169    
    193000   177.33806     -18062.723      454.27449    
    194000   166.26848     -18089.217      488.89736    
    195000   172.79609     -18094.222     -172.46579    
    196000   179.58303     -18070.485      417.90029    
    197000   185.33838     -18033.557      213.12388    
    198000   178.85567     -18076.706      326.88067    
    199000   177.97081     -18061.939      270.87921    
    200000   178.12071     -18084.555     -73.929359    
    201000   186.76151     -17995.207      849.80364    
    202000   178.15829     -18025.879      524.97988    
    203000   179.56659     -18050.966      796.62096    
    204000   185.35915     -18035.708      632.69975    
    205000   177.30312     -18056.085      626.29261    
    206000   173.74512     -18098.969      553.56541    
    207000   180.0166      -18065.244      357.06709    
    208000   181.96146     -18050.701      388.78737    
    209000   178.32958     -18060.846      844.67268    
    210000   179.84381     -18047.075      204.38994    
    211000   174.89567     -18069.705      644.66172    
    212000   178.48061     -18058.174      455.14429    
    213000   176.84222     -18079.336     -66.230251    
    214000   179.40708     -18032.288      97.793911    
    215000   174.22738     -18051.72       575.12464    
    216000   177.43611     -18085.436     -2.8415334    
    217000   183.01925     -18085.245      171.66969    
    218000   172.11752     -18071.036      361.20778    
    219000   183.47178     -18038.572      625.65839    
    220000   178.76409     -18023.809      564.65922    
    221000   189.54335     -18025.644      551.79833    
    222000   177.65594     -18061.181      507.12313    
    223000   179.22421     -18049.671      416.78129    
    224000   181.79341     -18031.196      585.93731    
    225000   189.24067     -17990.604      439.30572    
    226000   167.21809     -18070.884      802.53727    
    227000   175.1859      -18066.708      583.12284    
    228000   184.91189     -18033.242      368.27769    
    229000   169.42754     -18061.813      606.02549    
    230000   181.05006     -18079.985      595.40709    
    231000   174.27948     -18072.314      446.95332    
    232000   184.61191     -18032.803      670.4357     
    233000   182.0283      -18055.154      459.87327    
    234000   180.33398     -18071.874      710.62539    
    235000   170.7052      -18093.146      667.76516    
    236000   170.54269     -18062.298      954.92832    
    237000   176.70373     -18045.627      403.57072    
    238000   176.88712     -18068.556      328.94517    
    239000   175.299       -18061.287      339.52124    
    240000   180.01993     -18050.911      603.36445    
    241000   179.55502     -18015.776      1252.5623    
    242000   177.11143     -18054.583      640.64103    
    243000   176.52722     -18075.478      404.14377    
    244000   188.3122      -18044.081     -64.922355    
    245000   179.95484     -18021.334      690.60108    
    246000   179.84986     -18028.664     -154.48587    
    247000   175.80905     -18102.591     -336.43756    
    248000   177.71852     -18072.71      -76.170101    
    249000   175.67136     -18051.907      396.95631    
    250000   183.79205     -18049.935      147.64915    
    251000   166.4401      -18092.969     -156.75453    
    252000   174.04281     -18064.698      470.60027    
    253000   179.79168     -18061.798      263.56307    
    254000   178.45864     -18036.043      292.30167    
    255000   180.38721     -18036.56       659.09148    
    256000   174.13356     -18066.367      348.07397    
    257000   170.03845     -18077.701     -224.68641    
    258000   174.62923     -18037.649      319.71975    
    259000   185.23223     -18010.316      448.45321    
    260000   170.97049     -18078.682      435.77534    
    261000   182.69487     -18059.147      568.63742    
    262000   178.9649      -18034.228      100.3459     
    263000   173.82332     -18056.679      279.46209    
    264000   174.29312     -18088.396      703.88111    
    265000   173.77848     -18079.01       483.44514    
    266000   186.071       -17987.925      741.32046    
    267000   170.96667     -18049.345      531.87813    
    268000   177.70436     -18073.247      466.08053    
    269000   174.09776     -18071.56       501.29032    
    270000   175.16586     -18061.506      419.53345    
    271000   187.53611     -18044.979      17.154927    
    272000   178.36051     -18053.126      774.58987    
    273000   169.0061      -18081.566      906.68203    
    274000   171.89062     -18086.962      434.87265    
    275000   180.25066     -18048.819      396.35383    
    276000   175.83551     -18040.036      879.07431    
    277000   190.74598     -18009.588      731.90789    
    278000   176.68849     -18036.035      603.37124    
    279000   172.39832     -18061.592      941.39548    
    280000   171.34775     -18055.844      420.62265    
    281000   177.20993     -18042.23       670.70616    
    282000   183.7391      -18031.672      552.48297    
    283000   177.52584     -18038.507      234.60448    
    284000   173.22556     -18097.289      408.56029    
    285000   180.98219     -18081.799      685.97995    
    286000   182.05344     -18034.986      743.1597     
    287000   185.93941     -18024.35       570.76585    
    288000   182.05563     -18055.967      738.31881    
    289000   179.85811     -18055.777      912.95361    
    290000   185.99572     -18019.13       558.11361    
    291000   185.18547     -17986.475      933.04452    
    292000   176.93838     -18006.117      1361.2816    
    293000   169.27388     -18050.164      489.69305    
    294000   173.90511     -18064.305      731.31791    
    295000   176.74963     -18055.142      606.08134    
    296000   179.81649     -18022.105      900.12052    
    297000   174.50593     -18053.311      573.3829     
    298000   169.74116     -18090.9        548.72965    
    299000   174.16893     -18077.79       347.85704    
    300000   178.90953     -18055.892      173.6443     
    301000   186.68454     -18000.516      844.25818    
    302000   173.21636     -18056.045      461.73245    
    303000   174.17088     -18070.542      604.95095    
    304000   181.90699     -18083.609      47.183036    
    305000   179.60809     -18034.045      791.16632    
    306000   182.93414     -18025.686      1162.1816    
    307000   179.51054     -18051.291      441.75632    
    308000   181.32071     -18103.462      284.26864    
    309000   172.31461     -18046.445      606.51744    
    310000   177.15757     -18027.688      823.93847    
    311000   179.55197     -18009.642      397.66617    
    312000   176.02342     -18023.415      803.03924    
    313000   174.52791     -18035.737      627.84728    
    314000   172.52483     -18062.165      727.91256    
    315000   178.82059     -18037.603      743.75588    
    316000   173.96567     -18044.406      666.63837    
    317000   182.15903     -18037.981      625.66923    
    318000   184.81098     -18010.91       620.48244    
    319000   184.82531     -18038.77       848.92404    
    320000   169.40931     -18060.13       491.36535    
    321000   174.90482     -18050.826      602.9083     
    322000   182.29402     -18046.75       210.87485    
    323000   178.15159     -18068.556      339.32676    
    324000   179.61973     -18041.298      870.90735    
    325000   193.54209     -18025.051      230.59025    
    326000   187.71358     -18014.992      637.25756    
    327000   176.63454     -18082.201      555.56038    
    328000   178.19242     -18086.114      462.06889    
    329000   179.79339     -18033.523      805.10253    
    330000   171.59647     -18042.334      1084.6124    
    331000   179.54673     -18030.535      931.33642    
    332000   183.90256     -18066.397      308.79296    
    333000   177.10688     -18087.207      667.38479    
    334000   179.15107     -18065.238      911.11425    
    335000   178.14593     -18048.403      812.67782    
    336000   173.46449     -18079.668      832.98227    
    337000   173.73426     -18059.017      786.86625    
    338000   175.53096     -18015.787      1278.4346    
    339000   180.72834     -18023.666      1214.8162    
    340000   177.55723     -18052.541      353.48795    
    341000   184.58368     -18046.098      344.8053     
    342000   177.7549      -18002.791      1010.2278    
    343000   180.6085      -18044.877      756.10814    
    344000   177.73094     -18062.183      831.10136    
    345000   174.77201     -18094.026      872.2039     
    346000   181.44439     -18049.267      678.2731     
    347000   185.90348     -18019.932      848.83633    
    348000   170.89798     -18091.765      940.51181    
    349000   172.83103     -18077.909      673.87957    
    350000   180.09054     -18051.186      1045.5799    
    351000   172.32619     -18050.678      1153.931     
    352000   167.46996     -18076.354      788.55576    
    353000   173.55163     -18075.744      1142.961     
    354000   172.99572     -18082.365      701.05466    
    355000   179.76583     -18039.734      415.24705    
    356000   184.23006     -18045.051      211.73089    
    357000   179.96473     -18021.369      903.9183     
    358000   181.09395     -18047.791      832.56       
    359000   181.41603     -18080.188      488.94327    
    360000   174.10425     -18067.717      916.78244    
    361000   176.70016     -18032.024      695.67986    
    362000   185.56379     -18017.84       1234.873     
    363000   175.45488     -18055.818      697.52325    
    364000   181.3796      -18028.087      764.83285    
    365000   181.23098     -18045.008      640.39784    
    366000   177.09101     -18073.104      799.37533    
    367000   163.94974     -18076.479      1095.3345    
    368000   180.54794     -18033.313      895.66872    
    369000   184.10648     -18041.567      663.81395    
    370000   179.60395     -18048.133      867.78516    
    371000   179.48737     -18058.39       588.2199     
    372000   184.09175     -18009.206      1192.5048    
    373000   176.85996     -18018.845      980.26508    
    374000   168.4307      -18071.921      570.22165    
    375000   171.26799     -18060.536      1026.9474    
    376000   185.33815     -18016.312      648.01719    
    377000   179.78809     -18045.326      479.56115    
    378000   178.10687     -18085.871      905.94338    
    379000   174.78168     -18079.163      551.12956    
    380000   179.53133     -18057.083      522.09136    
    381000   170.52426     -18041.881      1183.0616    
    382000   172.47507     -18046.079      699.14479    
    383000   176.65065     -18091.276      638.30412    
    384000   177.26479     -18055.668      1029.3996    
    385000   174.5736      -18056.239      954.88375    
    386000   181.87965     -18044.497      716.51919    
    387000   176.79339     -18088.695      673.68658    
    388000   171.00979     -18085.8        832.43728    
    389000   165.45469     -18090.787      769.03875    
    390000   174.14316     -18070.683      986.77722    
    391000   185.31912     -18023.375      909.9558     
    392000   187.27247     -18030.155      391.23077    
    393000   171.73836     -18052.683      1143.7224    
    394000   174.12879     -18080.873      513.71019    
    395000   181.04373     -18072.483      468.6378     
    396000   177.77087     -18046.088      954.16601    
    397000   176.43407     -18037.216      594.49198    
    398000   177.6215      -18061.65       888.87795    
    399000   172.57286     -18095.463      959.97057    
    400000   175.05071     -18071.097      213.19409    
    401000   188.46899     -18041.651      876.93001    
    402000   179.16255     -18066.525      275.27102    
    403000   168.24551     -18106.44       275.89529    
    404000   170.18559     -18105.964      551.80914    
    405000   171.11769     -18090.461      633.41367    
    406000   174.53695     -18059.926      706.28059    
    407000   186.20695     -18019.8        651.59238    
    408000   182.84712     -18040.73       628.66933    
    409000   175.98707     -18062.072      479.6102     
    410000   172.16935     -18084.279      965.63108    
    411000   175.86345     -18067.585      572.44013    
    412000   184.46128     -18013.682      407.06079    
    413000   174.72947     -18070.728      197.00379    
    414000   183.91462     -18076.144      765.3113     
    415000   168.26988     -18068.582      1011.6866    
    416000   180.92667     -18042.326      574.58811    
    417000   174.66115     -18111.621      445.15564    
    418000   171.16686     -18087.168      730.76129    
    419000   177.42825     -18040.814      838.18817    
    420000   168.21707     -18077.15       892.35026    
    421000   177.60143     -18036.858      1118.4915    
    422000   185.17222     -18039.727      530.90899    
    423000   179.49199     -18063.461      957.7086     
    424000   181.72018     -18068.808      631.57913    
    425000   177.2835      -18055.868      983.34248    
    426000   178.23781     -18048.947      851.23642    
    427000   189.06601     -18013.887      742.23244    
    428000   185.45846     -18024.251      1301.4232    
    429000   177.50785     -18031.761      490.64947    
    430000   172.72574     -18054.077      446.45718    
    431000   172.60042     -18114.462      611.80391    
    432000   178.93546     -18095.499      303.44141    
    433000   185.02299     -18049.325      739.86144    
    434000   175.57622     -18046.836      954.7336     
    435000   173.16023     -18068.663      684.88051    
    436000   171.42989     -18092.367      501.0691     
    437000   177.67136     -18068.374      651.76407    
    438000   179.56352     -18047.786      639.0656     
    439000   181.74505     -18028.309      664.31496    
    440000   189.87337     -18008.873      792.49439    
    441000   180.3133      -18047.274      685.21331    
    442000   174.71121     -18058.142      1102.7385    
    443000   173.87068     -18065.81       763.65482    
    444000   173.17198     -18085.945      586.93689    
    445000   179.99518     -18079.047      727.55854    
    446000   179.91152     -18033.941      286.95821    
    447000   179.48644     -18038.933      669.67101    
    448000   175.95958     -18066.516      661.24249    
    449000   173.72712     -18091.335      687.50906    
    450000   181.18277     -18057.952      672.01507    
    451000   174.06202     -18040.588      942.14687    
    452000   170.44947     -18065.489      773.89607    
    453000   176.8615      -18051.851      610.44837    
    454000   182.03655     -18045.571      970.84054    
    455000   178.78649     -18026.773      403.26046    
    456000   175.46653     -18033.892      642.06781    
    457000   178.38202     -18004.445      1167.848     
    458000   182.32837     -18031.011      548.06319    
    459000   180.71269     -18051.906      691.94605    
    460000   169.63252     -18084.207      310.18574    
    461000   181.44005     -18042.468      741.53009    
    462000   172.85814     -18040.139      1183.3912    
    463000   172.13985     -18021.076      904.80814    
    464000   189.65665     -17975.59       1139.8964    
    465000   171.48234     -18056.264      1131.6186    
    466000   174.8941      -18024.893      1219.1211    
    467000   178.76938     -18048.432      567.63143    
    468000   174.83938     -18053.483      844.35347    
    469000   186.20035     -17999.083      652.23782    
    470000   182.92632     -18006.764      538.94405    
    471000   174.70872     -18055.478      549.53574    
    472000   182.58484     -18028.229      1111.4709    
    473000   182.55437     -18006.666      769.98394    
    474000   172.19913     -18064.225      960.66814    
    475000   173.79698     -18064.95       565.41849    
    476000   175.83824     -18053.729      121.99115    
    477000   181.47361     -18015.516      875.79379    
    478000   188.17711     -18001.712      774.06177    
    479000   183.51779     -18004.842      976.06279    
    480000   171.43888     -18077.295      540.63938    
    481000   175.35642     -18036.103      1164.9242    
    482000   180.26922     -18022.518      904.92434    
    483000   179.80162     -18034.144      615.47441    
    484000   181.96926     -18044.289      804.11849    
    485000   181.72954     -18045.25       763.53389    
    486000   182.71356     -18017.129      922.55806    
    487000   184.12247     -17992.551      716.03872    
    488000   185.19006     -18013.565      1154.1292    
    489000   185.69412     -18026.637      809.62904    
    490000   170.0051      -18069.181      811.16183    
    491000   178.29043     -18043.901      1209.9845    
    492000   176.8824      -18037.551      1168.772     
    493000   187.67685     -17983.969      931.18954    
    494000   184.34226     -18003.802      1113.0066    
    495000   171.66012     -18051.363      602.94266    
    496000   170.76326     -18064.301      788.01184    
    497000   165.09148     -18083.255      996.567      
    498000   177.1212      -18044.103      832.61313    
    499000   182.84166     -18033.352      802.17893    
    500000   178.76566     -18021.996      1224.4512    
    501000   172.4527      -18069.969      802.16976    
    502000   168.91083     -18071.106      940.39191    
    503000   171.59749     -18047.067      983.75468    
    504000   180.66943     -18018.567      830.80821    
    505000   182.90771     -17991.273      1019.4953    
    506000   172.86728     -18036.63       1020.8485    
    507000   173.73637     -18062.807      816.27884    
    508000   180.92905     -18038.018      814.49083    
    509000   177.56589     -18028          894.50309    
    510000   179.81059     -18009.996      1004.9153    
    511000   181.77343     -17982.459      1188.6271    
    512000   176.24847     -18013.551      1276.7548    
    513000   174.69789     -18038.891      708.78339    
    514000   186.1342      -18018.881      1159.1197    
    515000   190.48512     -17996.115      722.25569    
    516000   178.12028     -18020.316      745.62044    
    517000   176.02107     -18025.91       984.82398    
    518000   173.6864      -18031.619      992.0289     
    519000   179.21106     -18015.681      479.25358    
    520000   199.45811     -17953.238      854.15153    
    521000   175.01836     -18044.233      340.54067    
    522000   167.4586      -18056.949      819.5246     
    523000   177.16822     -18082.353      337.98112    
    524000   176.37733     -18047.678      975.86388    
    525000   179.57001     -18016.309      1078.5613    
    526000   176.76318     -18014.63       909.74663    
    527000   177.97939     -18064.639      596.32988    
    528000   174.64727     -18058.503      654.08435    
    529000   176.40827     -18032.739      739.4945     
    530000   172.73622     -18044.043      981.28784    
    531000   178.01715     -18065.766      741.31599    
    532000   171.98528     -18068.277      497.93593    
    533000   175.8649      -18036.017      862.45133    
    534000   176.40493     -18045.242      402.1192     
    535000   175.87257     -18078.958      727.22585    
    536000   184.82045     -18052.61       452.34583    
    537000   193.584       -18017.267      506.68483    
    538000   176.4613      -18009.414      632.80393    
    539000   172.74771     -18057.872      684.43711    
    540000   178.99314     -18022.076      1031.476     
    541000   181.33478     -17998.332      1275.6679    
    542000   184.11621     -18027.334      909.28127    
    543000   175.20083     -18061.543      692.54676    
    544000   177.93306     -18043.622      337.38991    
    545000   182.6499      -18017.565      976.45503    
    546000   186.62989     -18049.859      1019.391     
    547000   171.67468     -18068.816      804.53207    
    548000   169.07858     -18080.625      884.20544    
    549000   175.78688     -18044.156      659.36578    
    550000   174.51597     -18021.965      874.35205    
    551000   177.43626     -18049.207      880.93625    
    552000   170.90539     -18047.599      503.82014    
    553000   169.24648     -18072.544      666.26298    
    554000   175.40109     -18054.988      807.2199     
    555000   179.47571     -18020.597      1205.865     
    556000   181.48705     -18043.682      978.27311    
    557000   168.24431     -18060.414      584.13264    
    558000   176.27277     -18027.841      875.72798    
    559000   189.37591     -17984.482      1160.6008    
    560000   178.36691     -18025.938      1076.6412    
    561000   167.32991     -18052.167      872.21515    
    562000   171.9901      -18049.49       888.44655    
    563000   187.13723     -18014.674      781.4836     
    564000   175.24647     -18006.869      1303.8838    
    565000   180.9634      -18034.12       1045.3857    
    566000   176.14507     -18074.501      711.84509    
    567000   166.98173     -18077.404      254.28553    
    568000   182.89635     -18009.112      1368.1803    
    569000   189.85708     -17996.865      780.05562    
    570000   181.83924     -17991.617      1211.3261    
    571000   175.64042     -18051.975      840.75954    
    572000   177.98876     -18029.948      469.44859    
    573000   185.01874     -17995.679      934.77458    
    574000   182.48418     -18013.745      953.66386    
    575000   171.61645     -18049.318      1075.7596    
    576000   180.15891     -18039.521      551.23989    
    577000   169.7052      -18060.758      1088.909     
    578000   178.1988      -18028.505      1111.9618    
    579000   180.91161     -17995.929      1075.408     
    580000   172.05611     -18036.641      877.41203    
    581000   175.04025     -18006.697      1127.8754    
    582000   185.79224     -17979.301      1547.7767    
    583000   179.29226     -18001.599      1270.2049    
    584000   175.82089     -17995.945      1490.8678    
    585000   169.40617     -18079.192      650.39862    
    586000   185.73551     -17972.201      1102.4421    
    587000   187.54631     -17968.38       1285.8636    
    588000   182.29463     -17989.327      1231.1988    
    589000   176.88876     -18021.35       1142.423     
    590000   185.78433     -17972.617      1167.9342    
    591000   182.69736     -17962.922      1508.9165    
    592000   182.8003      -17988.85       1350.2744    
    593000   173.53398     -18028.302      1432.6209    
    594000   178.64508     -17982.878      1161.5649    
    595000   178.47404     -17998.982      1443.8194    
    596000   173.79131     -18019.264      1315.1057    
    597000   171.5859      -18056.552      1208.2973    
    598000   174.7208      -17982.546      1273.217     
    599000   181.91592     -17969.529      1317.0633    
    600000   179.35262     -17953.778      1255.0291    
    601000   170.9066      -17987.725      1429.1156    
    602000   183.1306      -17971.418      1457.0267    
    603000   181.03159     -17903.189      1866.8688    
    604000   168.81182     -17985.378      1488.9743    
    605000   190.35444     -17942.048      1355.0173    
    606000   184.19263     -17944.272      1776.8254    
    607000   190.55101     -17949.875      1375.1949    
    608000   177.08729     -17947.585      1045.1704    
    609000   178.06961     -17959.966      1528.5907    
    610000   177.88651     -17995.593      1210.9184    
    611000   176.49119     -17999.89       1463.6013    
    612000   175.40198     -18002.948      1167.0658    
    613000   185.40441     -17961.688      1384.923     
    614000   187.74377     -17961.781      1121.9365    
    615000   176.55447     -17965.345      1067.724     
    616000   183.30887     -17977.785      936.03432    
    617000   188.63633     -17998.777      429.28228    
    618000   177.45739     -17980.719      941.01327    
    619000   169.88522     -18018.283      750.25048    
    620000   168.72127     -18003.571      1091.2197    
    621000   176.90468     -17974.706      780.93826    
    622000   175.39769     -17979.321      1050.4222    
    623000   180.62465     -17976.394      1181.9608    
    624000   169.44203     -18001.031      913.62169    
    625000   171.59916     -18043.548      972.30562    
    626000   186.35348     -17963.82       1064.8498    
    627000   188.97642     -17944.225      1157.6087    
    628000   186.07918     -17975.588      1293.6945    
    629000   169.6646      -17997.268      733.39963    
    630000   172.05222     -18007.982      1133.4241    
    631000   188.27648     -17949.902      907.47943    
    632000   183.4053      -17955.75       1181.0151    
    633000   162.35931     -18012.608      1060.8095    
    634000   176.94548     -18005.967      883.92852    
    635000   175.47273     -17987.688      1356.8242    
    636000   177.94454     -17954.387      852.77384    
    637000   185.90052     -17998.47       884.56681    
    638000   183.61293     -18005.606      749.47249    
    639000   171.64084     -18012.346      1417.0004    
    640000   174.15835     -18022.317      1170.6945    
    641000   180.28556     -17989.767      856.06776    
    642000   180.27522     -17980.209      892.60751    
    643000   182.29913     -17973.662      829.12741    
    644000   174.56859     -18012.076      668.50354    
    645000   170.85636     -18014.152      969.26012    
    646000   177.86257     -18015.27       742.92821    
    647000   181.57112     -17991.875      1041.7661    
    648000   176.2007      -17985.244      1239.8621    
    649000   181.21118     -17990.328      931.77913    
    650000   174.98553     -18001.569      981.97861    
    651000   173.07354     -18036.016      916.71964    
    652000   173.42622     -18015.035      910.98812    
    653000   180.69734     -18010.354      624.43836    
    654000   179.32473     -17995.531      595.74002    
    655000   182.80211     -18007.106      761.73714    
    656000   177.41108     -18008.179      724.87218    
    657000   176.33772     -17986.008      1134.1085    
    658000   192.10618     -17971.867      1182.0787    
    659000   181.65437     -17961.587      723.8743     
    660000   178.84525     -17995.182      975.0822     
    661000   185.90006     -18021.887      643.83813    
    662000   174.29663     -18002.035      1355.6971    
    663000   188.46527     -17953.193      546.99005    
    664000   182.82111     -17980.658      821.1413     
    665000   178.25668     -18021.524      1066.0613    
    666000   166.70441     -18056.403      786.13885    
    667000   179.19083     -18038.146      672.96012    
    668000   176.2416      -18015.241      1065.8813    
    669000   177.67801     -18019.394      1273.459     
    670000   176.91608     -18030.064      484.15714    
    671000   176.44395     -18018.061      1195.5856    
    672000   184.44371     -18007.885      681.97212    
    673000   189.46266     -17978.524      956.09934    
    674000   182.93804     -17999.854      1047.557     
    675000   174.51471     -18004.439      701.95045    
    676000   174.95514     -18014.95       836.21675    
    677000   179.68238     -17995.535      952.69963    
    678000   173.96796     -18017.507      951.20712    
    679000   175.79777     -18014.064      1101.0096    
    680000   174.36154     -17968.97       1167.3795    
    681000   185.32894     -17978.292      1362.6606    
    682000   174.38412     -18026.007      1290.0746    
    683000   172.88088     -18058.729      792.70247    
    684000   172.2698      -18051.381      696.54686    
    685000   180.85215     -17977.912      945.08668    
    686000   180.63046     -17998.637      1352.094     
    687000   174.74688     -18004.498      795.64011    
    688000   180.53319     -17989.746      1106.5397    
    689000   183.08684     -17953.125      1312.1651    
    690000   172.47905     -18030.12       778.24062    
    691000   183.56377     -18037.046      685.69294    
    692000   186.78773     -17950.561      1289.6252    
    693000   173.21267     -17990.632      646.15088    
    694000   179.30908     -17996.749      536.18295    
    695000   179.81227     -17972.089      1226.1227    
    696000   185.00632     -17971.537      1235.3044    
    697000   181.11131     -17979.031      1302.3006    
    698000   174.16323     -18007.614      673.309      
    699000   175.1174      -18015.545      189.16885    
    700000   180.83514     -17989.884      160.53155    
    701000   181.63191     -17993.819      566.49672    
    702000   170.05353     -17994.869      734.57069    
    703000   171.66137     -18027.267      472.03544    
    704000   178.89935     -18032.148      656.19463    
    705000   180.13697     -18005.51       400.68018    
    706000   189.02655     -17970.708      639.86576    
    707000   192.01773     -17963.451      734.92255    
    708000   185.97891     -18006.714      400.92815    
    709000   174.4523      -18038.481      635.81027    
    710000   168.46048     -18061.497     -16.338919    
    711000   171.60576     -18017.881      707.07429    
    712000   182.164       -17968.115      514.71794    
    713000   186.19623     -17968.75       412.63896    
    714000   178.05474     -18010.69       404.37359    
    715000   178.1938      -18026.789      193.84676    
    716000   180.66895     -18043.702      643.60629    
    717000   177.7564      -18051.622      550.20647    
    718000   188.35102     -17998.121      704.7168     
    719000   185.64538     -17988.895      804.22581    
    720000   175.74071     -18041.802      863.85446    
    721000   169.7505      -18074.511      470.99279    
    722000   197.58701     -17965.888      975.85975    
    723000   177.44135     -18042.091      739.04715    
    724000   176.68167     -18064.203      455.53626    
    725000   176.41205     -18089.948      371.69731    
    726000   171.66353     -18101.489      534.85781    
    727000   167.29681     -18117.808      980.56256    
    728000   183.42684     -18048.804      522.55163    
    729000   184.16982     -18026.367      564.39409    
    730000   172.96476     -18117.193      13.974765    
    731000   184.73417     -18036.933      522.0659     
    732000   179.44271     -18047.265      344.29323    
    733000   172.84099     -18107.403     -182.67443    
    734000   171.15215     -18102.698      358.68912    
    735000   171.92967     -18077.104      587.87043    
    736000   180.36205     -18061.645      348.50409    
    737000   177.03913     -18023.759      1057.3175    
    738000   188.47555     -17987.735      700.06828    
    739000   186.31159     -18073.298      576.00851    
    740000   172.18316     -18086.349      585.45274    
    741000   178.9958      -18065.565      972.7169     
    742000   177.67543     -18072.728      565.40504    
    743000   176.02652     -18049.117      366.05345    
    744000   171.9736      -18073.165      812.94774    
    745000   180.57692     -18043.085      1009.6504    
    746000   173.771       -18066.454      341.56749    
    747000   171.73353     -18085.746      674.32179    
    748000   177.41475     -18070.186      471.22908    
    749000   189.12581     -18045.234      730.84939    
    750000   183.36031     -18060.977      548.16264    
    751000   172.9067      -18079.469      465.44735    
    752000   180.96475     -18060.049      769.38725    
    753000   171.9825      -18041.097      1199.755     
    754000   183.71543     -18043.564      521.22796    
    755000   175.55435     -18087.289      377.179      
    756000   183.1334      -18088.818      390.50418    
    757000   176.96483     -18053.012      791.63381    
    758000   188.7302      -18043.259      547.84635    
    759000   190.21015     -18017.959      810.18479    
    760000   178.48124     -18044.445      498.49446    
    761000   176.06097     -18065.229      572.07656    
    762000   167.38469     -18081.721      609.99399    
    763000   176.50222     -18055.667      730.54624    
    764000   175.12375     -18097.195      903.28154    
    765000   177.47337     -18117.839      493.38547    
    766000   181.56351     -18087.466      213.76981    
    767000   175.9267      -18073.082      997.23841    
    768000   185.51256     -18052.291      616.63537    
    769000   180.03479     -18069.126      426.25036    
    770000   169.44957     -18094.079      692.32656    
    771000   178.68773     -18078.207      325.61513    
    772000   187.25645     -18005.555      740.07966    
    773000   178.11392     -18085.603      332.88393    
    774000   176.95578     -18085.937      350.09862    
    775000   183.24663     -18050.93       744.49963    
    776000   184.49914     -18025.447      696.52221    
    777000   170.45929     -18096.721      616.92425    
    778000   171.60818     -18084.311      397.44174    
    779000   171.75896     -18073.865      841.92182    
    780000   186.56474     -18053.477      190.08172    
    781000   179.54615     -18109.662      573.06115    
    782000   174.11418     -18104.104      614.75037    
    783000   174.65625     -18074.021      512.30032    
    784000   176.89581     -18049.7        550.08408    
    785000   182.41912     -18054.889      836.16006    
    786000   178.08706     -18081.872      451.22898    
    787000   177.75587     -18087.515      442.09933    
    788000   177.40382     -18066.071      305.35507    
    789000   184.66586     -18074.232      355.83976    
    790000   179.23172     -18103.802      933.3748     
    791000   160.56503     -18105.572      552.79149    
    792000   170.40574     -18073.33       949.62585    
    793000   183.91084     -18063          831.03317    
    794000   182.6504      -18052.222      511.37251    
    795000   178.03636     -18086.838      570.33353    
    796000   171.83134     -18140.599      376.77862    
    797000   177.99039     -18087.937      387.03535    
    798000   178.65641     -18071.567      630.61429    
    799000   179.80919     -18080.153      217.19897    
    800000   169.98282     -18119.759      686.34023    
    801000   170.36886     -18117.694      332.46488    
    802000   170.98892     -18102.52       535.33009    
    803000   172.05116     -18092.004      750.22562    
    804000   181.37639     -18081.127      535.09608    
    805000   179.3267      -18103.858      225.06328    
    806000   180.89041     -18101.232      33.374109    
    807000   180.70822     -18078.43       286.13111    
    808000   175.89872     -18077.393      385.27165    
    809000   179.80309     -18072.741      694.20796    
    810000   185.84359     -18050.178      515.58041    
    811000   177.68024     -18050.19       479.31171    
    812000   174.75456     -18092.114      1018.4098    
    813000   185.15275     -18082.851      404.01903    
    814000   178.56407     -18078.861      590.09482    
    815000   181.55234     -18040.508      639.80164    
    816000   182.63361     -18050.197      414.75885    
    817000   181.75935     -18061.313      648.19058    
    818000   178.65411     -18110.432      508.08511    
    819000   177.50541     -18079.233      35.884048    
    820000   179.12478     -18060.425      746.56524    
    821000   185.52416     -18045.225     -0.3239248    
    822000   174.14378     -18065.075      198.83667    
    823000   174.92642     -18088.554      269.18428    
    824000   173.12361     -18048.318      1131.2669    
    825000   183.98224     -18044.785      637.75259    
    826000   184.53989     -18077.669      760.26514    
    827000   173.37009     -18085.47       734.41851    
    828000   182.66898     -18029.139      941.12322    
    829000   167.0308      -18081.437      1044.3498    
    830000   173.236       -18102.373      774.93549    
    831000   181.912       -18086.386      285.8347     
    832000   183.10602     -18051.642      976.39531    
    833000   176.44222     -18082.598      665.99217    
    834000   165.2842      -18114.085      987.33888    
    835000   176.0551      -18119.123     -30.591232    
    836000   182.25082     -18055.029      281.59098    
    837000   174.65338     -18096.126      718.33076    
    838000   179.86345     -18038.019      667.28339    
    839000   182.53262     -18037.101      538.92973    
    840000   186.30651     -18051.001      487.46313    
    841000   177.38498     -18070.698      467.13332    
    842000   172.43905     -18099.681      678.03647    
    843000   168.26646     -18123.095      515.52378    
    844000   168.6633      -18089.528      841.51978    
    845000   181.53056     -18060.838      527.18405    
    846000   178.98248     -18084.625      584.0327     
    847000   184.02968     -18038.543      277.30182    
    848000   177.70377     -18044.447      1199.5237    
    849000   188.85491     -18104.66       534.09427    
    850000   179.84402     -18090.861      726.3884     
    851000   180.54641     -18066.498      802.56358    
    852000   188.04562     -18030.627      403.81723    
    853000   186.95671     -18073.55       285.48755    
    854000   179.0605      -18090.786      719.84961    
    855000   179.97752     -18097.659      303.28352    
    856000   179.0237      -18052.285      818.04096    
    857000   178.04981     -18070.372      495.40515    
    858000   164.59638     -18106.499      364.17368    
    859000   173.48222     -18082.116      664.09837    
    860000   171.19235     -18063.325      365.97359    
    861000   170.46319     -18082.381      465.6286     
    862000   169.13623     -18140.699      25.095839    
    863000   176.70922     -18112.258      323.60632    
    864000   169.4977      -18080.922      702.90864    
    865000   177.33829     -18067.272      399.08939    
    866000   182.29649     -18046.74       620.22504    
    867000   190.66769     -18034.409      915.61698    
    868000   182.3817      -18083.306      190.53214    
    869000   177.22602     -18084.861      424.52216    
    870000   177.10735     -18051.979      765.77254    
    871000   172.47666     -18085.627      882.12732    
    872000   175.97946     -18091.734      285.98158    
    873000   177.13147     -18080.705      565.77629    
    874000   171.08593     -18112.791      351.53219    
    875000   176.22753     -18090.323      563.81886    
    876000   186.21346     -18041.354      256.53605    
    877000   184.39276     -18053.923      790.67054    
    878000   180.61356     -18086.684      653.96333    
    879000   166.88478     -18096.24       499.31993    
    880000   180.6321      -18098.587      660.96688    
    881000   182.40985     -18074.364      755.18543    
    882000   181.86906     -18054.829      644.95706    
    883000   168.37193     -18128.975      630.62751    
    884000   178.13348     -18103.148      652.95089    
    885000   186.62061     -18074.522      310.39292    
    886000   178.47122     -18052.338      729.18981    
    887000   174.12238     -18067.357      637.30125    
    888000   176.02712     -18079.607      225.80965    
    889000   175.5013      -18088.955      339.04624    
    890000   176.56612     -18089.768      227.2054     
    891000   192.65504     -18041.972      631.85247    
    892000   180.38231     -18034.001      1071.2012    
    893000   186.66044     -18059.99       416.70548    
    894000   181.52671     -18074.749      375.92982    
    895000   169.05958     -18149.084      268.78657    
    896000   178.01553     -18056.85       614.42005    
    897000   175.67168     -18044.827      455.73661    
    898000   171.64432     -18088.478      521.45524    
    899000   172.83757     -18077.006      771.15499    
    900000   180.86138     -18055.545      878.95239    
    901000   172.60904     -18077.174      464.01963    
    902000   175.8345      -18104.502      369.06044    
    903000   174.77336     -18080.043      506.13412    
    904000   185.95333     -18043.581      164.84473    
    905000   177.92476     -18064.641      600.11747    
    906000   172.12097     -18129.514      426.80124    
    907000   174.94859     -18083.311      295.91339    
    908000   179.64778     -18046.448      654.63564    
    909000   179.986       -18045.15       726.08196    
    910000   187.84002     -18021.832      712.40667    
    911000   185.32963     -18068.903      300.7414     
    912000   176.82473     -18070.144      466.10083    
    913000   169.93695     -18092.219      180.31265    
    914000   177.71708     -18060.564      543.79809    
    915000   183.59651     -18048.06       974.17352    
    916000   179.85826     -18068.079      478.21367    
    917000   171.05743     -18115.931      91.395827    
    918000   169.17597     -18122.103      534.03695    
    919000   185.53136     -18064.312      240.38357    
    920000   186.42804     -18047.49       578.71646    
    921000   185.76119     -18078.061      421.90751    
    922000   178.3465      -18103.116      543.2096     
    923000   172.97475     -18119.357      340.5668     
    924000   164.45007     -18132.459      488.96112    
    925000   174.91988     -18084.151      761.38261    
    926000   183.70782     -18065.434      653.15335    
    927000   174.79055     -18139.059      338.64616    
    928000   185.2324      -18054.25       450.13912    
    929000   188.65106     -18046.167      1016.6669    
    930000   173.10272     -18159.005      178.32635    
    931000   184.6443      -18061.566      594.37608    
    932000   180.58967     -18067.122      590.12562    
    933000   177.29714     -18093.583      990.96993    
    934000   170.3204      -18116.634      219.36095    
    935000   170.87818     -18101.016      384.79307    
    936000   177.76023     -18058.576      648.53674    
    937000   176.88627     -18080.022      719.94292    
    938000   166.54221     -18106.838      521.65655    
    939000   184.38643     -18088.652      281.57929    
    940000   178.62713     -18062.361      476.29636    
    941000   172.12807     -18097.546      576.77       
    942000   171.88685     -18096.88       799.45856    
    943000   173.92537     -18069.133      1019.5184    
    944000   182.53974     -18045.895      401.12867    
    945000   183.71992     -18062.957      432.35832    
    946000   174.76547     -18096.311      538.1736     
    947000   178.65837     -18065.488      493.79702    
    948000   181.51152     -18053.504      265.17853    
    949000   176.2157      -18078.803      831.56806    
    950000   181.40772     -18069.153      239.33204    
    951000   190.54302     -18088.546      125.39959    
    952000   172.49644     -18123.539      342.9274     
    953000   180.18648     -18067.466      769.98189    
    954000   191.22189     -18080.995      202.82849    
    955000   173.06406     -18099.433      274.34708    
    956000   167.45566     -18147.54       174.6533     
    957000   179.97852     -18094.623      426.94873    
    958000   180.39082     -18063.178      487.05861    
    959000   179.98622     -18034.482      496.21045    
    960000   180.25475     -18083.598      154.52829    
    961000   170.49599     -18104.994      868.90659    
    962000   188.74821     -18037.314      426.9133     
    963000   189.28058     -18032.638      668.36449    
    964000   174.11797     -18100.818      340.09171    
    965000   177.47798     -18070.972      907.03678    
    966000   186.49162     -18051.291      567.73936    
    967000   181.10095     -18091.636      198.67699    
    968000   172.13181     -18084.323      461.40961    
    969000   186.57506     -18047.917      348.48444    
    970000   177.82652     -18043.869      443.59877    
    971000   179.18603     -18062.692      243.59668    
    972000   183.01262     -18079.285      303.39878    
    973000   165.20963     -18150.631     -48.862371    
    974000   177.16221     -18095.748      310.26937    
    975000   183.44426     -18073.121      220.57504    
    976000   164.90478     -18118.229      224.60845    
    977000   168.36889     -18142.003      439.63306    
    978000   178.61947     -18064.675      878.32044    
    979000   183.73452     -18072.861      255.84066    
    980000   174.86689     -18125.997     -6.4061416    
    981000   189.66787     -18050.852      904.0669     
    982000   179.34043     -18080.658      780.636      
    983000   171.59104     -18128.106      404.89793    
    984000   176.04863     -18095.933      593.48237    
    985000   180.86273     -18071.653      469.72724    
    986000   175.61902     -18105.302      516.54982    
    987000   181.64519     -18118.509      109.62091    
    988000   173.42203     -18073.789      733.28561    
    989000   175.79941     -18098.841      645.34138    
    990000   168.29169     -18133.388      294.7097     
    991000   180.22604     -18073.452      1012.0269    
    992000   178.0197      -18087.689      382.06192    
    993000   177.24161     -18094.737      357.84995    
    994000   173.74454     -18111.256      459.96759    
    995000   173.62033     -18062.289      659.85746    
    996000   177.27475     -18043.348      1032.352     
    997000   189.04523     -18065.134      185.07631    
    998000   179.06869     -18101.152      623.17925    
    999000   179.44756     -18100.717      672.60491    
   1000000   177.68064     -18072.909      757.93984    
   1001000   190.11781     -18015.177      755.52886    
   1002000   175.4177      -18091.128      118.71143    
   1003000   173.03033     -18098.582      530.43815    
   1004000   191.63396     -18038.674      446.25261    
   1005000   179.36203     -18048.161      790.63802    
   1006000   181.29819     -18074.24       598.32369    
   1007000   175.38348     -18080.684      507.71566    
   1008000   191.84335     -18056.603      372.31745    
   1009000   183.95115     -18083.282      505.54979    
   1010000   185.22232     -18082.826      312.5467     
   1011000   172.3237      -18128.03       358.99248    
   1012000   178.83519     -18117.34       186.84783    
   1013000   179.28813     -18081.765      467.21242    
   1014000   173.41195     -18071.719      514.5914     
   1015000   174.63585     -18126.113      531.85471    
   1016000   169.0984      -18102.998      291.41034    
   1017000   179.68758     -18043.845      676.75949    
   1018000   180.54971     -18057.807      353.85775    
   1019000   165.99234     -18137.02       313.76318    
   1020000   177.33983     -18097.322      265.05556    
   1021000   171.60442     -18077.6        822.58917    
   1022000   182.51642     -18054.742      872.61931    
   1023000   176.65849     -18080.805      649.56048    
   1024000   171.11936     -18130.292      166.75198    
   1025000   179.80027     -18117.008      251.49703    
   1026000   180.50967     -18054.153      896.92646    
   1027000   180.23243     -18066.975      858.6706     
   1028000   166.42174     -18141.866      464.08357    
   1029000   180.04768     -18079.49       864.81947    
   1030000   173.55082     -18057.824      451.92676    
   1031000   169.8742      -18088.587      987.05465    
   1032000   168.54313     -18114.947      457.6693     
   1033000   176.28275     -18112.85       398.52122    
   1034000   175.6776      -18108.916     -213.85325    
   1035000   175.07061     -18070.125      312.86004    
   1036000   187.04391     -18042.646      654.89376    
   1037000   173.93091     -18076.008      1021.2548    
   1038000   168.30398     -18119.178      364.58513    
   1039000   180.7441      -18093.321      527.55449    
   1040000   181.03208     -18045.897      933.73326    
   1041000   172.2415      -18090.092      406.50257    
   1042000   173.8673      -18080.797      930.90541    
   1043000   189.09587     -18050.559      510.91456    
   1044000   180.07804     -18084.083      456.39218    
   1045000   167.81927     -18107.347      844.81489    
   1046000   183.54975     -18072.313      487.07223    
   1047000   175.73962     -18089.027      404.05895    
   1048000   174.60403     -18107.681      170.46343    
   1049000   180.32239     -18095.981      484.66761    
   1050000   173.02163     -18082.37       402.28264    
   1051000   181.1118      -18058.181      402.74357    
   1052000   178.72821     -18091.97       483.48432    
   1053000   171.30094     -18123.287      500.86754    
   1054000   179.33414     -18128.584      218.66344    
   1055000   178.70113     -18094.861      582.61703    
   1056000   179.65532     -18091.001      546.66409    
   1057000   177.25252     -18086.097      623.26486    
   1058000   178.17471     -18031.963      886.15233    
   1059000   189.93893     -18051.263      379.24787    
   1060000   178.80405     -18056.892      656.40788    
   1061000   176.06516     -18089.545      771.03218    
   1062000   167.19996     -18148.61      -26.186786    
   1063000   170.10609     -18054.304      1142.4599    
   1064000   182.73098     -18066.503      779.31232    
   1065000   176.3227      -18101.312      753.00095    
   1066000   181.5888      -18082.248      539.5747     
   1067000   178.76053     -18066.709      656.03666    
   1068000   173.53192     -18095.431      840.67945    
   1069000   170.65789     -18108.931      392.51316    
   1070000   179.20684     -18082.037      270.79146    
   1071000   179.44989     -18114.717      496.14724    
   1072000   176.98228     -18098.91       720.67697    
   1073000   181.24789     -18035.965      831.05909    
   1074000   178.1983      -18068.964      476.62314    
   1075000   180.04857     -18081.005      707.34841    
   1076000   179.15889     -18094.013      634.30512    
   1077000   186.22823     -18029.321      866.65294    
   1078000   183.50128     -18057.475      443.99263    
   1079000   173.62247     -18084.592      590.14017    
   1080000   178.45364     -18095.105      533.74257    
   1081000   187.5895      -18091.835      311.75477    
   1082000   182.44741     -18066.226      625.5105     
   1083000   173.22833     -18077.101      378.16906    
   1084000   184.673       -18022.434      230.66838    
   1085000   185.28702     -18036.68       1162.6909    
   1086000   175.68208     -18072.751      577.98678    
   1087000   165.15889     -18097.391      663.03829    
   1088000   174.7505      -18074.898      606.29615    
   1089000   183.56783     -18048.722      580.46469    
   1090000   179.62258     -18058.738      704.85078    
   1091000   178.0498      -18089.043      129.90545    
   1092000   171.46526     -18111.376      482.7766     
   1093000   169.61698     -18078.434      383.32639    
   1094000   179.86974     -18057.093      1000.2415    
   1095000   176.92183     -18069.294      968.90059    
   1096000   173.65497     -18119.543      873.20892    
   1097000   164.79537     -18128.363      841.32878    
   1098000   178.33016     -18069.627      756.35022    
   1099000   187.25925     -18080.507      236.57163    
   1100000   166.61632     -18140.555      354.56136    
   1101000   178.44992     -18117.665      135.32267    
   1102000   182.67613     -18082.454      373.09042    
   1103000   181.72573     -18061.822      694.46978    
   1104000   184.95411     -18080.612      799.98242    
   1105000   171.00713     -18123.112      611.24287    
   1106000   170.27226     -18105.844      100.48514    
   1107000   179.04835     -18070.943      453.78857    
   1108000   182.31908     -18039.992      874.66164    
   1109000   177.22209     -18030.769      478.82637    
   1110000   181.25372     -18032.317      705.24798    
   1111000   177.25695     -18055.881      839.18768    
   1112000   175.47355     -18063.216      611.7674     
   1113000   186.59161     -18029.524      589.84255    
   1114000   178.55128     -18029.92       772.69147    
   1115000   179.60693     -18061.807      694.48979    
   1116000   170.72564     -18070.953      411.24521    
   1117000   180.51965     -18064.465      701.5956     
   1118000   190.47438     -18024.168      977.72807    
   1119000   182.33939     -18023.619      671.19154    
   1120000   181.21589     -18053.666      691.21761    
   1121000   169.99059     -18085.611      618.77529    
   1122000   165.48818     -18132.483      617.41942    
   1123000   177.08929     -18054.334      626.33363    
   1124000   174.27723     -18054.501      1037.7578    
   1125000   169.2879      -18085.651      548.31563    
   1126000   169.97453     -18105.979      716.59842    
   1127000   174.10352     -18088.138      544.47423    
   1128000   175.80381     -18055.931      687.39191    
   1129000   178.80855     -18056.202      581.06564    
   1130000   168.49819     -18125.163      288.38395    
   1131000   178.70638     -18092.58       413.86666    
   1132000   184.34419     -18082.817      123.20185    
   1133000   174.11234     -18038.44       474.03815    
   1134000   170.36775     -18056.22       481.23832    
   1135000   178.84745     -18077.189      499.74136    
   1136000   175.53749     -18050.529      1016.253     
   1137000   175.79446     -18068.075      278.8422     
   1138000   167.28184     -18100.8        743.63782    
   1139000   182.74643     -18063.667      197.39945    
   1140000   175.45679     -18074.002      316.60928    
   1141000   186.1548      -18042.677      187.09952    
   1142000   184.35601     -18023.796      389.46901    
   1143000   187.09719     -18063.459      140.91943    
   1144000   172.06506     -18082.829      723.04917    
   1145000   181.59012     -18037.649      799.14929    
   1146000   187.06518     -18046.812      91.979764    
   1147000   165.90831     -18110.791      211.30729    
   1148000   174.65581     -18075.559     -16.820243    
   1149000   190.66053     -18034.34       364.56073    
   1150000   172.47222     -18087          514.54919    
   1151000   170.97983     -18102.283      712.95097    
   1152000   167.93323     -18073.418      371.90941    
   1153000   177.71678     -18065.82       1030.209     
   1154000   182.70072     -18059.061      810.55882    
   1155000   169.7738      -18117.581      555.42402    
   1156000   168.50198     -18110.85       328.87521    
   1157000   181.62923     -18051.924      482.67246    
   1158000   180.03182     -18076.895      365.18118    
   1159000   179.40533     -18088.083      398.83691    
   1160000   179.35811     -18058.845      510.30649    
   1161000   179.2971      -18047.718      753.98064    
   1162000   173.44553     -18042.715      848.87031    
   1163000   171.53161     -18080.361      384.8847     
   1164000   169.04713     -18078.741      591.73951    
   1165000   179.31833     -18072.86       143.05956    
   1166000   175.0539      -18058.595      347.84294    
   1167000   179.64424     -18078.917      170.40928    
   1168000   177.62103     -18113.553      498.43819    
   1169000   173.72715     -18105.057      610.29605    
   1170000   176.8356      -18082.519      663.81337    
   1171000   181.18705     -18062.483      625.83168    
   1172000   190.50179     -18007.972      462.03966    
   1173000   173.48026     -18092.198      786.3387     
   1174000   161.61244     -18091.667      882.57188    
   1175000   177.72991     -18064.609      448.10264    
   1176000   179.74172     -18035.355      787.42604    
   1177000   178.65075     -18092.82       335.12322    
   1178000   177.6167      -18094.899      471.60031    
   1179000   177.97404     -18067.048      349.50804    
   1180000   191.29476     -18056.398      712.73447    
   1181000   184.1291      -18047.992      296.26107    
   1182000   183.35397     -18088.245      508.66492    
   1183000   188.67827     -18031.447      368.38133    
   1184000   168.01013     -18049.724      824.88432    
   1185000   177.56298     -18086.994      645.1136     
   1186000   174.44856     -18072.524      529.27128    
   1187000   186.24303     -18035.9        853.93366    
   1188000   181.41998     -18045.871      831.95422    
   1189000   168.75427     -18087.18       887.35871    
   1190000   172.10955     -18076.413      680.1695     
   1191000   185.39289     -17991.693      713.91276    
   1192000   175.74832     -18074.409      577.10382    
   1193000   179.24018     -18072.313      474.46511    
   1194000   178.69648     -18063.538      655.16527    
   1195000   177.33836     -18070.48       695.81805    
   1196000   184.06153     -18048.537      593.86081    
   1197000   187.84823     -18022.791      772.92779    
   1198000   173.37449     -18016.216      868.34432    
   1199000   179.73308     -18077.294      641.47419    
   1200000   175.67735     -18074.76       697.59186    
   1201000   180.0586      -18048.926      939.76905    
   1202000   177.78441     -18051.241      960.37436    
   1203000   179.25115     -18087.396      386.16028    
   1204000   171.10511     -18087.484      231.51198    
   1205000   181.86389     -18057.817      198.52666    
   1206000   190.73236     -18029.626      798.82312    
   1207000   177.17259     -18049.849      721.40776    
   1208000   168.85694     -18083.482      807.01956    
   1209000   169.74738     -18091.28       492.81049    
   1210000   181.61921     -18041.508      340.70632    
   1211000   176.80936     -18049.393      630.81776    
   1212000   170.79557     -18126.322      379.6909     
   1213000   174.47592     -18061.104      677.99569    
   1214000   177.30827     -18053.07       629.08146    
   1215000   176.38315     -18036.029      751.32809    
   1216000   175.32016     -18067.076      862.73979    
   1217000   164.15704     -18134.83       470.84903    
   1218000   180.70853     -18061.762      440.90046    
   1219000   179.99431     -18040.151      852.59076    
   1220000   180.51887     -18019.781      308.23705    
   1221000   178.36447     -18041.679      488.94877    
   1222000   176.62707     -18072.39       452.59638    
   1223000   174.48151     -18074.266      567.83465    
   1224000   193.62027     -17997.566      703.59169    
   1225000   171.65488     -18050.139      804.51511    
   1226000   180.9768      -18067.683      284.38822    
   1227000   175.20424     -18061.323      506.67622    
   1228000   181.31194     -18016.078      585.02533    
   1229000   192.18388     -18031.382      170.79487    
   1230000   187.23072     -18043.764      174.03163    
   1231000   180.40869     -18080.926      163.73215    
   1232000   171.8623      -18079.177      816.36179    
   1233000   172.71979     -18093.317      0.17618562   
   1234000   181.20246     -18056.325      806.98598    
   1235000   184.93964     -18043.53       290.05058    
   1236000   172.29076     -18070.009      139.39018    
   1237000   178.83874     -18091.98      -164.81508    
   1238000   182.30054     -18025.804      419.80624    
   1239000   178.64083     -18032.7        462.2551     
   1240000   178.00682     -18061.466      610.39724    
   1241000   173.9624      -18098.214      191.4523     
   1242000   169.72653     -18081.39       393.23251    
   1243000   181.06237     -18078.208      265.64654    
   1244000   181.37232     -18045.667     -57.845456    
   1245000   177.55071     -18078.699      575.71069    
   1246000   162.10379     -18101.618      215.68576    
   1247000   181.75336     -18069.823      721.76771    
   1248000   185.35214     -18048.819      431.10729    
   1249000   173.70485     -18075.569      478.17217    
   1250000   177.5445      -18087.943      320.66151    
   1251000   169.87766     -18107.793      237.47921    
   1252000   174.56682     -18073.928      173.09711    
[...]
   4674000   184.27268     -18074.755     -699.61854    
   4675000   186.18758     -18051.071     -613.54777    
   4676000   175.60124     -18071.355     -271.36888    
   4677000   177.07737     -18050.257      167.56356    
   4678000   179.70821     -18023.96      -118.54324    
   4679000   184.39293     -18060.407     -155.80426    
   4680000   182.95369     -18075.481     -262.664      
   4681000   179.56674     -18065.385      24.703715    
   4682000   179.3871      -18032.748      190.12627    
   4683000   189.64175     -18079.549     -446.51264    
   4684000   174.54505     -18109.983     -443.90844    
   4685000   173.39805     -18085.943     -425.0859     
   4686000   177.89479     -18059.87       54.313521    
   4687000   172.30987     -18112.148     -93.747705    
   4688000   168.36715     -18094.523     -54.223342    
   4689000   171.90671     -18082.002      100.87482    
   4690000   185.7583      -18025.942      236.64886    
   4691000   190.03143     -18020.077      422.17457    
   4692000   180.94081     -18090.599      91.097026    
   4693000   174.35791     -18083.834     -12.362566    
   4694000   180.6633      -18051.498      79.797677    
   4695000   186.36461     -18034.007     -4.6728664    
   4696000   172.61756     -18080.38       103.47615    
   4697000   179.31171     -18074.77       93.902969    
   4698000   175.71551     -18035.581      471.93353    
   4699000   177.82607     -18063.723      586.90592    
   4700000   177.37142     -18089.37      -154.43916    
   4701000   181.38754     -18065.295     -332.96315    
   4702000   178.06966     -18051.093      159.7538     
   4703000   178.82771     -18057.279      37.936152    
   4704000   173.48282     -18076.17       629.7233     
   4705000   186.17523     -18024.835      229.71816    
   4706000   182.48654     -18021.124      237.68065    
   4707000   180.99576     -18079.287     -254.87402    
   4708000   171.75596     -18083.911     -386.6254     
   4709000   171.26482     -18125.502     -174.06548    
   4710000   177.35375     -18059.413     -257.99592    
   4711000   180.05986     -18041.687      271.47492    
   4712000   182.0311      -18092.653      114.93218    
   4713000   175.71948     -18101.161     -254.73763    
   4714000   172.85452     -18055.61       330.05285    
   4715000   179.58951     -18084.81      -150.37739    
   4716000   182.47859     -18053.037      255.93328    
   4717000   183.38417     -18073.767     -362.30535    
   4718000   182.27909     -18083.117      7.8678571    
   4719000   179.26596     -18091.897      382.97574    
   4720000   165.75705     -18127.059      23.771997    
   4721000   172.9022      -18136.607     -464.97369    
   4722000   176.20049     -18095.951      88.758837    
   4723000   181.77199     -18087.616      148.18835    
   4724000   179.6398      -18099.473     -302.50038    
   4725000   168.53052     -18134.053      2.1195882    
   4726000   167.13346     -18143.34      -117.59945    
   4727000   179.16399     -18077.936     -318.37851    
   4728000   171.85508     -18107.972     -105.86798    
   4729000   171.26519     -18084.89       42.678238    
   4730000   179.61629     -18081.296      297.00874    
   4731000   184.51429     -18047.092      122.30989    
   4732000   173.08139     -18065.964     -20.616864    
   4733000   177.98541     -18089.26      -277.73232    
   4734000   172.76517     -18094.737     -189.17416    
   4735000   183.30739     -18084.333      161.23948    
   4736000   189.83989     -18034.12       559.39062    
   4737000   180.96868     -18105.831     -245.53445    
   4738000   175.74519     -18123.077     -296.07653    
   4739000   180.78017     -18060.779     -581.18315    
   4740000   187.69063     -18074.507      183.47919    
   4741000   169.77851     -18101.113      254.99604    
   4742000   174.31417     -18110.329     -347.39887    
   4743000   183.04688     -18076.84      -31.565358    
   4744000   184.1005      -18041.747      540.80852    
   4745000   178.42038     -18084.068      95.300117    
   4746000   177.23903     -18106.916      55.236217    
   4747000   169.59983     -18130.107     -208.11905    
   4748000   166.08457     -18138.615     -69.053337    
   4749000   180.30434     -18084.107     -331.5265     
   4750000   168.2342      -18129.554     -58.938564    
   4751000   181.44672     -18094.81      -126.12993    
   4752000   180.91276     -18082.766     -441.4912     
   4753000   178.9856      -18054.405      633.86919    
   4754000   194.35517     -18048.518     -282.72613    
   4755000   173.65063     -18116.218      182.51756    
   4756000   175.39142     -18103.519     -410.93881    
   4757000   189.80409     -18029.291     -20.610731    
   4758000   190.03749     -18051.518     -154.9657     
   4759000   182.39681     -18092.276     -187.62919    
   4760000   180.3376      -18065.465      132.4689     
   4761000   182.92548     -18128.246     -490.15528    
   4762000   175.11256     -18123.12      -102.87533    
   4763000   177.42458     -18089.971      60.547573    
   4764000   176.3065      -18072.061      446.9577     
   4765000   180.31455     -18030.808      353.81364    
   4766000   182.66675     -18076.915     -376.59912    
   4767000   174.45824     -18103.471      334.80867    
   4768000   173.67956     -18110.913      191.93442    
   4769000   184.77558     -18063.009     -292.41646    
   4770000   179.49472     -18075.375     -350.78863    
   4771000   183.35452     -18118.073     -479.70188    
   4772000   176.96644     -18123.481      125.91951    
   4773000   178.32221     -18108.072      176.47878    
   4774000   180.03285     -18056.856     -133.84221    
   4775000   178.90776     -18104.601     -329.35373    
   4776000   172.84987     -18115.347      140.37278    
   4777000   174.68713     -18112.063     -435.493      
   4778000   186.54273     -18078.03      -414.52796    
   4779000   188.08619     -18027.226     -196.94702    
   4780000   177.6055      -18097.745     -419.83585    
   4781000   170.61829     -18101.545     -166.35451    
   4782000   184.56063     -18086.528     -42.572604    
   4783000   186.02173     -18070.566     -304.3237     
   4784000   174.93199     -18081.521      168.41293    
   4785000   171.03673     -18107.447      188.20437    
   4786000   187.38278     -18038.537     -47.261574    
   4787000   180.05512     -18094.015     -399.67933    
   4788000   180.99429     -18104.728     -13.150117    
   4789000   180.55326     -18128.684     -528.33996    
   4790000   171.42474     -18130.611     -37.562113    
   4791000   171.26609     -18096.503      260.96246    
   4792000   182.68872     -18095.683     -201.68806    
   4793000   169.76373     -18066.015      604.56308    
   4794000   182.0858      -18043.451      53.766722    
   4795000   186.29068     -18089.577     -137.05407    
   4796000   175.77331     -18084.404     -247.27154    
   4797000   177.97827     -18098.054     -19.103488    
   4798000   174.55884     -18135.663      45.978048    
   4799000   174.17455     -18080.093     -273.95069    
   4800000   184.42596     -18070.595      271.49929    
   4801000   178.80367     -18082.308     -286.75149    
   4802000   170.55854     -18106.899     -178.79272    
   4803000   169.64417     -18098.837      42.442246    
   4804000   172.37061     -18077.943     -75.996814    
   4805000   178.14332     -18064.048     -155.56428    
   4806000   183.56879     -18077.446     -1.5560568    
   4807000   183.27882     -18098.606     -80.162753    
   4808000   172.89941     -18085.875     -139.58027    
   4809000   189.71864     -18059.119      68.638291    
   4810000   181.02768     -18077.326     -177.31169    
   4811000   174.18012     -18100.113     -101.21348    
   4812000   174.22251     -18128.101     -261.33467    
   4813000   180.23904     -18081.795     -33.858968    
   4814000   182.42159     -18071.612     -133.52638    
   4815000   176.65411     -18098.985      334.85082    
   4816000   172.21252     -18152.942      300.77335    
   4817000   177.68958     -18084.485      64.158289    
   4818000   179.95271     -18072.621     -77.714443    
   4819000   177.44271     -18086.652     -160.26613    
   4820000   178.51322     -18109.402      94.47199     
   4821000   166.4718      -18115.125     -381.15611    
   4822000   174.19598     -18112.607     -109.85814    
   4823000   183.22645     -18082.632      247.95298    
   4824000   182.74759     -18015.716     -110.11487    
   4825000   175.65406     -18124.136     -540.85287    
   4826000   181.19571     -18072.949      151.86374    
   4827000   182.00961     -18080.429     -571.0787     
   4828000   173.41788     -18075.703      472.61401    
   4829000   176.83203     -18106.91      -261.37088    
   4830000   171.42285     -18130.524      48.659534    
   4831000   172.23002     -18142.487     -454.69611    
   4832000   175.27079     -18069.021      51.295936    
   4833000   179.97348     -18076.867     -46.205046    
   4834000   171.26886     -18118.237     -576.81227    
   4835000   165.85592     -18144.216     -644.22813    
   4836000   178.78332     -18094.693      238.14507    
   4837000   178.57402     -18073.663     -360.31832    
   4838000   173.4509      -18101.906      119.92479    
   4839000   172.25638     -18136.443     -348.36259    
   4840000   176.96053     -18108.443      192.51799    
   4841000   180.11207     -18088.673      140.61484    
   4842000   184.76762     -18066.967      24.988837    
   4843000   181.33409     -18072.175      44.030805    
   4844000   174.27302     -18073.567      175.24654    
   4845000   173.46025     -18120.86      -167.95629    
   4846000   172.85266     -18123.462      262.37123    
   4847000   177.33154     -18091.017     -173.92834    
   4848000   172.22353     -18090.265     -110.39013    
   4849000   175.98956     -18048.403      345.6602     
   4850000   186.53382     -18052.658      57.257353    
   4851000   175.7612      -18078.782      110.50074    
   4852000   178.58781     -18101.889      55.709049    
   4853000   177.11476     -18087.927     -513.03151    
   4854000   179.50795     -18045.447      577.08087    
   4855000   185.52552     -18064.508     -229.78509    
   4856000   165.6192      -18107.812     -5.6829467    
   4857000   184.66428     -18099.978     -376.89937    
   4858000   177.35769     -18073.297     -9.5282982    
   4859000   183.68491     -18031.334      20.200486    
   4860000   169.55103     -18109.148      64.766568    
   4861000   181.6102      -18073.579     -265.03977    
   4862000   181.56521     -18074.154      495.18216    
   4863000   176.66252     -18086.856     -57.8715      
   4864000   188.42556     -18039.969      512.61034    
   4865000   182.84325     -18042.738      328.36736    
   4866000   179.40739     -18057.979      53.343291    
   4867000   184.55747     -18088.554     -275.65701    
   4868000   167.60605     -18150.113     -373.5026     
   4869000   167.81116     -18096.723     -136.04673    
   4870000   182.05068     -18080.199     -150.68196    
   4871000   171.85701     -18063.752      7.7575032    
   4872000   174.85911     -18101.355     -200.60816    
   4873000   180.35296     -18102.933     -227.58845    
   4874000   183.81132     -18049.166      210.64222    
   4875000   178.71138     -18091.858     -195.19181    
   4876000   184.01383     -18098.649     -414.01361    
   4877000   175.79202     -18063.208     -340.44196    
   4878000   189.25963     -18048.776     -9.5121751    
   4879000   172.7635      -18092.828     -24.584945    
   4880000   189.38099     -18062.022     -537.32947    
   4881000   183.97361     -18053.449      75.518153    
   4882000   186.27489     -18075.272     -783.73082    
   4883000   171.30638     -18094.121     -42.108707    
   4884000   172.2129      -18158.638     -489.10874    
   4885000   178.3073      -18090.298     -139.80495    
   4886000   181.59284     -18069.623     -5.627504     
   4887000   182.56804     -18054.445      286.22466    
   4888000   174.98207     -18088.329     -404.42162    
   4889000   176.40368     -18115.388     -210.30082    
   4890000   170.85996     -18140.602     -69.778924    
   4891000   182.214       -18065.653      117.27549    
   4892000   183.06361     -18054.251      277.55274    
   4893000   170.79046     -18145.714     -168.21025    
   4894000   175.92451     -18108.171     -55.354576    
   4895000   179.49166     -18089.805      14.274105    
   4896000   180.31777     -18057.537     -79.673961    
   4897000   174.36738     -18078.78      -159.38744    
   4898000   168.12588     -18100.916      26.773828    
   4899000   180.28927     -18061.221      172.2892     
   4900000   177.9469      -18056.538      527.77337    
   4901000   183.14829     -18092.747     -633.40156    
   4902000   178.88147     -18066.028     -250.09184    
   4903000   186.11959     -18048.226      290.99375    
   4904000   189.72944     -18019.052      415.12705    
   4905000   182.5474      -18049.696     -184.23737    
   4906000   185.82638     -18075.68      -354.9007     
   4907000   177.91098     -18096.865     -73.103204    
   4908000   175.21467     -18096.242      242.50626    
   4909000   181.17501     -18100.853      67.631147    
   4910000   183.9536      -18070.04       258.50289    
   4911000   178.5073      -18074.792     -57.749316    
   4912000   173.74127     -18086.472     -102.77506    
   4913000   178.48231     -18076.245     -149.15137    
   4914000   178.72858     -18093.413     -193.50166    
   4915000   170.99375     -18092.637     -126.25605    
   4916000   177.48296     -18066.068      140.92164    
   4917000   181.52374     -18054.063     -69.985975    
   4918000   176.53748     -18094.586      205.38312    
   4919000   165.29157     -18117.529     -31.275877    
   4920000   177.12098     -18085.838     -48.592658    
   4921000   194.35716     -18032.206      50.734233    
   4922000   179.17819     -18064.154      61.807294    
   4923000   176.4252      -18095.329     -377.93237    
   4924000   180.05751     -18112.891     -112.61371    
   4925000   188.0929      -18059.454     -195.18761    
   4926000   184.0356      -18048.789      105.70386    
   4927000   179.3749      -18093.92      -133.30378    
   4928000   180.91881     -18101.732      225.53839    
   4929000   180.47419     -18079.083      117.22203    
   4930000   184.38157     -18056.962      173.79156    
   4931000   180.06466     -18052.435     -161.03828    
   4932000   184.47637     -18084.103     -117.00523    
   4933000   173.11391     -18117.3       -59.044795    
   4934000   175.20961     -18113.281     -276.26782    
   4935000   179.71615     -18073.279      532.16191    
   4936000   179.0375      -18056.63      -8.2485691    
   4937000   164.9238      -18079.825      66.400394    
   4938000   179.25229     -18105.887     -252.33536    
   4939000   178.14522     -18077.988      15.78796     
   4940000   181.12891     -18068.658      293.07939    
   4941000   178.77441     -18079.492     -349.93752    
   4942000   176.6811      -18068.871      164.02047    
   4943000   177.10965     -18121.614     -188.98065    
   4944000   171.86896     -18088.982      54.111826    
   4945000   169.02075     -18116.847     -124.52725    
   4946000   172.7738      -18073.945     -37.307351    
   4947000   176.57635     -18102.429      324.93392    
   4948000   174.56356     -18144.633     -340.86628    
   4949000   177.84272     -18088.038      147.63873    
   4950000   176.2696      -18078.828      170.46141    
   4951000   175.15882     -18101.252      123.38176    
   4952000   172.03626     -18049.342      175.03263    
   4953000   190.38105     -18024.483      546.65369    
   4954000   179.48782     -18069.699     -52.768865    
   4955000   170.50807     -18088.346     -60.167355    
   4956000   182.77556     -18105.365     -344.74635    
   4957000   178.91686     -18078.365      191.55185    
   4958000   182.96862     -18044.765     -24.920458    
   4959000   193.99687     -18031.147      100.62967    
   4960000   175.81648     -18077.454      370.08781    
   4961000   178.31392     -18075.041      274.42569    
   4962000   178.49977     -18073.707      96.861154    
   4963000   183.28546     -18044.672     -11.785785    
   4964000   175.53051     -18093.531      140.38547    
   4965000   178.80364     -18103.201      71.369282    
   4966000   182.22396     -18083.917      261.68949    
   4967000   178.1625      -18052.714      431.57803    
   4968000   178.18257     -18060.957      182.08634    
   4969000   178.89786     -18098.517      77.310397    
   4970000   178.63592     -18076.646     -44.416303    
   4971000   191.23422     -18043.423     -342.91309    
   4972000   176.55262     -18067.011      307.93474    
   4973000   175.53854     -18085.08       156.2271     
   4974000   183.02796     -18093.59      -284.36565    
   4975000   180.52358     -18005.949      342.2711     
   4976000   174.48509     -18117.254      67.710037    
   4977000   179.72947     -18113.917     -241.2075     
   4978000   173.41068     -18086.33      -236.92901    
   4979000   173.6704      -18105.908      130.0329     
   4980000   180.52409     -18077.444     -19.17793     
   4981000   190.6196      -18057.85       237.9506     
   4982000   181.88323     -18074.256     -152.75814    
   4983000   177.31495     -18100.14       7.4344375    
   4984000   171.33047     -18129.749     -374.88108    
   4985000   174.45939     -18127.433     -76.547653    
   4986000   178.44905     -18091.84       75.906403    
   4987000   183.04823     -18090.43       90.486362    
   4988000   178.35028     -18116.007     -328.12786    
   4989000   165.87014     -18117.988     -200.21607    
   4990000   178.67649     -18115.75      -229.49284    
   4991000   191.57651     -18013.033      136.16448    
   4992000   181.04033     -18078.206     -398.21278    
   4993000   176.31027     -18088.48      -120.96209    
   4994000   180.52408     -18085.227      8.6488611    
   4995000   175.05815     -18109.888      5.9226984    
   4996000   181.73773     -18070.361      230.42754    
   4997000   178.74418     -18119.481     -397.78193    
   4998000   170.75186     -18105.763      179.07598    
   4999000   172.34825     -18082.298     -198.50348    
   5000000   179.91338     -18077.768     -574.25303    
Loop time of 6974.08 on 32 procs for 5000000 steps with 1196 atoms

Performance: 61.944 ns/day, 0.387 hours/ns, 716.941 timesteps/s, 857.461 katom-step/s
99.9% CPU use with 32 MPI tasks x 1 OpenMP threads

MPI task timing breakdown:
Section |  min time  |  avg time  |  max time  |%varavg| %total
---------------------------------------------------------------
Pair    | 0.43008    | 988.69     | 4682.9     |4881.8 | 14.18
Bond    | 0.34122    | 12.759     | 36.181     | 351.1 |  0.18
Kspace  | 1062.3     | 4691       | 5694       |2185.1 | 67.26
Neigh   | 240.67     | 243.85     | 251.39     |  18.6 |  3.50
Comm    | 317.52     | 514.82     | 646.74     | 404.5 |  7.38
Output  | 1.3581     | 3.0425     | 3.9568     |  63.2 |  0.04
Modify  | 366.02     | 490.77     | 685.15     | 516.3 |  7.04
Other   |            | 29.1       |            |       |  0.42

Nlocal:         37.375 ave         132 max           0 min
Histogram: 16 8 0 0 0 0 0 0 2 6
Nghost:        1630.53 ave        1782 max        1452 min
Histogram: 8 0 0 0 0 15 1 0 0 8
Neighs:        12704.2 ave       65068 max           0 min
Histogram: 24 0 0 0 1 2 1 2 0 2

Total # of neighbors = 406535
Ave neighs/atom = 339.91221
Ave special neighs/atom = 10.69398
Neighbor list builds = 176716
Dangerous builds = 0
Total wall time: 1:56:17
