  14  14   0   0
  0.2202334E+02  0.7069572E-09  0.7018963E-09  0.7042078E-09  0.1500000E-16
   1.0000000000000000E-004
  CAR 
 unknown system                          
     10.06927251    -23.21453460  301      1.42935091      1.00000000
    -23.215  0.0000E+00  0.0000E+00
    -23.104  0.0000E+00  0.0000E+00
    -22.993  0.0000E+00  0.0000E+00
    -22.882  0.0000E+00  0.0000E+00
    -22.771  0.0000E+00  0.0000E+00
    -22.660  0.0000E+00  0.0000E+00
    -22.549  0.0000E+00  0.0000E+00
    -22.438  0.0000E+00  0.0000E+00
    -22.327  0.0000E+00  0.0000E+00
    -22.216  0.0000E+00  0.0000E+00
    -22.105  0.0000E+00  0.0000E+00
    -21.994  0.4881E-17  0.5416E-18
    -21.883  0.1433E-07  0.1590E-08
    -21.772  0.3218E-02  0.3570E-03
    -21.661  0.3819E+00  0.4273E-01
    -21.550  0.6507E+00  0.1149E+00
    -21.439  0.1938E-01  0.1171E+00
    -21.328  0.5268E-06  0.1171E+00
    -21.218  0.1766E-14  0.1171E+00
    -21.107  0.0000E+00  0.1171E+00
    -20.996  0.0000E+00  0.1171E+00
    -20.885  0.0000E+00  0.1171E+00
    -20.774  0.0000E+00  0.1171E+00
    -20.663  0.0000E+00  0.1171E+00
    -20.552  0.0000E+00  0.1171E+00
    -20.441  0.0000E+00  0.1171E+00
    -20.330  0.0000E+00  0.1171E+00
    -20.219  0.0000E+00  0.1171E+00
    -20.108  0.0000E+00  0.1171E+00
    -19.997  0.0000E+00  0.1171E+00
    -19.886  0.0000E+00  0.1171E+00
    -19.775  0.0000E+00  0.1171E+00
    -19.664  0.0000E+00  0.1171E+00
    -19.553  0.0000E+00  0.1171E+00
    -19.442  0.0000E+00  0.1171E+00
    -19.331  0.0000E+00  0.1171E+00
    -19.220  0.0000E+00  0.1171E+00
    -19.110  0.0000E+00  0.1171E+00
    -18.999  0.0000E+00  0.1171E+00
    -18.888  0.0000E+00  0.1171E+00
    -18.777  0.0000E+00  0.1171E+00
    -18.666  0.0000E+00  0.1171E+00
    -18.555  0.0000E+00  0.1171E+00
    -18.444  0.0000E+00  0.1171E+00
    -18.333  0.0000E+00  0.1171E+00
    -18.222  0.0000E+00  0.1171E+00
    -18.111  0.0000E+00  0.1171E+00
    -18.000  0.0000E+00  0.1171E+00
    -17.889  0.0000E+00  0.1171E+00
    -17.778  0.0000E+00  0.1171E+00
    -17.667  0.0000E+00  0.1171E+00
    -17.556  0.0000E+00  0.1171E+00
    -17.445  0.0000E+00  0.1171E+00
    -17.334  0.0000E+00  0.1171E+00
    -17.223  0.0000E+00  0.1171E+00
    -17.113  0.0000E+00  0.1171E+00
    -17.002  0.0000E+00  0.1171E+00
    -16.891  0.0000E+00  0.1171E+00
    -16.780  0.0000E+00  0.1171E+00
    -16.669  0.0000E+00  0.1171E+00
    -16.558  0.0000E+00  0.1171E+00
    -16.447  0.0000E+00  0.1171E+00
    -16.336  0.0000E+00  0.1171E+00
    -16.225  0.0000E+00  0.1171E+00
    -16.114  0.0000E+00  0.1171E+00
    -16.003  0.0000E+00  0.1171E+00
    -15.892  0.0000E+00  0.1171E+00
    -15.781  0.0000E+00  0.1171E+00
    -15.670  0.0000E+00  0.1171E+00
    -15.559  0.0000E+00  0.1171E+00
    -15.448  0.0000E+00  0.1171E+00
    -15.337  0.0000E+00  0.1171E+00
    -15.226  0.0000E+00  0.1171E+00
    -15.115  0.0000E+00  0.1171E+00
    -15.005  0.0000E+00  0.1171E+00
    -14.894  0.0000E+00  0.1171E+00
    -14.783  0.0000E+00  0.1171E+00
    -14.672  0.0000E+00  0.1171E+00
    -14.561  0.0000E+00  0.1171E+00
    -14.450  0.0000E+00  0.1171E+00
    -14.339  0.0000E+00  0.1171E+00
    -14.228  0.0000E+00  0.1171E+00
    -14.117  0.0000E+00  0.1171E+00
    -14.006  0.0000E+00  0.1171E+00
    -13.895  0.0000E+00  0.1171E+00
    -13.784  0.0000E+00  0.1171E+00
    -13.673  0.0000E+00  0.1171E+00
    -13.562  0.0000E+00  0.1171E+00
    -13.451  0.0000E+00  0.1171E+00
    -13.340  0.0000E+00  0.1171E+00
    -13.229  0.0000E+00  0.1171E+00
    -13.118  0.0000E+00  0.1171E+00
    -13.008  0.0000E+00  0.1171E+00
    -12.897  0.0000E+00  0.1171E+00
    -12.786  0.0000E+00  0.1171E+00
    -12.675  0.0000E+00  0.1171E+00
    -12.564  0.0000E+00  0.1171E+00
    -12.453  0.0000E+00  0.1171E+00
    -12.342  0.0000E+00  0.1171E+00
    -12.231  0.0000E+00  0.1171E+00
    -12.120  0.0000E+00  0.1171E+00
    -12.009  0.0000E+00  0.1171E+00
    -11.898  0.0000E+00  0.1171E+00
    -11.787  0.0000E+00  0.1171E+00
    -11.676  0.0000E+00  0.1171E+00
    -11.565  0.0000E+00  0.1171E+00
    -11.454  0.0000E+00  0.1171E+00
    -11.343  0.3182E-16  0.1171E+00
    -11.232  0.1028E-07  0.1171E+00
    -11.121  0.2742E-03  0.1171E+00
    -11.010  0.4207E-02  0.1176E+00
    -10.900  0.2450E-01  0.1203E+00
    -10.789  0.4468E-01  0.1252E+00
    -10.678  0.3060E-01  0.1286E+00
    -10.567  0.5885E-01  0.1352E+00
    -10.456  0.4121E-02  0.1356E+00
    -10.345  0.2341E-01  0.1382E+00
    -10.234  0.1152E+00  0.1510E+00
    -10.123  0.4581E-01  0.1561E+00
    -10.012  0.1911E-02  0.1563E+00
     -9.901  0.9303E-01  0.1666E+00
     -9.790  0.8012E-01  0.1755E+00
     -9.679  0.8967E-03  0.1756E+00
     -9.568  0.8071E-08  0.1756E+00
     -9.457  0.7593E-17  0.1756E+00
     -9.346  0.0000E+00  0.1756E+00
     -9.235  0.0000E+00  0.1756E+00
     -9.124  0.0000E+00  0.1756E+00
     -9.013  0.0000E+00  0.1756E+00
     -8.902  0.0000E+00  0.1756E+00
     -8.792  0.0000E+00  0.1756E+00
     -8.681  0.0000E+00  0.1756E+00
     -8.570  0.0000E+00  0.1756E+00
     -8.459  0.0000E+00  0.1756E+00
     -8.348  0.0000E+00  0.1756E+00
     -8.237  0.0000E+00  0.1756E+00
     -8.126  0.0000E+00  0.1756E+00
     -8.015  0.0000E+00  0.1756E+00
     -7.904  0.0000E+00  0.1756E+00
     -7.793  0.0000E+00  0.1756E+00
     -7.682  0.0000E+00  0.1756E+00
     -7.571  0.0000E+00  0.1756E+00
     -7.460  0.0000E+00  0.1756E+00
     -7.349  0.0000E+00  0.1756E+00
     -7.238  0.0000E+00  0.1756E+00
     -7.127  0.0000E+00  0.1756E+00
     -7.016  0.0000E+00  0.1756E+00
     -6.905  0.0000E+00  0.1756E+00
     -6.795  0.0000E+00  0.1756E+00
     -6.684  0.0000E+00  0.1756E+00
     -6.573  0.0000E+00  0.1756E+00
     -6.462  0.0000E+00  0.1756E+00
     -6.351  0.0000E+00  0.1756E+00
     -6.240  0.0000E+00  0.1756E+00
     -6.129  0.0000E+00  0.1756E+00
     -6.018  0.0000E+00  0.1756E+00
     -5.907  0.0000E+00  0.1756E+00
     -5.796  0.0000E+00  0.1756E+00
     -5.685  0.0000E+00  0.1756E+00
     -5.574  0.0000E+00  0.1756E+00
     -5.463  0.0000E+00  0.1756E+00
     -5.352  0.1896E-12  0.1756E+00
     -5.241  0.2379E-05  0.1756E+00
     -5.130  0.4813E-02  0.1761E+00
     -5.019  0.7360E-01  0.1843E+00
     -4.908  0.1718E+00  0.2034E+00
     -4.797  0.2712E+00  0.2335E+00
     -4.687  0.2692E+00  0.2633E+00
     -4.576  0.3905E+00  0.3066E+00
     -4.465  0.3571E+00  0.3463E+00
     -4.354  0.1770E+00  0.3659E+00
     -4.243  0.4342E-01  0.3707E+00
     -4.132  0.1257E-03  0.3707E+00
     -4.021  0.1331E-09  0.3707E+00
     -3.910  0.3254E-17  0.3707E+00
     -3.799  0.3732E-08  0.3707E+00
     -3.688  0.3859E-03  0.3708E+00
     -3.577  0.1124E-01  0.3720E+00
     -3.466  0.1455E-01  0.3736E+00
     -3.355  0.3616E-01  0.3776E+00
     -3.244  0.3154E-01  0.3811E+00
     -3.133  0.2268E-01  0.3837E+00
     -3.022  0.1608E-01  0.3854E+00
     -2.911  0.1125E-01  0.3867E+00
     -2.800  0.1682E-01  0.3886E+00
     -2.690  0.1054E-01  0.3897E+00
     -2.579  0.7885E-02  0.3906E+00
     -2.468  0.1134E-01  0.3919E+00
     -2.357  0.2456E-01  0.3946E+00
     -2.246  0.2686E-01  0.3976E+00
     -2.135  0.3421E-01  0.4014E+00
     -2.024  0.2897E-01  0.4046E+00
     -1.913  0.1119E-01  0.4058E+00
     -1.802  0.8546E-02  0.4068E+00
     -1.691  0.3424E-01  0.4106E+00
     -1.580  0.2165E-01  0.4130E+00
     -1.469  0.4297E-02  0.4134E+00
     -1.358  0.3716E-01  0.4176E+00
     -1.247  0.3821E-01  0.4218E+00
     -1.136  0.4916E-01  0.4273E+00
     -1.025  0.3588E-01  0.4312E+00
     -0.914  0.2315E-01  0.4338E+00
     -0.803  0.5851E-01  0.4403E+00
     -0.692  0.5108E-01  0.4460E+00
     -0.582  0.4741E-01  0.4512E+00
     -0.471  0.6454E-01  0.4584E+00
     -0.360  0.3078E-01  0.4618E+00
     -0.249  0.1341E-01  0.4633E+00
     -0.138  0.4048E-01  0.4678E+00
     -0.027  0.8786E-01  0.4775E+00
      0.084  0.8291E-01  0.4867E+00
      0.195  0.6110E-01  0.4935E+00
      0.306  0.6631E-01  0.5009E+00
      0.417  0.5143E-01  0.5066E+00
      0.528  0.6221E-01  0.5135E+00
      0.639  0.7241E-01  0.5215E+00
      0.750  0.8554E-01  0.5310E+00
      0.861  0.8014E-01  0.5399E+00
      0.972  0.4716E-01  0.5451E+00
      1.083  0.4927E-02  0.5457E+00
      1.194  0.5467E-02  0.5463E+00
      1.305  0.6196E-03  0.5463E+00
      1.415  0.6360E-07  0.5463E+00
      1.526  0.6624E-15  0.5463E+00
      1.637  0.0000E+00  0.5463E+00
      1.748  0.0000E+00  0.5463E+00
      1.859  0.0000E+00  0.5463E+00
      1.970  0.0000E+00  0.5463E+00
      2.081  0.0000E+00  0.5463E+00
      2.192  0.0000E+00  0.5463E+00
      2.303  0.0000E+00  0.5463E+00
      2.414  0.0000E+00  0.5463E+00
      2.525  0.0000E+00  0.5463E+00
      2.636  0.0000E+00  0.5463E+00
      2.747  0.0000E+00  0.5463E+00
      2.858  0.0000E+00  0.5463E+00
      2.969  0.7554E-13  0.5463E+00
      3.080  0.9332E-06  0.5463E+00
      3.191  0.1236E-02  0.5465E+00
      3.302  0.2012E-02  0.5467E+00
      3.413  0.7533E-05  0.5467E+00
      3.523  0.3863E-11  0.5467E+00
      3.634  0.0000E+00  0.5467E+00
      3.745  0.0000E+00  0.5467E+00
      3.856  0.0000E+00  0.5467E+00
      3.967  0.2039E-12  0.5467E+00
      4.078  0.2204E-05  0.5467E+00
      4.189  0.2865E-02  0.5470E+00
      4.300  0.9984E-02  0.5481E+00
      4.411  0.1924E-01  0.5503E+00
      4.522  0.3518E-01  0.5542E+00
      4.633  0.2431E-01  0.5569E+00
      4.744  0.3019E-01  0.5602E+00
      4.855  0.1301E-01  0.5617E+00
      4.966  0.2871E-01  0.5648E+00
      5.077  0.2113E-01  0.5672E+00
      5.188  0.1662E-01  0.5690E+00
      5.299  0.2477E-01  0.5718E+00
      5.410  0.4059E-01  0.5763E+00
      5.520  0.2325E-01  0.5789E+00
      5.631  0.5155E-01  0.5846E+00
      5.742  0.4397E-01  0.5895E+00
      5.853  0.1480E-01  0.5911E+00
      5.964  0.3290E-01  0.5948E+00
      6.075  0.4159E-01  0.5994E+00
      6.186  0.5730E-01  0.6057E+00
      6.297  0.3944E-01  0.6101E+00
      6.408  0.4808E-01  0.6154E+00
      6.519  0.1981E-01  0.6176E+00
      6.630  0.2586E-01  0.6205E+00
      6.741  0.2973E-01  0.6238E+00
      6.852  0.2693E-01  0.6268E+00
      6.963  0.5022E-01  0.6324E+00
      7.074  0.5166E-01  0.6381E+00
      7.185  0.3932E-01  0.6425E+00
      7.296  0.3576E-01  0.6464E+00
      7.407  0.3103E-01  0.6499E+00
      7.518  0.8252E-01  0.6590E+00
      7.628  0.2788E-01  0.6621E+00
      7.739  0.1938E-01  0.6643E+00
      7.850  0.3792E-01  0.6685E+00
      7.961  0.5808E-01  0.6749E+00
      8.072  0.4472E-01  0.6799E+00
      8.183  0.4783E-01  0.6852E+00
      8.294  0.4586E-01  0.6903E+00
      8.405  0.6874E-01  0.6979E+00
      8.516  0.2067E-01  0.7002E+00
      8.627  0.1990E-01  0.7024E+00
      8.738  0.3906E-03  0.7024E+00
      8.849  0.2012E-08  0.7024E+00
      8.960  0.0000E+00  0.7024E+00
      9.071  0.0000E+00  0.7024E+00
      9.182  0.0000E+00  0.7024E+00
      9.293  0.0000E+00  0.7024E+00
      9.404  0.0000E+00  0.7024E+00
      9.515  0.0000E+00  0.7024E+00
      9.625  0.0000E+00  0.7024E+00
      9.736  0.0000E+00  0.7024E+00
      9.847  0.0000E+00  0.7024E+00
      9.958  0.0000E+00  0.7024E+00
     10.069  0.0000E+00  0.7024E+00
