  55  55   0   0
  0.2301251E+02  0.1218282E-08  0.7661564E-09  0.1373046E-08  0.0000000E+00
   1.0000000000000000E-004
  CAR 
 NEB_refined                             
      9.30412209    -23.65403170  301      1.29303799      1.00000000
    -23.654  0.0000E+00  0.0000E+00
    -23.544  0.0000E+00  0.0000E+00
    -23.434  0.0000E+00  0.0000E+00
    -23.324 -0.4346E-31 -0.4775E-32
    -23.215 -0.2924E-27 -0.3212E-28
    -23.105 -0.1066E-23 -0.1171E-24
    -22.995 -0.2118E-20 -0.2328E-21
    -22.885 -0.2292E-17 -0.2521E-18
    -22.775 -0.1312E-14 -0.1444E-15
    -22.665 -0.4191E-12 -0.4619E-13
    -22.555 -0.7309E-10 -0.8076E-11
    -22.446 -0.6964E-08 -0.7732E-09
    -22.336 -0.3635E-06 -0.4071E-07
    -22.226 -0.1042E-04 -0.1185E-05
    -22.116 -0.1635E-03 -0.1915E-04
    -22.006 -0.1380E-02 -0.1707E-03
    -21.896 -0.5823E-02 -0.8105E-03
    -21.786 -0.8424E-02 -0.1736E-02
    -21.677  0.2149E-01  0.6249E-03
    -21.567  0.1268E+00  0.1455E-01
    -21.457  0.3246E+00  0.5021E-01
    -21.347  0.5546E+00  0.1111E+00
    -21.237  0.6515E+00  0.1827E+00
    -21.127  0.5299E+00  0.2409E+00
    -21.017  0.2791E+00  0.2716E+00
    -20.908  0.6697E-01  0.2789E+00
    -20.798 -0.1191E-01  0.2776E+00
    -20.688 -0.1167E-01  0.2764E+00
    -20.578 -0.2879E-02  0.2760E+00
    -20.468 -0.3370E-03  0.2760E+00
    -20.358 -0.2065E-04  0.2760E+00
    -20.248 -0.6818E-06  0.2760E+00
    -20.138 -0.1227E-07  0.2760E+00
    -20.029 -0.1209E-09  0.2760E+00
    -19.919 -0.6525E-12  0.2760E+00
    -19.809 -0.1940E-14  0.2760E+00
    -19.699  0.0000E+00  0.2760E+00
    -19.589  0.0000E+00  0.2760E+00
    -19.479  0.0000E+00  0.2760E+00
    -19.369  0.0000E+00  0.2760E+00
    -19.260  0.0000E+00  0.2760E+00
    -19.150  0.0000E+00  0.2760E+00
    -19.040  0.0000E+00  0.2760E+00
    -18.930  0.0000E+00  0.2760E+00
    -18.820  0.0000E+00  0.2760E+00
    -18.710  0.0000E+00  0.2760E+00
    -18.600  0.0000E+00  0.2760E+00
    -18.491  0.0000E+00  0.2760E+00
    -18.381  0.0000E+00  0.2760E+00
    -18.271  0.0000E+00  0.2760E+00
    -18.161  0.0000E+00  0.2760E+00
    -18.051  0.0000E+00  0.2760E+00
    -17.941  0.0000E+00  0.2760E+00
    -17.831  0.0000E+00  0.2760E+00
    -17.722  0.0000E+00  0.2760E+00
    -17.612  0.0000E+00  0.2760E+00
    -17.502  0.0000E+00  0.2760E+00
    -17.392  0.0000E+00  0.2760E+00
    -17.282  0.0000E+00  0.2760E+00
    -17.172  0.0000E+00  0.2760E+00
    -17.062  0.0000E+00  0.2760E+00
    -16.953  0.0000E+00  0.2760E+00
    -16.843  0.0000E+00  0.2760E+00
    -16.733  0.0000E+00  0.2760E+00
    -16.623  0.0000E+00  0.2760E+00
    -16.513  0.0000E+00  0.2760E+00
    -16.403  0.0000E+00  0.2760E+00
    -16.293  0.0000E+00  0.2760E+00
    -16.184  0.0000E+00  0.2760E+00
    -16.074  0.0000E+00  0.2760E+00
    -15.964  0.0000E+00  0.2760E+00
    -15.854  0.0000E+00  0.2760E+00
    -15.744  0.0000E+00  0.2760E+00
    -15.634  0.0000E+00  0.2760E+00
    -15.524  0.0000E+00  0.2760E+00
    -15.414  0.0000E+00  0.2760E+00
    -15.305  0.0000E+00  0.2760E+00
    -15.195  0.0000E+00  0.2760E+00
    -15.085  0.0000E+00  0.2760E+00
    -14.975  0.0000E+00  0.2760E+00
    -14.865  0.0000E+00  0.2760E+00
    -14.755  0.0000E+00  0.2760E+00
    -14.645  0.0000E+00  0.2760E+00
    -14.536  0.0000E+00  0.2760E+00
    -14.426  0.0000E+00  0.2760E+00
    -14.316  0.0000E+00  0.2760E+00
    -14.206  0.0000E+00  0.2760E+00
    -14.096  0.0000E+00  0.2760E+00
    -13.986  0.0000E+00  0.2760E+00
    -13.876  0.0000E+00  0.2760E+00
    -13.767  0.0000E+00  0.2760E+00
    -13.657  0.0000E+00  0.2760E+00
    -13.547  0.0000E+00  0.2760E+00
    -13.437  0.0000E+00  0.2760E+00
    -13.327  0.0000E+00  0.2760E+00
    -13.217  0.0000E+00  0.2760E+00
    -13.107  0.0000E+00  0.2760E+00
    -12.998  0.0000E+00  0.2760E+00
    -12.888  0.0000E+00  0.2760E+00
    -12.778  0.0000E+00  0.2760E+00
    -12.668  0.0000E+00  0.2760E+00
    -12.558 -0.6590E-31  0.2760E+00
    -12.448 -0.4287E-27  0.2760E+00
    -12.338 -0.1516E-23  0.2760E+00
    -12.229 -0.2918E-20  0.2760E+00
    -12.119 -0.3053E-17  0.2760E+00
    -12.009 -0.1682E-14  0.2760E+00
    -11.899 -0.5157E-12  0.2760E+00
    -11.789 -0.8558E-10  0.2760E+00
    -11.679 -0.7667E-08  0.2760E+00
    -11.569 -0.3693E-06  0.2760E+00
    -11.460 -0.9489E-05  0.2760E+00
    -11.350 -0.1276E-03  0.2760E+00
    -11.240 -0.8505E-03  0.2759E+00
    -11.130 -0.2242E-02  0.2756E+00
    -11.020  0.2185E-02  0.2759E+00
    -10.910  0.2511E-01  0.2786E+00
    -10.800  0.5415E-01  0.2846E+00
    -10.690  0.5075E-01  0.2902E+00
    -10.581  0.1957E-01  0.2923E+00
    -10.471 -0.1581E-03  0.2923E+00
    -10.361 -0.2945E-02  0.2920E+00
    -10.251 -0.2807E-02  0.2917E+00
    -10.141  0.7620E-03  0.2918E+00
    -10.031  0.1964E-01  0.2939E+00
     -9.921  0.5130E-01  0.2995E+00
     -9.812  0.7545E-01  0.3078E+00
     -9.702  0.8308E-01  0.3170E+00
     -9.592  0.8536E-01  0.3263E+00
     -9.482  0.1053E+00  0.3379E+00
     -9.372  0.1320E+00  0.3524E+00
     -9.262  0.1182E+00  0.3654E+00
     -9.152  0.5895E-01  0.3719E+00
     -9.043  0.8606E-02  0.3728E+00
     -8.933 -0.4732E-02  0.3723E+00
     -8.823 -0.2278E-02  0.3720E+00
     -8.713 -0.3879E-03  0.3720E+00
     -8.603 -0.3170E-04  0.3720E+00
     -8.493 -0.1334E-05  0.3720E+00
     -8.383 -0.2966E-07  0.3720E+00
     -8.274 -0.3531E-09  0.3720E+00
     -8.164 -0.2265E-11  0.3720E+00
     -8.054 -0.7858E-14  0.3720E+00
     -7.944 -0.1617E-16  0.3720E+00
     -7.834  0.0000E+00  0.3720E+00
     -7.724  0.0000E+00  0.3720E+00
     -7.614  0.0000E+00  0.3720E+00
     -7.505  0.0000E+00  0.3720E+00
     -7.395  0.0000E+00  0.3720E+00
     -7.285  0.0000E+00  0.3720E+00
     -7.175  0.0000E+00  0.3720E+00
     -7.065  0.0000E+00  0.3720E+00
     -6.955  0.0000E+00  0.3720E+00
     -6.845  0.0000E+00  0.3720E+00
     -6.736  0.0000E+00  0.3720E+00
     -6.626  0.0000E+00  0.3720E+00
     -6.516  0.0000E+00  0.3720E+00
     -6.406  0.0000E+00  0.3720E+00
     -6.296  0.0000E+00  0.3720E+00
     -6.186  0.0000E+00  0.3720E+00
     -6.076  0.0000E+00  0.3720E+00
     -5.966  0.0000E+00  0.3720E+00
     -5.857  0.0000E+00  0.3720E+00
     -5.747  0.0000E+00  0.3720E+00
     -5.637  0.0000E+00  0.3720E+00
     -5.527  0.0000E+00  0.3720E+00
     -5.417  0.0000E+00  0.3720E+00
     -5.307  0.0000E+00  0.3720E+00
     -5.197  0.0000E+00  0.3720E+00
     -5.088  0.0000E+00  0.3720E+00
     -4.978  0.0000E+00  0.3720E+00
     -4.868 -0.1293E-31  0.3720E+00
     -4.758 -0.9601E-28  0.3720E+00
     -4.648 -0.3808E-24  0.3720E+00
     -4.538 -0.8230E-21  0.3720E+00
     -4.428 -0.9690E-18  0.3720E+00
     -4.319 -0.6010E-15  0.3720E+00
     -4.209 -0.2086E-12  0.3720E+00
     -4.099 -0.3917E-10  0.3720E+00
     -3.989 -0.3974E-08  0.3720E+00
     -3.879 -0.2167E-06  0.3720E+00
     -3.769 -0.6288E-05  0.3720E+00
     -3.659 -0.9516E-04  0.3720E+00
     -3.550 -0.7163E-03  0.3719E+00
     -3.440 -0.2293E-02  0.3717E+00
     -3.330 -0.1133E-03  0.3716E+00
     -3.220  0.1824E-01  0.3736E+00
     -3.110  0.5427E-01  0.3796E+00
     -3.000  0.8665E-01  0.3891E+00
     -2.890  0.8531E-01  0.3985E+00
     -2.781  0.4616E-01  0.4036E+00
     -2.671  0.8846E-02  0.4045E+00
     -2.561 -0.2794E-02  0.4042E+00
     -2.451 -0.1780E-02  0.4040E+00
     -2.341 -0.3893E-03  0.4040E+00
     -2.231 -0.3016E-03  0.4040E+00
     -2.121 -0.1349E-02  0.4038E+00
     -2.012 -0.2179E-02  0.4036E+00
     -1.902  0.6441E-02  0.4043E+00
     -1.792  0.3330E-01  0.4079E+00
     -1.682  0.6119E-01  0.4147E+00
     -1.572  0.6911E-01  0.4223E+00
     -1.462  0.6916E-01  0.4299E+00
     -1.352  0.7100E-01  0.4377E+00
     -1.242  0.6216E-01  0.4445E+00
     -1.133  0.4507E-01  0.4494E+00
     -1.023  0.4072E-01  0.4539E+00
     -0.913  0.5188E-01  0.4596E+00
     -0.803  0.5582E-01  0.4657E+00
     -0.693  0.4203E-01  0.4704E+00
     -0.583  0.3945E-01  0.4747E+00
     -0.473  0.7490E-01  0.4829E+00
     -0.364  0.1237E+00  0.4965E+00
     -0.254  0.1379E+00  0.5117E+00
     -0.144  0.1091E+00  0.5237E+00
     -0.034  0.7436E-01  0.5318E+00
      0.076  0.6883E-01  0.5394E+00
      0.186  0.8553E-01  0.5488E+00
      0.296  0.8570E-01  0.5582E+00
      0.405  0.6870E-01  0.5657E+00
      0.515  0.7201E-01  0.5737E+00
      0.625  0.1082E+00  0.5855E+00
      0.735  0.1452E+00  0.6015E+00
      0.845  0.1491E+00  0.6179E+00
      0.955  0.1271E+00  0.6318E+00
      1.065  0.9847E-01  0.6427E+00
      1.174  0.7808E-01  0.6512E+00
      1.284  0.5836E-01  0.6576E+00
      1.394  0.2454E-01  0.6603E+00
      1.504  0.7755E-03  0.6604E+00
      1.614 -0.2814E-02  0.6601E+00
      1.724 -0.8964E-03  0.6600E+00
      1.834 -0.1174E-03  0.6600E+00
      1.943 -0.7625E-05  0.6600E+00
      2.053 -0.2591E-06  0.6600E+00
      2.163 -0.4704E-08  0.6600E+00
      2.273 -0.4610E-10  0.6600E+00
      2.383 -0.2449E-12  0.6600E+00
      2.493 -0.7034E-15  0.6600E+00
      2.603 -0.1954E-29  0.6600E+00
      2.712 -0.1008E-25  0.6600E+00
      2.822 -0.2827E-22  0.6600E+00
      2.932 -0.4309E-19  0.6600E+00
      3.042 -0.3567E-16  0.6600E+00
      3.152 -0.1545E-13  0.6600E+00
      3.262 -0.3716E-11  0.6600E+00
      3.372 -0.4800E-09  0.6600E+00
      3.482 -0.3306E-07  0.6600E+00
      3.591 -0.1198E-05  0.6600E+00
      3.701 -0.2231E-04  0.6600E+00
      3.811 -0.2016E-03  0.6600E+00
      3.921 -0.7361E-03  0.6599E+00
      4.031  0.1334E-03  0.6599E+00
      4.141  0.7065E-02  0.6607E+00
      4.251  0.1564E-01  0.6624E+00
      4.360  0.1267E-01  0.6638E+00
      4.470  0.3156E-02  0.6641E+00
      4.580 -0.7197E-03  0.6641E+00
      4.690 -0.4802E-03  0.6640E+00
      4.800 -0.1021E-03  0.6640E+00
      4.910 -0.2125E-03  0.6640E+00
      5.020 -0.1150E-02  0.6638E+00
      5.129 -0.2150E-02  0.6636E+00
      5.239  0.4990E-02  0.6642E+00
      5.349  0.2949E-01  0.6674E+00
      5.459  0.5601E-01  0.6736E+00
      5.569  0.5743E-01  0.6799E+00
      5.679  0.4242E-01  0.6845E+00
      5.789  0.4223E-01  0.6892E+00
      5.898  0.4806E-01  0.6944E+00
      6.008  0.4285E-01  0.6992E+00
      6.118  0.4878E-01  0.7045E+00
      6.228  0.6643E-01  0.7118E+00
      6.338  0.6797E-01  0.7193E+00
      6.448  0.5848E-01  0.7257E+00
      6.558  0.6036E-01  0.7323E+00
      6.667  0.6882E-01  0.7399E+00
      6.777  0.6824E-01  0.7474E+00
      6.887  0.7131E-01  0.7552E+00
      6.997  0.9255E-01  0.7654E+00
      7.107  0.1052E+00  0.7769E+00
      7.217  0.8152E-01  0.7859E+00
      7.327  0.4309E-01  0.7906E+00
      7.436  0.1449E-01  0.7922E+00
      7.546  0.5527E-03  0.7923E+00
      7.656 -0.1809E-02  0.7921E+00
      7.766 -0.6763E-03  0.7920E+00
      7.876 -0.1034E-03  0.7920E+00
      7.986 -0.7760E-05  0.7920E+00
      8.096 -0.3009E-06  0.7920E+00
      8.206 -0.6169E-08  0.7920E+00
      8.315 -0.6760E-10  0.7920E+00
      8.425 -0.3984E-12  0.7920E+00
      8.535 -0.1269E-14  0.7920E+00
      8.645  0.0000E+00  0.7920E+00
      8.755  0.0000E+00  0.7920E+00
      8.865  0.0000E+00  0.7920E+00
      8.975  0.0000E+00  0.7920E+00
      9.084  0.0000E+00  0.7920E+00
      9.194  0.0000E+00  0.7920E+00
      9.304  0.0000E+00  0.7920E+00
