       N       E                     dE             d eps       ncg     rms          rms(c)
DAV:   1     0.303369522238E+04    0.30337E+04   -0.13219E+05   441   0.137E+03
DAV:   2     0.195172066693E+03   -0.28385E+04   -0.27271E+04   441   0.384E+02
DAV:   3    -0.212665945454E+03   -0.40784E+03   -0.40400E+03   477   0.160E+02
DAV:   4    -0.234266748708E+03   -0.21601E+02   -0.21432E+02   459   0.353E+01
DAV:   5    -0.235225851925E+03   -0.95910E+00   -0.95808E+00   567   0.773E+00    0.251E+01
RMM:   6    -0.223764085157E+03    0.11462E+02   -0.20500E+01   428   0.598E+00    0.166E+01
RMM:   7    -0.223179518394E+03    0.58457E+00   -0.27187E+01   409   0.590E+00    0.871E+00
RMM:   8    -0.222901097976E+03    0.27842E+00   -0.17711E+00   445   0.298E+00    0.362E+00
RMM:   9    -0.222891709635E+03    0.93883E-02   -0.11875E+00   451   0.193E+00    0.234E+00
RMM:  10    -0.222829544223E+03    0.62165E-01   -0.15683E-01   471   0.109E+00    0.694E-01
RMM:  11    -0.222840946022E+03   -0.11402E-01   -0.10594E-01   510   0.462E-01    0.576E-01
RMM:  12    -0.222840333863E+03    0.61216E-03   -0.30662E-02   419   0.291E-01    0.145E-01
RMM:  13    -0.222840755195E+03   -0.42133E-03   -0.50179E-03   550   0.164E-01    0.108E-01
RMM:  14    -0.222840882256E+03   -0.12706E-03   -0.11300E-03   428   0.603E-02    0.164E-01
RMM:  15    -0.222840955433E+03   -0.73177E-04   -0.36071E-04   335   0.326E-02    0.379E-02
RMM:  16    -0.222840986204E+03   -0.30771E-04   -0.21777E-04   388   0.236E-02    0.232E-02
RMM:  17    -0.222840984839E+03    0.13643E-05   -0.38851E-05   339   0.130E-02
   1 F= -.22284098E+03 E0= -.22284322E+03  d E =-.222841E+03
       N       E                     dE             d eps       ncg     rms          rms(c)
DAV:   1    -0.222840989127E+03   -0.29236E-05   -0.93408E-06   261   0.957E-03    0.124E-02
RMM:   2    -0.222840987594E+03    0.15332E-05   -0.10663E-05   239   0.665E-03
   2 F= -.22284099E+03 E0= -.22284318E+03  d E =-.275466E-05
       N       E                     dE             d eps       ncg     rms          rms(c)
DAV:   1    -0.222840986311E+03    0.28162E-05   -0.24981E-06   288   0.649E-03    0.411E-03
RMM:   2    -0.222840986201E+03    0.10977E-06   -0.15464E-06   230   0.302E-03
   3 F= -.22284099E+03 E0= -.22284320E+03  d E =0.139277E-05
       N       E                     dE             d eps       ncg     rms          rms(c)
DAV:   1    -0.222840986244E+03    0.67150E-07   -0.29916E-07   279   0.233E-03    0.158E-03
RMM:   2    -0.222840986293E+03   -0.49444E-07   -0.13281E-08    64   0.141E-03
   4 F= -.22284099E+03 E0= -.22284320E+03  d E =-.920663E-07
       N       E                     dE             d eps       ncg     rms          rms(c)
DAV:   1    -0.222840986338E+03   -0.94060E-07   -0.22375E-07   270   0.151E-03    0.798E-04
RMM:   2    -0.222840986357E+03   -0.19467E-07    0.64409-186    44   0.994E-04
   5 F= -.22284099E+03 E0= -.22284320E+03  d E =-.640830E-07
       N       E                     dE             d eps       ncg     rms          rms(c)
DAV:   1    -0.222840986371E+03   -0.33284E-07   -0.82834E-08   252   0.111E-03    0.436E-04
RMM:   2    -0.222840986382E+03   -0.10692E-07    0.43040-186    37   0.672E-04
   6 F= -.22284099E+03 E0= -.22284320E+03  d E =-.245091E-07
       N       E                     dE             d eps       ncg     rms          rms(c)
DAV:   1    -0.222840986393E+03   -0.21711E-07   -0.40495E-08   252   0.751E-04    0.270E-04
RMM:   2    -0.222840986387E+03    0.60645E-08    0.24498-186    28   0.504E-04
   7 F= -.22284099E+03 E0= -.22284320E+03  d E =-.495493E-08
       N       E                     dE             d eps       ncg     rms          rms(c)
DAV:   1    -0.222840986387E+03    0.59990E-08   -0.18598E-08   234   0.565E-04    0.170E-04
RMM:   2    -0.222840986386E+03    0.14115E-08    0.17726-186    28   0.351E-04
   8 F= -.22284099E+03 E0= -.22284320E+03  d E =0.134605E-08
       N       E                     dE             d eps       ncg     rms          rms(c)
DAV:   1    -0.222840986387E+03    0.17099E-09   -0.99376E-09   225   0.399E-04    0.115E-04
RMM:   2    -0.222840986383E+03    0.42673E-08    0.82848-279    16   0.271E-04
   9 F= -.22284099E+03 E0= -.22284320E+03  d E =0.302680E-08
       N       E                     dE             d eps       ncg     rms          rms(c)
DAV:   1    -0.222840986380E+03    0.64974E-08   -0.51717E-09   225   0.309E-04    0.731E-05
RMM:   2    -0.222840986381E+03   -0.55297E-09    0.00000E+00    15   0.196E-04
  10 F= -.22284099E+03 E0= -.22284320E+03  d E =0.167711E-08
       N       E                     dE             d eps       ncg     rms          rms(c)
DAV:   1    -0.222840986381E+03   -0.96406E-09   -0.30164E-09   225   0.225E-04    0.526E-05
RMM:   2    -0.222840986379E+03    0.18008E-08    0.00000E+00     8   0.153E-04
  11 F= -.22284099E+03 E0= -.22284320E+03  d E =0.138971E-08
       N       E                     dE             d eps       ncg     rms          rms(c)
DAV:   1    -0.222840986378E+03    0.33651E-08   -0.17637E-09   225   0.179E-04    0.346E-05
RMM:   2    -0.222840986379E+03   -0.12660E-08    0.00000E+00     7   0.115E-04
  12 F= -.22284099E+03 E0= -.22284320E+03  d E =0.298314E-09
       N       E                     dE             d eps       ncg     rms          rms(c)
DAV:   1    -0.222840986379E+03   -0.15025E-08   -0.96323E-10   225   0.134E-04    0.256E-05
RMM:   2    -0.222840986379E+03    0.46930E-09    0.00000E+00     6   0.897E-05
  13 F= -.22284099E+03 E0= -.22284320E+03  d E =0.232831E-09
       N       E                     dE             d eps       ncg     rms          rms(c)
DAV:   1    -0.222840986377E+03    0.20154E-08   -0.56221E-10   225   0.107E-04    0.180E-05
RMM:   2    -0.222840986379E+03   -0.14115E-08    0.00000E+00     4   0.691E-05
  14 F= -.22284099E+03 E0= -.22284320E+03  d E =0.134605E-09
       N       E                     dE             d eps       ncg     rms          rms(c)
DAV:   1    -0.222840986379E+03   -0.20300E-08   -0.50623E-10   225   0.823E-05    0.134E-05
RMM:   2    -0.222840986379E+03    0.80399E-09    0.00000E+00     3   0.540E-05
  15 F= -.22284099E+03 E0= -.22284320E+03  d E =0.185537E-09
       N       E                     dE             d eps       ncg     rms          rms(c)
DAV:   1    -0.222840986377E+03    0.19900E-08   -0.30270E-10   225   0.654E-05    0.101E-05
RMM:   2    -0.222840986379E+03   -0.12951E-08    0.00000E+00     4   0.424E-05
  16 F= -.22284099E+03 E0= -.22284320E+03  d E =-.109139E-09
       N       E                     dE             d eps       ncg     rms          rms(c)
DAV:   1    -0.222840986380E+03   -0.24738E-08   -0.28655E-10   225   0.516E-05    0.765E-06
RMM:   2    -0.222840986379E+03    0.12587E-08    0.00000E+00     2   0.333E-05
  17 F= -.22284099E+03 E0= -.22284320E+03  d E =0.800355E-10
       N       E                     dE             d eps       ncg     rms          rms(c)
DAV:   1    -0.222840986378E+03    0.17899E-08   -0.15716E-10   225   0.409E-05    0.594E-06
RMM:   2    -0.222840986379E+03   -0.46566E-09    0.00000E+00     2   0.264E-05
  18 F= -.22284099E+03 E0= -.22284320E+03  d E =0.654836E-10
       N       E                     dE             d eps       ncg     rms          rms(c)
DAV:   1    -0.222840986378E+03   -0.87311E-10    0.37023E-11   225   0.325E-05    0.463E-06
RMM:   2    -0.222840986379E+03   -0.66575E-09    0.00000E+00     2   0.209E-05
  19 F= -.22284099E+03 E0= -.22284320E+03  d E =-.287400E-09
       N       E                     dE             d eps       ncg     rms          rms(c)
DAV:   1    -0.222840986380E+03   -0.14115E-08    0.12277E-10   225   0.261E-05    0.366E-06
RMM:   2    -0.222840986379E+03    0.82582E-09    0.00000E+00     2   0.166E-05
  20 F= -.22284099E+03 E0= -.22284320E+03  d E =0.800355E-10
       N       E                     dE             d eps       ncg     rms          rms(c)
DAV:   1    -0.222840986378E+03    0.14843E-08   -0.15095E-11   207   0.207E-05    0.288E-06
RMM:   2    -0.222840986379E+03   -0.64028E-09    0.00000E+00     1   0.132E-05
  21 F= -.22284099E+03 E0= -.22284320E+03  d E =0.181899E-10
       N       E                     dE             d eps       ncg     rms          rms(c)
DAV:   1    -0.222840986379E+03   -0.87311E-09   -0.55689E-11   198   0.167E-05    0.231E-06
RMM:   2    -0.222840986379E+03    0.13824E-09    0.00000E+00     1   0.106E-05
  22 F= -.22284099E+03 E0= -.22284320E+03  d E =-.945874E-10
       N       E                     dE             d eps       ncg     rms          rms(c)
DAV:   1    -0.222840986379E+03   -0.37471E-09   -0.81083E-11   198   0.134E-05    0.184E-06
RMM:   2    -0.222840986379E+03    0.64756E-09    0.00000E+00     1   0.846E-06
  23 F= -.22284099E+03 E0= -.22284320E+03  d E =0.134605E-09
       N       E                     dE             d eps       ncg     rms          rms(c)
DAV:   1    -0.222840986378E+03    0.91313E-09   -0.22097E-10   198   0.108E-05    0.149E-06
RMM:   2    -0.222840986379E+03   -0.69122E-10    0.00000E+00     1   0.679E-06
  24 F= -.22284099E+03 E0= -.22284320E+03  d E =0.196451E-09
       N       E                     dE             d eps       ncg     rms          rms(c)
DAV:   1    -0.222840986379E+03   -0.70213E-09   -0.12106E-10   198   0.866E-06    0.119E-06
RMM:   2    -0.222840986379E+03    0.58935E-09    0.00000E+00     1   0.545E-06
  25 F= -.22284099E+03 E0= -.22284320E+03  d E =-.436557E-10
       N       E                     dE             d eps       ncg     rms          rms(c)
DAV:   1    -0.222840986379E+03    0.24738E-09    0.66682E-12   198   0.701E-06    0.969E-07
RMM:   2    -0.222840986378E+03    0.54570E-09    0.00000E+00     1   0.438E-06
  26 F= -.22284099E+03 E0= -.22284320E+03  d E =0.203727E-09
       N       E                     dE             d eps       ncg     rms          rms(c)
DAV:   1    -0.222840986378E+03    0.64392E-09   -0.33289E-11   198   0.565E-06    0.781E-07
RMM:   2    -0.222840986379E+03   -0.43292E-09    0.00000E+00     1   0.353E-06
  27 F= -.22284099E+03 E0= -.22284320E+03  d E =-.334694E-09
       N       E                     dE             d eps       ncg     rms          rms(c)
DAV:   1    -0.222840986380E+03   -0.16080E-08    0.17339E-11   198   0.458E-06    0.635E-07
RMM:   2    -0.222840986379E+03    0.12478E-08    0.00000E+00     1   0.285E-06
  28 F= -.22284099E+03 E0= -.22284320E+03  d E =0.727596E-10
       N       E                     dE             d eps       ncg     rms          rms(c)
DAV:   1    -0.222840986378E+03    0.19900E-08    0.15109E-11   198   0.370E-06    0.515E-07
RMM:   2    -0.222840986379E+03   -0.63665E-09    0.00000E+00     1   0.230E-06
  29 F= -.22284099E+03 E0= -.22284320E+03  d E =0.105501E-09
       N       E                     dE             d eps       ncg     rms          rms(c)
DAV:   1    -0.222840986379E+03   -0.10659E-08   -0.51137E-11   198   0.302E-06    0.421E-07
RMM:   2    -0.222840986379E+03    0.24738E-09    0.00000E+00     1   0.186E-06
  30 F= -.22284099E+03 E0= -.22284320E+03  d E =-.181899E-09
       N       E                     dE             d eps       ncg     rms          rms(c)
DAV:   1    -0.222840986379E+03    0.14188E-09    0.16763E-11   198   0.244E-06    0.341E-07
RMM:   2    -0.222840986379E+03    0.10186E-09    0.00000E+00     1   0.150E-06
  31 F= -.22284099E+03 E0= -.22284320E+03  d E =-.363798E-11
       N       E                     dE             d eps       ncg     rms          rms(c)
DAV:   1    -0.222840986379E+03    0.58208E-10   -0.53446E-11   198   0.199E-06    0.279E-07
RMM:   2    -0.222840986379E+03    0.10914E-10    0.00000E+00     1   0.122E-06
  32 F= -.22284099E+03 E0= -.22284320E+03  d E =-.327418E-10
       N       E                     dE             d eps       ncg     rms          rms(c)
DAV:   1    -0.222840986378E+03    0.92768E-09    0.77427E-11   198   0.161E-06    0.228E-07
RMM:   2    -0.222840986378E+03   -0.62573E-09    0.00000E+00     1   0.987E-07
  33 F= -.22284099E+03 E0= -.22284320E+03  d E =0.291038E-09
       N       E                     dE             d eps       ncg     rms          rms(c)
DAV:   1    -0.222840986378E+03   -0.32378E-09   -0.58287E-11   198   0.132E-06    0.187E-07
RMM:   2    -0.222840986379E+03   -0.52387E-09    0.00000E+00     1   0.801E-07
  34 F= -.22284099E+03 E0= -.22284320E+03  d E =-.221917E-09
       N       E                     dE             d eps       ncg     rms          rms(c)
DAV:   1    -0.222840986380E+03   -0.13388E-08   -0.32872E-11   198   0.107E-06    0.152E-07
RMM:   2    -0.222840986379E+03    0.91677E-09    0.00000E+00     1   0.651E-07
  35 F= -.22284099E+03 E0= -.22284320E+03  d E =0.101863E-09
       N       E                     dE             d eps       ncg     rms          rms(c)
DAV:   1    -0.222840986378E+03    0.10259E-08   -0.11872E-10   198   0.877E-07    0.125E-07
RMM:   2    -0.222840986378E+03    0.18190E-10    0.00000E+00     1   0.529E-07
  36 F= -.22284099E+03 E0= -.22284320E+03  d E =0.127329E-09
       N       E                     dE             d eps       ncg     rms          rms(c)
DAV:   1    -0.222840986379E+03   -0.55297E-09    0.16739E-11   198   0.713E-07    0.102E-07
RMM:   2    -0.222840986379E+03    0.41109E-09    0.00000E+00     1   0.430E-07
  37 F= -.22284099E+03 E0= -.22284320E+03  d E =-.160071E-09
       N       E                     dE             d eps       ncg     rms          rms(c)
DAV:   1    -0.222840986379E+03   -0.19645E-09   -0.10146E-10   198   0.583E-07    0.841E-08
RMM:   2    -0.222840986379E+03    0.68394E-09    0.00000E+00     1   0.351E-07
  38 F= -.22284099E+03 E0= -.22284320E+03  d E =0.763976E-10
       N       E                     dE             d eps       ncg     rms          rms(c)
DAV:   1    -0.222840986379E+03    0.16735E-09   -0.24102E-12   198   0.475E-07    0.691E-08
RMM:   2    -0.222840986379E+03    0.30195E-09    0.00000E+00     1   0.286E-07
  39 F= -.22284099E+03 E0= -.22284320E+03  d E =-.214641E-09
       N       E                     dE             d eps       ncg     rms          rms(c)
DAV:   1    -0.222840986379E+03    0.31650E-09    0.27850E-11   198   0.393E-07    0.573E-08
RMM:   2    -0.222840986379E+03    0.65484E-10    0.00000E+00     1   0.233E-07
  40 F= -.22284099E+03 E0= -.22284320E+03  d E =0.800355E-10
       N       E                     dE             d eps       ncg     rms          rms(c)
DAV:   1    -0.222840986379E+03   -0.24738E-09    0.70915E-11   198   0.322E-07    0.470E-08
RMM:   2    -0.222840986379E+03    0.21828E-09    0.00000E+00     1   0.190E-07
  41 F= -.22284099E+03 E0= -.22284320E+03  d E =-.945874E-10
       N       E                     dE             d eps       ncg     rms          rms(c)
DAV:   1    -0.222840986379E+03    0.17462E-09    0.40849E-11   198   0.264E-07    0.388E-08
RMM:   2    -0.222840986379E+03    0.24011E-09    0.00000E+00     1   0.156E-07
  42 F= -.22284099E+03 E0= -.22284320E+03  d E =0.196451E-09
       N       E                     dE             d eps       ncg     rms          rms(c)
DAV:   1    -0.222840986379E+03   -0.54570E-10    0.11691E-10   198   0.215E-07    0.316E-08
RMM:   2    -0.222840986379E+03    0.16371E-09    0.00000E+00     1   0.127E-07
  43 F= -.22284099E+03 E0= -.22284320E+03  d E =-.130967E-09
       N       E                     dE             d eps       ncg     rms          rms(c)
DAV:   1    -0.222840986380E+03   -0.65120E-09   -0.71056E-11   198   0.178E-07    0.265E-08
RMM:   2    -0.222840986379E+03    0.10041E-08    0.00000E+00     1   0.104E-07
  44 F= -.22284099E+03 E0= -.22284320E+03  d E =0.189175E-09
       N       E                     dE             d eps       ncg     rms          rms(c)
DAV:   1    -0.222840986378E+03    0.16080E-08    0.50917E-11   198   0.149E-07    0.222E-08
RMM:   2    -0.222840986379E+03   -0.79308E-09    0.00000E+00     1   0.856E-08
  45 F= -.22284099E+03 E0= -.22284320E+03  d E =-.189175E-09
       N       E                     dE             d eps       ncg     rms          rms(c)
DAV:   1    -0.222840986380E+03   -0.19245E-08    0.17942E-11   198   0.121E-07    0.177E-08
RMM:   2    -0.222840986379E+03    0.11969E-08    0.00000E+00     1   0.701E-08
  46 F= -.22284099E+03 E0= -.22284320E+03  d E =0.654836E-10
       N       E                     dE             d eps       ncg     rms          rms(c)
DAV:   1    -0.222840986378E+03    0.20227E-08    0.40482E-11   198   0.995E-08    0.152E-08
RMM:   2    -0.222840986379E+03   -0.98589E-09    0.00000E+00     1   0.579E-08
  47 F= -.22284099E+03 E0= -.22284320E+03  d E =-.160071E-09
       N       E                     dE             d eps       ncg     rms          rms(c)
DAV:   1    -0.222840986379E+03   -0.82218E-09    0.11703E-10   198   0.852E-08    0.128E-08
RMM:   2    -0.222840986379E+03   -0.72760E-10    0.00000E+00     1   0.476E-08
  48 F= -.22284099E+03 E0= -.22284320E+03  d E =0.909495E-10
       N       E                     dE             d eps       ncg     rms          rms(c)
DAV:   1    -0.222840986378E+03    0.29831E-09    0.77006E-11   198   0.715E-08    0.107E-08
RMM:   2    -0.222840986379E+03   -0.26557E-09    0.00000E+00     1   0.394E-08
  49 F= -.22284099E+03 E0= -.22284320E+03  d E =0.105501E-09
       N       E                     dE             d eps       ncg     rms          rms(c)
DAV:   1    -0.222840986379E+03   -0.17462E-09    0.10659E-10   198   0.573E-08    0.852E-09
RMM:   2    -0.222840986379E+03   -0.16007E-09    0.00000E+00     0   0.324E-08
  50 F= -.22284099E+03 E0= -.22284320E+03  d E =-.691216E-10
       N       E                     dE             d eps       ncg     rms          rms(c)
DAV:   1    -0.222840986378E+03    0.29104E-10    0.19197E-10   198   0.438E-08    0.675E-09
RMM:   2    -0.222840986379E+03   -0.29831E-09    0.00000E+00     0   0.266E-08
  51 F= -.22284099E+03 E0= -.22284320E+03  d E =-.109139E-09
       N       E                     dE             d eps       ncg     rms          rms(c)
DAV:   1    -0.222840986380E+03   -0.11387E-08    0.13298E-10   198   0.361E-08    0.573E-09
RMM:   2    -0.222840986379E+03    0.80763E-09    0.00000E+00     0   0.218E-08
  52 F= -.22284099E+03 E0= -.22284320E+03  d E =-.327418E-10
       N       E                     dE             d eps       ncg     rms          rms(c)
DAV:   1    -0.222840986378E+03    0.13497E-08    0.18136E-10   198   0.354E-08    0.569E-09
RMM:   2    -0.222840986379E+03   -0.33469E-09    0.00000E+00     0   0.182E-08
  53 F= -.22284099E+03 E0= -.22284320E+03  d E =0.207365E-09
       N       E                     dE             d eps       ncg     rms          rms(c)
DAV:   1    -0.222840986379E+03   -0.67303E-09    0.20369E-10   198   0.296E-08    0.425E-09
RMM:   2    -0.222840986379E+03    0.23647E-09    0.00000E+00     0   0.148E-08
  54 F= -.22284099E+03 E0= -.22284320E+03  d E =-.101863E-09
       N       E                     dE             d eps       ncg     rms          rms(c)
DAV:   1    -0.222840986378E+03    0.94224E-09    0.27139E-10   198   0.193E-08    0.288E-09
RMM:   2    -0.222840986379E+03   -0.79672E-09    0.00000E+00     0   0.123E-08
  55 F= -.22284099E+03 E0= -.22284320E+03  d E =-.909495E-10
       N       E                     dE             d eps       ncg     rms          rms(c)
DAV:   1    -0.222840986379E+03   -0.12769E-08    0.15615E-10   198   0.193E-08    0.341E-09
RMM:   2    -0.222840986379E+03    0.42201E-09    0.00000E+00     0   0.104E-08
  56 F= -.22284099E+03 E0= -.22284320E+03  d E =-.582077E-10
       N       E                     dE             d eps       ncg     rms          rms(c)
DAV:   1    -0.222840986378E+03    0.10878E-08    0.99330E-11   198   0.198E-08    0.288E-09
RMM:   2    -0.222840986379E+03   -0.60754E-09    0.00000E+00     0   0.854E-09
  57 F= -.22284099E+03 E0= -.22284320E+03  d E =0.582077E-10
       N       E                     dE             d eps       ncg     rms          rms(c)
DAV:   1    -0.222840986378E+03    0.21100E-09    0.87999E-11   198   0.144E-08    0.198E-09
RMM:   2    -0.222840986379E+03   -0.75306E-09    0.00000E+00     0   0.710E-09
  58 F= -.22284099E+03 E0= -.22284320E+03  d E =0.654836E-10
       N       E                     dE             d eps       ncg     rms          rms(c)
DAV:   1    -0.222840986379E+03   -0.14334E-08    0.89061E-11   198   0.102E-08    0.173E-09
RMM:   2    -0.222840986379E+03    0.72396E-09    0.00000E+00     0   0.604E-09
  59 F= -.22284099E+03 E0= -.22284320E+03  d E =0.436557E-10
       N       E                     dE             d eps       ncg     rms          rms(c)
DAV:   1    -0.222840986378E+03    0.11278E-08    0.47867E-11   198   0.792E-09    0.127E-09
RMM:   2    -0.222840986379E+03   -0.48749E-09    0.00000E+00     0   0.484E-09
  60 F= -.22284099E+03 E0= -.22284320E+03  d E =-.836735E-10
       N       E                     dE             d eps       ncg     rms          rms(c)
DAV:   1    -0.222840986379E+03   -0.76398E-09    0.11715E-10   198   0.796E-09    0.144E-09
RMM:   2    -0.222840986379E+03    0.36016E-09    0.00000E+00     0   0.413E-09
  61 F= -.22284099E+03 E0= -.22284320E+03  d E =0.836735E-10
       N       E                     dE             d eps       ncg     rms          rms(c)
DAV:   1    -0.222840986379E+03   -0.32742E-09    0.18319E-10   198   0.625E-09    0.974E-10
RMM:   2    -0.222840986379E+03    0.54933E-09    0.00000E+00     0   0.327E-09
  62 F= -.22284099E+03 E0= -.22284320E+03  d E =-.138243E-09
       N       E                     dE             d eps       ncg     rms          rms(c)
DAV:   1    -0.222840986378E+03    0.10477E-08    0.12704E-10   198   0.387E-09    0.737E-10
RMM:   2    -0.222840986379E+03   -0.52023E-09    0.00000E+00     0   0.275E-09
  63 F= -.22284099E+03 E0= -.22284320E+03  d E =-.218279E-10
       N       E                     dE             d eps       ncg     rms          rms(c)
DAV:   1    -0.222840986378E+03   -0.12733E-09    0.56709E-11   198   0.327E-09    0.693E-10
RMM:   2    -0.222840986379E+03   -0.19281E-09    0.00000E+00     0   0.214E-09
  64 F= -.22284099E+03 E0= -.22284320E+03  d E =0.200089E-09
       N       E                     dE             d eps       ncg     rms          rms(c)
DAV:   1    -0.222840986379E+03   -0.38199E-09    0.83179E-11   198   0.301E-09    0.596E-10
RMM:   2    -0.222840986379E+03    0.72760E-10    0.00000E+00     0   0.176E-09
  65 F= -.22284099E+03 E0= -.22284320E+03  d E =-.116415E-09
       N       E                     dE             d eps       ncg     rms          rms(c)
DAV:   1    -0.222840986380E+03   -0.68030E-09    0.10567E-10   198   0.213E-09    0.400E-10
RMM:   2    -0.222840986379E+03    0.76761E-09    0.00000E+00     0   0.139E-09
  66 F= -.22284099E+03 E0= -.22284320E+03  d E =0.145519E-10
       N       E                     dE             d eps       ncg     rms          rms(c)
DAV:   1    -0.222840986379E+03    0.69485E-09   -0.65621E-11   198   0.164E-09    0.380E-10
RMM:   2    -0.222840986379E+03    0.43656E-10    0.00000E+00     0   0.113E-09
  67 F= -.22284099E+03 E0= -.22284320E+03  d E =-.291038E-10
       N       E                     dE             d eps       ncg     rms          rms(c)
DAV:   1    -0.222840986378E+03    0.50568E-09    0.43751E-11   198   0.134E-09    0.378E-10
RMM:   2    -0.222840986379E+03   -0.34197E-09    0.00000E+00     0   0.909E-10
  68 F= -.22284099E+03 E0= -.22284320E+03  d E =0.120053E-09
       N       E                     dE             d eps       ncg     rms          rms(c)
DAV:   1    -0.222840986378E+03    0.41837E-09    0.27294E-11   198   0.106E-09    0.279E-10
RMM:   2    -0.222840986379E+03   -0.87675E-09    0.00000E+00     0   0.742E-10
  69 F= -.22284099E+03 E0= -.22284320E+03  d E =-.116415E-09
       N       E                     dE             d eps       ncg     rms          rms(c)
DAV:   1    -0.222840986378E+03   -0.25466E-09    0.67740E-11   198   0.904E-10    0.352E-10
RMM:   2    -0.222840986379E+03   -0.51296E-09    0.00000E+00     0   0.634E-10
  70 F= -.22284099E+03 E0= -.22284320E+03  d E =0.109139E-09
       N       E                     dE             d eps       ncg     rms          rms(c)
DAV:   1    -0.222840986379E+03   -0.35288E-09    0.82112E-11   198   0.778E-10    0.286E-10
RMM:   2    -0.222840986379E+03   -0.17099E-09    0.00000E+00     0   0.510E-10
  71 F= -.22284099E+03 E0= -.22284320E+03  d E =-.109139E-10
       N       E                     dE             d eps       ncg     rms          rms(c)
DAV:   1    -0.222840986378E+03    0.44020E-09    0.28164E-11   198   0.599E-10    0.350E-10
RMM:   2    -0.222840986379E+03   -0.66939E-09    0.00000E+00     0   0.439E-10
  72 F= -.22284099E+03 E0= -.22284320E+03  d E =-.582077E-10
       N       E                     dE             d eps       ncg     rms          rms(c)
DAV:   1    -0.222840986379E+03   -0.82218E-09    0.14152E-10   198   0.532E-10    0.367E-10
RMM:   2    -0.222840986379E+03    0.13097E-09    0.00000E+00     0   0.386E-10
  73 F= -.22284099E+03 E0= -.22284320E+03  d E =-.218279E-10
       N       E                     dE             d eps       ncg     rms          rms(c)
DAV:   1    -0.222840986379E+03    0.11642E-09    0.51706E-11   198   0.477E-10    0.252E-10
RMM:   2    -0.222840986379E+03   -0.61846E-10    0.00000E+00     0   0.288E-10
  74 F= -.22284099E+03 E0= -.22284320E+03  d E =-.763976E-10
       N       E                     dE             d eps       ncg     rms          rms(c)
DAV:   1    -0.222840986379E+03    0.26921E-09    0.81836E-11   198   0.342E-10    0.283E-10
RMM:   2    -0.222840986379E+03   -0.12733E-09    0.00000E+00     0   0.250E-10
  75 F= -.22284099E+03 E0= -.22284320E+03  d E =0.203727E-09
       N       E                     dE             d eps       ncg     rms          rms(c)
DAV:   1    -0.222840986378E+03    0.23283E-09    0.14777E-10   198   0.301E-10    0.332E-10
RMM:   2    -0.222840986379E+03   -0.39290E-09    0.00000E+00     0   0.232E-10
  76 F= -.22284099E+03 E0= -.22284320E+03  d E =-.327418E-10
       N       E                     dE             d eps       ncg     rms          rms(c)
DAV:   1    -0.222840986379E+03   -0.24738E-09    0.54404E-11   198   0.298E-10    0.224E-10
RMM:   2    -0.222840986379E+03   -0.30195E-09    0.00000E+00     0   0.195E-10
  77 F= -.22284099E+03 E0= -.22284320E+03  d E =-.156433E-09
       N       E                     dE             d eps       ncg     rms          rms(c)
DAV:   1    -0.222840986378E+03    0.39290E-09    0.41512E-11   198   0.225E-10    0.232E-10
RMM:   2    -0.222840986379E+03   -0.60027E-09    0.00000E+00     0   0.165E-10
  78 F= -.22284099E+03 E0= -.22284320E+03  d E =0.945874E-10
       N       E                     dE             d eps       ncg     rms          rms(c)
DAV:   1    -0.222840986378E+03    0.72760E-11   -0.15658E-11   198   0.197E-10    0.234E-10
RMM:   2    -0.222840986379E+03   -0.65847E-09    0.00000E+00     0   0.145E-10
  79 F= -.22284099E+03 E0= -.22284320E+03  d E =-.509317E-10
       N       E                     dE             d eps       ncg     rms          rms(c)
DAV:   1    -0.222840986378E+03   -0.15280E-09    0.11680E-10   198   0.177E-10    0.174E-10
RMM:   2    -0.222840986379E+03   -0.56389E-09    0.00000E+00     0   0.125E-10
  80 F= -.22284099E+03 E0= -.22284320E+03  d E =-.582077E-10
       N       E                     dE             d eps       ncg     rms          rms(c)
DAV:   1    -0.222840986378E+03    0.61846E-10    0.67697E-11   198   0.144E-10    0.411E-10
RMM:   2    -0.222840986379E+03   -0.59299E-09    0.00000E+00     0   0.176E-10
  81 F= -.22284099E+03 E0= -.22284320E+03  d E =0.327418E-10
       N       E                     dE             d eps       ncg     rms          rms(c)
DAV:   1    -0.222840986379E+03   -0.59299E-09    0.38238E-11   198   0.259E-10    0.296E-10
RMM:   2    -0.222840986379E+03    0.94587E-10    0.00000E+00     0   0.136E-10
  82 F= -.22284099E+03 E0= -.22284320E+03  d E =0.945874E-10
       N       E                     dE             d eps       ncg     rms          rms(c)
DAV:   1    -0.222840986379E+03   -0.16371E-09    0.17652E-10   198   0.176E-10    0.277E-10
RMM:   2    -0.222840986379E+03    0.28376E-09    0.00000E+00     0   0.125E-10
  83 F= -.22284099E+03 E0= -.22284320E+03  d E =0.254659E-10
       N       E                     dE             d eps       ncg     rms          rms(c)
DAV:   1    -0.222840986378E+03    0.10004E-08    0.33903E-12   198   0.174E-10    0.215E-10
RMM:   2    -0.222840986379E+03   -0.84037E-09    0.00000E+00     0   0.892E-11
  84 F= -.22284099E+03 E0= -.22284320E+03  d E =-.123691E-09
       N       E                     dE             d eps       ncg     rms          rms(c)
DAV:   1    -0.222840986379E+03   -0.91313E-09    0.84846E-11   198   0.993E-11    0.215E-10
RMM:   2    -0.222840986379E+03    0.24374E-09    0.00000E+00     0   0.933E-11
  85 F= -.22284099E+03 E0= -.22284320E+03  d E =0.170985E-09
       N       E                     dE             d eps       ncg     rms          rms(c)
DAV:   1    -0.222840986379E+03   -0.15643E-09    0.11991E-10   198   0.124E-10    0.370E-10
RMM:   2    -0.222840986379E+03    0.31287E-09    0.00000E+00     0   0.119E-10
  86 F= -.22284099E+03 E0= -.22284320E+03  d E =-.873115E-10
       N       E                     dE             d eps       ncg     rms          rms(c)
DAV:   1    -0.222840986380E+03   -0.78580E-09    0.95151E-11   198   0.203E-10    0.246E-10
RMM:   2    -0.222840986379E+03    0.10041E-08    0.00000E+00     0   0.107E-10
  87 F= -.22284099E+03 E0= -.22284320E+03  d E =-.945874E-10
       N       E                     dE             d eps       ncg     rms          rms(c)
DAV:   1    -0.222840986378E+03    0.17462E-08    0.80480E-11   198   0.133E-10    0.333E-10
RMM:   2    -0.222840986379E+03   -0.79672E-09    0.00000E+00     0   0.128E-10
  88 F= -.22284099E+03 E0= -.22284320E+03  d E =-.545697E-10
       N       E                     dE             d eps       ncg     rms          rms(c)
DAV:   1    -0.222840986378E+03   -0.76398E-10    0.89246E-11   198   0.217E-10    0.234E-10
RMM:   2    -0.222840986379E+03   -0.60390E-09    0.00000E+00     0   0.100E-10
  89 F= -.22284099E+03 E0= -.22284320E+03  d E =0.116415E-09
       N       E                     dE             d eps       ncg     rms          rms(c)
DAV:   1    -0.222840986379E+03   -0.56389E-09    0.93076E-11   198   0.136E-10    0.354E-10
RMM:   2    -0.222840986379E+03   -0.21828E-10    0.00000E+00     0   0.159E-10
  90 F= -.22284099E+03 E0= -.22284320E+03  d E =0.181899E-10
       N       E                     dE             d eps       ncg     rms          rms(c)
DAV:   1    -0.222840986380E+03   -0.17062E-08    0.10856E-10   198   0.214E-10    0.318E-10
RMM:   2    -0.222840986379E+03    0.17062E-08    0.00000E+00     0   0.110E-10
  91 F= -.22284099E+03 E0= -.22284320E+03  d E =0.218279E-10
       N       E                     dE             d eps       ncg     rms          rms(c)
DAV:   1    -0.222840986379E+03    0.17499E-08    0.16995E-10   198   0.133E-10    0.241E-10
RMM:   2    -0.222840986379E+03    0.29104E-10    0.00000E+00     0   0.873E-11
  92 F= -.22284099E+03 E0= -.22284320E+03  d E =0.727596E-10
       N       E                     dE             d eps       ncg     rms          rms(c)
DAV:   1    -0.222840986379E+03   -0.10550E-09    0.53489E-11   198   0.128E-10    0.323E-10
RMM:   2    -0.222840986379E+03    0.16371E-09    0.00000E+00     0   0.100E-10
  93 F= -.22284099E+03 E0= -.22284320E+03  d E =0.291038E-10
       N       E                     dE             d eps       ncg     rms          rms(c)
DAV:   1    -0.222840986378E+03    0.54570E-09    0.19428E-11   198   0.127E-10    0.289E-10
RMM:   2    -0.222840986379E+03   -0.47658E-09    0.00000E+00     0   0.124E-10
  94 F= -.22284099E+03 E0= -.22284320E+03  d E =-.945874E-10
       N       E                     dE             d eps       ncg     rms          rms(c)
DAV:   1    -0.222840986379E+03   -0.72396E-09    0.61816E-11   198   0.192E-10    0.260E-10
RMM:   2    -0.222840986379E+03    0.20736E-09    0.00000E+00     0   0.117E-10
  95 F= -.22284099E+03 E0= -.22284320E+03  d E =-.400178E-10
       N       E                     dE             d eps       ncg     rms          rms(c)
DAV:   1    -0.222840986378E+03    0.51659E-09    0.61692E-11   198   0.180E-10    0.297E-10
RMM:   2    -0.222840986379E+03   -0.34561E-09    0.00000E+00     0   0.861E-11
  96 F= -.22284099E+03 E0= -.22284320E+03  d E =-.363798E-10
       N       E                     dE             d eps       ncg     rms          rms(c)
DAV:   1    -0.222840986378E+03    0.45111E-09    0.84489E-11   198   0.117E-10    0.241E-10
RMM:   2    -0.222840986379E+03   -0.76034E-09    0.00000E+00     0   0.923E-11
  97 F= -.22284099E+03 E0= -.22284320E+03  d E =0.363798E-10
       N       E                     dE             d eps       ncg     rms          rms(c)
DAV:   1    -0.222840986380E+03   -0.16189E-08    0.14023E-10   198   0.158E-10    0.292E-10
RMM:   2    -0.222840986379E+03    0.88403E-09    0.00000E+00     0   0.915E-11
  98 F= -.22284099E+03 E0= -.22284320E+03  d E =0.254659E-10
       N       E                     dE             d eps       ncg     rms          rms(c)
DAV:   1    -0.222840986379E+03    0.74579E-09    0.36823E-11   198   0.160E-10    0.225E-10
RMM:   2    -0.222840986379E+03    0.94587E-10    0.00000E+00     0   0.958E-11
  99 F= -.22284099E+03 E0= -.22284320E+03  d E =-.436557E-10
       N       E                     dE             d eps       ncg     rms          rms(c)
DAV:   1    -0.222840986379E+03    0.17099E-09   -0.79291E-12   198   0.131E-10    0.254E-10
RMM:   2    -0.222840986379E+03   -0.10914E-09    0.00000E+00     0   0.887E-11
 100 F= -.22284099E+03 E0= -.22284320E+03  d E =-.327418E-10
       N       E                     dE             d eps       ncg     rms          rms(c)
DAV:   1    -0.222840986379E+03   -0.37107E-09    0.69229E-11   198   0.110E-10    0.432E-10
RMM:   2    -0.222840986379E+03    0.23283E-09    0.00000E+00     0   0.155E-10
 101 F= -.22284099E+03 E0= -.22284320E+03  d E =-.291038E-10
       N       E                     dE             d eps       ncg     rms          rms(c)
DAV:   1    -0.222840986379E+03   -0.20373E-09    0.14638E-10   198   0.255E-10    0.199E-10
RMM:   2    -0.222840986379E+03    0.52023E-09    0.00000E+00     0   0.112E-10
 102 F= -.22284099E+03 E0= -.22284320E+03  d E =0.836735E-10
       N       E                     dE             d eps       ncg     rms          rms(c)
DAV:   1    -0.222840986377E+03    0.20664E-08   -0.19393E-11   198   0.132E-10    0.359E-10
RMM:   2    -0.222840986379E+03   -0.15607E-08    0.00000E+00     0   0.134E-10
 103 F= -.22284099E+03 E0= -.22284320E+03  d E =-.145519E-10
       N       E                     dE             d eps       ncg     rms          rms(c)
DAV:   1    -0.222840986378E+03   -0.10914E-08    0.84976E-11   198   0.243E-10    0.243E-10
RMM:   2    -0.222840986379E+03   -0.58208E-09    0.00000E+00     0   0.110E-10
 104 F= -.22284099E+03 E0= -.22284320E+03  d E =-.112777E-09
       N       E                     dE             d eps       ncg     rms          rms(c)
DAV:   1    -0.222840986380E+03   -0.13169E-08   -0.60541E-12   198   0.152E-10    0.423E-10
RMM:   2    -0.222840986379E+03    0.79672E-09    0.00000E+00     0   0.144E-10
 105 F= -.22284099E+03 E0= -.22284320E+03  d E =0.618456E-10
       N       E                     dE             d eps       ncg     rms          rms(c)
DAV:   1    -0.222840986379E+03    0.89858E-09    0.57610E-11   198   0.236E-10    0.320E-10
RMM:   2    -0.222840986379E+03   -0.14552E-09    0.00000E+00     0   0.140E-10
 106 F= -.22284099E+03 E0= -.22284320E+03  d E =-.436557E-10
       N       E                     dE             d eps       ncg     rms          rms(c)
DAV:   1    -0.222840986380E+03   -0.12078E-08    0.73719E-11   198   0.220E-10    0.315E-10
RMM:   2    -0.222840986379E+03    0.10950E-08    0.00000E+00     0   0.125E-10
 107 F= -.22284099E+03 E0= -.22284320E+03  d E =0.327418E-10
       N       E                     dE             d eps       ncg     rms          rms(c)
DAV:   1    -0.222840986379E+03    0.49840E-09   -0.46859E-11   198   0.211E-10    0.233E-10
RMM:   2    -0.222840986379E+03    0.77853E-09    0.00000E+00     0   0.822E-11
 108 F= -.22284099E+03 E0= -.22284320E+03  d E =0.181899E-09
       N       E                     dE             d eps       ncg     rms          rms(c)
DAV:   1    -0.222840986378E+03    0.16298E-08    0.38452E-11   198   0.110E-10    0.239E-10
RMM:   2    -0.222840986379E+03   -0.10477E-08    0.00000E+00     0   0.105E-10
 109 F= -.22284099E+03 E0= -.22284320E+03  d E =-.196451E-09
       N       E                     dE             d eps       ncg     rms          rms(c)
DAV:   1    -0.222840986379E+03   -0.10805E-08    0.17264E-10   198   0.151E-10    0.305E-10
RMM:   2    -0.222840986379E+03    0.10550E-09    0.00000E+00     0   0.107E-10
 110 F= -.22284099E+03 E0= -.22284320E+03  d E =0.727596E-10
       N       E                     dE             d eps       ncg     rms          rms(c)
DAV:   1    -0.222840986381E+03   -0.19681E-08    0.12326E-10   198   0.147E-10    0.259E-10
RMM:   2    -0.222840986379E+03    0.22119E-08    0.00000E+00     0   0.113E-10
 111 F= -.22284099E+03 E0= -.22284320E+03  d E =0.138243E-09
       N       E                     dE             d eps       ncg     rms          rms(c)
DAV:   1    -0.222840986379E+03    0.19754E-08    0.38590E-11   198   0.164E-10    0.290E-10
RMM:   2    -0.222840986379E+03    0.36380E-10    0.00000E+00     0   0.109E-10
 112 F= -.22284099E+03 E0= -.22284320E+03  d E =-.200089E-09
       N       E                     dE             d eps       ncg     rms          rms(c)
DAV:   1    -0.222840986379E+03   -0.14552E-09    0.10263E-10   198   0.185E-10    0.320E-10
RMM:   2    -0.222840986379E+03    0.27285E-09    0.00000E+00     0   0.106E-10
 113 F= -.22284099E+03 E0= -.22284320E+03  d E =0.909495E-10
       N       E                     dE             d eps       ncg     rms          rms(c)
DAV:   1    -0.222840986379E+03   -0.28740E-09   -0.65357E-11   198   0.151E-10    0.173E-10
RMM:   2    -0.222840986379E+03    0.61482E-09    0.00000E+00     0   0.111E-10
 114 F= -.22284099E+03 E0= -.22284320E+03  d E =0.545697E-10
       N       E                     dE             d eps       ncg     rms          rms(c)
DAV:   1    -0.222840986378E+03    0.98953E-09    0.16889E-11   198   0.124E-10    0.280E-10
RMM:   2    -0.222840986379E+03   -0.51659E-09    0.00000E+00     0   0.853E-11
 115 F= -.22284099E+03 E0= -.22284320E+03  d E =-.141881E-09
       N       E                     dE             d eps       ncg     rms          rms(c)
DAV:   1    -0.222840986378E+03   -0.17099E-09   -0.79365E-12   198   0.125E-10    0.303E-10
RMM:   2    -0.222840986379E+03   -0.25466E-09    0.00000E+00     0   0.114E-10
 116 F= -.22284099E+03 E0= -.22284320E+03  d E =0.909495E-10
       N       E                     dE             d eps       ncg     rms          rms(c)
DAV:   1    -0.222840986379E+03   -0.90949E-10    0.15375E-10   198   0.192E-10    0.412E-10
RMM:   2    -0.222840986379E+03   -0.25102E-09    0.00000E+00     0   0.159E-10
 117 F= -.22284099E+03 E0= -.22284320E+03  d E =-.873115E-10
       N       E                     dE             d eps       ncg     rms          rms(c)
DAV:   1    -0.222840986379E+03   -0.25466E-10    0.13636E-10   198   0.242E-10    0.271E-10
RMM:   2    -0.222840986379E+03   -0.21828E-09    0.00000E+00     0   0.104E-10
 118 F= -.22284099E+03 E0= -.22284320E+03  d E =0.727596E-11
       N       E                     dE             d eps       ncg     rms          rms(c)
DAV:   1    -0.222840986380E+03   -0.10186E-08    0.56468E-11   198   0.156E-10    0.241E-10
RMM:   2    -0.222840986379E+03    0.80399E-09    0.00000E+00     0   0.106E-10
 119 F= -.22284099E+03 E0= -.22284320E+03  d E =0.363798E-11
       N       E                     dE             d eps       ncg     rms          rms(c)
DAV:   1    -0.222840986378E+03    0.12042E-08    0.36104E-11   198   0.161E-10    0.277E-10
RMM:   2    -0.222840986379E+03   -0.24374E-09    0.00000E+00     0   0.115E-10
 120 F= -.22284099E+03 E0= -.22284320E+03  d E =0.156433E-09
       N       E                     dE             d eps       ncg     rms          rms(c)
DAV:   1    -0.222840986380E+03   -0.12260E-08    0.17809E-11   198   0.180E-10    0.365E-10
RMM:   2    -0.222840986379E+03    0.85493E-09    0.00000E+00     0   0.155E-10
 121 F= -.22284099E+03 E0= -.22284320E+03  d E =-.127329E-09
       N       E                     dE             d eps       ncg     rms          rms(c)
DAV:   1    -0.222840986379E+03    0.24738E-09    0.85391E-11   198   0.242E-10    0.231E-10
RMM:   2    -0.222840986379E+03    0.70577E-09    0.00000E+00     0   0.102E-10
 122 F= -.22284099E+03 E0= -.22284320E+03  d E =0.982254E-10
       N       E                     dE             d eps       ncg     rms          rms(c)
DAV:   1    -0.222840986379E+03    0.75306E-09    0.78800E-12   198   0.138E-10    0.361E-10
RMM:   2    -0.222840986379E+03   -0.65484E-10    0.00000E+00     0   0.136E-10
 123 F= -.22284099E+03 E0= -.22284320E+03  d E =-.181899E-10
       N       E                     dE             d eps       ncg     rms          rms(c)
DAV:   1    -0.222840986378E+03    0.33469E-09    0.15919E-10   198   0.243E-10    0.245E-10
RMM:   2    -0.222840986379E+03   -0.58571E-09    0.00000E+00     0   0.103E-10
 124 F= -.22284099E+03 E0= -.22284320E+03  d E =-.185537E-09
       N       E                     dE             d eps       ncg     rms          rms(c)
DAV:   1    -0.222840986378E+03   -0.17462E-09    0.27918E-11   198   0.166E-10    0.192E-10
RMM:   2    -0.222840986379E+03   -0.22192E-09    0.00000E+00     0   0.804E-11
 125 F= -.22284099E+03 E0= -.22284320E+03  d E =0.189175E-09
       N       E                     dE             d eps       ncg     rms          rms(c)
DAV:   1    -0.222840986379E+03   -0.94587E-09    0.10426E-10   198   0.104E-10    0.231E-10
RMM:   2    -0.222840986379E+03    0.56752E-09    0.00000E+00     0   0.774E-11
 126 F= -.22284099E+03 E0= -.22284320E+03  d E =-.156433E-09
       N       E                     dE             d eps       ncg     rms          rms(c)
DAV:   1    -0.222840986379E+03    0.84765E-09   -0.14345E-11   198   0.104E-10    0.367E-10
RMM:   2    -0.222840986379E+03   -0.22555E-09    0.00000E+00     0   0.120E-10
 127 F= -.22284099E+03 E0= -.22284320E+03  d E =0.545697E-10
       N       E                     dE             d eps       ncg     rms          rms(c)
DAV:   1    -0.222840986379E+03    0.43656E-10    0.12675E-10   198   0.155E-10    0.235E-10
RMM:   2    -0.222840986379E+03   -0.29104E-09    0.00000E+00     0   0.844E-11
 128 F= -.22284099E+03 E0= -.22284320E+03  d E =-.218279E-10
       N       E                     dE             d eps       ncg     rms          rms(c)
DAV:   1    -0.222840986378E+03    0.43656E-10    0.64889E-11   198   0.123E-10    0.335E-10
RMM:   2    -0.222840986379E+03   -0.35652E-09    0.00000E+00     0   0.122E-10
 129 F= -.22284099E+03 E0= -.22284320E+03  d E =-.218279E-10
       N       E                     dE             d eps       ncg     rms          rms(c)
DAV:   1    -0.222840986378E+03    0.30923E-09    0.94768E-11   198   0.210E-10    0.334E-10
RMM:   2    -0.222840986379E+03   -0.57480E-09    0.00000E+00     0   0.132E-10
 130 F= -.22284099E+03 E0= -.22284320E+03  d E =0.909495E-10
       N       E                     dE             d eps       ncg     rms          rms(c)
DAV:   1    -0.222840986379E+03   -0.59299E-09   -0.34039E-12   198   0.219E-10    0.239E-10
RMM:   2    -0.222840986379E+03    0.72760E-11    0.00000E+00     0   0.928E-11
 131 F= -.22284099E+03 E0= -.22284320E+03  d E =-.109139E-10
       N       E                     dE             d eps       ncg     rms          rms(c)
DAV:   1    -0.222840986380E+03   -0.78580E-09    0.17572E-11   198   0.147E-10    0.235E-10
RMM:   2    -0.222840986379E+03    0.89494E-09    0.00000E+00     0   0.774E-11
 132 F= -.22284099E+03 E0= -.22284320E+03  d E =0.101863E-09
       N       E                     dE             d eps       ncg     rms          rms(c)
DAV:   1    -0.222840986379E+03    0.62937E-09    0.38661E-11   198   0.117E-10    0.372E-10
RMM:   2    -0.222840986379E+03    0.11642E-09    0.00000E+00     0   0.124E-10
 133 F= -.22284099E+03 E0= -.22284320E+03  d E =-.149157E-09
       N       E                     dE             d eps       ncg     rms          rms(c)
DAV:   1    -0.222840986378E+03    0.10368E-08    0.10618E-10   198   0.192E-10    0.203E-10
RMM:   2    -0.222840986379E+03   -0.94224E-09    0.00000E+00     0   0.868E-11
 134 F= -.22284099E+03 E0= -.22284320E+03  d E =-.218279E-10
       N       E                     dE             d eps       ncg     rms          rms(c)
DAV:   1    -0.222840986379E+03   -0.66939E-09    0.93519E-11   198   0.123E-10    0.367E-10
RMM:   2    -0.222840986379E+03   -0.26193E-09    0.00000E+00     0   0.126E-10
 135 F= -.22284099E+03 E0= -.22284320E+03  d E =0.109139E-10
       N       E                     dE             d eps       ncg     rms          rms(c)
DAV:   1    -0.222840986378E+03    0.58571E-09    0.13941E-10   198   0.185E-10    0.263E-10
RMM:   2    -0.222840986379E+03   -0.81855E-09    0.00000E+00     0   0.980E-11
 136 F= -.22284099E+03 E0= -.22284320E+03  d E =0.291038E-10
       N       E                     dE             d eps       ncg     rms          rms(c)
DAV:   1    -0.222840986379E+03   -0.95679E-09    0.25932E-11   198   0.147E-10    0.286E-10
RMM:   2    -0.222840986379E+03    0.23647E-09    0.00000E+00     0   0.927E-11
 137 F= -.22284099E+03 E0= -.22284320E+03  d E =0.982254E-10
       N       E                     dE             d eps       ncg     rms          rms(c)
DAV:   1    -0.222840986379E+03    0.21464E-09    0.24445E-10   198   0.144E-10    0.426E-10
RMM:   2    -0.222840986379E+03   -0.47294E-10    0.00000E+00     0   0.144E-10
 138 F= -.22284099E+03 E0= -.22284320E+03  d E =-.691216E-10
       N       E                     dE             d eps       ncg     rms          rms(c)
DAV:   1    -0.222840986379E+03   -0.94587E-10    0.19404E-10   198   0.266E-10    0.296E-10
RMM:   2    -0.222840986379E+03   -0.32742E-10    0.00000E+00     0   0.131E-10
 139 F= -.22284099E+03 E0= -.22284320E+03  d E =-.800355E-10
       N       E                     dE             d eps       ncg     rms          rms(c)
DAV:   1    -0.222840986377E+03    0.15643E-08   -0.80024E-11   198   0.186E-10    0.236E-10
RMM:   2    -0.222840986379E+03   -0.15316E-08    0.00000E+00     0   0.849E-11
 140 F= -.22284099E+03 E0= -.22284320E+03  d E =0.654836E-10
       N       E                     dE             d eps       ncg     rms          rms(c)
DAV:   1    -0.222840986378E+03   -0.10332E-08   -0.26744E-11   198   0.117E-10    0.318E-10
RMM:   2    -0.222840986379E+03   -0.52023E-09    0.00000E+00     0   0.100E-10
 141 F= -.22284099E+03 E0= -.22284320E+03  d E =-.218279E-10
       N       E                     dE             d eps       ncg     rms          rms(c)
DAV:   1    -0.222840986379E+03   -0.45839E-09    0.61853E-11   198   0.164E-10    0.213E-10
RMM:   2    -0.222840986379E+03   -0.50932E-10    0.00000E+00     0   0.695E-11
 142 F= -.22284099E+03 E0= -.22284320E+03  d E =0.109139E-10
       N       E                     dE             d eps       ncg     rms          rms(c)
DAV:   1    -0.222840986379E+03    0.18554E-09    0.80831E-11   198   0.979E-11    0.385E-10
RMM:   2    -0.222840986379E+03   -0.11278E-09    0.00000E+00     0   0.118E-10
 143 F= -.22284099E+03 E0= -.22284320E+03  d E =0.123691E-09
       N       E                     dE             d eps       ncg     rms          rms(c)
DAV:   1    -0.222840986378E+03    0.30559E-09   -0.21535E-11   198   0.204E-10    0.219E-10
RMM:   2    -0.222840986379E+03   -0.54570E-09    0.00000E+00     0   0.884E-11
 144 F= -.22284099E+03 E0= -.22284320E+03  d E =-.127329E-09
       N       E                     dE             d eps       ncg     rms          rms(c)
DAV:   1    -0.222840986378E+03    0.25466E-10    0.29669E-11   198   0.116E-10    0.296E-10
RMM:   2    -0.222840986379E+03   -0.50204E-09    0.00000E+00     0   0.101E-10
 145 F= -.22284099E+03 E0= -.22284320E+03  d E =0.691216E-10
       N       E                     dE             d eps       ncg     rms          rms(c)
DAV:   1    -0.222840986378E+03    0.42928E-09    0.30572E-11   198   0.184E-10    0.249E-10
RMM:   2    -0.222840986379E+03   -0.99681E-09    0.00000E+00     0   0.964E-11
 146 F= -.22284099E+03 E0= -.22284320E+03  d E =-.654836E-10
       N       E                     dE             d eps       ncg     rms          rms(c)
DAV:   1    -0.222840986378E+03   -0.48021E-09    0.16815E-11   198   0.123E-10    0.258E-10
RMM:   2    -0.222840986379E+03   -0.38563E-09    0.00000E+00     0   0.981E-11
 147 F= -.22284099E+03 E0= -.22284320E+03  d E =0.130967E-09
       N       E                     dE             d eps       ncg     rms          rms(c)
DAV:   1    -0.222840986379E+03   -0.66939E-09    0.29487E-11   198   0.153E-10    0.370E-10
RMM:   2    -0.222840986379E+03    0.14188E-09    0.00000E+00     0   0.147E-10
 148 F= -.22284099E+03 E0= -.22284320E+03  d E =-.141881E-09
       N       E                     dE             d eps       ncg     rms          rms(c)
DAV:   1    -0.222840986379E+03   -0.21828E-09    0.59713E-11   198   0.225E-10    0.213E-10
RMM:   2    -0.222840986379E+03    0.31650E-09    0.00000E+00     0   0.791E-11
 149 F= -.22284099E+03 E0= -.22284320E+03  d E =-.436557E-10
       N       E                     dE             d eps       ncg     rms          rms(c)
DAV:   1    -0.222840986380E+03   -0.10987E-08    0.11103E-10   198   0.101E-10    0.238E-10
RMM:   2    -0.222840986379E+03    0.15571E-08    0.00000E+00     0   0.984E-11
 150 F= -.22284099E+03 E0= -.22284320E+03  d E =0.141881E-09
       N       E                     dE             d eps       ncg     rms          rms(c)
DAV:   1    -0.222840986378E+03    0.18881E-08    0.17264E-10   198   0.118E-10    0.331E-10
RMM:   2    -0.222840986379E+03   -0.47294E-09    0.00000E+00     0   0.105E-10
 151 F= -.22284099E+03 E0= -.22284320E+03  d E =-.141881E-09
       N       E                     dE             d eps       ncg     rms          rms(c)
DAV:   1    -0.222840986379E+03   -0.10004E-08    0.15635E-11   198   0.179E-10    0.357E-10
RMM:   2    -0.222840986379E+03    0.64028E-09    0.00000E+00     0   0.130E-10
 152 F= -.22284099E+03 E0= -.22284320E+03  d E =0.112777E-09
       N       E                     dE             d eps       ncg     rms          rms(c)
DAV:   1    -0.222840986380E+03   -0.43292E-09    0.31943E-11   198   0.174E-10    0.300E-10
RMM:   2    -0.222840986379E+03    0.94587E-09    0.00000E+00     0   0.118E-10
 153 F= -.22284099E+03 E0= -.22284320E+03  d E =-.127329E-09
       N       E                     dE             d eps       ncg     rms          rms(c)
DAV:   1    -0.222840986378E+03    0.14115E-08    0.14594E-11   198   0.178E-10    0.210E-10
RMM:   2    -0.222840986379E+03   -0.38926E-09    0.00000E+00     0   0.840E-11
 154 F= -.22284099E+03 E0= -.22284320E+03  d E =0.763976E-10
       N       E                     dE             d eps       ncg     rms          rms(c)
DAV:   1    -0.222840986379E+03   -0.45111E-09    0.11441E-10   198   0.125E-10    0.279E-10
RMM:   2    -0.222840986379E+03    0.76398E-10    0.00000E+00     0   0.118E-10
 155 F= -.22284099E+03 E0= -.22284320E+03  d E =0.145519E-10
       N       E                     dE             d eps       ncg     rms          rms(c)
DAV:   1    -0.222840986379E+03    0.28376E-09    0.13432E-10   198   0.180E-10    0.234E-10
RMM:   2    -0.222840986379E+03   -0.27285E-09    0.00000E+00     0   0.871E-11
 156 F= -.22284099E+03 E0= -.22284320E+03  d E =-.654836E-10
       N       E                     dE             d eps       ncg     rms          rms(c)
DAV:   1    -0.222840986378E+03    0.39654E-09    0.10523E-10   198   0.131E-10    0.335E-10
RMM:   2    -0.222840986379E+03   -0.52387E-09    0.00000E+00     0   0.109E-10
 157 F= -.22284099E+03 E0= -.22284320E+03  d E =0.145519E-09
       N       E                     dE             d eps       ncg     rms          rms(c)
DAV:   1    -0.222840986378E+03   -0.25466E-09    0.89596E-11   198   0.171E-10    0.233E-10
RMM:   2    -0.222840986379E+03   -0.26921E-09    0.00000E+00     0   0.928E-11
 158 F= -.22284099E+03 E0= -.22284320E+03  d E =0.000000E+00
       N       E                     dE             d eps       ncg     rms          rms(c)
DAV:   1    -0.222840986380E+03   -0.13242E-08    0.12289E-10   198   0.158E-10    0.274E-10
RMM:   2    -0.222840986379E+03    0.93860E-09    0.00000E+00     0   0.108E-10
 159 F= -.22284099E+03 E0= -.22284320E+03  d E =-.116415E-09
       N       E                     dE             d eps       ncg     rms          rms(c)
DAV:   1    -0.222840986378E+03    0.15134E-08    0.79147E-11   198   0.126E-10    0.415E-10
RMM:   2    -0.222840986379E+03   -0.45475E-09    0.00000E+00     0   0.114E-10
 160 F= -.22284099E+03 E0= -.22284320E+03  d E =0.120053E-09
       N       E                     dE             d eps       ncg     rms          rms(c)
DAV:   1    -0.222840986378E+03   -0.43656E-10    0.70999E-11   198   0.178E-10    0.319E-10
RMM:   2    -0.222840986379E+03   -0.42928E-09    0.00000E+00     0   0.123E-10
 161 F= -.22284099E+03 E0= -.22284320E+03  d E =-.181899E-10
       N       E                     dE             d eps       ncg     rms          rms(c)
DAV:   1    -0.222840986379E+03   -0.10514E-08    0.12200E-10   198   0.173E-10    0.189E-10
RMM:   2    -0.222840986379E+03    0.52751E-09    0.00000E+00     0   0.876E-11
 162 F= -.22284099E+03 E0= -.22284320E+03  d E =-.945874E-10
       N       E                     dE             d eps       ncg     rms          rms(c)
DAV:   1    -0.222840986380E+03   -0.21828E-09    0.66115E-11   198   0.121E-10    0.406E-10
RMM:   2    -0.222840986379E+03    0.88767E-09    0.00000E+00     0   0.154E-10
 163 F= -.22284099E+03 E0= -.22284320E+03  d E =0.141881E-09
       N       E                     dE             d eps       ncg     rms          rms(c)
DAV:   1    -0.222840986378E+03    0.14770E-08    0.12145E-10   198   0.215E-10    0.346E-10
RMM:   2    -0.222840986379E+03   -0.68394E-09    0.00000E+00     0   0.134E-10
 164 F= -.22284099E+03 E0= -.22284320E+03  d E =-.945874E-10
       N       E                     dE             d eps       ncg     rms          rms(c)
DAV:   1    -0.222840986379E+03   -0.72760E-09    0.74947E-11   198   0.202E-10    0.185E-10
RMM:   2    -0.222840986379E+03   -0.40018E-10    0.00000E+00     0   0.789E-11
 165 F= -.22284099E+03 E0= -.22284320E+03  d E =-.836735E-10
       N       E                     dE             d eps       ncg     rms          rms(c)
DAV:   1    -0.222840986378E+03    0.60754E-09   -0.16590E-12   198   0.124E-10    0.275E-10
RMM:   2    -0.222840986379E+03   -0.57844E-09    0.00000E+00     0   0.881E-11
 166 F= -.22284099E+03 E0= -.22284320E+03  d E =0.691216E-10
       N       E                     dE             d eps       ncg     rms          rms(c)
DAV:   1    -0.222840986378E+03    0.22555E-09    0.79518E-11   198   0.113E-10    0.334E-10
RMM:   2    -0.222840986379E+03   -0.77125E-09    0.00000E+00     0   0.112E-10
 167 F= -.22284099E+03 E0= -.22284320E+03  d E =0.327418E-10
       N       E                     dE             d eps       ncg     rms          rms(c)
DAV:   1    -0.222840986378E+03   -0.48749E-09   -0.69343E-11   198   0.151E-10    0.267E-10
RMM:   2    -0.222840986379E+03   -0.26921E-09    0.00000E+00     0   0.982E-11
 168 F= -.22284099E+03 E0= -.22284320E+03  d E =0.145519E-10
       N       E                     dE             d eps       ncg     rms          rms(c)
DAV:   1    -0.222840986378E+03   -0.21828E-10    0.30588E-12   198   0.171E-10    0.379E-10
RMM:   2    -0.222840986379E+03   -0.29104E-09    0.00000E+00     0   0.167E-10
 169 F= -.22284099E+03 E0= -.22284320E+03  d E =-.436557E-10
       N       E                     dE             d eps       ncg     rms          rms(c)
DAV:   1    -0.222840986380E+03   -0.11278E-08    0.19456E-10   198   0.235E-10    0.346E-10
RMM:   2    -0.222840986379E+03    0.86584E-09    0.00000E+00     0   0.129E-10
 170 F= -.22284099E+03 E0= -.22284320E+03  d E =0.291038E-10
       N       E                     dE             d eps       ncg     rms          rms(c)
DAV:   1    -0.222840986379E+03    0.96770E-09    0.14445E-10   198   0.198E-10    0.228E-10
RMM:   2    -0.222840986379E+03   -0.22919E-09    0.00000E+00     0   0.974E-11
 171 F= -.22284099E+03 E0= -.22284320E+03  d E =-.127329E-09
       N       E                     dE             d eps       ncg     rms          rms(c)
DAV:   1    -0.222840986379E+03   -0.76398E-10    0.75050E-11   198   0.128E-10    0.392E-10
RMM:   2    -0.222840986379E+03   -0.58208E-10    0.00000E+00     0   0.113E-10
 172 F= -.22284099E+03 E0= -.22284320E+03  d E =0.945874E-10
       N       E                     dE             d eps       ncg     rms          rms(c)
DAV:   1    -0.222840986378E+03    0.30923E-09    0.41130E-11   198   0.172E-10    0.412E-10
RMM:   2    -0.222840986379E+03   -0.44747E-09    0.00000E+00     0   0.160E-10
 173 F= -.22284099E+03 E0= -.22284320E+03  d E =-.800355E-10
       N       E                     dE             d eps       ncg     rms          rms(c)
DAV:   1    -0.222840986378E+03   -0.72760E-11    0.10666E-10   198   0.276E-10    0.473E-10
RMM:   2    -0.222840986379E+03   -0.37471E-09    0.00000E+00     0   0.169E-10
 174 F= -.22284099E+03 E0= -.22284320E+03  d E =0.654836E-10
       N       E                     dE             d eps       ncg     rms          rms(c)
DAV:   1    -0.222840986379E+03   -0.31650E-09    0.12326E-10   198   0.279E-10    0.187E-10
RMM:   2    -0.222840986379E+03   -0.72760E-10    0.00000E+00     0   0.884E-11
 175 F= -.22284099E+03 E0= -.22284320E+03  d E =-.145519E-10
       N       E                     dE             d eps       ncg     rms          rms(c)
DAV:   1    -0.222840986379E+03    0.58208E-10    0.31368E-11   198   0.121E-10    0.210E-10
RMM:   2    -0.222840986379E+03   -0.29104E-10    0.00000E+00     0   0.885E-11
 176 F= -.22284099E+03 E0= -.22284320E+03  d E =0.101863E-09
       N       E                     dE             d eps       ncg     rms          rms(c)
DAV:   1    -0.222840986379E+03   -0.14552E-10    0.17540E-11   198   0.112E-10    0.239E-10
RMM:   2    -0.222840986379E+03   -0.20009E-09    0.00000E+00     0   0.828E-11
 177 F= -.22284099E+03 E0= -.22284320E+03  d E =-.185537E-09
       N       E                     dE             d eps       ncg     rms          rms(c)
DAV:   1    -0.222840986378E+03    0.20009E-09    0.17392E-10   198   0.102E-10    0.302E-10
RMM:   2    -0.222840986379E+03   -0.25466E-09    0.00000E+00     0   0.918E-11
 178 F= -.22284099E+03 E0= -.22284320E+03  d E =0.145519E-09
       N       E                     dE             d eps       ncg     rms          rms(c)
DAV:   1    -0.222840986379E+03   -0.80036E-09    0.50027E-11   198   0.153E-10    0.188E-10
RMM:   2    -0.222840986379E+03    0.48021E-09    0.00000E+00     0   0.756E-11
 179 F= -.22284099E+03 E0= -.22284320E+03  d E =-.654836E-10
       N       E                     dE             d eps       ncg     rms          rms(c)
DAV:   1    -0.222840986378E+03    0.10295E-08    0.98654E-11   198   0.108E-10    0.323E-10
RMM:   2    -0.222840986379E+03   -0.36380E-09    0.00000E+00     0   0.936E-11
 180 F= -.22284099E+03 E0= -.22284320E+03  d E =0.185537E-09
       N       E                     dE             d eps       ncg     rms          rms(c)
DAV:   1    -0.222840986379E+03   -0.61846E-09    0.46063E-11   198   0.143E-10    0.242E-10
RMM:   2    -0.222840986379E+03    0.14916E-09    0.00000E+00     0   0.888E-11
 181 F= -.22284099E+03 E0= -.22284320E+03  d E =-.105501E-09
       N       E                     dE             d eps       ncg     rms          rms(c)
DAV:   1    -0.222840986379E+03    0.58208E-10    0.16068E-11   198   0.151E-10    0.241E-10
RMM:   2    -0.222840986379E+03   -0.25466E-10    0.00000E+00     0   0.974E-11
 182 F= -.22284099E+03 E0= -.22284320E+03  d E =-.116415E-09
       N       E                     dE             d eps       ncg     rms          rms(c)
DAV:   1    -0.222840986380E+03   -0.74942E-09    0.12918E-10   198   0.135E-10    0.291E-10
RMM:   2    -0.222840986379E+03    0.70213E-09    0.00000E+00     0   0.130E-10
 183 F= -.22284099E+03 E0= -.22284320E+03  d E =-.218279E-10
       N       E                     dE             d eps       ncg     rms          rms(c)
DAV:   1    -0.222840986379E+03    0.64028E-09    0.10115E-10   198   0.178E-10    0.272E-10
RMM:   2    -0.222840986379E+03    0.13097E-09    0.00000E+00     0   0.937E-11
 184 F= -.22284099E+03 E0= -.22284320E+03  d E =0.691216E-10
       N       E                     dE             d eps       ncg     rms          rms(c)
DAV:   1    -0.222840986379E+03    0.14188E-09   -0.49947E-11   198   0.137E-10    0.315E-10
RMM:   2    -0.222840986379E+03    0.43656E-10    0.00000E+00     0   0.112E-10
 185 F= -.22284099E+03 E0= -.22284320E+03  d E =0.545697E-10
       N       E                     dE             d eps       ncg     rms          rms(c)
DAV:   1    -0.222840986379E+03   -0.28740E-09    0.24189E-11   198   0.166E-10    0.242E-10
RMM:   2    -0.222840986379E+03    0.22192E-09    0.00000E+00     0   0.934E-11
 186 F= -.22284099E+03 E0= -.22284320E+03  d E =-.109139E-09
       N       E                     dE             d eps       ncg     rms          rms(c)
DAV:   1    -0.222840986377E+03    0.20555E-08    0.67472E-12   198   0.119E-10    0.343E-10
RMM:   2    -0.222840986379E+03   -0.17717E-08    0.00000E+00     0   0.128E-10
 187 F= -.22284099E+03 E0= -.22284320E+03  d E =0.618456E-10
       N       E                     dE             d eps       ncg     rms          rms(c)
DAV:   1    -0.222840986378E+03   -0.89130E-09    0.96325E-11   198   0.242E-10    0.264E-10
RMM:   2    -0.222840986379E+03   -0.85856E-09    0.00000E+00     0   0.121E-10
 188 F= -.22284099E+03 E0= -.22284320E+03  d E =0.218279E-10
       N       E                     dE             d eps       ncg     rms          rms(c)
DAV:   1    -0.222840986379E+03   -0.13788E-08    0.10512E-10   198   0.177E-10    0.332E-10
RMM:   2    -0.222840986379E+03    0.45475E-09    0.00000E+00     0   0.155E-10
 189 F= -.22284099E+03 E0= -.22284320E+03  d E =-.654836E-10
       N       E                     dE             d eps       ncg     rms          rms(c)
DAV:   1    -0.222840986379E+03    0.66939E-09    0.11158E-10   198   0.208E-10    0.279E-10
RMM:   2    -0.222840986379E+03   -0.16735E-09    0.00000E+00     0   0.987E-11
 190 F= -.22284099E+03 E0= -.22284320E+03  d E =0.472937E-10
       N       E                     dE             d eps       ncg     rms          rms(c)
DAV:   1    -0.222840986380E+03   -0.14479E-08    0.12596E-11   198   0.140E-10    0.279E-10
RMM:   2    -0.222840986379E+03    0.13206E-08    0.00000E+00     0   0.107E-10
 191 F= -.22284099E+03 E0= -.22284320E+03  d E =0.400178E-10
       N       E                     dE             d eps       ncg     rms          rms(c)
DAV:   1    -0.222840986378E+03    0.15825E-08   -0.21812E-11   198   0.184E-10    0.304E-10
RMM:   2    -0.222840986379E+03   -0.28740E-09    0.00000E+00     0   0.112E-10
 192 F= -.22284099E+03 E0= -.22284320E+03  d E =-.254659E-10
       N       E                     dE             d eps       ncg     rms          rms(c)
DAV:   1    -0.222840986379E+03   -0.40018E-10    0.27567E-11   198   0.195E-10    0.221E-10
RMM:   2    -0.222840986379E+03   -0.14188E-09    0.00000E+00     0   0.898E-11
 193 F= -.22284099E+03 E0= -.22284320E+03  d E =0.105501E-09
       N       E                     dE             d eps       ncg     rms          rms(c)
DAV:   1    -0.222840986379E+03   -0.36744E-09    0.33695E-11   198   0.128E-10    0.285E-10
RMM:   2    -0.222840986379E+03    0.16735E-09    0.00000E+00     0   0.952E-11
 194 F= -.22284099E+03 E0= -.22284320E+03  d E =-.582077E-10
       N       E                     dE             d eps       ncg     rms          rms(c)
DAV:   1    -0.222840986379E+03    0.37107E-09    0.30108E-11   198   0.142E-10    0.278E-10
RMM:   2    -0.222840986379E+03   -0.29831E-09    0.00000E+00     0   0.103E-10
 195 F= -.22284099E+03 E0= -.22284320E+03  d E =-.945874E-10
       N       E                     dE             d eps       ncg     rms          rms(c)
DAV:   1    -0.222840986378E+03    0.70213E-09    0.71567E-11   198   0.145E-10    0.288E-10
RMM:   2    -0.222840986379E+03   -0.97134E-09    0.00000E+00     0   0.806E-11
 196 F= -.22284099E+03 E0= -.22284320E+03  d E =0.291038E-10
       N       E                     dE             d eps       ncg     rms          rms(c)
DAV:   1    -0.222840986378E+03    0.29104E-09    0.95461E-11   198   0.116E-10    0.297E-10
RMM:   2    -0.222840986379E+03   -0.12042E-08    0.00000E+00     0   0.101E-10
 197 F= -.22284099E+03 E0= -.22284320E+03  d E =0.582077E-10
       N       E                     dE             d eps       ncg     rms          rms(c)
DAV:   1    -0.222840986379E+03   -0.14516E-08    0.11864E-10   198   0.157E-10    0.237E-10
RMM:   2    -0.222840986379E+03    0.16735E-09    0.00000E+00     0   0.980E-11
 198 F= -.22284099E+03 E0= -.22284320E+03  d E =-.800355E-10
       N       E                     dE             d eps       ncg     rms          rms(c)
DAV:   1    -0.222840986379E+03   -0.27285E-09    0.13906E-10   198   0.126E-10    0.243E-10
RMM:   2    -0.222840986379E+03    0.61846E-09    0.00000E+00     0   0.911E-11
 199 F= -.22284099E+03 E0= -.22284320E+03  d E =0.178261E-09
       N       E                     dE             d eps       ncg     rms          rms(c)
DAV:   1    -0.222840986379E+03   -0.65484E-10   -0.12231E-11   198   0.125E-10    0.266E-10
RMM:   2    -0.222840986379E+03    0.67303E-09    0.00000E+00     0   0.952E-11
 200 F= -.22284099E+03 E0= -.22284320E+03  d E =-.109139E-10
       N       E                     dE             d eps       ncg     rms          rms(c)
DAV:   1    -0.222840986378E+03    0.11969E-08    0.10548E-12   198   0.117E-10    0.339E-10
RMM:   2    -0.222840986379E+03   -0.53842E-09    0.00000E+00     0   0.124E-10
 201 F= -.22284099E+03 E0= -.22284320E+03  d E =-.145519E-10
       N       E                     dE             d eps       ncg     rms          rms(c)
DAV:   1    -0.222840986379E+03   -0.65120E-09    0.15548E-10   198   0.221E-10    0.499E-10
RMM:   2    -0.222840986379E+03   -0.10186E-09    0.00000E+00     0   0.189E-10
 202 F= -.22284099E+03 E0= -.22284320E+03  d E =-.214641E-09
       N       E                     dE             d eps       ncg     rms          rms(c)
DAV:   1    -0.222840986378E+03    0.96770E-09   -0.19081E-11   198   0.311E-10    0.205E-10
RMM:   2    -0.222840986379E+03   -0.10587E-08    0.00000E+00     0   0.947E-11
 203 F= -.22284099E+03 E0= -.22284320E+03  d E =0.109139E-10
       N       E                     dE             d eps       ncg     rms          rms(c)
DAV:   1    -0.222840986378E+03   -0.34925E-09    0.13724E-10   198   0.113E-10    0.342E-10
RMM:   2    -0.222840986379E+03   -0.52751E-09    0.00000E+00     0   0.878E-11
 204 F= -.22284099E+03 E0= -.22284320E+03  d E =0.181899E-09
       N       E                     dE             d eps       ncg     rms          rms(c)
DAV:   1    -0.222840986380E+03   -0.16626E-08    0.48962E-11   198   0.137E-10    0.292E-10
RMM:   2    -0.222840986379E+03    0.96043E-09    0.00000E+00     0   0.121E-10
 205 F= -.22284099E+03 E0= -.22284320E+03  d E =-.174623E-09
       N       E                     dE             d eps       ncg     rms          rms(c)
DAV:   1    -0.222840986378E+03    0.14188E-08    0.10944E-10   198   0.158E-10    0.302E-10
RMM:   2    -0.222840986379E+03   -0.29468E-09    0.00000E+00     0   0.110E-10
 206 F= -.22284099E+03 E0= -.22284320E+03  d E =0.163709E-09
       N       E                     dE             d eps       ncg     rms          rms(c)
DAV:   1    -0.222840986378E+03   -0.47294E-10    0.30821E-11   198   0.170E-10    0.314E-10
RMM:   2    -0.222840986379E+03   -0.31287E-09    0.00000E+00     0   0.145E-10
 207 F= -.22284099E+03 E0= -.22284320E+03  d E =-.654836E-10
       N       E                     dE             d eps       ncg     rms          rms(c)
DAV:   1    -0.222840986380E+03   -0.11096E-08    0.11940E-10   198   0.227E-10    0.350E-10
RMM:   2    -0.222840986379E+03    0.84401E-09    0.00000E+00     0   0.130E-10
 208 F= -.22284099E+03 E0= -.22284320E+03  d E =0.472937E-10
       N       E                     dE             d eps       ncg     rms          rms(c)
DAV:   1    -0.222840986379E+03    0.57844E-09    0.12856E-10   198   0.222E-10    0.146E-10
RMM:   2    -0.222840986379E+03    0.18190E-09    0.00000E+00     0   0.765E-11
 209 F= -.22284099E+03 E0= -.22284320E+03  d E =-.836735E-10
       N       E                     dE             d eps       ncg     rms          rms(c)
DAV:   1    -0.222840986380E+03   -0.14006E-08    0.10225E-10   198   0.815E-11    0.360E-10
RMM:   2    -0.222840986379E+03    0.15971E-08    0.00000E+00     0   0.112E-10
 210 F= -.22284099E+03 E0= -.22284320E+03  d E =0.145519E-10
       N       E                     dE             d eps       ncg     rms          rms(c)
DAV:   1    -0.222840986379E+03    0.95679E-09    0.74903E-11   198   0.198E-10    0.225E-10
RMM:   2    -0.222840986379E+03    0.54206E-09    0.00000E+00     0   0.930E-11
 211 F= -.22284099E+03 E0= -.22284320E+03  d E =-.982254E-10
       N       E                     dE             d eps       ncg     rms          rms(c)
DAV:   1    -0.222840986380E+03   -0.53478E-09    0.11927E-10   198   0.146E-10    0.426E-10
RMM:   2    -0.222840986379E+03    0.12005E-08    0.00000E+00     0   0.139E-10
 212 F= -.22284099E+03 E0= -.22284320E+03  d E =0.123691E-09
       N       E                     dE             d eps       ncg     rms          rms(c)
DAV:   1    -0.222840986380E+03    0.22555E-09    0.55827E-11   198   0.194E-10    0.372E-10
RMM:   2    -0.222840986379E+03    0.10368E-08    0.00000E+00     0   0.126E-10
 213 F= -.22284099E+03 E0= -.22284320E+03  d E =0.618456E-10
       N       E                     dE             d eps       ncg     rms          rms(c)
DAV:   1    -0.222840986377E+03    0.25611E-08   -0.15060E-11   198   0.204E-10    0.233E-10
RMM:   2    -0.222840986379E+03   -0.16589E-08    0.00000E+00     0   0.927E-11
 214 F= -.22284099E+03 E0= -.22284320E+03  d E =-.134605E-09
       N       E                     dE             d eps       ncg     rms          rms(c)
DAV:   1    -0.222840986378E+03   -0.10186E-08    0.16233E-11   198   0.116E-10    0.460E-10
RMM:   2    -0.222840986379E+03   -0.66211E-09    0.00000E+00     0   0.155E-10
 215 F= -.22284099E+03 E0= -.22284320E+03  d E =-.218279E-10
       N       E                     dE             d eps       ncg     rms          rms(c)
DAV:   1    -0.222840986379E+03   -0.80399E-09    0.65650E-11   198   0.245E-10    0.216E-10
RMM:   2    -0.222840986379E+03    0.32378E-09    0.00000E+00     0   0.919E-11
 216 F= -.22284099E+03 E0= -.22284320E+03  d E =0.181899E-09
       N       E                     dE             d eps       ncg     rms          rms(c)
DAV:   1    -0.222840986378E+03    0.52387E-09    0.10768E-10   198   0.116E-10    0.376E-10
RMM:   2    -0.222840986379E+03   -0.22919E-09    0.00000E+00     0   0.118E-10
 217 F= -.22284099E+03 E0= -.22284320E+03  d E =-.291038E-10
       N       E                     dE             d eps       ncg     rms          rms(c)
DAV:   1    -0.222840986379E+03   -0.94587E-10    0.25090E-11   198   0.187E-10    0.232E-10
RMM:   2    -0.222840986379E+03   -0.20009E-09    0.00000E+00     0   0.971E-11
 218 F= -.22284099E+03 E0= -.22284320E+03  d E =-.654836E-10
       N       E                     dE             d eps       ncg     rms          rms(c)
DAV:   1    -0.222840986378E+03    0.49477E-09    0.69441E-11   198   0.143E-10    0.354E-10
RMM:   2    -0.222840986379E+03   -0.62573E-09    0.00000E+00     0   0.117E-10
 219 F= -.22284099E+03 E0= -.22284320E+03  d E =0.691216E-10
       N       E                     dE             d eps       ncg     rms          rms(c)
DAV:   1    -0.222840986379E+03   -0.13679E-08    0.82894E-12   198   0.176E-10    0.247E-10
RMM:   2    -0.222840986379E+03    0.61118E-09    0.00000E+00     0   0.826E-11
 220 F= -.22284099E+03 E0= -.22284320E+03  d E =-.130967E-09
       N       E                     dE             d eps       ncg     rms          rms(c)
DAV:   1    -0.222840986378E+03    0.14988E-08   -0.10348E-11   198   0.109E-10    0.200E-10
RMM:   2    -0.222840986379E+03   -0.82946E-09    0.00000E+00     0   0.805E-11
 221 F= -.22284099E+03 E0= -.22284320E+03  d E =0.582077E-10
       N       E                     dE             d eps       ncg     rms          rms(c)
DAV:   1    -0.222840986379E+03   -0.74215E-09    0.23565E-11   198   0.942E-11    0.285E-10
RMM:   2    -0.222840986379E+03   -0.11642E-09    0.00000E+00     0   0.897E-11
 222 F= -.22284099E+03 E0= -.22284320E+03  d E =-.291038E-10
       N       E                     dE             d eps       ncg     rms          rms(c)
DAV:   1    -0.222840986379E+03   -0.31287E-09    0.12522E-10   198   0.132E-10    0.295E-10
RMM:   2    -0.222840986379E+03    0.14188E-09    0.00000E+00     0   0.918E-11
 223 F= -.22284099E+03 E0= -.22284320E+03  d E =-.545697E-10
       N       E                     dE             d eps       ncg     rms          rms(c)
DAV:   1    -0.222840986379E+03    0.47294E-10    0.43029E-11   198   0.154E-10    0.348E-10
RMM:   2    -0.222840986379E+03    0.11642E-09    0.00000E+00     0   0.131E-10
 224 F= -.22284099E+03 E0= -.22284320E+03  d E =0.218279E-10
       N       E                     dE             d eps       ncg     rms          rms(c)
DAV:   1    -0.222840986380E+03   -0.11169E-08    0.14920E-10   198   0.215E-10    0.312E-10
RMM:   2    -0.222840986379E+03    0.13606E-08    0.00000E+00     0   0.111E-10
 225 F= -.22284099E+03 E0= -.22284320E+03  d E =0.127329E-09
       N       E                     dE             d eps       ncg     rms          rms(c)
DAV:   1    -0.222840986378E+03    0.16080E-08   -0.29902E-11   198   0.192E-10    0.504E-10
RMM:   2    -0.222840986379E+03   -0.44020E-09    0.00000E+00     0   0.194E-10
 226 F= -.22284099E+03 E0= -.22284320E+03  d E =-.192813E-09
       N       E                     dE             d eps       ncg     rms          rms(c)
DAV:   1    -0.222840986379E+03   -0.32014E-09    0.24537E-10   198   0.335E-10    0.292E-10
RMM:   2    -0.222840986379E+03    0.43656E-10    0.00000E+00     0   0.115E-10
 227 F= -.22284099E+03 E0= -.22284320E+03  d E =0.163709E-09
       N       E                     dE             d eps       ncg     rms          rms(c)
DAV:   1    -0.222840986379E+03    0.50932E-10    0.99522E-11   198   0.152E-10    0.371E-10
RMM:   2    -0.222840986379E+03   -0.12005E-09    0.00000E+00     0   0.100E-10
 228 F= -.22284099E+03 E0= -.22284320E+03  d E =-.112777E-09
       N       E                     dE             d eps       ncg     rms          rms(c)
DAV:   1    -0.222840986379E+03   -0.15280E-09    0.11343E-10   198   0.129E-10    0.292E-10
RMM:   2    -0.222840986379E+03    0.22192E-09    0.00000E+00     0   0.105E-10
 229 F= -.22284099E+03 E0= -.22284320E+03  d E =0.189175E-09
       N       E                     dE             d eps       ncg     rms          rms(c)
DAV:   1    -0.222840986378E+03    0.37107E-09   -0.14590E-11   198   0.164E-10    0.255E-10
RMM:   2    -0.222840986379E+03   -0.23283E-09    0.00000E+00     0   0.969E-11
 230 F= -.22284099E+03 E0= -.22284320E+03  d E =-.836735E-10
       N       E                     dE             d eps       ncg     rms          rms(c)
DAV:   1    -0.222840986379E+03   -0.58571E-09    0.22585E-10   198   0.126E-10    0.273E-10
RMM:   2    -0.222840986379E+03    0.48021E-09    0.00000E+00     0   0.115E-10
 231 F= -.22284099E+03 E0= -.22284320E+03  d E =0.127329E-09
       N       E                     dE             d eps       ncg     rms          rms(c)
DAV:   1    -0.222840986378E+03    0.69849E-09   -0.11182E-11   198   0.174E-10    0.212E-10
RMM:   2    -0.222840986379E+03   -0.36380E-09    0.00000E+00     0   0.840E-11
 232 F= -.22284099E+03 E0= -.22284320E+03  d E =-.145519E-09
       N       E                     dE             d eps       ncg     rms          rms(c)
DAV:   1    -0.222840986379E+03   -0.88767E-09   -0.32835E-11   198   0.128E-10    0.383E-10
RMM:   2    -0.222840986379E+03    0.45111E-09    0.00000E+00     0   0.150E-10
 233 F= -.22284099E+03 E0= -.22284320E+03  d E =-.727596E-10
       N       E                     dE             d eps       ncg     rms          rms(c)
DAV:   1    -0.222840986378E+03    0.12042E-08    0.22736E-10   198   0.209E-10    0.336E-10
RMM:   2    -0.222840986379E+03   -0.73851E-09    0.00000E+00     0   0.124E-10
 234 F= -.22284099E+03 E0= -.22284320E+03  d E =0.145519E-10
       N       E                     dE             d eps       ncg     rms          rms(c)
DAV:   1    -0.222840986379E+03   -0.80763E-09    0.71695E-12   198   0.169E-10    0.249E-10
RMM:   2    -0.222840986379E+03    0.50932E-10    0.00000E+00     0   0.978E-11
 235 F= -.22284099E+03 E0= -.22284320E+03  d E =-.181899E-10
       N       E                     dE             d eps       ncg     rms          rms(c)
DAV:   1    -0.222840986379E+03    0.36380E-10    0.34575E-11   198   0.140E-10    0.318E-10
RMM:   2    -0.222840986379E+03    0.47294E-10    0.00000E+00     0   0.119E-10
 236 F= -.22284099E+03 E0= -.22284320E+03  d E =0.327418E-10
       N       E                     dE             d eps       ncg     rms          rms(c)
DAV:   1    -0.222840986379E+03   -0.90949E-10    0.15110E-10   198   0.182E-10    0.334E-10
RMM:   2    -0.222840986379E+03    0.13824E-09    0.00000E+00     0   0.124E-10
 237 F= -.22284099E+03 E0= -.22284320E+03  d E =0.000000E+00
       N       E                     dE             d eps       ncg     rms          rms(c)
DAV:   1    -0.222840986378E+03    0.82582E-09    0.74925E-11   198   0.212E-10    0.248E-10
RMM:   2    -0.222840986379E+03   -0.78217E-09    0.00000E+00     0   0.997E-11
 238 F= -.22284099E+03 E0= -.22284320E+03  d E =-.945874E-10
       N       E                     dE             d eps       ncg     rms          rms(c)
DAV:   1    -0.222840986377E+03    0.77853E-09    0.13915E-10   198   0.118E-10    0.340E-10
RMM:   2    -0.222840986379E+03   -0.13897E-08    0.00000E+00     0   0.114E-10
 239 F= -.22284099E+03 E0= -.22284320E+03  d E =0.170985E-09
       N       E                     dE             d eps       ncg     rms          rms(c)
DAV:   1    -0.222840986380E+03   -0.22192E-08    0.15660E-10   198   0.191E-10    0.223E-10
RMM:   2    -0.222840986379E+03    0.83310E-09    0.00000E+00     0   0.896E-11
 240 F= -.22284099E+03 E0= -.22284320E+03  d E =0.363798E-11
       N       E                     dE             d eps       ncg     rms          rms(c)
DAV:   1    -0.222840986379E+03    0.11278E-09   -0.32923E-12   198   0.102E-10    0.352E-10
RMM:   2    -0.222840986379E+03    0.73487E-09    0.00000E+00     0   0.126E-10
 241 F= -.22284099E+03 E0= -.22284320E+03  d E =0.145519E-10
[...]
 439 F= -.22284099E+03 E0= -.22284320E+03  d E =-.472937E-10
       N       E                     dE             d eps       ncg     rms          rms(c)
DAV:   1    -0.222840986378E+03    0.11860E-08    0.42643E-11   198   0.210E-10    0.294E-10
RMM:   2    -0.222840986379E+03   -0.78580E-09    0.00000E+00     0   0.118E-10
 440 F= -.22284099E+03 E0= -.22284320E+03  d E =-.727596E-11
       N       E                     dE             d eps       ncg     rms          rms(c)
DAV:   1    -0.222840986378E+03   -0.39654E-09    0.84946E-11   198   0.188E-10    0.199E-10
RMM:   2    -0.222840986379E+03   -0.23283E-09    0.00000E+00     0   0.820E-11
 441 F= -.22284099E+03 E0= -.22284320E+03  d E =0.156433E-09
       N       E                     dE             d eps       ncg     rms          rms(c)
DAV:   1    -0.222840986379E+03   -0.50932E-09    0.31890E-11   198   0.126E-10    0.294E-10
RMM:   2    -0.222840986379E+03    0.31287E-09    0.00000E+00     0   0.971E-11
 442 F= -.22284099E+03 E0= -.22284320E+03  d E =0.363798E-10
       N       E                     dE             d eps       ncg     rms          rms(c)
DAV:   1    -0.222840986378E+03    0.48021E-09    0.11265E-10   198   0.126E-10    0.267E-10
RMM:   2    -0.222840986379E+03   -0.36744E-09    0.00000E+00     0   0.111E-10
 443 F= -.22284099E+03 E0= -.22284320E+03  d E =-.200089E-09
       N       E                     dE             d eps       ncg     rms          rms(c)
DAV:   1    -0.222840986379E+03   -0.10186E-08    0.13182E-10   198   0.146E-10    0.229E-10
RMM:   2    -0.222840986379E+03    0.75670E-09    0.00000E+00     0   0.759E-11
 444 F= -.22284099E+03 E0= -.22284320E+03  d E =0.105501E-09
       N       E                     dE             d eps       ncg     rms          rms(c)
DAV:   1    -0.222840986379E+03    0.93496E-09    0.96233E-11   198   0.107E-10    0.274E-10
RMM:   2    -0.222840986379E+03   -0.26557E-09    0.00000E+00     0   0.111E-10
 445 F= -.22284099E+03 E0= -.22284320E+03  d E =-.873115E-10
       N       E                     dE             d eps       ncg     rms          rms(c)
DAV:   1    -0.222840986380E+03   -0.11569E-08    0.11062E-10   198   0.170E-10    0.433E-10
RMM:   2    -0.222840986379E+03    0.96770E-09    0.00000E+00     0   0.166E-10
 446 F= -.22284099E+03 E0= -.22284320E+03  d E =0.763976E-10
       N       E                     dE             d eps       ncg     rms          rms(c)
DAV:   1    -0.222840986379E+03    0.49840E-09    0.16071E-10   198   0.301E-10    0.223E-10
RMM:   2    -0.222840986379E+03    0.40745E-09    0.00000E+00     0   0.117E-10
 447 F= -.22284099E+03 E0= -.22284320E+03  d E =-.618456E-10
       N       E                     dE             d eps       ncg     rms          rms(c)
DAV:   1    -0.222840986379E+03    0.15280E-09    0.49659E-12   198   0.139E-10    0.321E-10
RMM:   2    -0.222840986379E+03    0.28012E-09    0.00000E+00     0   0.128E-10
 448 F= -.22284099E+03 E0= -.22284320E+03  d E =0.254659E-10
       N       E                     dE             d eps       ncg     rms          rms(c)
DAV:   1    -0.222840986378E+03    0.76761E-09    0.41993E-11   198   0.192E-10    0.353E-10
RMM:   2    -0.222840986379E+03   -0.54206E-09    0.00000E+00     0   0.121E-10
 449 F= -.22284099E+03 E0= -.22284320E+03  d E =-.545697E-10
       N       E                     dE             d eps       ncg     rms          rms(c)
DAV:   1    -0.222840986379E+03   -0.10259E-08    0.13097E-10   198   0.156E-10    0.286E-10
RMM:   2    -0.222840986379E+03    0.63665E-09    0.00000E+00     0   0.122E-10
 450 F= -.22284099E+03 E0= -.22284320E+03  d E =0.152795E-09
       N       E                     dE             d eps       ncg     rms          rms(c)
DAV:   1    -0.222840986378E+03    0.11132E-08    0.66369E-11   198   0.184E-10    0.239E-10
RMM:   2    -0.222840986379E+03   -0.47294E-09    0.00000E+00     0   0.913E-11
 451 F= -.22284099E+03 E0= -.22284320E+03  d E =0.363798E-11
       N       E                     dE             d eps       ncg     rms          rms(c)
DAV:   1    -0.222840986379E+03   -0.81491E-09    0.58314E-11   198   0.155E-10    0.494E-10
RMM:   2    -0.222840986379E+03    0.12733E-09    0.00000E+00     0   0.192E-10
 452 F= -.22284099E+03 E0= -.22284320E+03  d E =-.214641E-09
       N       E                     dE             d eps       ncg     rms          rms(c)
DAV:   1    -0.222840986378E+03    0.10041E-08    0.10679E-10   198   0.309E-10    0.266E-10
RMM:   2    -0.222840986379E+03   -0.85856E-09    0.00000E+00     0   0.110E-10
 453 F= -.22284099E+03 E0= -.22284320E+03  d E =0.181899E-10
       N       E                     dE             d eps       ncg     rms          rms(c)
DAV:   1    -0.222840986379E+03   -0.55661E-09    0.11309E-10   198   0.162E-10    0.422E-10
RMM:   2    -0.222840986379E+03   -0.14188E-09    0.00000E+00     0   0.170E-10
 454 F= -.22284099E+03 E0= -.22284320E+03  d E =0.160071E-09
       N       E                     dE             d eps       ncg     rms          rms(c)
DAV:   1    -0.222840986380E+03   -0.12624E-08    0.31485E-11   198   0.272E-10    0.300E-10
RMM:   2    -0.222840986379E+03    0.10550E-08    0.00000E+00     0   0.122E-10
 455 F= -.22284099E+03 E0= -.22284320E+03  d E =-.654836E-10
       N       E                     dE             d eps       ncg     rms          rms(c)
DAV:   1    -0.222840986378E+03    0.22956E-08    0.13463E-10   198   0.205E-10    0.214E-10
RMM:   2    -0.222840986379E+03   -0.11532E-08    0.00000E+00     0   0.875E-11
 456 F= -.22284099E+03 E0= -.22284320E+03  d E =0.873115E-10
       N       E                     dE             d eps       ncg     rms          rms(c)
DAV:   1    -0.222840986379E+03   -0.11969E-08    0.10427E-10   198   0.113E-10    0.391E-10
RMM:   2    -0.222840986379E+03   -0.12005E-09    0.00000E+00     0   0.144E-10
 457 F= -.22284099E+03 E0= -.22284320E+03  d E =-.163709E-09
       N       E                     dE             d eps       ncg     rms          rms(c)
DAV:   1    -0.222840986379E+03   -0.33833E-09    0.63434E-11   198   0.235E-10    0.304E-10
RMM:   2    -0.222840986379E+03    0.27649E-09    0.00000E+00     0   0.120E-10
 458 F= -.22284099E+03 E0= -.22284320E+03  d E =0.582077E-10
       N       E                     dE             d eps       ncg     rms          rms(c)
DAV:   1    -0.222840986379E+03    0.32742E-10   -0.31498E-11   198   0.154E-10    0.288E-10
RMM:   2    -0.222840986379E+03    0.32742E-09    0.00000E+00     0   0.111E-10
 459 F= -.22284099E+03 E0= -.22284320E+03  d E =0.836735E-10
       N       E                     dE             d eps       ncg     rms          rms(c)
DAV:   1    -0.222840986379E+03    0.13461E-09    0.15685E-10   198   0.184E-10    0.213E-10
RMM:   2    -0.222840986379E+03    0.36380E-10    0.00000E+00     0   0.859E-11
 460 F= -.22284099E+03 E0= -.22284320E+03  d E =-.156433E-09
       N       E                     dE             d eps       ncg     rms          rms(c)
DAV:   1    -0.222840986377E+03    0.16153E-08    0.19317E-10   198   0.118E-10    0.320E-10
RMM:   2    -0.222840986379E+03   -0.15643E-08    0.00000E+00     0   0.104E-10
 461 F= -.22284099E+03 E0= -.22284320E+03  d E =0.145519E-10
       N       E                     dE             d eps       ncg     rms          rms(c)
DAV:   1    -0.222840986379E+03   -0.21864E-08    0.97574E-11   198   0.135E-10    0.287E-10
RMM:   2    -0.222840986379E+03    0.81491E-09    0.00000E+00     0   0.923E-11
 462 F= -.22284099E+03 E0= -.22284320E+03  d E =0.192813E-09
       N       E                     dE             d eps       ncg     rms          rms(c)
DAV:   1    -0.222840986380E+03   -0.37471E-09    0.49857E-11   198   0.135E-10    0.270E-10
RMM:   2    -0.222840986379E+03    0.98225E-09    0.00000E+00     0   0.964E-11
 463 F= -.22284099E+03 E0= -.22284320E+03  d E =-.207365E-09
       N       E                     dE             d eps       ncg     rms          rms(c)
DAV:   1    -0.222840986378E+03    0.14115E-08    0.17397E-10   198   0.127E-10    0.250E-10
RMM:   2    -0.222840986379E+03   -0.22192E-09    0.00000E+00     0   0.844E-11
 464 F= -.22284099E+03 E0= -.22284320E+03  d E =0.207365E-09
       N       E                     dE             d eps       ncg     rms          rms(c)
DAV:   1    -0.222840986380E+03   -0.11896E-08    0.65516E-11   198   0.115E-10    0.278E-10
RMM:   2    -0.222840986379E+03    0.93132E-09    0.00000E+00     0   0.991E-11
 465 F= -.22284099E+03 E0= -.22284320E+03  d E =-.363798E-10
       N       E                     dE             d eps       ncg     rms          rms(c)
DAV:   1    -0.222840986378E+03    0.14625E-08    0.55151E-11   198   0.140E-10    0.210E-10
RMM:   2    -0.222840986379E+03   -0.50204E-09    0.00000E+00     0   0.902E-11
 466 F= -.22284099E+03 E0= -.22284320E+03  d E =0.291038E-10
       N       E                     dE             d eps       ncg     rms          rms(c)
DAV:   1    -0.222840986379E+03   -0.42201E-09    0.10608E-10   198   0.105E-10    0.296E-10
RMM:   2    -0.222840986379E+03   -0.13824E-09    0.00000E+00     0   0.948E-11
 467 F= -.22284099E+03 E0= -.22284320E+03  d E =-.582077E-10
       N       E                     dE             d eps       ncg     rms          rms(c)
DAV:   1    -0.222840986378E+03    0.60390E-09    0.16590E-10   198   0.116E-10    0.203E-10
RMM:   2    -0.222840986379E+03   -0.85493E-09    0.00000E+00     0   0.843E-11
 468 F= -.22284099E+03 E0= -.22284320E+03  d E =-.112777E-09
       N       E                     dE             d eps       ncg     rms          rms(c)
DAV:   1    -0.222840986379E+03   -0.12478E-08    0.65685E-11   198   0.123E-10    0.170E-10
RMM:   2    -0.222840986379E+03    0.36744E-09    0.00000E+00     0   0.800E-11
 469 F= -.22284099E+03 E0= -.22284320E+03  d E =-.254659E-10
       N       E                     dE             d eps       ncg     rms          rms(c)
DAV:   1    -0.222840986379E+03    0.87311E-10    0.81237E-11   198   0.912E-11    0.424E-10
RMM:   2    -0.222840986379E+03    0.47294E-09    0.00000E+00     0   0.127E-10
 470 F= -.22284099E+03 E0= -.22284320E+03  d E =0.192813E-09
       N       E                     dE             d eps       ncg     rms          rms(c)
DAV:   1    -0.222840986378E+03    0.71668E-09    0.10843E-10   198   0.233E-10    0.297E-10
RMM:   2    -0.222840986379E+03   -0.42201E-09    0.00000E+00     0   0.137E-10
 471 F= -.22284099E+03 E0= -.22284320E+03  d E =-.178261E-09
       N       E                     dE             d eps       ncg     rms          rms(c)
DAV:   1    -0.222840986379E+03   -0.48749E-09    0.44518E-11   198   0.181E-10    0.288E-10
RMM:   2    -0.222840986379E+03    0.16371E-09    0.00000E+00     0   0.116E-10
 472 F= -.22284099E+03 E0= -.22284320E+03  d E =0.982254E-10
       N       E                     dE             d eps       ncg     rms          rms(c)
DAV:   1    -0.222840986378E+03    0.74942E-09    0.15041E-11   198   0.191E-10    0.248E-10
RMM:   2    -0.222840986379E+03   -0.68758E-09    0.00000E+00     0   0.900E-11
 473 F= -.22284099E+03 E0= -.22284320E+03  d E =-.101863E-09
       N       E                     dE             d eps       ncg     rms          rms(c)
DAV:   1    -0.222840986379E+03   -0.13024E-08    0.71559E-11   198   0.162E-10    0.496E-10
RMM:   2    -0.222840986379E+03    0.68394E-09    0.00000E+00     0   0.184E-10
 474 F= -.22284099E+03 E0= -.22284320E+03  d E =0.691216E-10
       N       E                     dE             d eps       ncg     rms          rms(c)
DAV:   1    -0.222840986379E+03    0.80399E-09    0.11879E-10   198   0.308E-10    0.262E-10
RMM:   2    -0.222840986379E+03   -0.18917E-09    0.00000E+00     0   0.991E-11
 475 F= -.22284099E+03 E0= -.22284320E+03  d E =-.691216E-10
       N       E                     dE             d eps       ncg     rms          rms(c)
DAV:   1    -0.222840986379E+03   -0.42201E-09    0.17856E-11   198   0.126E-10    0.364E-10
RMM:   2    -0.222840986379E+03    0.33106E-09    0.00000E+00     0   0.104E-10
 476 F= -.22284099E+03 E0= -.22284320E+03  d E =0.982254E-10
       N       E                     dE             d eps       ncg     rms          rms(c)
DAV:   1    -0.222840986378E+03    0.10114E-08   -0.22961E-11   198   0.186E-10    0.284E-10
RMM:   2    -0.222840986379E+03   -0.64392E-09    0.00000E+00     0   0.121E-10
 477 F= -.22284099E+03 E0= -.22284320E+03  d E =0.363798E-10
       N       E                     dE             d eps       ncg     rms          rms(c)
DAV:   1    -0.222840986379E+03   -0.12224E-08    0.16790E-10   198   0.182E-10    0.362E-10
RMM:   2    -0.222840986379E+03    0.62573E-09    0.00000E+00     0   0.126E-10
 478 F= -.22284099E+03 E0= -.22284320E+03  d E =0.472937E-10
       N       E                     dE             d eps       ncg     rms          rms(c)
DAV:   1    -0.222840986378E+03    0.96043E-09    0.51539E-11   198   0.191E-10    0.205E-10
RMM:   2    -0.222840986379E+03   -0.51659E-09    0.00000E+00     0   0.935E-11
 479 F= -.22284099E+03 E0= -.22284320E+03  d E =-.181899E-09
       N       E                     dE             d eps       ncg     rms          rms(c)
DAV:   1    -0.222840986379E+03   -0.17099E-09    0.76637E-11   198   0.123E-10    0.275E-10
RMM:   2    -0.222840986379E+03   -0.35288E-09    0.00000E+00     0   0.116E-10
 480 F= -.22284099E+03 E0= -.22284320E+03  d E =-.727596E-11
       N       E                     dE             d eps       ncg     rms          rms(c)
DAV:   1    -0.222840986378E+03    0.22192E-09    0.19341E-11   198   0.164E-10    0.271E-10
RMM:   2    -0.222840986379E+03   -0.48385E-09    0.00000E+00     0   0.937E-11
 481 F= -.22284099E+03 E0= -.22284320E+03  d E =0.909495E-10
       N       E                     dE             d eps       ncg     rms          rms(c)
DAV:   1    -0.222840986379E+03   -0.10987E-08    0.10157E-10   198   0.121E-10    0.376E-10
RMM:   2    -0.222840986379E+03    0.54206E-09    0.00000E+00     0   0.119E-10
 482 F= -.22284099E+03 E0= -.22284320E+03  d E =-.727596E-10
       N       E                     dE             d eps       ncg     rms          rms(c)
DAV:   1    -0.222840986379E+03    0.22555E-09    0.15546E-10   198   0.201E-10    0.329E-10
RMM:   2    -0.222840986379E+03    0.47294E-09    0.00000E+00     0   0.121E-10
 483 F= -.22284099E+03 E0= -.22284320E+03  d E =0.156433E-09
       N       E                     dE             d eps       ncg     rms          rms(c)
DAV:   1    -0.222840986378E+03    0.13279E-08    0.29095E-12   198   0.179E-10    0.423E-10
RMM:   2    -0.222840986379E+03   -0.88039E-09    0.00000E+00     0   0.181E-10
 484 F= -.22284099E+03 E0= -.22284320E+03  d E =-.254659E-10
       N       E                     dE             d eps       ncg     rms          rms(c)
DAV:   1    -0.222840986379E+03   -0.10223E-08    0.17194E-10   198   0.262E-10    0.447E-10
RMM:   2    -0.222840986379E+03    0.36380E-10    0.00000E+00     0   0.166E-10
 485 F= -.22284099E+03 E0= -.22284320E+03  d E =-.105501E-09
       N       E                     dE             d eps       ncg     rms          rms(c)
DAV:   1    -0.222840986379E+03   -0.12733E-09    0.14964E-10   198   0.281E-10    0.193E-10
RMM:   2    -0.222840986379E+03    0.25102E-09    0.00000E+00     0   0.927E-11
 486 F= -.22284099E+03 E0= -.22284320E+03  d E =0.873115E-10
       N       E                     dE             d eps       ncg     rms          rms(c)
DAV:   1    -0.222840986379E+03    0.46930E-09    0.23860E-11   198   0.120E-10    0.298E-10
RMM:   2    -0.222840986379E+03   -0.24374E-09    0.00000E+00     0   0.121E-10
 487 F= -.22284099E+03 E0= -.22284320E+03  d E =-.254659E-10
       N       E                     dE             d eps       ncg     rms          rms(c)
DAV:   1    -0.222840986378E+03    0.73851E-09    0.24578E-10   198   0.162E-10    0.288E-10
RMM:   2    -0.222840986379E+03   -0.10041E-08    0.00000E+00     0   0.101E-10
 488 F= -.22284099E+03 E0= -.22284320E+03  d E =-.218279E-10
       N       E                     dE             d eps       ncg     rms          rms(c)
DAV:   1    -0.222840986378E+03   -0.24011E-09    0.30495E-11   198   0.130E-10    0.335E-10
RMM:   2    -0.222840986379E+03   -0.68030E-09    0.00000E+00     0   0.118E-10
 489 F= -.22284099E+03 E0= -.22284320E+03  d E =0.836735E-10
       N       E                     dE             d eps       ncg     rms          rms(c)
DAV:   1    -0.222840986379E+03   -0.13024E-08    0.13487E-11   198   0.228E-10    0.249E-10
RMM:   2    -0.222840986379E+03    0.62937E-09    0.00000E+00     0   0.890E-11
 490 F= -.22284099E+03 E0= -.22284320E+03  d E =0.727596E-11
       N       E                     dE             d eps       ncg     rms          rms(c)
DAV:   1    -0.222840986379E+03    0.73851E-09    0.38601E-11   198   0.118E-10    0.364E-10
RMM:   2    -0.222840986379E+03   -0.26921E-09    0.00000E+00     0   0.147E-10
 491 F= -.22284099E+03 E0= -.22284320E+03  d E =-.160071E-09
       N       E                     dE             d eps       ncg     rms          rms(c)
DAV:   1    -0.222840986379E+03   -0.26193E-09    0.13049E-10   198   0.222E-10    0.275E-10
RMM:   2    -0.222840986379E+03    0.21100E-09    0.00000E+00     0   0.974E-11
 492 F= -.22284099E+03 E0= -.22284320E+03  d E =0.218279E-09
       N       E                     dE             d eps       ncg     rms          rms(c)
DAV:   1    -0.222840986379E+03   -0.44383E-09    0.59124E-11   198   0.138E-10    0.318E-10
RMM:   2    -0.222840986379E+03    0.62937E-09    0.00000E+00     0   0.119E-10
 493 F= -.22284099E+03 E0= -.22284320E+03  d E =-.254659E-10
       N       E                     dE             d eps       ncg     rms          rms(c)
DAV:   1    -0.222840986379E+03    0.65484E-10    0.58155E-11   198   0.164E-10    0.270E-10
RMM:   2    -0.222840986379E+03    0.39654E-09    0.00000E+00     0   0.909E-11
 494 F= -.22284099E+03 E0= -.22284320E+03  d E =-.167347E-09
       N       E                     dE             d eps       ncg     rms          rms(c)
DAV:   1    -0.222840986380E+03   -0.33106E-09    0.10682E-10   198   0.117E-10    0.195E-10
RMM:   2    -0.222840986379E+03    0.77489E-09    0.00000E+00     0   0.795E-11
 495 F= -.22284099E+03 E0= -.22284320E+03  d E =0.472937E-10
       N       E                     dE             d eps       ncg     rms          rms(c)
DAV:   1    -0.222840986379E+03    0.19645E-09    0.66769E-11   198   0.846E-11    0.293E-10
RMM:   2    -0.222840986379E+03    0.56025E-09    0.00000E+00     0   0.103E-10
 496 F= -.22284099E+03 E0= -.22284320E+03  d E =-.181899E-10
       N       E                     dE             d eps       ncg     rms          rms(c)
DAV:   1    -0.222840986378E+03    0.14988E-08    0.13445E-10   198   0.176E-10    0.280E-10
RMM:   2    -0.222840986379E+03   -0.93132E-09    0.00000E+00     0   0.963E-11
 497 F= -.22284099E+03 E0= -.22284320E+03  d E =0.727596E-11
       N       E                     dE             d eps       ncg     rms          rms(c)
DAV:   1    -0.222840986379E+03   -0.78944E-09    0.25316E-11   198   0.136E-10    0.256E-10
RMM:   2    -0.222840986379E+03   -0.72760E-10    0.00000E+00     0   0.816E-11
 498 F= -.22284099E+03 E0= -.22284320E+03  d E =0.691216E-10
       N       E                     dE             d eps       ncg     rms          rms(c)
DAV:   1    -0.222840986378E+03    0.96406E-09    0.12625E-10   198   0.116E-10    0.255E-10
RMM:   2    -0.222840986379E+03   -0.10587E-08    0.00000E+00     0   0.857E-11
 499 F= -.22284099E+03 E0= -.22284320E+03  d E =-.218279E-10
       N       E                     dE             d eps       ncg     rms          rms(c)
DAV:   1    -0.222840986379E+03   -0.10295E-08    0.45684E-11   198   0.124E-10    0.277E-10
RMM:   2    -0.222840986379E+03   -0.13461E-09    0.00000E+00     0   0.116E-10
 500 F= -.22284099E+03 E0= -.22284320E+03  d E =-.105501E-09
