 112 112   0   0
  0.2260158E+02  0.1218282E-08  0.1532313E-08  0.1373046E-08  0.2000000E-14
   600.00000000000000     
  CAR 
 NVT-AIMD mp-560538_Na3AlS3 600K         
      9.43530985    -23.77890788  301      1.81635976      1.00000000
    -23.779  0.0000E+00  0.0000E+00
    -23.668  0.0000E+00  0.0000E+00
    -23.557  0.0000E+00  0.0000E+00
    -23.447 -0.4440E-28 -0.4940E-29
    -23.336 -0.3362E-24 -0.3742E-25
    -23.225 -0.1353E-20 -0.1506E-21
    -23.115 -0.2930E-17 -0.3262E-18
    -23.004 -0.3409E-14 -0.3798E-15
    -22.893 -0.2065E-11 -0.2302E-12
    -22.782 -0.6889E-09 -0.7688E-10
    -22.672 -0.1231E-06 -0.1377E-07
    -22.561 -0.1176E-04 -0.1322E-05
    -22.450 -0.5983E-03 -0.6786E-04
    -22.340 -0.1609E-01 -0.1857E-02
    -22.229 -0.2249E+00 -0.2685E-01
    -22.118 -0.1560E+01 -0.2001E+00
    -22.007 -0.4529E+01 -0.7022E+00
    -21.897  0.1057E+01 -0.5817E+00
    -21.786  0.3887E+02  0.3735E+01
    -21.675  0.1081E+03  0.1572E+02
    -21.565  0.1739E+03  0.3498E+02
    -21.454  0.2181E+03  0.5914E+02
    -21.343  0.2454E+03  0.8638E+02
    -21.232  0.2606E+03  0.1153E+03
    -21.122  0.2656E+03  0.1449E+03
    -21.011  0.2617E+03  0.1741E+03
    -20.900  0.2496E+03  0.2019E+03
    -20.790  0.2226E+03  0.2267E+03
    -20.679  0.1817E+03  0.2470E+03
    -20.568  0.1398E+03  0.2626E+03
    -20.457  0.9888E+02  0.2736E+03
    -20.347  0.6064E+02  0.2804E+03
    -20.236  0.3482E+02  0.2843E+03
    -20.125  0.2104E+02  0.2866E+03
    -20.015  0.1046E+02  0.2878E+03
    -19.904  0.2583E+01  0.2881E+03
    -19.793 -0.3193E+00  0.2881E+03
    -19.682 -0.4237E+00  0.2880E+03
    -19.572 -0.1293E+00  0.2880E+03
    -19.461 -0.1962E-01  0.2880E+03
    -19.350 -0.1585E-02  0.2880E+03
    -19.240 -0.6867E-04  0.2880E+03
    -19.129 -0.1593E-05  0.2880E+03
    -19.018 -0.1977E-07  0.2880E+03
    -18.907 -0.1312E-09  0.2880E+03
    -18.797 -0.4651E-12  0.2880E+03
    -18.686 -0.7933E-15  0.2880E+03
    -18.575  0.0000E+00  0.2880E+03
    -18.465  0.0000E+00  0.2880E+03
    -18.354  0.0000E+00  0.2880E+03
    -18.243  0.0000E+00  0.2880E+03
    -18.132  0.0000E+00  0.2880E+03
    -18.022  0.0000E+00  0.2880E+03
    -17.911  0.0000E+00  0.2880E+03
    -17.800  0.0000E+00  0.2880E+03
    -17.690  0.0000E+00  0.2880E+03
    -17.579  0.0000E+00  0.2880E+03
    -17.468  0.0000E+00  0.2880E+03
    -17.357  0.0000E+00  0.2880E+03
    -17.247  0.0000E+00  0.2880E+03
    -17.136  0.0000E+00  0.2880E+03
    -17.025  0.0000E+00  0.2880E+03
    -16.915  0.0000E+00  0.2880E+03
    -16.804  0.0000E+00  0.2880E+03
    -16.693  0.0000E+00  0.2880E+03
    -16.582  0.0000E+00  0.2880E+03
    -16.472  0.0000E+00  0.2880E+03
    -16.361  0.0000E+00  0.2880E+03
    -16.250  0.0000E+00  0.2880E+03
    -16.140  0.0000E+00  0.2880E+03
    -16.029  0.0000E+00  0.2880E+03
    -15.918  0.0000E+00  0.2880E+03
    -15.807  0.0000E+00  0.2880E+03
    -15.697  0.0000E+00  0.2880E+03
    -15.586  0.0000E+00  0.2880E+03
    -15.475  0.0000E+00  0.2880E+03
    -15.365  0.0000E+00  0.2880E+03
    -15.254  0.0000E+00  0.2880E+03
    -15.143  0.0000E+00  0.2880E+03
    -15.032  0.0000E+00  0.2880E+03
    -14.922  0.0000E+00  0.2880E+03
    -14.811  0.0000E+00  0.2880E+03
    -14.700  0.0000E+00  0.2880E+03
    -14.590  0.0000E+00  0.2880E+03
    -14.479  0.0000E+00  0.2880E+03
    -14.368  0.0000E+00  0.2880E+03
    -14.257  0.0000E+00  0.2880E+03
    -14.147  0.0000E+00  0.2880E+03
    -14.036  0.0000E+00  0.2880E+03
    -13.925  0.0000E+00  0.2880E+03
    -13.815  0.0000E+00  0.2880E+03
    -13.704  0.0000E+00  0.2880E+03
    -13.593  0.0000E+00  0.2880E+03
    -13.483  0.0000E+00  0.2880E+03
    -13.372  0.0000E+00  0.2880E+03
    -13.261  0.0000E+00  0.2880E+03
    -13.150  0.0000E+00  0.2880E+03
    -13.040 -0.3368E-30  0.2880E+03
    -12.929 -0.2534E-26  0.2880E+03
    -12.818 -0.1018E-22  0.2880E+03
    -12.708 -0.2209E-19  0.2880E+03
    -12.597 -0.2585E-16  0.2880E+03
    -12.486 -0.1581E-13  0.2880E+03
    -12.375 -0.5339E-11  0.2880E+03
    -12.265 -0.9685E-09  0.2880E+03
    -12.154 -0.9420E-07  0.2880E+03
    -12.043 -0.4896E-05  0.2880E+03
    -11.933 -0.1353E-03  0.2880E+03
    -11.822 -0.1970E-02  0.2880E+03
    -11.711 -0.1482E-01  0.2880E+03
    -11.600 -0.5446E-01  0.2880E+03
    -11.490 -0.7176E-01  0.2880E+03
    -11.379  0.1550E+00  0.2880E+03
    -11.268  0.1036E+01  0.2881E+03
    -11.158  0.3133E+01  0.2885E+03
    -11.047  0.6902E+01  0.2892E+03
    -10.936  0.1200E+02  0.2906E+03
    -10.825  0.1606E+02  0.2923E+03
    -10.715  0.1782E+02  0.2943E+03
    -10.604  0.1995E+02  0.2965E+03
    -10.493  0.2076E+02  0.2989E+03
    -10.383  0.1654E+02  0.3007E+03
    -10.272  0.1247E+02  0.3021E+03
    -10.161  0.1448E+02  0.3037E+03
    -10.050  0.2134E+02  0.3061E+03
     -9.940  0.3063E+02  0.3095E+03
     -9.829  0.4070E+02  0.3140E+03
     -9.718  0.5026E+02  0.3196E+03
     -9.608  0.6020E+02  0.3263E+03
     -9.497  0.6712E+02  0.3337E+03
     -9.386  0.6721E+02  0.3412E+03
     -9.275  0.6447E+02  0.3484E+03
     -9.165  0.6421E+02  0.3555E+03
     -9.054  0.6365E+02  0.3626E+03
     -8.943  0.5707E+02  0.3690E+03
     -8.833  0.4701E+02  0.3742E+03
     -8.722  0.3713E+02  0.3784E+03
     -8.611  0.2584E+02  0.3812E+03
     -8.500  0.1468E+02  0.3829E+03
     -8.390  0.6835E+01  0.3836E+03
     -8.279  0.2665E+01  0.3839E+03
     -8.168  0.7332E+00  0.3840E+03
     -8.058 -0.3196E-01  0.3840E+03
     -7.947 -0.1281E+00  0.3840E+03
     -7.836 -0.4592E-01  0.3840E+03
     -7.725 -0.7228E-02  0.3840E+03
     -7.615 -0.5704E-03  0.3840E+03
     -7.504 -0.2351E-04  0.3840E+03
     -7.393 -0.5148E-06  0.3840E+03
     -7.283 -0.6035E-08  0.3840E+03
     -7.172 -0.3802E-10  0.3840E+03
     -7.061 -0.1289E-12  0.3840E+03
     -6.950 -0.1994E-15  0.3840E+03
     -6.840  0.0000E+00  0.3840E+03
     -6.729  0.0000E+00  0.3840E+03
     -6.618  0.0000E+00  0.3840E+03
     -6.508  0.0000E+00  0.3840E+03
     -6.397  0.0000E+00  0.3840E+03
     -6.286  0.0000E+00  0.3840E+03
     -6.175  0.0000E+00  0.3840E+03
     -6.065  0.0000E+00  0.3840E+03
     -5.954  0.0000E+00  0.3840E+03
     -5.843  0.0000E+00  0.3840E+03
     -5.733  0.0000E+00  0.3840E+03
     -5.622  0.0000E+00  0.3840E+03
     -5.511  0.0000E+00  0.3840E+03
     -5.400  0.0000E+00  0.3840E+03
     -5.290  0.0000E+00  0.3840E+03
     -5.179  0.0000E+00  0.3840E+03
     -5.068 -0.5373E-28  0.3840E+03
     -4.958 -0.2839E-24  0.3840E+03
     -4.847 -0.8200E-21  0.3840E+03
     -4.736 -0.1295E-17  0.3840E+03
     -4.625 -0.1100E-14  0.3840E+03
     -4.515 -0.5123E-12  0.3840E+03
     -4.404 -0.1318E-09  0.3840E+03
     -4.293 -0.1852E-07  0.3840E+03
     -4.183 -0.1421E-05  0.3840E+03
     -4.072 -0.5947E-04  0.3840E+03
     -3.961 -0.1355E-02  0.3840E+03
     -3.850 -0.1673E-01  0.3840E+03
     -3.740 -0.1103E+00  0.3840E+03
     -3.629 -0.3613E+00  0.3839E+03
     -3.518 -0.3279E+00  0.3839E+03
     -3.408  0.1810E+01  0.3841E+03
     -3.297  0.8808E+01  0.3851E+03
     -3.186  0.2159E+02  0.3875E+03
     -3.075  0.3609E+02  0.3915E+03
     -2.965  0.4585E+02  0.3966E+03
     -2.854  0.4816E+02  0.4019E+03
     -2.743  0.4353E+02  0.4068E+03
     -2.633  0.3445E+02  0.4106E+03
     -2.522  0.2477E+02  0.4134E+03
     -2.411  0.1535E+02  0.4151E+03
     -2.300  0.6585E+01  0.4158E+03
     -2.190  0.1279E+01  0.4160E+03
     -2.079 -0.5444E+00  0.4159E+03
     -1.968  0.1471E+00  0.4159E+03
     -1.858  0.6071E+01  0.4166E+03
     -1.747  0.1928E+02  0.4188E+03
     -1.636  0.3634E+02  0.4228E+03
     -1.525  0.5293E+02  0.4287E+03
     -1.415  0.6528E+02  0.4359E+03
     -1.304  0.6793E+02  0.4435E+03
     -1.193  0.6202E+02  0.4504E+03
     -1.083  0.5476E+02  0.4565E+03
     -0.972  0.4914E+02  0.4620E+03
     -0.861  0.4800E+02  0.4673E+03
     -0.750  0.5323E+02  0.4732E+03
     -0.640  0.6214E+02  0.4801E+03
     -0.529  0.7224E+02  0.4882E+03
     -0.418  0.7910E+02  0.4970E+03
     -0.308  0.8227E+02  0.5061E+03
     -0.197  0.8569E+02  0.5157E+03
     -0.086  0.8744E+02  0.5254E+03
      0.025  0.8515E+02  0.5349E+03
      0.135  0.8084E+02  0.5439E+03
      0.246  0.7775E+02  0.5525E+03
      0.357  0.7897E+02  0.5613E+03
      0.467  0.8532E+02  0.5708E+03
      0.578  0.9373E+02  0.5812E+03
      0.689  0.9881E+02  0.5922E+03
      0.800  0.9978E+02  0.6033E+03
      0.910  0.1012E+03  0.6146E+03
      1.021  0.1022E+03  0.6259E+03
      1.132  0.9837E+02  0.6369E+03
      1.242  0.8763E+02  0.6466E+03
      1.353  0.7136E+02  0.6546E+03
      1.464  0.5405E+02  0.6606E+03
      1.575  0.4031E+02  0.6651E+03
      1.685  0.3012E+02  0.6685E+03
      1.796  0.1954E+02  0.6707E+03
      1.907  0.9352E+01  0.6717E+03
      2.017  0.2945E+01  0.6720E+03
      2.128  0.2608E+00  0.6721E+03
      2.239 -0.2982E+00  0.6720E+03
      2.350 -0.1521E+00  0.6720E+03
      2.460 -0.3133E-01  0.6720E+03
      2.571 -0.3211E-02  0.6720E+03
      2.682 -0.1718E-03  0.6720E+03
      2.792 -0.4877E-05  0.6720E+03
      2.903 -0.7402E-07  0.6720E+03
      3.014 -0.1539E-08  0.6720E+03
      3.125 -0.8560E-07  0.6720E+03
      3.235 -0.4588E-05  0.6720E+03
      3.346 -0.1502E-03  0.6720E+03
      3.457 -0.3006E-02  0.6720E+03
      3.567 -0.3450E-01  0.6720E+03
      3.678 -0.1962E+00  0.6720E+03
      3.789 -0.3314E+00  0.6719E+03
      3.900  0.1247E+01  0.6721E+03
      4.010  0.5677E+01  0.6727E+03
      4.121  0.7753E+01  0.6736E+03
      4.232  0.4028E+01  0.6740E+03
      4.342  0.3259E+00  0.6741E+03
      4.453 -0.3873E+00  0.6740E+03
      4.564 -0.2622E+00  0.6740E+03
      4.675 -0.3936E+00  0.6739E+03
      4.785 -0.3328E-01  0.6739E+03
      4.896  0.2945E+01  0.6743E+03
      5.007  0.1035E+02  0.6754E+03
      5.117  0.2140E+02  0.6778E+03
      5.228  0.3348E+02  0.6815E+03
      5.339  0.4307E+02  0.6863E+03
      5.450  0.4884E+02  0.6918E+03
      5.560  0.5182E+02  0.6975E+03
      5.671  0.5160E+02  0.7033E+03
      5.782  0.5095E+02  0.7089E+03
      5.892  0.5398E+02  0.7149E+03
      6.003  0.5932E+02  0.7215E+03
      6.114  0.6415E+02  0.7287E+03
      6.225  0.6649E+02  0.7361E+03
      6.335  0.6656E+02  0.7435E+03
      6.446  0.6540E+02  0.7507E+03
      6.557  0.6220E+02  0.7577E+03
      6.667  0.6041E+02  0.7644E+03
      6.778  0.6094E+02  0.7712E+03
      6.889  0.5918E+02  0.7778E+03
      7.000  0.5709E+02  0.7841E+03
      7.110  0.5541E+02  0.7903E+03
      7.221  0.5206E+02  0.7961E+03
      7.332  0.4882E+02  0.8015E+03
      7.442  0.3929E+02  0.8059E+03
      7.553  0.1896E+02  0.8080E+03
      7.664  0.2490E+01  0.8083E+03
      7.775 -0.1604E+01  0.8081E+03
      7.885 -0.7148E+00  0.8080E+03
      7.996 -0.1151E+00  0.8080E+03
      8.107 -0.8861E-02  0.8080E+03
      8.217 -0.3484E-03  0.8080E+03
      8.328 -0.7167E-05  0.8080E+03
      8.439 -0.7795E-07  0.8080E+03
      8.550 -0.4507E-09  0.8080E+03
      8.660 -0.1390E-11  0.8080E+03
      8.771 -0.2187E-14  0.8080E+03
      8.882  0.0000E+00  0.8080E+03
      8.992  0.0000E+00  0.8080E+03
      9.103  0.0000E+00  0.8080E+03
      9.214  0.0000E+00  0.8080E+03
      9.325  0.0000E+00  0.8080E+03
      9.435  0.0000E+00  0.8080E+03
      9.45759998    -23.85768975  301      1.67296024      1.00000000
    -23.858  0.0000E+00  0.0000E+00
    -23.747  0.0000E+00  0.0000E+00
    -23.636  0.0000E+00  0.0000E+00
    -23.525 -0.3780E-28 -0.4204E-29
    -23.413 -0.2832E-24 -0.3151E-25
    -23.302 -0.1127E-20 -0.1254E-21
    -23.191 -0.2412E-17 -0.2685E-18
    -23.080 -0.2773E-14 -0.3088E-15
    -22.969 -0.1658E-11 -0.1848E-12
    -22.858 -0.5455E-09 -0.6088E-10
    -22.747 -0.9605E-07 -0.1075E-07
    -22.636 -0.9026E-05 -0.1015E-05
    -22.525 -0.4507E-03 -0.5115E-04
    -22.414 -0.1186E-01 -0.1370E-02
    -22.303 -0.1613E+00 -0.1929E-01
    -22.192 -0.1081E+01 -0.1393E+00
    -22.081 -0.2984E+01 -0.4705E+00
    -21.970  0.9996E+00 -0.3580E+00
    -21.859  0.2530E+02  0.2453E+01
    -21.748  0.6900E+02  0.1011E+02
    -21.637  0.1169E+03  0.2307E+02
    -21.526  0.1741E+03  0.4239E+02
    -21.415  0.2518E+03  0.7033E+02
    -21.304  0.3264E+03  0.1066E+03
    -21.192  0.3648E+03  0.1471E+03
    -21.081  0.3572E+03  0.1868E+03
    -20.970  0.3106E+03  0.2214E+03
    -20.859  0.2387E+03  0.2480E+03
    -20.748  0.1619E+03  0.2661E+03
    -20.637  0.9967E+02  0.2772E+03
    -20.526  0.5395E+02  0.2832E+03
    -20.415  0.2464E+02  0.2860E+03
    -20.304  0.1045E+02  0.2871E+03
    -20.193  0.4600E+01  0.2877E+03
    -20.082  0.2229E+01  0.2879E+03
    -19.971  0.9296E+00  0.2880E+03
    -19.860  0.9349E-01  0.2880E+03
    -19.749 -0.1162E+00  0.2880E+03
    -19.638 -0.5112E-01  0.2880E+03
    -19.527 -0.8539E-02  0.2880E+03
    -19.416 -0.6820E-03  0.2880E+03
    -19.305 -0.2769E-04  0.2880E+03
    -19.194 -0.5854E-06  0.2880E+03
    -19.082 -0.6520E-08  0.2880E+03
    -18.971 -0.3850E-10  0.2880E+03
    -18.860 -0.1210E-12  0.2880E+03
    -18.749 -0.1585E-15  0.2880E+03
    -18.638  0.0000E+00  0.2880E+03
    -18.527  0.0000E+00  0.2880E+03
    -18.416  0.0000E+00  0.2880E+03
    -18.305  0.0000E+00  0.2880E+03
    -18.194  0.0000E+00  0.2880E+03
    -18.083  0.0000E+00  0.2880E+03
    -17.972  0.0000E+00  0.2880E+03
    -17.861  0.0000E+00  0.2880E+03
    -17.750  0.0000E+00  0.2880E+03
    -17.639  0.0000E+00  0.2880E+03
    -17.528  0.0000E+00  0.2880E+03
    -17.417  0.0000E+00  0.2880E+03
    -17.306  0.0000E+00  0.2880E+03
    -17.195  0.0000E+00  0.2880E+03
    -17.084  0.0000E+00  0.2880E+03
    -16.973  0.0000E+00  0.2880E+03
    -16.861  0.0000E+00  0.2880E+03
    -16.750  0.0000E+00  0.2880E+03
    -16.639  0.0000E+00  0.2880E+03
    -16.528  0.0000E+00  0.2880E+03
    -16.417  0.0000E+00  0.2880E+03
    -16.306  0.0000E+00  0.2880E+03
    -16.195  0.0000E+00  0.2880E+03
    -16.084  0.0000E+00  0.2880E+03
    -15.973  0.0000E+00  0.2880E+03
    -15.862  0.0000E+00  0.2880E+03
    -15.751  0.0000E+00  0.2880E+03
    -15.640  0.0000E+00  0.2880E+03
    -15.529  0.0000E+00  0.2880E+03
    -15.418  0.0000E+00  0.2880E+03
    -15.307  0.0000E+00  0.2880E+03
    -15.196  0.0000E+00  0.2880E+03
    -15.085  0.0000E+00  0.2880E+03
    -14.974  0.0000E+00  0.2880E+03
    -14.863  0.0000E+00  0.2880E+03
    -14.752  0.0000E+00  0.2880E+03
    -14.640  0.0000E+00  0.2880E+03
    -14.529  0.0000E+00  0.2880E+03
    -14.418  0.0000E+00  0.2880E+03
    -14.307  0.0000E+00  0.2880E+03
    -14.196  0.0000E+00  0.2880E+03
    -14.085  0.0000E+00  0.2880E+03
    -13.974  0.0000E+00  0.2880E+03
    -13.863  0.0000E+00  0.2880E+03
    -13.752  0.0000E+00  0.2880E+03
    -13.641  0.0000E+00  0.2880E+03
    -13.530  0.0000E+00  0.2880E+03
    -13.419  0.0000E+00  0.2880E+03
    -13.308  0.0000E+00  0.2880E+03
    -13.197 -0.2278E-30  0.2880E+03
    -13.086 -0.1750E-26  0.2880E+03
    -12.975 -0.7090E-23  0.2880E+03
    -12.864 -0.1550E-19  0.2880E+03
    -12.753 -0.1830E-16  0.2880E+03
    -12.642 -0.1129E-13  0.2880E+03
    -12.530 -0.3845E-11  0.2880E+03
    -12.419 -0.7033E-09  0.2880E+03
    -12.308 -0.6885E-07  0.2880E+03
    -12.197 -0.3586E-05  0.2880E+03
    -12.086 -0.9825E-04  0.2880E+03
    -11.975 -0.1383E-02  0.2880E+03
    -11.864 -0.9401E-02  0.2880E+03
    -11.753 -0.2445E-01  0.2880E+03
    -11.642  0.2174E-01  0.2880E+03
    -11.531  0.2208E+00  0.2880E+03
    -11.420  0.3645E+00  0.2881E+03
    -11.309  0.3676E+00  0.2881E+03
    -11.198  0.1484E+01  0.2883E+03
    -11.087  0.4948E+01  0.2888E+03
    -10.976  0.9787E+01  0.2899E+03
    -10.865  0.1526E+02  0.2916E+03
    -10.754  0.2128E+02  0.2940E+03
    -10.643  0.2497E+02  0.2967E+03
    -10.532  0.2349E+02  0.2994E+03
    -10.421  0.1836E+02  0.3014E+03
    -10.309  0.1337E+02  0.3029E+03
    -10.198  0.1142E+02  0.3042E+03
    -10.087  0.1425E+02  0.3057E+03
     -9.976  0.2299E+02  0.3083E+03
     -9.865  0.3747E+02  0.3125E+03
     -9.754  0.5407E+02  0.3185E+03
     -9.643  0.6544E+02  0.3257E+03
     -9.532  0.6973E+02  0.3335E+03
     -9.421  0.7170E+02  0.3415E+03
     -9.310  0.7408E+02  0.3497E+03
     -9.199  0.7552E+02  0.3581E+03
     -9.088  0.7152E+02  0.3660E+03
     -8.977  0.5946E+02  0.3727E+03
     -8.866  0.4311E+02  0.3775E+03
     -8.755  0.2804E+02  0.3806E+03
     -8.644  0.1665E+02  0.3824E+03
     -8.533  0.8753E+01  0.3834E+03
     -8.422  0.3748E+01  0.3838E+03
     -8.311  0.1237E+01  0.3840E+03
     -8.200  0.3013E+00  0.3840E+03
     -8.088 -0.1165E-01  0.3840E+03
     -7.977 -0.6109E-01  0.3840E+03
     -7.866 -0.2476E-01  0.3840E+03
     -7.755 -0.4271E-02  0.3840E+03
     -7.644 -0.3592E-03  0.3840E+03
     -7.533 -0.1539E-04  0.3840E+03
     -7.422 -0.3428E-06  0.3840E+03
     -7.311 -0.4008E-08  0.3840E+03
     -7.200 -0.2475E-10  0.3840E+03
     -7.089 -0.8098E-13  0.3840E+03
     -6.978 -0.1189E-15  0.3840E+03
     -6.867  0.0000E+00  0.3840E+03
     -6.756  0.0000E+00  0.3840E+03
     -6.645  0.0000E+00  0.3840E+03
     -6.534  0.0000E+00  0.3840E+03
     -6.423  0.0000E+00  0.3840E+03
     -6.312  0.0000E+00  0.3840E+03
     -6.201  0.0000E+00  0.3840E+03
     -6.090  0.0000E+00  0.3840E+03
     -5.978  0.0000E+00  0.3840E+03
     -5.867  0.0000E+00  0.3840E+03
     -5.756  0.0000E+00  0.3840E+03
     -5.645  0.0000E+00  0.3840E+03
     -5.534  0.0000E+00  0.3840E+03
     -5.423  0.0000E+00  0.3840E+03
     -5.312 -0.7969E-32  0.3840E+03
     -5.201 -0.1477E-27  0.3840E+03
     -5.090 -0.7284E-24  0.3840E+03
     -4.979 -0.1939E-20  0.3840E+03
     -4.868 -0.2785E-17  0.3840E+03
     -4.757 -0.2086E-14  0.3840E+03
     -4.646 -0.8671E-12  0.3840E+03
     -4.535 -0.1929E-09  0.3840E+03
     -4.424 -0.2299E-07  0.3840E+03
     -4.313 -0.1465E-05  0.3840E+03
     -4.202 -0.4978E-04  0.3840E+03
     -4.091 -0.9024E-03  0.3840E+03
     -3.980 -0.8810E-02  0.3840E+03
     -3.869 -0.4752E-01  0.3840E+03
     -3.757 -0.1421E+00  0.3840E+03
     -3.646 -0.1460E+00  0.3840E+03
     -3.535  0.6750E+00  0.3840E+03
     -3.424  0.3490E+01  0.3844E+03
     -3.313  0.9134E+01  0.3854E+03
     -3.202  0.1856E+02  0.3875E+03
     -3.091  0.3086E+02  0.3909E+03
     -2.980  0.4249E+02  0.3957E+03
     -2.869  0.5020E+02  0.4012E+03
     -2.758  0.4956E+02  0.4067E+03
     -2.647  0.3904E+02  0.4111E+03
     -2.536  0.2427E+02  0.4138E+03
     -2.425  0.1218E+02  0.4151E+03
     -2.314  0.5256E+01  0.4157E+03
     -2.203  0.1823E+01  0.4159E+03
     -2.092  0.1340E+00  0.4160E+03
     -1.981  0.8534E+00  0.4160E+03
     -1.870  0.6182E+01  0.4167E+03
     -1.759  0.1738E+02  0.4187E+03
     -1.647  0.3378E+02  0.4224E+03
     -1.536  0.5135E+02  0.4281E+03
     -1.425  0.6313E+02  0.4351E+03
     -1.314  0.6657E+02  0.4425E+03
     -1.203  0.6470E+02  0.4497E+03
     -1.092  0.5921E+02  0.4563E+03
     -0.981  0.5177E+02  0.4621E+03
     -0.870  0.4857E+02  0.4675E+03
     -0.759  0.5426E+02  0.4735E+03
     -0.648  0.6446E+02  0.4807E+03
     -0.537  0.7030E+02  0.4885E+03
     -0.426  0.7297E+02  0.4966E+03
     -0.315  0.8074E+02  0.5056E+03
     -0.204  0.9095E+02  0.5157E+03
     -0.093  0.9478E+02  0.5262E+03
      0.018  0.8840E+02  0.5361E+03
      0.129  0.7790E+02  0.5447E+03
      0.240  0.7362E+02  0.5529E+03
      0.351  0.7685E+02  0.5615E+03
      0.462  0.8334E+02  0.5707E+03
      0.574  0.9191E+02  0.5810E+03
      0.685  0.1012E+03  0.5922E+03
      0.796  0.1074E+03  0.6042E+03
      0.907  0.1092E+03  0.6163E+03
      1.018  0.1067E+03  0.6282E+03
      1.129  0.9978E+02  0.6393E+03
      1.240  0.8850E+02  0.6491E+03
      1.351  0.7427E+02  0.6574E+03
      1.462  0.5849E+02  0.6639E+03
      1.573  0.4029E+02  0.6684E+03
      1.684  0.2145E+02  0.6707E+03
      1.795  0.8415E+01  0.6717E+03
      1.906  0.2561E+01  0.6720E+03
      2.017  0.4948E+00  0.6720E+03
      2.128 -0.5583E-01  0.6720E+03
      2.239 -0.9662E-01  0.6720E+03
      2.350 -0.4489E-01  0.6720E+03
      2.461 -0.1123E-01  0.6720E+03
      2.572 -0.1505E-02  0.6720E+03
      2.683 -0.1061E-03  0.6720E+03
      2.795 -0.3924E-05  0.6720E+03
      2.906 -0.7622E-07  0.6720E+03
      3.017 -0.8673E-09  0.6720E+03
      3.128 -0.1399E-07  0.6720E+03
      3.239 -0.1210E-05  0.6720E+03
      3.350 -0.5692E-04  0.6720E+03
      3.461 -0.1445E-02  0.6720E+03
      3.572 -0.1939E-01  0.6720E+03
      3.683 -0.1286E+00  0.6720E+03
      3.794 -0.3197E+00  0.6719E+03
      3.905  0.4853E+00  0.6720E+03
      4.016  0.4040E+01  0.6725E+03
      4.127  0.7510E+01  0.6733E+03
      4.238  0.5623E+01  0.6739E+03
      4.349  0.1337E+01  0.6741E+03
      4.460 -0.3613E+00  0.6740E+03
      4.571 -0.3143E+00  0.6740E+03
      4.682 -0.2824E-01  0.6740E+03
      4.793  0.6703E+00  0.6741E+03
      4.905  0.2882E+01  0.6744E+03
      5.016  0.8463E+01  0.6753E+03
      5.127  0.1790E+02  0.6773E+03
      5.238  0.2882E+02  0.6805E+03
      5.349  0.3851E+02  0.6848E+03
      5.460  0.4579E+02  0.6899E+03
      5.571  0.4876E+02  0.6953E+03
      5.682  0.4778E+02  0.7006E+03
      5.793  0.4784E+02  0.7059E+03
      5.904  0.5146E+02  0.7117E+03
      6.015  0.5751E+02  0.7181E+03
      6.126  0.6464E+02  0.7253E+03
      6.237  0.6834E+02  0.7328E+03
      6.348  0.6856E+02  0.7405E+03
      6.459  0.6957E+02  0.7482E+03
      6.570  0.6888E+02  0.7559E+03
      6.681  0.6519E+02  0.7631E+03
      6.792  0.6193E+02  0.7700E+03
      6.903  0.5925E+02  0.7766E+03
      7.014  0.5686E+02  0.7829E+03
      7.126  0.5592E+02  0.7891E+03
      7.237  0.5538E+02  0.7953E+03
      7.348  0.5323E+02  0.8012E+03
      7.459  0.4180E+02  0.8059E+03
      7.570  0.1943E+02  0.8080E+03
      7.681  0.2339E+01  0.8083E+03
      7.792 -0.1696E+01  0.8081E+03
      7.903 -0.7333E+00  0.8080E+03
      8.014 -0.1169E+00  0.8080E+03
      8.125 -0.8955E-02  0.8080E+03
      8.236 -0.3509E-03  0.8080E+03
      8.347 -0.7201E-05  0.8080E+03
      8.458 -0.7820E-07  0.8080E+03
      8.569 -0.4517E-09  0.8080E+03
      8.680 -0.1393E-11  0.8080E+03
      8.791 -0.1710E-14  0.8080E+03
      8.902  0.0000E+00  0.8080E+03
      9.013  0.0000E+00  0.8080E+03
      9.124  0.0000E+00  0.8080E+03
      9.235  0.0000E+00  0.8080E+03
      9.347  0.0000E+00  0.8080E+03
      9.458  0.0000E+00  0.8080E+03
      9.43212854    -23.91109384  301      1.67987960      1.00000000
    -23.911  0.0000E+00  0.0000E+00
    -23.800  0.0000E+00  0.0000E+00
    -23.689  0.0000E+00  0.0000E+00
    -23.578 -0.3543E-28 -0.3937E-29
    -23.467 -0.2625E-24 -0.2918E-25
    -23.355 -0.1038E-20 -0.1154E-21
    -23.244 -0.2207E-17 -0.2454E-18
    -23.133 -0.2525E-14 -0.2809E-15
    -23.022 -0.1504E-11 -0.1675E-12
    -22.911 -0.4938E-09 -0.5504E-10
    -22.800 -0.8681E-07 -0.9703E-08
    -22.689 -0.8151E-05 -0.9156E-06
    -22.577 -0.4067E-03 -0.4611E-04
    -22.466 -0.1067E-01 -0.1232E-02
    -22.355 -0.1442E+00 -0.1726E-01
    -22.244 -0.9504E+00 -0.1229E+00
    -22.133 -0.2512E+01 -0.4020E+00
    -22.022  0.1116E+01 -0.2779E+00
    -21.911  0.2038E+02  0.1987E+01
    -21.799  0.5506E+02  0.8105E+01
    -21.688  0.1075E+03  0.2005E+02
    -21.577  0.1828E+03  0.4036E+02
    -21.466  0.2630E+03  0.6959E+02
    -21.355  0.3401E+03  0.1074E+03
    -21.244  0.4023E+03  0.1521E+03
    -21.132  0.4091E+03  0.1976E+03
    -21.021  0.3431E+03  0.2357E+03
    -20.910  0.2364E+03  0.2620E+03
    -20.799  0.1387E+03  0.2774E+03
    -20.688  0.6924E+02  0.2851E+03
    -20.577  0.2484E+02  0.2879E+03
    -20.466  0.3918E+01  0.2883E+03
    -20.354 -0.1364E+01  0.2882E+03
    -20.243 -0.1099E+01  0.2880E+03
    -20.132 -0.3294E+00  0.2880E+03
    -20.021 -0.5140E-01  0.2880E+03
    -19.910 -0.4329E-02  0.2880E+03
    -19.799 -0.1978E-03  0.2880E+03
    -19.688 -0.4906E-05  0.2880E+03
    -19.576 -0.6600E-07  0.2880E+03
    -19.465 -0.4811E-09  0.2880E+03
    -19.354 -0.1898E-11  0.2880E+03
    -19.243 -0.3904E-14  0.2880E+03
    -19.132  0.0000E+00  0.2880E+03
    -19.021  0.0000E+00  0.2880E+03
    -18.910  0.0000E+00  0.2880E+03
    -18.798  0.0000E+00  0.2880E+03
    -18.687  0.0000E+00  0.2880E+03
    -18.576  0.0000E+00  0.2880E+03
    -18.465  0.0000E+00  0.2880E+03
    -18.354  0.0000E+00  0.2880E+03
    -18.243  0.0000E+00  0.2880E+03
    -18.132  0.0000E+00  0.2880E+03
    -18.020  0.0000E+00  0.2880E+03
    -17.909  0.0000E+00  0.2880E+03
    -17.798  0.0000E+00  0.2880E+03
    -17.687  0.0000E+00  0.2880E+03
    -17.576  0.0000E+00  0.2880E+03
    -17.465  0.0000E+00  0.2880E+03
    -17.354  0.0000E+00  0.2880E+03
    -17.242  0.0000E+00  0.2880E+03
    -17.131  0.0000E+00  0.2880E+03
    -17.020  0.0000E+00  0.2880E+03
    -16.909  0.0000E+00  0.2880E+03
    -16.798  0.0000E+00  0.2880E+03
    -16.687  0.0000E+00  0.2880E+03
    -16.576  0.0000E+00  0.2880E+03
    -16.464  0.0000E+00  0.2880E+03
    -16.353  0.0000E+00  0.2880E+03
    -16.242  0.0000E+00  0.2880E+03
    -16.131  0.0000E+00  0.2880E+03
    -16.020  0.0000E+00  0.2880E+03
    -15.909  0.0000E+00  0.2880E+03
    -15.798  0.0000E+00  0.2880E+03
    -15.686  0.0000E+00  0.2880E+03
    -15.575  0.0000E+00  0.2880E+03
    -15.464  0.0000E+00  0.2880E+03
    -15.353  0.0000E+00  0.2880E+03
    -15.242  0.0000E+00  0.2880E+03
    -15.131  0.0000E+00  0.2880E+03
    -15.020  0.0000E+00  0.2880E+03
    -14.908  0.0000E+00  0.2880E+03
    -14.797  0.0000E+00  0.2880E+03
    -14.686  0.0000E+00  0.2880E+03
    -14.575  0.0000E+00  0.2880E+03
    -14.464  0.0000E+00  0.2880E+03
    -14.353  0.0000E+00  0.2880E+03
    -14.242  0.0000E+00  0.2880E+03
    -14.130  0.0000E+00  0.2880E+03
    -14.019  0.0000E+00  0.2880E+03
    -13.908  0.0000E+00  0.2880E+03
    -13.797  0.0000E+00  0.2880E+03
    -13.686  0.0000E+00  0.2880E+03
    -13.575  0.0000E+00  0.2880E+03
    -13.464  0.0000E+00  0.2880E+03
    -13.352  0.0000E+00  0.2880E+03
    -13.241  0.0000E+00  0.2880E+03
    -13.130  0.0000E+00  0.2880E+03
    -13.019 -0.4401E-29  0.2880E+03
    -12.908 -0.2992E-25  0.2880E+03
    -12.797 -0.1096E-21  0.2880E+03
    -12.686 -0.2170E-18  0.2880E+03
    -12.574 -0.2326E-15  0.2880E+03
    -12.463 -0.1306E-12  0.2880E+03
    -12.352 -0.4067E-10  0.2880E+03
    -12.241 -0.6836E-08  0.2880E+03
    -12.130 -0.6184E-06  0.2880E+03
    -12.019 -0.2996E-04  0.2880E+03
    -11.908 -0.7694E-03  0.2880E+03
    -11.796 -0.1024E-01  0.2880E+03
    -11.685 -0.6672E-01  0.2880E+03
    -11.574 -0.1701E+00  0.2880E+03
    -11.463  0.1391E+00  0.2880E+03
    -11.352  0.1639E+01  0.2882E+03
    -11.241  0.3814E+01  0.2886E+03
    -11.130  0.5767E+01  0.2892E+03
    -11.018  0.8845E+01  0.2902E+03
    -10.907  0.1420E+02  0.2918E+03
    -10.796  0.1996E+02  0.2940E+03
    -10.685  0.2381E+02  0.2967E+03
    -10.574  0.2499E+02  0.2994E+03
    -10.463  0.2179E+02  0.3019E+03
    -10.352  0.1418E+02  0.3034E+03
    -10.240  0.8974E+01  0.3044E+03
    -10.129  0.1297E+02  0.3059E+03
    -10.018  0.2467E+02  0.3086E+03
     -9.907  0.4015E+02  0.3131E+03
     -9.796  0.5637E+02  0.3193E+03
     -9.685  0.6790E+02  0.3269E+03
     -9.574  0.7042E+02  0.3347E+03
     -9.462  0.6836E+02  0.3423E+03
     -9.351  0.6998E+02  0.3501E+03
     -9.240  0.7271E+02  0.3582E+03
     -9.129  0.6961E+02  0.3659E+03
     -9.018  0.6183E+02  0.3728E+03
     -8.907  0.5012E+02  0.3784E+03
     -8.795  0.3275E+02  0.3820E+03
     -8.684  0.1459E+02  0.3836E+03
     -8.573  0.3398E+01  0.3840E+03
     -8.462  0.6192E-01  0.3840E+03
     -8.351 -0.1949E-01  0.3840E+03
     -8.240  0.4504E-01  0.3840E+03
     -8.129 -0.2658E-01  0.3840E+03
     -8.017 -0.2552E-01  0.3840E+03
     -7.906 -0.6349E-02  0.3840E+03
     -7.795 -0.6918E-03  0.3840E+03
     -7.684 -0.3700E-04  0.3840E+03
     -7.573 -0.1014E-05  0.3840E+03
     -7.462 -0.1454E-07  0.3840E+03
     -7.351 -0.1102E-09  0.3840E+03
     -7.239 -0.4436E-12  0.3840E+03
     -7.128 -0.9577E-15  0.3840E+03
     -7.017  0.0000E+00  0.3840E+03
     -6.906  0.0000E+00  0.3840E+03
     -6.795  0.0000E+00  0.3840E+03
     -6.684  0.0000E+00  0.3840E+03
     -6.573  0.0000E+00  0.3840E+03
     -6.461  0.0000E+00  0.3840E+03
     -6.350  0.0000E+00  0.3840E+03
     -6.239  0.0000E+00  0.3840E+03
     -6.128  0.0000E+00  0.3840E+03
     -6.017  0.0000E+00  0.3840E+03
     -5.906  0.0000E+00  0.3840E+03
     -5.795  0.0000E+00  0.3840E+03
     -5.683  0.0000E+00  0.3840E+03
     -5.572  0.0000E+00  0.3840E+03
     -5.461  0.0000E+00  0.3840E+03
     -5.350  0.0000E+00  0.3840E+03
     -5.239 -0.4339E-30  0.3840E+03
     -5.128 -0.3447E-26  0.3840E+03
     -5.017 -0.1462E-22  0.3840E+03
     -4.905 -0.3333E-19  0.3840E+03
     -4.794 -0.4088E-16  0.3840E+03
     -4.683 -0.2613E-13  0.3840E+03
     -4.572 -0.9189E-11  0.3840E+03
     -4.461 -0.1733E-08  0.3840E+03
     -4.350 -0.1749E-06  0.3840E+03
     -4.239 -0.9441E-05  0.3840E+03
     -4.127 -0.2719E-03  0.3840E+03
     -4.016 -0.4165E-02  0.3840E+03
     -3.905 -0.3371E-01  0.3840E+03
     -3.794 -0.1404E+00  0.3840E+03
     -3.683 -0.2546E+00  0.3840E+03
     -3.572  0.2107E+00  0.3840E+03
     -3.461  0.2725E+01  0.3843E+03
     -3.349  0.9302E+01  0.3853E+03
     -3.238  0.1997E+02  0.3875E+03
     -3.127  0.3172E+02  0.3911E+03
     -3.016  0.4260E+02  0.3958E+03
     -2.905  0.5079E+02  0.4014E+03
     -2.794  0.5197E+02  0.4072E+03
     -2.683  0.4297E+02  0.4120E+03
     -2.571  0.2596E+02  0.4149E+03
     -2.460  0.9853E+01  0.4160E+03
     -2.349  0.1296E+01  0.4161E+03
     -2.238 -0.8922E+00  0.4160E+03
     -2.127 -0.4212E+00  0.4160E+03
     -2.016  0.1768E+01  0.4162E+03
     -1.905  0.8000E+01  0.4171E+03
     -1.793  0.1968E+02  0.4192E+03
     -1.682  0.3429E+02  0.4231E+03
     -1.571  0.4830E+02  0.4284E+03
     -1.460  0.5970E+02  0.4351E+03
     -1.349  0.6569E+02  0.4424E+03
     -1.238  0.6512E+02  0.4496E+03
     -1.127  0.6188E+02  0.4565E+03
     -1.015  0.5752E+02  0.4629E+03
     -0.904  0.5313E+02  0.4688E+03
     -0.793  0.5377E+02  0.4747E+03
     -0.682  0.6067E+02  0.4815E+03
     -0.571  0.6815E+02  0.4891E+03
     -0.460  0.7390E+02  0.4973E+03
     -0.349  0.8147E+02  0.5063E+03
     -0.237  0.9005E+02  0.5163E+03
     -0.126  0.9389E+02  0.5268E+03
     -0.015  0.8968E+02  0.5367E+03
      0.096  0.8116E+02  0.5458E+03
      0.207  0.7592E+02  0.5542E+03
      0.318  0.7645E+02  0.5627E+03
      0.429  0.8024E+02  0.5716E+03