       N       E                     dE             d eps       ncg     rms          rms(c)
DAV:   1     0.624563274660E+04    0.62456E+04   -0.26890E+05   872   0.139E+03
DAV:   2     0.431909703592E+03   -0.58137E+04   -0.55785E+04   896   0.389E+02
DAV:   3    -0.427713240172E+03   -0.85962E+03   -0.85034E+03   972   0.164E+02
DAV:   4    -0.477901183848E+03   -0.50188E+02   -0.49897E+02   936   0.374E+01
DAV:   5    -0.480284006190E+03   -0.23828E+01   -0.23801E+01  1152   0.841E+00    0.356E+01
RMM:   6    -0.456625979191E+03    0.23658E+02   -0.42281E+01   857   0.603E+00    0.237E+01
RMM:   7    -0.455522916259E+03    0.11031E+01   -0.57820E+01   863   0.597E+00    0.123E+01
RMM:   8    -0.455153728645E+03    0.36919E+00   -0.11112E+01   830   0.400E+00    0.437E+00
RMM:   9    -0.454668368437E+03    0.48536E+00   -0.10793E+00   934   0.189E+00    0.109E+00
RMM:  10    -0.454779501046E+03   -0.11113E+00   -0.92370E-01   941   0.956E-01    0.185E+00
RMM:  11    -0.454710101864E+03    0.69399E-01   -0.27346E-01   841   0.622E-01    0.216E-01
RMM:  12    -0.454714017012E+03   -0.39151E-02   -0.30252E-02  1136   0.310E-01    0.151E-01
RMM:  13    -0.454714900222E+03   -0.88321E-03   -0.18430E-02   964   0.147E-01    0.226E-01
RMM:  14    -0.454715292137E+03   -0.39191E-03   -0.22124E-03  1088   0.647E-02    0.273E-01
RMM:  15    -0.454715383034E+03   -0.90897E-04   -0.24408E-04   910   0.240E-02    0.350E-01
RMM:  16    -0.454715364443E+03    0.18592E-04   -0.30700E-05   591   0.930E-03    0.388E-01
RMM:  17    -0.454715274993E+03    0.89450E-04   -0.77461E-05   692   0.155E-02    0.393E-01
RMM:  18    -0.454714688798E+03    0.58620E-03   -0.28287E-03  1024   0.404E-02    0.274E-01
RMM:  19    -0.454714692220E+03   -0.34217E-05   -0.82829E-05   888   0.110E-02
      1 T=   600. E= -.44610583E+03 F= -.45471469E+03 E0= -.45478829E+03  EK= 0.86089E+01 SP= 0.00E+00 SK= 0.00E+00
       N       E                     dE             d eps       ncg     rms          rms(c)
DAV:   1    -0.454487571019E+03    0.22712E+00   -0.54385E+01   904   0.110E+01    0.301E+00
RMM:   2    -0.454622134352E+03   -0.13456E+00   -0.15003E+00  1068   0.241E+00    0.733E-01
RMM:   3    -0.454640659003E+03   -0.18525E-01   -0.24527E-01   887   0.106E+00    0.747E-01
RMM:   4    -0.454643949739E+03   -0.32907E-02   -0.65005E-02  1191   0.500E-01    0.627E-01
RMM:   5    -0.454641729464E+03    0.22203E-02   -0.47370E-03   889   0.119E-01    0.460E-01
RMM:   6    -0.454640967078E+03    0.76239E-03   -0.10964E-02   808   0.118E-01    0.121E-01
RMM:   7    -0.454640980615E+03   -0.13537E-04   -0.16639E-03   957   0.739E-02    0.782E-02
RMM:   8    -0.454640856272E+03    0.12434E-03   -0.75307E-04   875   0.393E-02    0.459E-02
RMM:   9    -0.454640843369E+03    0.12903E-04   -0.86290E-05   843   0.234E-02    0.226E-02
RMM:  10    -0.454640848365E+03   -0.49963E-05   -0.55023E-05   745   0.129E-02
      2 T=   595. E= -.44610563E+03 F= -.45464085E+03 E0= -.45471444E+03  EK= 0.85352E+01 SP= 0.23E-05 SK= 0.52E-10
       N       E                     dE             d eps       ncg     rms          rms(c)
DAV:   1    -0.454414304123E+03    0.22654E+00   -0.21958E-01  1192   0.239E+00    0.881E-01
RMM:   2    -0.454422592343E+03   -0.82882E-02   -0.84392E-02   809   0.516E-01    0.226E-01
RMM:   3    -0.454423995847E+03   -0.14035E-02   -0.14611E-02  1102   0.224E-01    0.254E-01
RMM:   4    -0.454424115436E+03   -0.11959E-03   -0.22684E-03   908   0.102E-01    0.120E-01
RMM:   5    -0.454424187233E+03   -0.71796E-04   -0.85677E-04  1232   0.556E-02    0.863E-02
RMM:   6    -0.454424201583E+03   -0.14350E-04   -0.10641E-04   796   0.179E-02    0.625E-02
RMM:   7    -0.454424200709E+03    0.87437E-06   -0.22816E-05   510   0.105E-02
      3 T=   580. E= -.44610512E+03 F= -.45442420E+03 E0= -.45449720E+03  EK= 0.83209E+01 SP= -.18E-02 SK= 0.31E-04
       N       E                     dE             d eps       ncg     rms          rms(c)
DAV:   1    -0.454061098035E+03    0.36310E+00   -0.54458E-01  1096   0.236E+00    0.145E+00
RMM:   2    -0.454076907925E+03   -0.15810E-01   -0.16207E-01   836   0.642E-01    0.342E-01
RMM:   3    -0.454079782165E+03   -0.28742E-02   -0.31787E-02  1096   0.310E-01    0.488E-01
RMM:   4    -0.454079936557E+03   -0.15439E-03   -0.41474E-03   905   0.131E-01    0.138E-01
RMM:   5    -0.454080085514E+03   -0.14896E-03   -0.17197E-03  1218   0.717E-02    0.750E-02
RMM:   6    -0.454080050258E+03    0.35256E-04   -0.18295E-04   844   0.234E-02    0.438E-02
RMM:   7    -0.454080061860E+03   -0.11603E-04   -0.24218E-04   748   0.196E-02    0.656E-02
RMM:   8    -0.454080048029E+03    0.13832E-04   -0.56634E-05   734   0.131E-02    0.976E-03
RMM:   9    -0.454080052942E+03   -0.49132E-05   -0.37410E-05   770   0.796E-03
      4 T=   557. E= -.44610360E+03 F= -.45408005E+03 E0= -.45415203E+03  EK= 0.79867E+01 SP= -.11E-01 SK= 0.47E-03
       N       E                     dE             d eps       ncg     rms          rms(c)
DAV:   1    -0.453627148341E+03    0.45290E+00   -0.12882E-01  1232   0.195E+00    0.609E-01
RMM:   2    -0.453634182058E+03   -0.70337E-02   -0.70961E-02   851   0.444E-01    0.129E-01
RMM:   3    -0.453635562014E+03   -0.13800E-02   -0.14687E-02  1096   0.207E-01    0.254E-01
RMM:   4    -0.453635703674E+03   -0.14166E-03   -0.20428E-03  1036   0.858E-02    0.177E-01
RMM:   5    -0.453635716616E+03   -0.12942E-04   -0.40381E-04  1156   0.350E-02    0.129E-01
RMM:   6    -0.453635712188E+03    0.44281E-05   -0.30055E-05   518   0.101E-02
      5 T=   527. E= -.44610150E+03 F= -.45363571E+03 E0= -.45370630E+03  EK= 0.75663E+01 SP= -.35E-01 SK= 0.27E-02
       N       E                     dE             d eps       ncg     rms          rms(c)
DAV:   1    -0.453120437414E+03    0.51528E+00   -0.79004E-02  1208   0.175E+00    0.489E-01
RMM:   2    -0.453125627410E+03   -0.51900E-02   -0.51479E-02   868   0.358E-01    0.104E-01
RMM:   3    -0.453126666983E+03   -0.10396E-02   -0.10997E-02  1096   0.175E-01    0.211E-01
RMM:   4    -0.453126788201E+03   -0.12122E-03   -0.14454E-03  1054   0.702E-02    0.141E-01
RMM:   5    -0.453126803034E+03   -0.14833E-04   -0.25297E-04  1094   0.258E-02    0.940E-02
RMM:   6    -0.453126802077E+03    0.95717E-06   -0.12231E-05   477   0.735E-03
      6 T=   495. E= -.44609926E+03 F= -.45312680E+03 E0= -.45319585E+03  EK= 0.71020E+01 SP= -.85E-01 SK= 0.10E-01
       N       E                     dE             d eps       ncg     rms          rms(c)
DAV:   1    -0.452587174058E+03    0.53963E+00   -0.55024E-02  1244   0.162E+00    0.423E-01
RMM:   2    -0.452591177676E+03   -0.40036E-02   -0.39853E-02   872   0.299E-01    0.579E-02
RMM:   3    -0.452591935152E+03   -0.75748E-03   -0.80573E-03  1096   0.147E-01    0.153E-01
RMM:   4    -0.452592015004E+03   -0.79852E-04   -0.10597E-03  1073   0.575E-02    0.111E-01
RMM:   5    -0.452592019794E+03   -0.47897E-05   -0.12855E-04   994   0.177E-02    0.950E-02
RMM:   6    -0.452592019211E+03    0.58262E-06   -0.89967E-06   476   0.613E-03
      7 T=   463. E= -.44609678E+03 F= -.45259202E+03 E0= -.45265932E+03  EK= 0.66390E+01 SP= -.17E+00 SK= 0.28E-01
       N       E                     dE             d eps       ncg     rms          rms(c)
DAV:   1    -0.452067011840E+03    0.52501E+00   -0.34914E-02  1224   0.155E+00    0.332E-01
RMM:   2    -0.452070439029E+03   -0.34272E-02   -0.33564E-02   906   0.263E-01    0.768E-02
RMM:   3    -0.452070988734E+03   -0.54970E-03   -0.58864E-03  1096   0.124E-01    0.125E-01
RMM:   4    -0.452071069885E+03   -0.81151E-04   -0.87794E-04  1078   0.518E-02    0.892E-02
RMM:   5    -0.452071076225E+03   -0.63404E-05   -0.10039E-04   898   0.160E-02    0.624E-02
RMM:   6    -0.452071074815E+03    0.14103E-05   -0.94026E-06   472   0.626E-03
      8 T=   434. E= -.44609490E+03 F= -.45207107E+03 E0= -.45213658E+03  EK= 0.62207E+01 SP= -.31E+00 SK= 0.62E-01
       N       E                     dE             d eps       ncg     rms          rms(c)
DAV:   1    -0.451594280095E+03    0.47680E+00   -0.35387E-02  1240   0.147E+00    0.339E-01
RMM:   2    -0.451597397117E+03   -0.31170E-02   -0.31275E-02   923   0.245E-01    0.462E-02
RMM:   3    -0.451597854512E+03   -0.45740E-03   -0.49010E-03  1096   0.113E-01    0.952E-02
RMM:   4    -0.451597922769E+03   -0.68257E-04   -0.76223E-04  1097   0.465E-02    0.702E-02
RMM:   5    -0.451597925885E+03   -0.31161E-05   -0.69724E-05   819   0.129E-02
      9 T=   410. E= -.44609330E+03 F= -.45159793E+03 E0= -.45166152E+03  EK= 0.58851E+01 SP= -.50E+00 SK= 0.12E+00
       N       E                     dE             d eps       ncg     rms          rms(c)
DAV:   1    -0.451193289025E+03    0.40463E+00   -0.28595E-02  1264   0.143E+00    0.130E-01
RMM:   2    -0.451195728366E+03   -0.24393E-02   -0.23595E-02   923   0.213E-01    0.115E-01
RMM:   3    -0.451196097661E+03   -0.36930E-03   -0.39359E-03  1097   0.993E-02    0.155E-01
RMM:   4    -0.451196151280E+03   -0.53619E-04   -0.57264E-04  1091   0.402E-02    0.139E-01
RMM:   5    -0.451196153034E+03   -0.17537E-05   -0.49313E-05   678   0.114E-02
     10 T=   394. E= -.44609250E+03 F= -.45119615E+03 E0= -.45125776E+03  EK= 0.56583E+01 SP= -.76E+00 SK= 0.21E+00
       N       E                     dE             d eps       ncg     rms          rms(c)
DAV:   1    -0.450872769100E+03    0.32338E+00   -0.24025E-02  1264   0.140E+00    0.156E-01
RMM:   2    -0.450874769583E+03   -0.20005E-02   -0.19355E-02   941   0.194E-01    0.884E-02
RMM:   3    -0.450875049487E+03   -0.27990E-03   -0.29929E-03  1099   0.882E-02    0.113E-01
RMM:   4    -0.450875091249E+03   -0.41762E-04   -0.45273E-04  1084   0.360E-02    0.811E-02
RMM:   5    -0.450875092329E+03   -0.10793E-05   -0.50430E-05   655   0.112E-02
     11 T=   387. E= -.44609195E+03 F= -.45087509E+03 E0= -.45093474E+03  EK= 0.55540E+01 SP= -.11E+01 SK= 0.32E+00
       N       E                     dE             d eps       ncg     rms          rms(c)
DAV:   1    -0.450629281954E+03    0.24581E+00   -0.24944E-02  1252   0.139E+00    0.356E-01
RMM:   2    -0.450631319102E+03   -0.20371E-02   -0.20525E-02   939   0.197E-01    0.734E-02
RMM:   3    -0.450631625558E+03   -0.30646E-03   -0.32573E-03  1099   0.915E-02    0.381E-02
RMM:   4    -0.450631667817E+03   -0.42260E-04   -0.48204E-04  1083   0.371E-02    0.230E-02
RMM:   5    -0.450631670721E+03   -0.29040E-05   -0.57903E-05   740   0.114E-02
     12 T=   388. E= -.44609183E+03 F= -.45063167E+03 E0= -.45068931E+03  EK= 0.55736E+01 SP= -.15E+01 SK= 0.47E+00
       N       E                     dE             d eps       ncg     rms          rms(c)
DAV:   1    -0.450448363507E+03    0.18330E+00   -0.19263E-02  1264   0.141E+00    0.134E-01
RMM:   2    -0.450450373880E+03   -0.20104E-02   -0.19881E-02   946   0.187E-01    0.737E-02
RMM:   3    -0.450450645663E+03   -0.27178E-03   -0.29721E-03  1096   0.857E-02    0.928E-02
RMM:   4    -0.450450686792E+03   -0.41130E-04   -0.44091E-04  1071   0.354E-02    0.880E-02
RMM:   5    -0.450450686214E+03    0.57843E-06   -0.44616E-05   650   0.107E-02
     13 T=   398. E= -.44609217E+03 F= -.45045069E+03 E0= -.45050623E+03  EK= 0.57077E+01 SP= -.20E+01 SK= 0.63E+00
       N       E                     dE             d eps       ncg     rms          rms(c)
DAV:   1    -0.450306552395E+03    0.14413E+00   -0.20530E-02  1240   0.144E+00    0.178E-01
RMM:   2    -0.450308649765E+03   -0.20974E-02   -0.20780E-02   937   0.193E-01    0.754E-02
RMM:   3    -0.450308950930E+03   -0.30117E-03   -0.32345E-03  1098   0.895E-02    0.948E-02
RMM:   4    -0.450308990117E+03   -0.39187E-04   -0.45131E-04  1080   0.366E-02    0.651E-02
RMM:   5    -0.450308992873E+03   -0.27559E-05   -0.69062E-05   774   0.120E-02
     14 T=   414. E= -.44609294E+03 F= -.45030899E+03 E0= -.45036254E+03  EK= 0.59393E+01 SP= -.25E+01 SK= 0.81E+00
       N       E                     dE             d eps       ncg     rms          rms(c)
DAV:   1    -0.450178122378E+03    0.13087E+00   -0.13151E-02  1268   0.148E+00    0.234E-01
RMM:   2    -0.450179940659E+03   -0.18183E-02   -0.18395E-02   921   0.182E-01    0.485E-02
RMM:   3    -0.450180191206E+03   -0.25055E-03   -0.29330E-03  1103   0.865E-02    0.487E-02
RMM:   4    -0.450180213915E+03   -0.22709E-04   -0.40887E-04  1069   0.348E-02    0.296E-02
RMM:   5    -0.450180211691E+03    0.22238E-05   -0.62749E-05   808   0.113E-02
     15 T=   435. E= -.44609350E+03 F= -.45018021E+03 E0= -.45023247E+03  EK= 0.62480E+01 SP= -.32E+01 SK= 0.10E+01
       N       E                     dE             d eps       ncg     rms          rms(c)
DAV:   1    -0.450037422272E+03    0.14279E+00   -0.17025E-02  1244   0.152E+00    0.152E-01
RMM:   2    -0.450039321998E+03   -0.18997E-02   -0.18782E-02   918   0.190E-01    0.661E-02
RMM:   3    -0.450039597629E+03   -0.27563E-03   -0.30719E-03  1096   0.889E-02    0.911E-02
RMM:   4    -0.450039637559E+03   -0.39930E-04   -0.45594E-04  1091   0.370E-02    0.834E-02
RMM:   5    -0.450039635836E+03    0.17234E-05   -0.39471E-05   636   0.103E-02
     16 T=   461. E= -.44609434E+03 F= -.45003964E+03 E0= -.45009163E+03  EK= 0.66125E+01 SP= -.38E+01 SK= 0.12E+01
       N       E                     dE             d eps       ncg     rms          rms(c)
DAV:   1    -0.449863083384E+03    0.17655E+00   -0.13899E-02  1288   0.154E+00    0.108E-01
RMM:   2    -0.449865030094E+03   -0.19467E-02   -0.19024E-02   934   0.185E-01    0.110E-01
RMM:   3    -0.449865298823E+03   -0.26873E-03   -0.29121E-03  1098   0.862E-02    0.120E-01
RMM:   4    -0.449865335851E+03   -0.37027E-04   -0.42827E-04  1076   0.364E-02    0.101E-01
RMM:   5    -0.449865330125E+03    0.57258E-05   -0.76733E-05   824   0.125E-02
     17 T=   489. E= -.44609494E+03 F= -.44986533E+03 E0= -.44991794E+03  EK= 0.70126E+01 SP= -.46E+01 SK= 0.13E+01
       N       E                     dE             d eps       ncg     rms          rms(c)
DAV:   1    -0.449638064496E+03    0.22727E+00   -0.26464E-02  1244   0.161E+00    0.334E-01
RMM:   2    -0.449640514267E+03   -0.24498E-02   -0.25706E-02   929   0.215E-01    0.542E-02
RMM:   3    -0.449640873421E+03   -0.35915E-03   -0.39624E-03  1098   0.100E-01    0.560E-02
RMM:   4    -0.449640914736E+03   -0.41315E-04   -0.55315E-04  1087   0.410E-02    0.352E-02
RMM:   5    -0.449640915848E+03   -0.11116E-05   -0.81328E-05   844   0.128E-02
     18 T=   518. E= -.44609548E+03 F= -.44964092E+03 E0= -.44969444E+03  EK= 0.74304E+01 SP= -.53E+01 SK= 0.14E+01
       N       E                     dE             d eps       ncg     rms          rms(c)
DAV:   1    -0.449351914253E+03    0.28900E+00   -0.23033E-02  1304   0.167E+00    0.159E-01
RMM:   2    -0.449354099936E+03   -0.21857E-02   -0.22172E-02   926   0.204E-01    0.825E-02
RMM:   3    -0.449354392487E+03   -0.29255E-03   -0.35192E-03  1097   0.940E-02    0.108E-01
RMM:   4    -0.449354433556E+03   -0.41068E-04   -0.47733E-04  1086   0.381E-02    0.106E-01
RMM:   5    -0.449354444626E+03   -0.11070E-04   -0.53443E-05   717   0.114E-02    0.114E-01
RMM:   6    -0.449354394470E+03    0.50156E-04   -0.14151E-04   740   0.142E-02    0.271E-02
RMM:   7    -0.449354400508E+03   -0.60379E-05   -0.11374E-04   747   0.103E-02    0.278E-02
RMM:   8    -0.449354400571E+03   -0.62828E-07   -0.10563E-05   508   0.545E-03
     19 T=   547. E= -.44609616E+03 F= -.44935440E+03 E0= -.44940779E+03  EK= 0.78491E+01 SP= -.61E+01 SK= 0.15E+01
       N       E                     dE             d eps       ncg     rms          rms(c)
DAV:   1    -0.448996191989E+03    0.35821E+00   -0.29536E-02  1256   0.169E+00    0.348E-01
RMM:   2    -0.448998772462E+03   -0.25805E-02   -0.28636E-02   938   0.222E-01    0.632E-02
RMM:   3    -0.448999168860E+03   -0.39640E-03   -0.44677E-03  1096   0.103E-01    0.728E-02
RMM:   4    -0.448999203288E+03   -0.34428E-04   -0.52561E-04  1038   0.414E-02    0.485E-02
RMM:   5    -0.448999199265E+03    0.40225E-05   -0.13322E-04   927   0.165E-02    0.164E-02
RMM:   6    -0.448999193628E+03    0.56379E-05   -0.16812E-05   502   0.692E-03
     20 T=   575. E= -.44609658E+03 F= -.44899919E+03 E0= -.44905040E+03  EK= 0.82550E+01 SP= -.69E+01 SK= 0.16E+01
       N       E                     dE             d eps       ncg     rms          rms(c)
DAV:   1    -0.448570632035E+03    0.42857E+00   -0.30850E-02  1256   0.168E+00    0.212E-01
RMM:   2    -0.448573660289E+03   -0.30283E-02   -0.30326E-02   947   0.225E-01    0.965E-02
RMM:   3    -0.448574016944E+03   -0.35666E-03   -0.44547E-03  1097   0.104E-01    0.121E-01
RMM:   4    -0.448574051520E+03   -0.34575E-04   -0.54764E-04  1073   0.410E-02    0.985E-02
RMM:   5    -0.448574036374E+03    0.15146E-04   -0.12585E-04   923   0.156E-02    0.490E-02
RMM:   6    -0.448574031149E+03    0.52251E-05   -0.48063E-05   730   0.886E-03
     21 T=   602. E= -.44609718E+03 F= -.44857403E+03 E0= -.44862067E+03  EK= 0.86366E+01 SP= -.78E+01 SK= 0.16E+01
       N       E                     dE             d eps       ncg     rms          rms(c)
DAV:   1    -0.448078190614E+03    0.49585E+00   -0.37063E-02  1240   0.171E+00    0.318E-01
RMM:   2    -0.448081320253E+03   -0.31296E-02   -0.34776E-02   940   0.238E-01    0.642E-02
RMM:   3    -0.448081689442E+03   -0.36919E-03   -0.52167E-03  1099   0.110E-01    0.103E-01
RMM:   4    -0.448081701070E+03   -0.11629E-04   -0.61873E-04  1059   0.432E-02    0.746E-02
RMM:   5    -0.448081650710E+03    0.50360E-04   -0.16773E-04   923   0.180E-02    0.251E-02
RMM:   6    -0.448081618266E+03    0.32443E-04   -0.79170E-05   818   0.106E-02    0.174E-02
RMM:   7    -0.448081608754E+03    0.95118E-05   -0.30878E-05   630   0.682E-03
     22 T=   626. E= -.44609780E+03 F= -.44808161E+03 E0= -.44812419E+03  EK= 0.89849E+01 SP= -.86E+01 SK= 0.16E+01
       N       E                     dE             d eps       ncg     rms          rms(c)
DAV:   1    -0.447524546493E+03    0.55707E+00   -0.46010E-02  1256   0.174E+00    0.302E-01
RMM:   2    -0.447527989672E+03   -0.34432E-02   -0.34431E-02   939   0.243E-01    0.647E-02
RMM:   3    -0.447528420826E+03   -0.43115E-03   -0.50680E-03  1097   0.112E-01    0.108E-01
RMM:   4    -0.447528464194E+03   -0.43368E-04   -0.63277E-04  1055   0.435E-02    0.911E-02
RMM:   5    -0.447528457613E+03    0.65808E-05   -0.12153E-04   892   0.160E-02    0.634E-02
RMM:   6    -0.447528445666E+03    0.11948E-04   -0.31763E-05   600   0.756E-03    0.246E-02
RMM:   7    -0.447528441830E+03    0.38357E-05   -0.26866E-05   604   0.574E-03
     23 T=   648. E= -.44609891E+03 F= -.44752844E+03 E0= -.44756707E+03  EK= 0.92934E+01 SP= -.94E+01 SK= 0.15E+01
       N       E                     dE             d eps       ncg     rms          rms(c)
DAV:   1    -0.446919967124E+03    0.60848E+00   -0.45465E-02  1208   0.176E+00    0.357E-01
RMM:   2    -0.446923767220E+03   -0.38001E-02   -0.38050E-02   943   0.255E-01    0.566E-02
RMM:   3    -0.446924304827E+03   -0.53761E-03   -0.60855E-03  1098   0.122E-01    0.108E-01
RMM:   4    -0.446924359983E+03   -0.55156E-04   -0.75111E-04  1050   0.470E-02    0.824E-02
RMM:   5    -0.446924361206E+03   -0.12232E-05   -0.16842E-04   940   0.183E-02    0.512E-02
RMM:   6    -0.446924352907E+03    0.82992E-05   -0.25008E-05   546   0.769E-03
     24 T=   666. E= -.44609934E+03 F= -.44692435E+03 E0= -.44695940E+03  EK= 0.95599E+01 SP= -.10E+02 SK= 0.14E+01
       N       E                     dE             d eps       ncg     rms          rms(c)
DAV:   1    -0.446282838424E+03    0.64152E+00   -0.38832E-02  1248   0.177E+00    0.369E-01
RMM:   2    -0.446286575112E+03   -0.37367E-02   -0.36402E-02   942   0.253E-01    0.563E-02
RMM:   3    -0.446287097603E+03   -0.52249E-03   -0.57234E-03  1098   0.119E-01    0.105E-01
RMM:   4    -0.446287157553E+03   -0.59950E-04   -0.73210E-04  1069   0.467E-02    0.792E-02
RMM:   5    -0.446287161609E+03   -0.40561E-05   -0.11713E-04   878   0.166E-02    0.548E-02
RMM:   6    -0.446287158749E+03    0.28605E-05   -0.14063E-05   485   0.672E-03
     25 T=   682. E= -.44609944E+03 F= -.44628716E+03 E0= -.44631954E+03  EK= 0.97897E+01 SP= -.11E+02 SK= 0.13E+01
       N       E                     dE             d eps       ncg     rms          rms(c)
DAV:   1    -0.445636697777E+03    0.65046E+00   -0.35329E-02  1268   0.180E+00    0.307E-01
RMM:   2    -0.445640159804E+03   -0.34620E-02   -0.33309E-02   940   0.249E-01    0.762E-02
RMM:   3    -0.445640667110E+03   -0.50731E-03   -0.54524E-03  1096   0.118E-01    0.126E-01
RMM:   4    -0.445640734644E+03   -0.67534E-04   -0.78551E-04  1070   0.472E-02    0.102E-01
RMM:   5    -0.445640736067E+03   -0.14230E-05   -0.10180E-04   852   0.156E-02    0.758E-02
RMM:   6    -0.445640732738E+03    0.33292E-05   -0.12872E-05   484   0.631E-03
     26 T=   697. E= -.44609919E+03 F= -.44564073E+03 E0= -.44567112E+03  EK= 0.99959E+01 SP= -.12E+02 SK= 0.12E+01
       N       E                     dE             d eps       ncg     rms          rms(c)
DAV:   1    -0.445010444712E+03    0.63029E+00   -0.46731E-02  1264   0.185E+00    0.332E-01
RMM:   2    -0.445014171591E+03   -0.37269E-02   -0.35847E-02   928   0.266E-01    0.742E-02
RMM:   3    -0.445014760786E+03   -0.58920E-03   -0.63490E-03  1103   0.128E-01    0.130E-01
RMM:   4    -0.445014836250E+03   -0.75463E-04   -0.87456E-04  1073   0.495E-02    0.104E-01
RMM:   5    -0.445014836450E+03   -0.20034E-06   -0.10838E-04   889   0.161E-02    0.737E-02
RMM:   6    -0.445014833761E+03    0.26889E-05   -0.11536E-05   481   0.629E-03
     27 T=   711. E= -.44609833E+03 F= -.44501483E+03 E0= -.44504366E+03  EK= 0.10200E+02 SP= -.12E+02 SK= 0.11E+01
       N       E                     dE             d eps       ncg     rms          rms(c)
DAV:   1    -0.444437847401E+03    0.57699E+00   -0.62575E-02  1296   0.189E+00    0.380E-01
RMM:   2    -0.444442175299E+03   -0.43279E-02   -0.41445E-02   929   0.290E-01    0.668E-02
RMM:   3    -0.444442883881E+03   -0.70858E-03   -0.75904E-03  1101   0.141E-01    0.141E-01
RMM:   4    -0.444442979035E+03   -0.95154E-04   -0.10847E-03  1089   0.547E-02    0.110E-01
RMM:   5    -0.444442980391E+03   -0.13559E-05   -0.11469E-04   908   0.164E-02    0.809E-02
RMM:   6    -0.444442977937E+03    0.24537E-05   -0.11045E-05   476   0.630E-03
     28 T=   727. E= -.44609704E+03 F= -.44444298E+03 E0= -.44447065E+03  EK= 0.10428E+02 SP= -.13E+02 SK= 0.98E+00
       N       E                     dE             d eps       ncg     rms          rms(c)
DAV:   1    -0.443951797970E+03    0.49118E+00   -0.47958E-02  1256   0.195E+00    0.344E-01
RMM:   2    -0.443956324920E+03   -0.45269E-02   -0.43155E-02   938   0.293E-01    0.815E-02
RMM:   3    -0.443957024627E+03   -0.69971E-03   -0.75473E-03  1098   0.140E-01    0.139E-01
RMM:   4    -0.443957127056E+03   -0.10243E-03   -0.11540E-03  1095   0.566E-02    0.113E-01
RMM:   5    -0.443957128287E+03   -0.12312E-05   -0.12274E-04   901   0.164E-02    0.845E-02
RMM:   6    -0.443957124048E+03    0.42390E-05   -0.13863E-05   483   0.668E-03
     29 T=   746. E= -.44609608E+03 F= -.44395712E+03 E0= -.44398449E+03  EK= 0.10705E+02 SP= -.14E+02 SK= 0.84E+00
       N       E                     dE             d eps       ncg     rms          rms(c)
DAV:   1    -0.443573178783E+03    0.38395E+00   -0.38800E-02  1280   0.198E+00    0.378E-01
RMM:   2    -0.443577579028E+03   -0.44002E-02   -0.41879E-02   950   0.287E-01    0.666E-02
RMM:   3    -0.443578231370E+03   -0.65234E-03   -0.68872E-03  1099   0.136E-01    0.113E-01
RMM:   4    -0.443578330642E+03   -0.99272E-04   -0.10986E-03  1102   0.555E-02    0.857E-02
RMM:   5    -0.443578334780E+03   -0.41386E-05   -0.12417E-04   895   0.166E-02    0.608E-02
RMM:   6    -0.443578332940E+03    0.18400E-05   -0.10113E-05   478   0.613E-03
     30 T=   770. E= -.44609642E+03 F= -.44357833E+03 E0= -.44360659E+03  EK= 0.11043E+02 SP= -.14E+02 SK= 0.69E+00
       N       E                     dE             d eps       ncg     rms          rms(c)
DAV:   1    -0.443304076397E+03    0.27426E+00   -0.29773E-02  1312   0.204E+00    0.307E-01
RMM:   2    -0.443307746259E+03   -0.36699E-02   -0.34779E-02   930   0.271E-01    0.736E-02
RMM:   3    -0.443308340830E+03   -0.59457E-03   -0.63420E-03  1102   0.130E-01    0.120E-01
RMM:   4    -0.443308425630E+03   -0.84800E-04   -0.97431E-04  1084   0.524E-02    0.995E-02
RMM:   5    -0.443308425738E+03   -0.10787E-06   -0.97240E-05   853   0.153E-02
     31 T=   797. E= -.44609834E+03 F= -.44330843E+03 E0= -.44333900E+03  EK= 0.11434E+02 SP= -.15E+02 SK= 0.53E+00
       N       E                     dE             d eps       ncg     rms          rms(c)
DAV:   1    -0.443121993228E+03    0.18643E+00   -0.29812E-02  1296   0.212E+00    0.230E-01
RMM:   2    -0.443125783756E+03   -0.37905E-02   -0.39781E-02   935   0.286E-01    0.148E-01
RMM:   3    -0.443126317641E+03   -0.53389E-03   -0.71756E-03  1101   0.138E-01    0.188E-01
RMM:   4    -0.443126392148E+03   -0.74507E-04   -0.10754E-03  1102   0.559E-02    0.170E-01
RMM:   5    -0.443126351675E+03    0.40473E-04   -0.12158E-04   935   0.165E-02    0.130E-01
RMM:   6    -0.443126248554E+03    0.10312E-03   -0.11922E-04   721   0.128E-02    0.404E-02
RMM:   7    -0.443126213675E+03    0.34879E-04   -0.15233E-04   720   0.115E-02    0.597E-02
RMM:   8    -0.443126212570E+03    0.11053E-05   -0.18809E-05   580   0.690E-03
     32 T=   825. E= -.44610101E+03 F= -.44312621E+03 E0= -.44316246E+03  EK= 0.11841E+02 SP= -.15E+02 SK= 0.37E+00
       N       E                     dE             d eps       ncg     rms          rms(c)
DAV:   1    -0.443045120789E+03    0.81093E-01   -0.31858E-01  1304   0.226E+00    0.128E+00
RMM:   2    -0.443023034870E+03    0.22086E-01   -0.22235E-01   861   0.438E-01    0.567E-01
RMM:   3    -0.443011560547E+03    0.11474E-01   -0.24920E-02   985   0.245E-01    0.402E-01
RMM:   4    -0.443005246269E+03    0.63143E-02   -0.11313E-02   992   0.121E-01    0.274E-01
RMM:   5    -0.443000913690E+03    0.43326E-02   -0.12493E-02   973   0.868E-02    0.148E-01
RMM:   6    -0.443001134459E+03   -0.22077E-03   -0.66416E-04   806   0.330E-02    0.140E-01
RMM:   7    -0.443001016005E+03    0.11845E-03   -0.21683E-04   830   0.152E-02    0.113E-01
RMM:   8    -0.443000687191E+03    0.32881E-03   -0.39407E-04   762   0.149E-02    0.279E-02
RMM:   9    -0.443000726589E+03   -0.39398E-04   -0.20915E-04   783   0.113E-02    0.349E-02
RMM:  10    -0.443000679482E+03    0.47107E-04   -0.42646E-05   626   0.731E-03    0.896E-03
RMM:  11    -0.443000680099E+03   -0.61623E-06   -0.15563E-05   519   0.443E-03
     33 T=   851. E= -.44610491E+03 F= -.44300068E+03 E0= -.44303779E+03  EK= 0.12211E+02 SP= -.16E+02 SK= 0.23E+00
       N       E                     dE             d eps       ncg     rms          rms(c)
DAV:   1    -0.442900186486E+03    0.10049E+00   -0.51917E-02  1296   0.216E+00    0.491E-01
RMM:   2    -0.442897041499E+03    0.31450E-02   -0.51534E-02   909   0.310E-01    0.146E-01
RMM:   3    -0.442897714355E+03   -0.67286E-03   -0.10689E-02  1104   0.158E-01    0.177E-01
RMM:   4    -0.442897714078E+03    0.27688E-06   -0.12718E-03  1059   0.594E-02    0.150E-01
RMM:   5    -0.442897628053E+03    0.86025E-04   -0.28604E-04   830   0.225E-02    0.798E-02
RMM:   6    -0.442897556495E+03    0.71558E-04   -0.21361E-04   791   0.172E-02    0.398E-02
RMM:   7    -0.442897565326E+03   -0.88303E-05   -0.11611E-04   826   0.119E-02    0.328E-02
RMM:   8    -0.442897564625E+03    0.70030E-06   -0.11937E-05   513   0.517E-03
     34 T=   870. E= -.44610863E+03 F= -.44289756E+03 E0= -.44293522E+03  EK= 0.12488E+02 SP= -.16E+02 SK= 0.11E+00
       N       E                     dE             d eps       ncg     rms          rms(c)
DAV:   1    -0.442776120068E+03    0.12145E+00   -0.37794E-02  1304   0.221E+00    0.413E-01
RMM:   2    -0.442781379869E+03   -0.52598E-02   -0.49532E-02   920   0.305E-01    0.238E-01
RMM:   3    -0.442781467744E+03   -0.87875E-04   -0.97285E-03  1097   0.151E-01    0.182E-01
RMM:   4    -0.442781211632E+03    0.25611E-03   -0.13997E-03  1030   0.619E-02    0.132E-01
RMM:   5    -0.442781222759E+03   -0.11127E-04   -0.27475E-04   996   0.212E-02    0.103E-01
RMM:   6    -0.442781207980E+03    0.14779E-04   -0.52419E-05   695   0.921E-03    0.523E-02
RMM:   7    -0.442781205095E+03    0.28849E-05   -0.43424E-05   668   0.775E-03
     35 T=   879. E= -.44611157E+03 F= -.44278121E+03 E0= -.44281892E+03  EK= 0.12618E+02 SP= -.16E+02 SK= 0.34E-01
       N       E                     dE             d eps       ncg     rms          rms(c)
DAV:   1    -0.442615802996E+03    0.16540E+00   -0.47193E-02  1280   0.222E+00    0.442E-01
RMM:   2    -0.442620762057E+03   -0.49591E-02   -0.45878E-02   912   0.303E-01    0.146E-01
RMM:   3    -0.442621674005E+03   -0.91195E-03   -0.89206E-03  1102   0.149E-01    0.190E-01
RMM:   4    -0.442621344239E+03    0.32977E-03   -0.13904E-03  1018   0.601E-02    0.126E-01
RMM:   5    -0.442621338424E+03    0.58146E-05   -0.26430E-04   999   0.215E-02    0.755E-02
RMM:   6    -0.442621333405E+03    0.50194E-05   -0.46653E-05   647   0.890E-03
     36 T=   875. E= -.44611302E+03 F= -.44262133E+03 E0= -.44265826E+03  EK= 0.12561E+02 SP= -.16E+02 SK= 0.10E-02
       N       E                     dE             d eps       ncg     rms          rms(c)
DAV:   1    -0.442392461320E+03    0.22888E+00   -0.45326E-02  1288   0.215E+00    0.353E-01
RMM:   2    -0.442397065254E+03   -0.46039E-02   -0.43735E-02   910   0.297E-01    0.126E-01
RMM:   3    -0.442397894825E+03   -0.82957E-03   -0.82752E-03  1101   0.145E-01    0.190E-01
RMM:   4    -0.442397695867E+03    0.19896E-03   -0.12059E-03  1032   0.582E-02    0.142E-01
RMM:   5    -0.442397692913E+03    0.29545E-05   -0.21963E-04   977   0.194E-02    0.104E-01
RMM:   6    -0.442397681486E+03    0.11427E-04   -0.31153E-05   557   0.791E-03    0.665E-02
RMM:   7    -0.442397673944E+03    0.75415E-05   -0.31505E-05   617   0.608E-03
     37 T=   857. E= -.44611233E+03 F= -.44239767E+03 E0= -.44243319E+03  EK= 0.12298E+02 SP= -.16E+02 SK= 0.13E-01
       N       E                     dE             d eps       ncg     rms          rms(c)
DAV:   1    -0.442100426547E+03    0.29725E+00   -0.50226E-02  1240   0.214E+00    0.457E-01
RMM:   2    -0.442105102666E+03   -0.46761E-02   -0.46991E-02   931   0.300E-01    0.750E-02
RMM:   3    -0.442105793468E+03   -0.69080E-03   -0.80225E-03  1099   0.144E-01    0.128E-01
RMM:   4    -0.442105852593E+03   -0.59125E-04   -0.10860E-03  1061   0.564E-02    0.111E-01
RMM:   5    -0.442105838588E+03    0.14005E-04   -0.20671E-04   969   0.197E-02    0.776E-02
RMM:   6    -0.442105818077E+03    0.20511E-04   -0.43932E-05   662   0.879E-03    0.437E-02
RMM:   7    -0.442105799887E+03    0.18190E-04   -0.33436E-05   619   0.631E-03    0.115E-02
RMM:   8    -0.442105787182E+03    0.12705E-04   -0.42571E-05   683   0.614E-03    0.218E-02
RMM:   9    -0.442105782414E+03    0.47682E-05   -0.21726E-05   564   0.475E-03
     38 T=   825. E= -.44611080E+03 F= -.44210578E+03 E0= -.44213795E+03  EK= 0.11841E+02 SP= -.16E+02 SK= 0.62E-01
       N       E                     dE             d eps       ncg     rms          rms(c)
DAV:   1    -0.441746836513E+03    0.35895E+00   -0.24652E-02  1304   0.217E+00    0.304E-01
RMM:   2    -0.441751116495E+03   -0.42800E-02   -0.43164E-02   921   0.288E-01    0.125E-01
RMM:   3    -0.441751678550E+03   -0.56205E-03   -0.73518E-03  1099   0.138E-01    0.171E-01
RMM:   4    -0.441751682994E+03   -0.44440E-05   -0.99939E-04  1063   0.546E-02    0.156E-01
RMM:   5    -0.441751627715E+03    0.55279E-04   -0.16620E-04   979   0.188E-02    0.120E-01
RMM:   6    -0.441751446152E+03    0.18156E-03   -0.27706E-04   745   0.162E-02    0.253E-02
RMM:   7    -0.441751353400E+03    0.92753E-04   -0.28352E-04   734   0.137E-02    0.424E-02
RMM:   8    -0.441751324073E+03    0.29326E-04   -0.50991E-05   776   0.847E-03    0.398E-02
RMM:   9    -0.441751319003E+03    0.50702E-05   -0.43391E-06   464   0.380E-03
     39 T=   782. E= -.44610690E+03 F= -.44175132E+03 E0= -.44177552E+03  EK= 0.11222E+02 SP= -.16E+02 SK= 0.13E+00
       N       E                     dE             d eps       ncg     rms          rms(c)
DAV:   1    -0.441356398593E+03    0.39493E+00   -0.19726E-02  1296   0.215E+00    0.454E-01
RMM:   2    -0.441358065390E+03   -0.16668E-02   -0.42222E-02   907   0.288E-01    0.108E-01
RMM:   3    -0.441358065585E+03   -0.19521E-06   -0.92885E-03  1100   0.145E-01    0.116E-01
RMM:   4    -0.441357901883E+03    0.16370E-03   -0.11245E-03   980   0.607E-02    0.627E-02
RMM:   5    -0.441357790522E+03    0.11136E-03   -0.55628E-04   965   0.347E-02    0.470E-02
RMM:   6    -0.441357717583E+03    0.72939E-04   -0.19299E-04   986   0.181E-02    0.317E-02
RMM:   7    -0.441357710116E+03    0.74675E-05   -0.37437E-05   622   0.862E-03
     40 T=   732. E= -.44610213E+03 F= -.44135771E+03 E0= -.44137539E+03  EK= 0.10499E+02 SP= -.15E+02 SK= 0.20E+00
       N       E                     dE             d eps       ncg     rms          rms(c)
DAV:   1    -0.440963377701E+03    0.39434E+00   -0.21486E-02  1280   0.202E+00    0.316E-01
RMM:   2    -0.440964059435E+03   -0.68173E-03   -0.38623E-02   896   0.286E-01    0.145E-01
RMM:   3    -0.440963784228E+03    0.27521E-03   -0.92788E-03  1098   0.142E-01    0.181E-01
RMM:   4    -0.440963608748E+03    0.17548E-03   -0.12257E-03  1026   0.586E-02    0.152E-01
RMM:   5    -0.440962852301E+03    0.75645E-03   -0.89549E-04   823   0.369E-02    0.429E-02
RMM:   6    -0.440962525707E+03    0.32659E-03   -0.10304E-03   831   0.308E-02    0.757E-02
RMM:   7    -0.440962490513E+03    0.35194E-04   -0.31070E-04   964   0.195E-02    0.386E-02
RMM:   8    -0.440962459198E+03    0.31315E-04   -0.89747E-05   739   0.117E-02    0.133E-02
RMM:   9    -0.440962454206E+03    0.49923E-05   -0.69178E-05   706   0.876E-03
     41 T=   679. E= -.44609847E+03 F= -.44096245E+03 E0= -.44097934E+03  EK= 0.97412E+01 SP= -.15E+02 SK= 0.26E+00
       N       E                     dE             d eps       ncg     rms          rms(c)
DAV:   1    -0.440600415293E+03    0.36204E+00   -0.23691E-02  1304   0.191E+00    0.362E-01
RMM:   2    -0.440603242920E+03   -0.28276E-02   -0.33320E-02   894   0.268E-01    0.726E-02
RMM:   3    -0.440603585172E+03   -0.34225E-03   -0.70371E-03  1097   0.131E-01    0.125E-01
RMM:   4    -0.440603573443E+03    0.11729E-04   -0.92962E-04  1032   0.535E-02    0.103E-01
RMM:   5    -0.440603431016E+03    0.14243E-03   -0.23985E-04   968   0.226E-02    0.610E-02
RMM:   6    -0.440603202054E+03    0.22896E-03   -0.41764E-04   811   0.200E-02    0.264E-02
RMM:   7    -0.440603139661E+03    0.62393E-04   -0.32993E-04   795   0.158E-02    0.415E-02
RMM:   8    -0.440603136372E+03    0.32885E-05   -0.47340E-05   786   0.974E-03
     42 T=   628. E= -.44609559E+03 F= -.44060314E+03 E0= -.44061999E+03  EK= 0.90142E+01 SP= -.15E+02 SK= 0.29E+00
       N       E                     dE             d eps       ncg     rms          rms(c)
DAV:   1    -0.440310939559E+03    0.29220E+00   -0.23055E-02  1288   0.180E+00    0.286E-01
RMM:   2    -0.440314048570E+03   -0.31090E-02   -0.30109E-02   901   0.258E-01    0.762E-02
RMM:   3    -0.440314581998E+03   -0.53343E-03   -0.58235E-03  1098   0.125E-01    0.135E-01
RMM:   4    -0.440314635518E+03   -0.53520E-04   -0.75803E-04  1050   0.499E-02    0.110E-01
RMM:   5    -0.440314634637E+03    0.88125E-06   -0.13911E-04   953   0.190E-02    0.858E-02
RMM:   6    -0.440314629697E+03    0.49402E-05   -0.21618E-05   510   0.745E-03
     43 T=   584. E= -.44609425E+03 F= -.44031463E+03 E0= -.44033155E+03  EK= 0.83731E+01 SP= -.14E+02 SK= 0.29E+00
       N       E                     dE             d eps       ncg     rms          rms(c)
DAV:   1    -0.440119627161E+03    0.19501E+00   -0.20132E-02  1280   0.177E+00    0.292E-01
RMM:   2    -0.440122303326E+03   -0.26762E-02   -0.25922E-02   926   0.240E-01    0.664E-02
RMM:   3    -0.440122752484E+03   -0.44916E-03   -0.47527E-03  1097   0.113E-01    0.108E-01
RMM:   4    -0.440122813823E+03   -0.61340E-04   -0.67080E-04  1055   0.468E-02    0.830E-02
RMM:   5    -0.440122819364E+03   -0.55407E-05   -0.10987E-04   853   0.171E-02    0.602E-02
RMM:   6    -0.440122818237E+03    0.11272E-05   -0.96821E-06   477   0.651E-03
     44 T=   548. E= -.44609426E+03 F= -.44012282E+03 E0= -.44014024E+03  EK= 0.78560E+01 SP= -.14E+02 SK= 0.27E+00
       N       E                     dE             d eps       ncg     rms          rms(c)
DAV:   1    -0.440037511360E+03    0.85308E-01   -0.23323E-02  1276   0.170E+00    0.312E-01
RMM:   2    -0.440040350994E+03   -0.28396E-02   -0.28037E-02   927   0.238E-01    0.510E-02
RMM:   3    -0.440040780840E+03   -0.42985E-03   -0.46954E-03  1096   0.113E-01    0.100E-01
RMM:   4    -0.440040826982E+03   -0.46142E-04   -0.62441E-04  1060   0.453E-02    0.780E-02
RMM:   5    -0.440040828112E+03   -0.11307E-05   -0.11055E-04   856   0.165E-02    0.570E-02
RMM:   6    -0.440040824957E+03    0.31555E-05   -0.12492E-05   477   0.661E-03
     45 T=   521. E= -.44609521E+03 F= -.44004082E+03 E0= -.44005927E+03  EK= 0.74817E+01 SP= -.14E+02 SK= 0.23E+00
       N       E                     dE             d eps       ncg     rms          rms(c)
DAV:   1    -0.440064355272E+03   -0.23527E-01   -0.19043E-02  1280   0.163E+00    0.224E-01
RMM:   2    -0.440066912089E+03   -0.25568E-02   -0.25524E-02   937   0.223E-01    0.809E-02
RMM:   3    -0.440067273580E+03   -0.36149E-03   -0.42229E-03  1096   0.105E-01    0.120E-01
RMM:   4    -0.440067310262E+03   -0.36682E-04   -0.55897E-04  1061   0.429E-02    0.102E-01
RMM:   5    -0.440067295105E+03    0.15156E-04   -0.10506E-04   858   0.158E-02    0.777E-02
RMM:   6    -0.440067240081E+03    0.55025E-04   -0.59846E-05   695   0.873E-03    0.342E-02
RMM:   7    -0.440067150126E+03    0.89954E-04   -0.21019E-04   772   0.114E-02    0.363E-02
RMM:   8    -0.440067135676E+03    0.14451E-04   -0.32483E-05   600   0.629E-03    0.407E-02
RMM:   9    -0.440067146336E+03   -0.10660E-04   -0.41799E-06   454   0.355E-03    0.433E-02
RMM:  10    -0.440067305812E+03   -0.15948E-03   -0.45882E-04   943   0.154E-02    0.526E-02
RMM:  11    -0.440067308534E+03   -0.27220E-05   -0.19844E-05   557   0.526E-03
     46 T=   505. E= -.44609605E+03 F= -.44006731E+03 E0= -.44008863E+03  EK= 0.72505E+01 SP= -.13E+02 SK= 0.19E+00
       N       E                     dE             d eps       ncg     rms          rms(c)
DAV:   1    -0.440186419956E+03   -0.11911E+00   -0.26826E-02  1272   0.161E+00    0.583E-01
RMM:   2    -0.440188756540E+03   -0.23366E-02   -0.29008E-02   932   0.233E-01    0.150E-01
RMM:   3    -0.440188743800E+03    0.12741E-04   -0.52029E-03  1096   0.112E-01    0.650E-02
RMM:   4    -0.440188407004E+03    0.33680E-03   -0.95914E-04   994   0.484E-02    0.430E-02
RMM:   5    -0.440188131819E+03    0.27519E-03   -0.60940E-04   934   0.296E-02    0.289E-02
RMM:   6    -0.440188067474E+03    0.64345E-04   -0.18497E-04   975   0.176E-02    0.210E-02
RMM:   7    -0.440188012358E+03    0.55116E-04   -0.12831E-04   785   0.121E-02    0.197E-02
RMM:   8    -0.440188000925E+03    0.11433E-04   -0.51449E-05   718   0.813E-03    0.155E-02
RMM:   9    -0.440187999562E+03    0.13627E-05   -0.11646E-05   487   0.538E-03
     47 T=   498. E= -.44609602E+03 F= -.44018800E+03 E0= -.44021538E+03  EK= 0.71477E+01 SP= -.13E+02 SK= 0.15E+00
       N       E                     dE             d eps       ncg     rms          rms(c)
DAV:   1    -0.440421108925E+03   -0.23311E+00   -0.30707E-01  1272   0.174E+00    0.975E-01
RMM:   2    -0.440402905633E+03    0.18203E-01   -0.12253E-01   877   0.327E-01    0.445E-01
RMM:   3    -0.440396963003E+03    0.59426E-02   -0.18400E-02  1043   0.186E-01    0.357E-01
RMM:   4    -0.440388503791E+03    0.84592E-02   -0.14265E-02   918   0.107E-01    0.263E-01
RMM:   5    -0.440385793931E+03    0.27099E-02   -0.40977E-03  1013   0.654E-02    0.207E-01
RMM:   6    -0.440384432149E+03    0.13618E-02   -0.33891E-03   887   0.458E-02    0.126E-01
RMM:   7    -0.440384683454E+03   -0.25131E-03   -0.89382E-04   891   0.292E-02    0.138E-01
RMM:   8    -0.440384380784E+03    0.30267E-03   -0.12295E-03   919   0.282E-02    0.604E-02
RMM:   9    -0.440385204292E+03   -0.82351E-03   -0.85922E-04   895   0.227E-02    0.176E-01
RMM:  10    -0.440384364422E+03    0.83987E-03   -0.49584E-04   870   0.180E-02    0.696E-02
RMM:  11    -0.440384248565E+03    0.11586E-03   -0.97732E-05   769   0.864E-03    0.217E-02
RMM:  12    -0.440384237682E+03    0.10883E-04   -0.32794E-05   633   0.531E-03    0.706E-03
RMM:  13    -0.440384240157E+03   -0.24748E-05   -0.59305E-06   453   0.365E-03
     48 T=   498. E= -.44609796E+03 F= -.44038424E+03 E0= -.44041263E+03  EK= 0.71492E+01 SP= -.13E+02 SK= 0.11E+00
       N       E                     dE             d eps       ncg     rms          rms(c)
DAV:   1    -0.440631676355E+03   -0.24744E+00   -0.32943E-02  1280   0.164E+00    0.374E-01
RMM:   2    -0.440631595769E+03    0.80586E-04   -0.27261E-02   933   0.224E-01    0.124E-01
RMM:   3    -0.440630845154E+03    0.75062E-03   -0.62098E-03  1097   0.111E-01    0.118E-01
RMM:   4    -0.440630707569E+03    0.13759E-03   -0.85710E-04   975   0.476E-02    0.939E-02
RMM:   5    -0.440630529746E+03    0.17782E-03   -0.43940E-04   847   0.265E-02    0.480E-02
RMM:   6    -0.440630339219E+03    0.19053E-03   -0.37700E-04   824   0.207E-02    0.397E-02
RMM:   7    -0.440630341355E+03   -0.21361E-05   -0.72118E-05   860   0.118E-02
     49 T=   504. E= -.44609941E+03 F= -.44063034E+03 E0= -.44065951E+03  EK= 0.72296E+01 SP= -.13E+02 SK= 0.76E-01
       N       E                     dE             d eps       ncg     rms          rms(c)
DAV:   1    -0.440899237817E+03   -0.26890E+00   -0.18824E-02  1328   0.160E+00    0.240E-01
RMM:   2    -0.440901462864E+03   -0.22250E-02   -0.23932E-02   936   0.213E-01    0.864E-02
RMM:   3    -0.440901732706E+03   -0.26984E-03   -0.38798E-03  1096   0.100E-01    0.116E-01
RMM:   4    -0.440901729254E+03    0.34519E-05   -0.53021E-04  1053   0.412E-02    0.104E-01
RMM:   5    -0.440901713142E+03    0.16112E-04   -0.10516E-04   889   0.151E-02    0.749E-02
RMM:   6    -0.440901678411E+03    0.34731E-04   -0.87932E-05   702   0.108E-02    0.135E-02
RMM:   7    -0.440901673388E+03    0.50227E-05   -0.84115E-05   680   0.884E-03
     50 T=   513. E= -.44610031E+03 F= -.44090167E+03 E0= -.44093219E+03  EK= 0.73616E+01 SP= -.13E+02 SK= 0.51E-01
       N       E                     dE             d eps       ncg     rms          rms(c)
DAV:   1    -0.441171915591E+03   -0.27024E+00   -0.19162E-02  1304   0.162E+00    0.317E-01
RMM:   2    -0.441173968065E+03   -0.20525E-02   -0.22154E-02   917   0.208E-01    0.598E-02
RMM:   3    -0.441174316493E+03   -0.34843E-03   -0.40242E-03  1098   0.100E-01    0.857E-02
RMM:   4    -0.441174297513E+03    0.18980E-04   -0.52015E-04  1024   0.407E-02    0.657E-02
RMM:   5    -0.441174290890E+03    0.66229E-05   -0.11460E-04   941   0.161E-02    0.368E-02
RMM:   6    -0.441174284125E+03    0.67651E-05   -0.26584E-05   549   0.726E-03
     51 T=   524. E= -.44610135E+03 F= -.44117428E+03 E0= -.44120598E+03  EK= 0.75181E+01 SP= -.12E+02 SK= 0.33E-01
       N       E                     dE             d eps       ncg     rms          rms(c)
DAV:   1    -0.441425712978E+03   -0.25142E+00   -0.10348E-02  1312   0.166E+00    0.198E-01
RMM:   2    -0.441427587876E+03   -0.18749E-02   -0.18902E-02   922   0.194E-01    0.729E-02
RMM:   3    -0.441427849028E+03   -0.26115E-03   -0.31829E-03  1099   0.923E-02    0.102E-01
RMM:   4    -0.441427876740E+03   -0.27712E-04   -0.42563E-04  1057   0.379E-02    0.919E-02
RMM:   5    -0.441427867231E+03    0.95094E-05   -0.80985E-05   779   0.137E-02
     52 T=   535. E= -.44610223E+03 F= -.44142787E+03 E0= -.44145942E+03  EK= 0.76768E+01 SP= -.12E+02 SK= 0.21E-01
       N       E                     dE             d eps       ncg     rms          rms(c)
DAV:   1    -0.441645086361E+03   -0.21721E+00   -0.34428E-03  1312   0.167E+00    0.173E-01
RMM:   2    -0.441647038592E+03   -0.19522E-02   -0.19639E-02   926   0.197E-01    0.929E-02
RMM:   3    -0.441647318433E+03   -0.27984E-03   -0.33299E-03  1098   0.940E-02    0.119E-01
RMM:   4    -0.441647345608E+03   -0.27175E-04   -0.42094E-04  1049   0.386E-02    0.892E-02
RMM:   5    -0.441647340029E+03    0.55792E-05   -0.11156E-04   912   0.164E-02    0.526E-02
RMM:   6    -0.441647332754E+03    0.72744E-05   -0.27079E-05   568   0.717E-03
     53 T=   545. E= -.44610270E+03 F= -.44164733E+03 E0= -.44167783E+03  EK= 0.78202E+01 SP= -.12E+02 SK= 0.13E-01
       N       E                     dE             d eps       ncg     rms          rms(c)
DAV:   1    -0.441820191230E+03   -0.17285E+00   -0.17373E-02  1276   0.168E+00    0.372E-01
RMM:   2    -0.441822242251E+03   -0.20510E-02   -0.25158E-02   916   0.213E-01    0.647E-02
RMM:   3    -0.441822497791E+03   -0.25554E-03   -0.45375E-03  1098   0.105E-01    0.725E-02
RMM:   4    -0.441822491326E+03    0.64650E-05   -0.55984E-04  1064   0.423E-02    0.589E-02
RMM:   5    -0.441822427895E+03    0.63431E-04   -0.14150E-04   867   0.172E-02    0.271E-02
RMM:   6    -0.441822373766E+03    0.54129E-04   -0.12238E-04   778   0.128E-02    0.151E-02
RMM:   7    -0.441822356960E+03    0.16806E-04   -0.76441E-05   809   0.940E-03    0.124E-02
RMM:   8    -0.441822350317E+03    0.66434E-05   -0.32317E-05   635   0.670E-03
     54 T=   553. E= -.44610305E+03 F= -.44182235E+03 E0= -.44185547E+03  EK= 0.79356E+01 SP= -.12E+02 SK= 0.74E-02
       N       E                     dE             d eps       ncg     rms          rms(c)
DAV:   1    -0.441945741391E+03   -0.12338E+00   -0.29826E-02  1272   0.171E+00    0.250E-01
RMM:   2    -0.441947074965E+03   -0.13336E-02   -0.27975E-02   912   0.221E-01    0.107E-01
RMM:   3    -0.441947286004E+03   -0.21104E-03   -0.47512E-03  1098   0.107E-01    0.135E-01
RMM:   4    -0.441947279507E+03    0.64972E-05   -0.54691E-04  1057   0.415E-02    0.120E-01
RMM:   5    -0.441947207748E+03    0.71759E-04   -0.14298E-04   872   0.177E-02    0.714E-02
RMM:   6    -0.441947110558E+03    0.97190E-04   -0.24751E-04   743   0.170E-02    0.286E-02
RMM:   7    -0.441947104488E+03    0.60703E-05   -0.88459E-05   816   0.108E-02
     55 T=   559. E= -.44610304E+03 F= -.44194710E+03 E0= -.44198066E+03  EK= 0.80153E+01 SP= -.12E+02 SK= 0.39E-02
       N       E                     dE             d eps       ncg     rms          rms(c)
DAV:   1    -0.442016969883E+03   -0.69859E-01   -0.27665E-02  1272   0.169E+00    0.332E-01
RMM:   2    -0.442019541884E+03   -0.25720E-02   -0.27172E-02   926   0.221E-01    0.571E-02
RMM:   3    -0.442019915596E+03   -0.37371E-03   -0.43409E-03  1099   0.105E-01    0.934E-02
RMM:   4    -0.442019947991E+03   -0.32395E-04   -0.52200E-04  1076   0.414E-02    0.767E-02
RMM:   5    -0.442019940161E+03    0.78304E-05   -0.11572E-04   919   0.158E-02    0.455E-02
RMM:   6    -0.442019931543E+03    0.86176E-05   -0.36739E-05   650   0.801E-03
     56 T=   561. E= -.44610317E+03 F= -.44201993E+03 E0= -.44205211E+03  EK= 0.80560E+01 SP= -.12E+02 SK= 0.18E-02
       N       E                     dE             d eps       ncg     rms          rms(c)
DAV:   1    -0.442036771734E+03   -0.16832E-01   -0.28985E-02  1232   0.169E+00    0.306E-01
RMM:   2    -0.442039428039E+03   -0.26563E-02   -0.27725E-02   935   0.225E-01    0.602E-02
RMM:   3    -0.442039780992E+03   -0.35295E-03   -0.43715E-03  1097   0.106E-01    0.103E-01
RMM:   4    -0.442039815910E+03   -0.34918E-04   -0.55676E-04  1075   0.422E-02    0.828E-02
RMM:   5    -0.442039804354E+03    0.11556E-04   -0.11739E-04   904   0.164E-02    0.451E-02
RMM:   6    -0.442039789798E+03    0.14557E-04   -0.47514E-05   719   0.868E-03    0.120E-02
RMM:   7    -0.442039785156E+03    0.46417E-05   -0.20566E-05   548   0.567E-03
     57 T=   562. E= -.44610305E+03 F= -.44203979E+03 E0= -.44207001E+03  EK= 0.80564E+01 SP= -.12E+02 SK= 0.49E-03
       N       E                     dE             d eps       ncg     rms          rms(c)
DAV:   1    -0.442004871524E+03    0.34918E-01   -0.25784E-02  1272   0.169E+00    0.311E-01
RMM:   2    -0.442007714830E+03   -0.28433E-02   -0.29481E-02   935   0.225E-01    0.610E-02
RMM:   3    -0.442008062410E+03   -0.34758E-03   -0.45085E-03  1097   0.106E-01    0.109E-01
RMM:   4    -0.442008078882E+03   -0.16472E-04   -0.50992E-04  1060   0.414E-02    0.894E-02
RMM:   5    -0.442008048564E+03    0.30318E-04   -0.13083E-04   942   0.170E-02    0.594E-02
RMM:   6    -0.442007977424E+03    0.71140E-04   -0.10405E-04   740   0.105E-02    0.197E-02
RMM:   7    -0.442007922736E+03    0.54688E-04   -0.10306E-04   722   0.898E-03    0.194E-02
RMM:   8    -0.442007886629E+03    0.36106E-04   -0.51544E-05   754   0.687E-03    0.191E-02
RMM:   9    -0.442007840658E+03    0.45971E-04   -0.47520E-05   708   0.624E-03    0.146E-02
RMM:  10    -0.442007703758E+03    0.13690E-03   -0.41935E-04   931   0.153E-02    0.124E-02
RMM:  11    -0.442007623881E+03    0.79876E-04   -0.25676E-04   873   0.128E-02    0.148E-02
RMM:  12    -0.442007523281E+03    0.10060E-03   -0.18329E-03  1132   0.316E-02    0.161E-02
RMM:  13    -0.442007595602E+03   -0.72321E-04   -0.12006E-03  1053   0.257E-02    0.172E-02
RMM:  14    -0.442007562224E+03    0.33378E-04   -0.47117E-05   732   0.788E-03    0.920E-03
RMM:  15    -0.442007520561E+03    0.41664E-04   -0.20110E-04   847   0.103E-02    0.712E-03
RMM:  16    -0.442007517838E+03    0.27228E-05   -0.23685E-05   598   0.497E-03
     58 T=   559. E= -.44610278E+03 F= -.44200752E+03 E0= -.44202795E+03  EK= 0.80173E+01 SP= -.12E+02 SK= 0.19E-05
       N       E                     dE             d eps       ncg     rms          rms(c)
DAV:   1    -0.441942048440E+03    0.65472E-01   -0.47153E-03  1264   0.184E+00    0.397E-01
RMM:   2    -0.441936280445E+03    0.57680E-02   -0.36294E-02   931   0.239E-01    0.181E-01
RMM:   3    -0.441933803858E+03    0.24766E-02   -0.99849E-03  1096   0.125E-01    0.173E-01
RMM:   4    -0.441932596704E+03    0.12072E-02   -0.16149E-03   966   0.573E-02    0.970E-02
RMM:   5    -0.441931512595E+03    0.10841E-02   -0.19672E-03   880   0.514E-02    0.590E-02
RMM:   6    -0.441931481109E+03    0.31486E-04   -0.74901E-04  1083   0.319E-02    0.549E-02
RMM:   7    -0.441931469788E+03    0.11321E-04   -0.60387E-05   738   0.136E-02    0.347E-02
RMM:   8    -0.441931413473E+03    0.56315E-04   -0.21057E-04   883   0.160E-02    0.148E-02
RMM:   9    -0.441931411637E+03    0.18362E-05   -0.39573E-05   660   0.872E-03
     59 T=   554. E= -.44610237E+03 F= -.44193141E+03 E0= -.44194828E+03  EK= 0.79476E+01 SP= -.12E+02 SK= 0.46E-03
       N       E                     dE             d eps       ncg     rms          rms(c)
DAV:   1    -0.441825258135E+03    0.10616E+00   -0.17475E-02  1296   0.171E+00    0.304E-01
RMM:   2    -0.441826695490E+03   -0.14374E-02   -0.25908E-02   931   0.219E-01    0.970E-02
RMM:   3    -0.441826413469E+03    0.28202E-03   -0.47270E-03  1096   0.105E-01    0.120E-01
RMM:   4    -0.441825964491E+03    0.44898E-03   -0.83627E-04   997   0.461E-02    0.771E-02
RMM:   5    -0.441825256483E+03    0.70801E-03   -0.16286E-03   898   0.405E-02    0.405E-02
RMM:   6    -0.441825119323E+03    0.13716E-03   -0.67925E-04   939   0.273E-02    0.283E-02
RMM:   7    -0.441825076443E+03    0.42881E-04   -0.15535E-04   924   0.166E-02    0.268E-02
RMM:   8    -0.441825045194E+03    0.31249E-04   -0.12933E-04   799   0.120E-02    0.158E-02
RMM:   9    -0.441825047896E+03   -0.27026E-05   -0.23981E-05   570   0.729E-03
     60 T=   548. E= -.44610101E+03 F= -.44182505E+03 E0= -.44183578E+03  EK= 0.78633E+01 SP= -.12E+02 SK= 0.22E-02
       N       E                     dE             d eps       ncg     rms          rms(c)
DAV:   1    -0.441717971535E+03    0.10707E+00   -0.63179E-03  1296   0.174E+00    0.380E-01
RMM:   2    -0.441713151825E+03    0.48197E-02   -0.30109E-02   909   0.228E-01    0.164E-01
RMM:   3    -0.441711317316E+03    0.18345E-02   -0.10330E-02  1097   0.121E-01    0.166E-01
RMM:   4    -0.441710522989E+03    0.79433E-03   -0.13623E-03   938   0.558E-02    0.637E-02
RMM:   5    -0.441710005955E+03    0.51703E-03   -0.14588E-03   910   0.433E-02    0.678E-02
RMM:   6    -0.441710014467E+03   -0.85122E-05   -0.30276E-04  1048   0.236E-02    0.526E-02
RMM:   7    -0.441710002763E+03    0.11704E-04   -0.45661E-05   642   0.934E-03    0.311E-02
RMM:   8    -0.441709984052E+03    0.18710E-04   -0.10601E-04   739   0.108E-02    0.165E-02
RMM:   9    -0.441709980521E+03    0.35309E-05   -0.25555E-05   597   0.628E-03
     61 T=   543. E= -.44609967E+03 F= -.44170998E+03 E0= -.44171979E+03  EK= 0.77863E+01 SP= -.12E+02 SK= 0.58E-02
       N       E                     dE             d eps       ncg     rms          rms(c)
DAV:   1    -0.441610624642E+03    0.99359E-01   -0.18732E-02  1264   0.170E+00    0.299E-01
RMM:   2    -0.441611947725E+03   -0.13231E-02   -0.25175E-02   922   0.224E-01    0.968E-02
RMM:   3    -0.441611910527E+03    0.37198E-04   -0.47214E-03  1096   0.107E-01    0.123E-01
RMM:   4    -0.441611726000E+03    0.18453E-03   -0.60173E-04   977   0.451E-02    0.593E-02
RMM:   5    -0.441611542347E+03    0.18365E-03   -0.56019E-04   882   0.309E-02    0.373E-02
RMM:   6    -0.441611536797E+03    0.55503E-05   -0.16288E-04   957   0.169E-02    0.222E-02
RMM:   7    -0.441611533386E+03    0.34106E-05   -0.30132E-05   557   0.821E-03
     62 T=   540. E= -.44609807E+03 F= -.44161153E+03 E0= -.44162105E+03  EK= 0.77437E+01 SP= -.12E+02 SK= 0.12E-01
       N       E                     dE             d eps       ncg     rms          rms(c)
DAV:   1    -0.441550884449E+03    0.60652E-01   -0.12903E-02  1264   0.171E+00    0.234E-01
RMM:   2    -0.441553208673E+03   -0.23242E-02   -0.22728E-02   926   0.216E-01    0.732E-02
RMM:   3    -0.441553543358E+03   -0.33468E-03   -0.37279E-03  1096   0.101E-01    0.106E-01
RMM:   4    -0.441553576563E+03   -0.33205E-04   -0.51688E-04  1056   0.421E-02    0.830E-02
RMM:   5    -0.441553574428E+03    0.21354E-05   -0.11646E-04   843   0.159E-02    0.541E-02
RMM:   6    -0.441553571327E+03    0.31009E-05   -0.21566E-05   508   0.704E-03
     63 T=   541. E= -.44609711E+03 F= -.44155357E+03 E0= -.44156294E+03  EK= 0.77596E+01 SP= -.12E+02 SK= 0.20E-01
       N       E                     dE             d eps       ncg     rms          rms(c)
DAV:   1    -0.441550583101E+03    0.29913E-02   -0.11059E-02  1240   0.173E+00    0.283E-01
RMM:   2    -0.441552504665E+03   -0.19216E-02   -0.18743E-02   916   0.205E-01    0.435E-02
RMM:   3    -0.441552812216E+03   -0.30755E-03   -0.32643E-03  1097   0.952E-02    0.693E-02
RMM:   4    -0.441552855595E+03   -0.43379E-04   -0.50486E-04  1048   0.406E-02    0.467E-02
RMM:   5    -0.441552860713E+03   -0.51184E-05   -0.85003E-05   698   0.147E-02
     64 T=   547. E= -.44609687E+03 F= -.44155286E+03 E0= -.44156218E+03  EK= 0.78509E+01 SP= -.12E+02 SK= 0.29E-01
       N       E                     dE             d eps       ncg     rms          rms(c)
DAV:   1    -0.441613202001E+03   -0.60346E-01   -0.11867E-02  1284   0.172E+00    0.159E-01
RMM:   2    -0.441615323407E+03   -0.21214E-02   -0.19869E-02   924   0.208E-01    0.988E-02
RMM:   3    -0.441615641319E+03   -0.31791E-03   -0.35084E-03  1096   0.993E-02    0.129E-01
RMM:   4    -0.441615677202E+03   -0.35883E-04   -0.52882E-04  1066   0.410E-02    0.112E-01
RMM:   5    -0.441615670010E+03    0.71920E-05   -0.85601E-05   746   0.140E-02
     65 T=   559. E= -.44609767E+03 F= -.44161567E+03 E0= -.44162501E+03  EK= 0.80230E+01 SP= -.13E+02 SK= 0.38E-01
       N       E                     dE             d eps       ncg     rms          rms(c)
DAV:   1    -0.441734215770E+03   -0.11854E+00   -0.15074E-02  1296   0.173E+00    0.208E-01
RMM:   2    -0.441736242124E+03   -0.20264E-02   -0.18713E-02   913   0.209E-01    0.802E-02
RMM:   3    -0.441736567173E+03   -0.32505E-03   -0.34242E-03  1096   0.983E-02    0.109E-01
RMM:   4    -0.441736609306E+03   -0.42133E-04   -0.52516E-04  1032   0.417E-02    0.708E-02
RMM:   5    -0.441736614723E+03   -0.54169E-05   -0.12089E-04   762   0.171E-02    0.412E-02
RMM:   6    -0.441736613615E+03    0.11077E-05   -0.13598E-05   479   0.710E-03
     66 T=   576. E= -.44609875E+03 F= -.44173661E+03 E0= -.44174607E+03  EK= 0.82690E+01 SP= -.13E+02 SK= 0.45E-01
       N       E                     dE             d eps       ncg     rms          rms(c)
DAV:   1    -0.441901347618E+03   -0.16473E+00   -0.15564E-02  1304   0.177E+00    0.356E-01
RMM:   2    -0.441903887100E+03   -0.25395E-02   -0.25007E-02   916   0.228E-01    0.496E-02
RMM:   3    -0.441904281502E+03   -0.39440E-03   -0.42590E-03  1096   0.108E-01    0.767E-02
RMM:   4    -0.441904315121E+03   -0.33619E-04   -0.60179E-04  1033   0.447E-02    0.485E-02
RMM:   5    -0.441904317344E+03   -0.22232E-05   -0.13524E-04   872   0.176E-02    0.267E-02
RMM:   6    -0.441904316845E+03    0.49898E-06   -0.12720E-05   482   0.677E-03
     67 T=   598. E= -.44609973E+03 F= -.44190432E+03 E0= -.44191409E+03  EK= 0.85737E+01 SP= -.13E+02 SK= 0.48E-01
       N       E                     dE             d eps       ncg     rms          rms(c)
DAV:   1    -0.442102562084E+03   -0.19824E+00   -0.11440E-02  1296   0.178E+00    0.222E-01
RMM:   2    -0.442104820977E+03   -0.22589E-02   -0.20792E-02   912   0.215E-01    0.903E-02
RMM:   3    -0.442105183796E+03   -0.36282E-03   -0.38883E-03  1098   0.103E-01    0.127E-01
RMM:   4    -0.442105223465E+03   -0.39669E-04   -0.54811E-04  1038   0.423E-02    0.100E-01
RMM:   5    -0.442105222184E+03    0.12803E-05   -0.10960E-04   791   0.162E-02    0.741E-02
RMM:   6    -0.442105215993E+03    0.61919E-05   -0.32704E-05   611   0.794E-03
     68 T=   622. E= -.44610069E+03 F= -.44210522E+03 E0= -.44211577E+03  EK= 0.89173E+01 SP= -.13E+02 SK= 0.46E-01
       N       E                     dE             d eps       ncg     rms          rms(c)
DAV:   1    -0.442323063749E+03   -0.21784E+00   -0.12044E-02  1304   0.180E+00    0.318E-01
RMM:   2    -0.442325316738E+03   -0.22530E-02   -0.21442E-02   910   0.218E-01    0.556E-02
RMM:   3    -0.442325692985E+03   -0.37625E-03   -0.40647E-03  1097   0.106E-01    0.879E-02
RMM:   4    -0.442325731122E+03   -0.38137E-04   -0.59538E-04  1027   0.439E-02    0.527E-02
RMM:   5    -0.442325732301E+03   -0.11791E-05   -0.12010E-04   841   0.172E-02    0.318E-02
RMM:   6    -0.442325726026E+03    0.62751E-05   -0.15155E-05   493   0.668E-03
     69 T=   647. E= -.44610194E+03 F= -.44232573E+03 E0= -.44233869E+03  EK= 0.92774E+01 SP= -.13E+02 SK= 0.38E-01
       N       E                     dE             d eps       ncg     rms          rms(c)
DAV:   1    -0.442547061836E+03   -0.22133E+00   -0.14346E-02  1304   0.185E+00    0.258E-01
RMM:   2    -0.442549180446E+03   -0.21186E-02   -0.24360E-02   910   0.223E-01    0.883E-02
RMM:   3    -0.442549347482E+03   -0.16704E-03   -0.47814E-03  1099   0.110E-01    0.119E-01
RMM:   4    -0.442549273737E+03    0.73746E-04   -0.69758E-04  1023   0.459E-02    0.840E-02
RMM:   5    -0.442549100671E+03    0.17307E-03   -0.33787E-04   869   0.240E-02    0.289E-02
RMM:   6    -0.442549036717E+03    0.63955E-04   -0.24157E-04   885   0.165E-02    0.240E-02
RMM:   7    -0.442549028438E+03    0.82789E-05   -0.39111E-05   700   0.933E-03
     70 T=   671. E= -.44610205E+03 F= -.44254903E+03 E0= -.44257239E+03  EK= 0.96282E+01 SP= -.13E+02 SK= 0.26E-01
       N       E                     dE             d eps       ncg     rms          rms(c)
DAV:   1    -0.442796357920E+03   -0.24732E+00   -0.28510E-01  1296   0.195E+00    0.951E-01
RMM:   2    -0.442770802161E+03    0.25556E-01   -0.13354E-01   871   0.359E-01    0.442E-01
RMM:   3    -0.442765211100E+03    0.55911E-02   -0.22136E-02  1025   0.213E-01    0.332E-01
RMM:   4    -0.442762724615E+03    0.24865E-02   -0.64172E-03  1042   0.945E-02    0.235E-01
RMM:   5    -0.442760404047E+03    0.23206E-02   -0.76731E-03   871   0.713E-02    0.863E-02
RMM:   6    -0.442760435543E+03   -0.31496E-04   -0.57988E-04   858   0.363E-02    0.777E-02
RMM:   7    -0.442760408516E+03    0.27028E-04   -0.25160E-04   850   0.172E-02    0.392E-02
RMM:   8    -0.442760398903E+03    0.96128E-05   -0.28179E-04   796   0.147E-02    0.292E-02
RMM:   9    -0.442760364422E+03    0.34481E-04   -0.44981E-05   733   0.886E-03    0.138E-02
RMM:  10    -0.442760364094E+03    0.32809E-06   -0.28813E-05   630   0.572E-03
     71 T=   693. E= -.44610335E+03 F= -.44276036E+03 E0= -.44278584E+03  EK= 0.99412E+01 SP= -.13E+02 SK= 0.13E-01
       N       E                     dE             d eps       ncg     rms          rms(c)
DAV:   1    -0.442942851541E+03   -0.18249E+00   -0.33181E-02  1280   0.194E+00    0.350E-01
RMM:   2    -0.442942595488E+03    0.25605E-03   -0.32090E-02   930   0.250E-01    0.156E-01
RMM:   3    -0.442941457730E+03    0.11378E-02   -0.77642E-03  1094   0.126E-01    0.149E-01
RMM:   4    -0.442941151982E+03    0.30575E-03   -0.12978E-03  1008   0.560E-02    0.112E-01
RMM:   5    -0.442940854481E+03    0.29750E-03   -0.46265E-04   839   0.289E-02    0.382E-02
RMM:   6    -0.442940777517E+03    0.76964E-04   -0.34694E-04   932   0.211E-02    0.356E-02
RMM:   7    -0.442940792111E+03   -0.14595E-04   -0.49611E-05   675   0.112E-02    0.208E-02
RMM:   8    -0.442940772618E+03    0.19493E-04   -0.32101E-05   659   0.842E-03    0.764E-03
RMM:   9    -0.442940770347E+03    0.22714E-05   -0.14988E-05   503   0.537E-03
     72 T=   710. E= -.44610474E+03 F= -.44294077E+03 E0= -.44296716E+03  EK= 0.10187E+02 SP= -.13E+02 SK= 0.35E-02
       N       E                     dE             d eps       ncg     rms          rms(c)
DAV:   1    -0.443066119287E+03   -0.12535E+00   -0.29746E-02  1264   0.195E+00    0.289E-01
RMM:   2    -0.443069572011E+03   -0.34527E-02   -0.32742E-02   938   0.259E-01    0.728E-02
RMM:   3    -0.443070067053E+03   -0.49504E-03   -0.54200E-03  1097   0.122E-01    0.118E-01
RMM:   4    -0.443070136648E+03   -0.69595E-04   -0.84540E-04  1087   0.503E-02    0.954E-02
RMM:   5    -0.443070133782E+03    0.28663E-05   -0.10226E-04   876   0.155E-02    0.710E-02
RMM:   6    -0.443070125645E+03    0.81371E-05   -0.21837E-05   516   0.695E-03
     73 T=   720. E= -.44610577E+03 F= -.44307013E+03 E0= -.44309751E+03  EK= 0.10336E+02 SP= -.13E+02 SK= 0.28E-04
       N       E                     dE             d eps       ncg     rms          rms(c)
DAV:   1    -0.443128981141E+03   -0.58847E-01   -0.29151E-02  1272   0.200E+00    0.330E-01
RMM:   2    -0.443132572163E+03   -0.35910E-02   -0.33920E-02   932   0.258E-01    0.662E-02
RMM:   3    -0.443133101365E+03   -0.52920E-03   -0.56528E-03  1102   0.122E-01    0.106E-01
RMM:   4    -0.443133160974E+03   -0.59610E-04   -0.73278E-04  1080   0.483E-02    0.728E-02
RMM:   5    -0.443133163224E+03   -0.22498E-05   -0.10834E-04   878   0.159E-02    0.439E-02
RMM:   6    -0.443133161244E+03    0.19797E-05   -0.10725E-05   472   0.607E-03
     74 T=   723. E= -.44610583E+03 F= -.44313316E+03 E0= -.44316155E+03  EK= 0.10368E+02 SP= -.13E+02 SK= 0.53E-02
       N       E                     dE             d eps       ncg     rms          rms(c)
DAV:   1    -0.443123263423E+03    0.98998E-02   -0.22548E-02  1328   0.196E+00    0.278E-01
RMM:   2    -0.443126616738E+03   -0.33533E-02   -0.32470E-02   930   0.248E-01    0.798E-02
RMM:   3    -0.443127084638E+03   -0.46790E-03   -0.52366E-03  1100   0.117E-01    0.120E-01
RMM:   4    -0.443127132701E+03   -0.48062E-04   -0.68137E-04  1068   0.465E-02    0.957E-02
RMM:   5    -0.443127127067E+03    0.56340E-05   -0.10299E-04   879   0.155E-02    0.692E-02
RMM:   6    -0.443127116831E+03    0.10235E-04   -0.34611E-05   625   0.797E-03    0.220E-02
RMM:   7    -0.443127117474E+03   -0.64263E-06   -0.28907E-05   604   0.604E-03
     75 T=   716. E= -.44610486E+03 F= -.44312712E+03 E0= -.44315606E+03  EK= 0.10280E+02 SP= -.13E+02 SK= 0.20E-01
       N       E                     dE             d eps       ncg     rms          rms(c)
DAV:   1    -0.443058641400E+03    0.68475E-01   -0.23359E-02  1320   0.193E+00    0.330E-01
RMM:   2    -0.443061902765E+03   -0.32614E-02   -0.31470E-02   924   0.246E-01    0.593E-02
RMM:   3    -0.443062395874E+03   -0.49311E-03   -0.52630E-03  1096   0.117E-01    0.108E-01
RMM:   4    -0.443062449283E+03   -0.53409E-04   -0.71734E-04  1045   0.475E-02    0.761E-02
RMM:   5    -0.443062449757E+03   -0.47389E-06   -0.12105E-04   912   0.174E-02    0.440E-02
RMM:   6    -0.443062448083E+03    0.16742E-05   -0.13384E-05   476   0.680E-03
     76 T=   703. E= -.44610262E+03 F= -.44306245E+03 E0= -.44309222E+03  EK= 0.10085E+02 SP= -.13E+02 SK= 0.40E-01
       N       E                     dE             d eps       ncg     rms          rms(c)
DAV:   1    -0.442958919120E+03    0.10353E+00   -0.26036E-02  1256   0.192E+00    0.253E-01
RMM:   2    -0.442962183687E+03   -0.32646E-02   -0.30329E-02   929   0.250E-01    0.885E-02
RMM:   3    -0.442962662718E+03   -0.47903E-03   -0.51429E-03  1101   0.118E-01    0.132E-01
RMM:   4    -0.442962717426E+03   -0.54708E-04   -0.67606E-04  1060   0.468E-02    0.106E-01
RMM:   5    -0.442962717827E+03   -0.40077E-06   -0.11705E-04   890   0.167E-02    0.739E-02
RMM:   6    -0.442962714010E+03    0.38170E-05   -0.16283E-05   479   0.676E-03
     77 T=   684. E= -.44610005E+03 F= -.44296271E+03 E0= -.44299391E+03  EK= 0.98169E+01 SP= -.13E+02 SK= 0.64E-01
       N       E                     dE             d eps       ncg     rms          rms(c)
DAV:   1    -0.442854581364E+03    0.10814E+00   -0.32950E-02  1240   0.187E+00    0.343E-01
RMM:   2    -0.442858046396E+03   -0.34650E-02   -0.33051E-02   930   0.260E-01    0.540E-02
RMM:   3    -0.442858563558E+03   -0.51716E-03   -0.55267E-03  1099   0.123E-01    0.103E-01
RMM:   4    -0.442858628099E+03   -0.64541E-04   -0.77066E-04  1054   0.494E-02    0.723E-02
RMM:   5    -0.442858634269E+03   -0.61702E-05   -0.13244E-04   894   0.174E-02    0.420E-02
RMM:   6    -0.442858633522E+03    0.74718E-06   -0.11176E-05   479   0.660E-03
     78 T=   663. E= -.44609724E+03 F= -.44285863E+03 E0= -.44289209E+03  EK= 0.95151E+01 SP= -.13E+02 SK= 0.86E-01
       N       E                     dE             d eps       ncg     rms          rms(c)
DAV:   1    -0.442779867101E+03    0.78767E-01   -0.30422E-02  1280   0.183E+00    0.257E-01
RMM:   2    -0.442783195718E+03   -0.33286E-02   -0.31844E-02   933   0.253E-01    0.817E-02
RMM:   3    -0.442783664124E+03   -0.46841E-03   -0.51961E-03  1097   0.119E-01    0.127E-01
RMM:   4    -0.442783729967E+03   -0.65843E-04   -0.78873E-04  1067   0.485E-02    0.109E-01
RMM:   5    -0.442783725923E+03    0.40437E-05   -0.10044E-04   891   0.155E-02    0.837E-02
RMM:   6    -0.442783716919E+03    0.90041E-05   -0.23049E-05   531   0.709E-03
     79 T=   643. E= -.44609505E+03 F= -.44278372E+03 E0= -.44281961E+03  EK= 0.92233E+01 SP= -.13E+02 SK= 0.10E+00
       N       E                     dE             d eps       ncg     rms          rms(c)
DAV:   1    -0.442760802377E+03    0.22924E-01   -0.24619E-02  1280   0.179E+00    0.300E-01
RMM:   2    -0.442763481672E+03   -0.26793E-02   -0.26706E-02   937   0.235E-01    0.570E-02
RMM:   3    -0.442763885665E+03   -0.40399E-03   -0.44578E-03  1102   0.110E-01    0.864E-02
RMM:   4    -0.442763937611E+03   -0.51946E-04   -0.62677E-04  1064   0.445E-02    0.619E-02
RMM:   5    -0.442763938177E+03   -0.56541E-06   -0.94885E-05   853   0.154E-02
     80 T=   626. E= -.44609388E+03 F= -.44276394E+03 E0= -.44280166E+03  EK= 0.89754E+01 SP= -.12E+02 SK= 0.12E+00
       N       E                     dE             d eps       ncg     rms          rms(c)
DAV:   1    -0.442807945174E+03   -0.44008E-01   -0.25093E-02  1276   0.177E+00    0.217E-01
RMM:   2    -0.442810594760E+03   -0.26496E-02   -0.25915E-02   929   0.228E-01    0.821E-02
RMM:   3    -0.442810992789E+03   -0.39803E-03   -0.43876E-03  1100   0.110E-01    0.121E-01
RMM:   4    -0.442811045535E+03   -0.52746E-04   -0.63384E-04  1088   0.438E-02    0.109E-01
RMM:   5    -0.442811044243E+03    0.12923E-05   -0.62360E-05   744   0.124E-02
     81 T=   613. E= -.44609357E+03 F= -.44281104E+03 E0= -.44285037E+03  EK= 0.87891E+01 SP= -.12E+02 SK= 0.12E+00
       N       E                     dE             d eps       ncg     rms          rms(c)
DAV:   1    -0.442921114949E+03   -0.11007E+00   -0.20749E-02  1288   0.179E+00    0.108E-01
RMM:   2    -0.442923596815E+03   -0.24819E-02   -0.24562E-02   943   0.220E-01    0.153E-01
RMM:   3    -0.442923899261E+03   -0.30245E-03   -0.38875E-03  1101   0.103E-01    0.173E-01
RMM:   4    -0.442923951559E+03   -0.52298E-04   -0.54241E-04  1097   0.409E-02    0.177E-01
RMM:   5    -0.442923955958E+03   -0.43990E-05   -0.57338E-05   702   0.119E-02
     82 T=   604. E= -.44609432E+03 F= -.44292396E+03 E0= -.44296430E+03  EK= 0.86666E+01 SP= -.12E+02 SK= 0.13E+00
       N       E                     dE             d eps       ncg     rms          rms(c)
DAV:   1    -0.443085136021E+03   -0.16118E+00   -0.22578E-02  1288   0.178E+00    0.139E-01
RMM:   2    -0.443087624410E+03   -0.24884E-02   -0.25414E-02   939   0.227E-01    0.249E-01
RMM:   3    -0.443088022746E+03   -0.39834E-03   -0.40240E-03  1096   0.105E-01    0.312E-01
RMM:   4    -0.443087973972E+03    0.48774E-04   -0.61938E-04  1061   0.447E-02    0.305E-01
RMM:   5    -0.443087941136E+03    0.32836E-04   -0.40282E-04   897   0.328E-02    0.272E-01
RMM:   6    -0.443087873339E+03    0.67797E-04   -0.18842E-04   951   0.177E-02    0.253E-01
RMM:   7    -0.443087842155E+03    0.31184E-04   -0.36953E-05   615   0.115E-02    0.236E-01
RMM:   8    -0.443087813416E+03    0.28739E-04   -0.30121E-05   572   0.823E-03    0.206E-01
RMM:   9    -0.443087798876E+03    0.14540E-04   -0.13968E-05   483   0.582E-03    0.180E-01
RMM:  10    -0.443087785039E+03    0.13837E-04   -0.17414E-05   511   0.567E-03    0.144E-01
RMM:  11    -0.443087779025E+03    0.60133E-05   -0.83212E-06   465   0.493E-03
     83 T=   599. E= -.44609529E+03 F= -.44308778E+03 E0= -.44312706E+03  EK= 0.85953E+01 SP= -.12E+02 SK= 0.13E+00
       N       E                     dE             d eps       ncg     rms          rms(c)
DAV:   1    -0.443281421584E+03   -0.19364E+00   -0.19157E-02  1288   0.182E+00    0.410E-01
RMM:   2    -0.443282507110E+03   -0.10855E-02   -0.24844E-02   927   0.234E-01    0.132E-01
RMM:   3    -0.443282403170E+03    0.10394E-03   -0.50121E-03  1096   0.108E-01    0.104E-01
RMM:   4    -0.443282296204E+03    0.10697E-03   -0.68302E-04   981   0.457E-02    0.722E-02
RMM:   5    -0.443282084219E+03    0.21198E-03   -0.39580E-04   839   0.287E-02    0.266E-02
RMM:   6    -0.443282059773E+03    0.24446E-04   -0.18606E-04   989   0.175E-02    0.254E-02
RMM:   7    -0.443282052915E+03    0.68588E-05   -0.24983E-05   534   0.794E-03
     84 T=   596. E= -.44609632E+03 F= -.44328205E+03 E0= -.44332163E+03  EK= 0.85557E+01 SP= -.11E+02 SK= 0.13E+00
       N       E                     dE             d eps       ncg     rms          rms(c)
DAV:   1    -0.443482172803E+03   -0.20011E+00   -0.25743E-02  1296   0.176E+00    0.434E-01
RMM:   2    -0.443484984964E+03   -0.28122E-02   -0.30035E-02   939   0.235E-01    0.105E-01
RMM:   3    -0.443485327579E+03   -0.34262E-03   -0.45593E-03  1101   0.111E-01    0.651E-02
RMM:   4    -0.443485356123E+03   -0.28545E-04   -0.65477E-04  1074   0.454E-02    0.395E-02
RMM:   5    -0.443485348765E+03    0.73581E-05   -0.11625E-04   920   0.158E-02    0.264E-02
RMM:   6    -0.443485344431E+03    0.43348E-05   -0.14466E-05   492   0.649E-03
     85 T=   594. E= -.44609722E+03 F= -.44348534E+03 E0= -.44352607E+03  EK= 0.85270E+01 SP= -.11E+02 SK= 0.13E+00
       N       E                     dE             d eps       ncg     rms          rms(c)
DAV:   1    -0.443674880928E+03   -0.18953E+00   -0.41899E-02  1240   0.180E+00    0.223E-01
RMM:   2    -0.443678062706E+03   -0.31818E-02   -0.31854E-02   921   0.252E-01    0.105E-01
RMM:   3    -0.443678515390E+03   -0.45268E-03   -0.51166E-03  1098   0.116E-01    0.155E-01
RMM:   4    -0.443678572258E+03   -0.56867E-04   -0.66827E-04  1093   0.459E-02    0.148E-01
RMM:   5    -0.443678576310E+03   -0.40526E-05   -0.97198E-05   792   0.142E-02
     86 T=   592. E= -.44609787E+03 F= -.44367858E+03 E0= -.44372033E+03  EK= 0.84908E+01 SP= -.11E+02 SK= 0.12E+00
       N       E                     dE             d eps       ncg     rms          rms(c)
DAV:   1    -0.443846667893E+03   -0.16810E+00   -0.36096E-02  1256   0.182E+00    0.119E-01
RMM:   2    -0.443849585440E+03   -0.29175E-02   -0.29391E-02   937   0.243E-01    0.236E-01
RMM:   3    -0.443850019247E+03   -0.43381E-03   -0.47292E-03  1096   0.110E-01    0.297E-01
RMM:   4    -0.443850070047E+03   -0.50800E-04   -0.59850E-04  1100   0.432E-02    0.318E-01
RMM:   5    -0.443850119901E+03   -0.49854E-04   -0.17433E-04   987   0.242E-02    0.372E-01
RMM:   6    -0.443850222003E+03   -0.10210E-03   -0.21156E-04   910   0.283E-02    0.504E-01
RMM:   7    -0.443850447611E+03   -0.22561E-03   -0.25074E-04   888   0.268E-02    0.690E-01
RMM:   8    -0.443850519930E+03   -0.72318E-04   -0.56194E-05   758   0.110E-02    0.745E-01
RMM:   9    -0.443850440931E+03    0.78999E-04   -0.13954E-05   481   0.841E-03    0.669E-01
RMM:  10    -0.443850094509E+03    0.34642E-03   -0.47986E-04  1035   0.347E-02    0.306E-01
RMM:  11    -0.443850028931E+03    0.65578E-04   -0.10247E-04   889   0.153E-02    0.204E-01
RMM:  12    -0.443850025195E+03    0.37364E-05   -0.76034E-06   469   0.537E-03
     87 T=   588. E= -.44609848E+03 F= -.44385003E+03 E0= -.44389196E+03  EK= 0.84366E+01 SP= -.11E+02 SK= 0.12E+00
       N       E                     dE             d eps       ncg     rms          rms(c)
DAV:   1    -0.443990131016E+03   -0.14010E+00   -0.25497E-02  1288   0.180E+00    0.272E-01
RMM:   2    -0.443992809188E+03   -0.26782E-02   -0.27584E-02   940   0.235E-01    0.107E-01
RMM:   3    -0.443993185322E+03   -0.37613E-03   -0.42760E-03  1097   0.103E-01    0.134E-01
RMM:   4    -0.443993216495E+03   -0.31172E-04   -0.48826E-04  1040   0.413E-02    0.121E-01
RMM:   5    -0.443993214331E+03    0.21637E-05   -0.12649E-04   932   0.173E-02    0.611E-02
RMM:   6    -0.443993209276E+03    0.50550E-05   -0.44336E-05   715   0.928E-03
     88 T=   583. E= -.44609866E+03 F= -.44399321E+03 E0= -.44403387E+03  EK= 0.83602E+01 SP= -.11E+02 SK= 0.12E+00
       N       E                     dE             d eps       ncg     rms          rms(c)
DAV:   1    -0.444102907497E+03   -0.10969E+00   -0.19459E-02  1296   0.181E+00    0.556E-01
RMM:   2    -0.444105343210E+03   -0.24357E-02   -0.27270E-02   934   0.215E-01    0.152E-01
RMM:   3    -0.444105721441E+03   -0.37823E-03   -0.41723E-03  1098   0.103E-01    0.512E-02
RMM:   4    -0.444105746842E+03   -0.25401E-04   -0.54076E-04  1041   0.420E-02    0.398E-02
RMM:   5    -0.444105737204E+03    0.96383E-05   -0.11738E-04   935   0.167E-02    0.190E-02
RMM:   6    -0.444105736540E+03    0.66427E-06   -0.18184E-05   532   0.707E-03
     89 T=   576. E= -.44609815E+03 F= -.44410574E+03 E0= -.44414388E+03  EK= 0.82616E+01 SP= -.10E+02 SK= 0.11E+00
       N       E                     dE             d eps       ncg     rms          rms(c)
DAV:   1    -0.444187094247E+03   -0.81357E-01   -0.21143E-02  1288   0.179E+00    0.133E-01
RMM:   2    -0.444189330348E+03   -0.22361E-02   -0.22507E-02   935   0.209E-01    0.140E-01
RMM:   3    -0.444189631323E+03   -0.30097E-03   -0.35557E-03  1097   0.949E-02    0.173E-01
RMM:   4    -0.444189676839E+03   -0.45515E-04   -0.43663E-04  1072   0.377E-02    0.184E-01
RMM:   5    -0.444189679173E+03   -0.23339E-05   -0.63435E-05   709   0.130E-02
     90 T=   568. E= -.44609813E+03 F= -.44418968E+03 E0= -.44422424E+03  EK= 0.81446E+01 SP= -.10E+02 SK= 0.10E+00
       N       E                     dE             d eps       ncg     rms          rms(c)
DAV:   1    -0.444247177780E+03   -0.57501E-01   -0.22349E-02  1304   0.174E+00    0.335E-01
RMM:   2    -0.444249176452E+03   -0.19987E-02   -0.21895E-02   940   0.208E-01    0.115E-01
RMM:   3    -0.444249428741E+03   -0.25229E-03   -0.34609E-03  1096   0.964E-02    0.105E-01
RMM:   4    -0.444249467661E+03   -0.38920E-04   -0.49275E-04  1058   0.392E-02    0.771E-02
RMM:   5    -0.444249446270E+03    0.21392E-04   -0.11968E-04   890   0.202E-02    0.210E-02
RMM:   6    -0.444249445327E+03    0.94221E-06   -0.31495E-05   611   0.948E-03
     91 T=   559. E= -.44609773E+03 F= -.44424945E+03 E0= -.44427873E+03  EK= 0.80172E+01 SP= -.10E+02 SK= 0.88E-01
       N       E                     dE             d eps       ncg     rms          rms(c)
DAV:   1    -0.444290057218E+03   -0.40611E-01   -0.20213E-02  1288   0.181E+00    0.355E-01
RMM:   2    -0.444292209809E+03   -0.21526E-02   -0.28145E-02   932   0.229E-01    0.133E-01
RMM:   3    -0.444292447838E+03   -0.23803E-03   -0.42989E-03  1097   0.103E-01    0.129E-01
RMM:   4    -0.444292410866E+03    0.36972E-04   -0.51663E-04   993   0.402E-02    0.699E-02
RMM:   5    -0.444292344411E+03    0.66454E-04   -0.29439E-04   886   0.248E-02    0.217E-02
RMM:   6    -0.444292329667E+03    0.14744E-04   -0.77765E-05   919   0.134E-02    0.154E-02
RMM:   7    -0.444292315199E+03    0.14469E-04   -0.40349E-05   684   0.800E-03    0.958E-03
RMM:   8    -0.444292306907E+03    0.82913E-05   -0.22321E-05   566   0.574E-03
     92 T=   550. E= -.44609681E+03 F= -.44429231E+03 E0= -.44431889E+03  EK= 0.78896E+01 SP= -.98E+01 SK= 0.74E-01
       N       E                     dE             d eps       ncg     rms          rms(c)
DAV:   1    -0.444324621197E+03   -0.32306E-01   -0.24306E-02  1264   0.172E+00    0.268E-01
RMM:   2    -0.444327082423E+03   -0.24612E-02   -0.24485E-02   936   0.212E-01    0.753E-02
RMM:   3    -0.444327408118E+03   -0.32570E-03   -0.38195E-03  1097   0.979E-02    0.108E-01
RMM:   4    -0.444327445381E+03   -0.37263E-04   -0.47039E-04  1042   0.392E-02    0.825E-02
RMM:   5    -0.444327440558E+03    0.48223E-05   -0.96245E-05   879   0.155E-02
     93 T=   542. E= -.44609603E+03 F= -.44432744E+03 E0= -.44435339E+03  EK= 0.77727E+01 SP= -.96E+01 SK= 0.59E-01
       N       E                     dE             d eps       ncg     rms          rms(c)
DAV:   1    -0.444363249311E+03   -0.35804E-01   -0.23938E-02  1260   0.174E+00    0.292E-01
RMM:   2    -0.444365595889E+03   -0.23466E-02   -0.23983E-02   930   0.214E-01    0.469E-02
RMM:   3    -0.444365929357E+03   -0.33347E-03   -0.38954E-03  1099   0.100E-01    0.865E-02
RMM:   4    -0.444365961257E+03   -0.31900E-04   -0.49876E-04  1077   0.407E-02    0.623E-02
RMM:   5    -0.444365957724E+03    0.35321E-05   -0.78295E-05   801   0.137E-02
     94 T=   535. E= -.44609520E+03 F= -.44436596E+03 E0= -.44439157E+03  EK= 0.76795E+01 SP= -.95E+01 SK= 0.44E-01
       N       E                     dE             d eps       ncg     rms          rms(c)
DAV:   1    -0.444416668923E+03   -0.50708E-01   -0.24612E-02  1276   0.171E+00    0.192E-01
RMM:   2    -0.444419116419E+03   -0.24475E-02   -0.24344E-02   931   0.211E-01    0.950E-02
RMM:   3    -0.444419435078E+03   -0.31866E-03   -0.38135E-03  1097   0.973E-02    0.130E-01
RMM:   4    -0.444419470008E+03   -0.34930E-04   -0.46317E-04  1082   0.383E-02    0.117E-01
RMM:   5    -0.444419460956E+03    0.90522E-05   -0.66824E-05   766   0.124E-02
     95 T=   531. E= -.44609465E+03 F= -.44441946E+03 E0= -.44444427E+03  EK= 0.76223E+01 SP= -.93E+01 SK= 0.30E-01
       N       E                     dE             d eps       ncg     rms          rms(c)
[...]
DAV:   1    -0.446031511520E+03    0.16212E+00   -0.17111E-02  1272   0.175E+00    0.182E-01
RMM:   2    -0.446034052023E+03   -0.25405E-02   -0.23516E-02   932   0.223E-01    0.926E-02
RMM:   3    -0.446034423493E+03   -0.37147E-03   -0.39902E-03  1100   0.106E-01    0.120E-01
RMM:   4    -0.446034474810E+03   -0.51317E-04   -0.57983E-04  1075   0.434E-02    0.102E-01
RMM:   5    -0.446034473598E+03    0.12119E-05   -0.75566E-05   757   0.138E-02
   1011 T=   582. E= -.44594531E+03 F= -.44603447E+03 E0= -.44606630E+03  EK= 0.83533E+01 SP= -.83E+01 SK= 0.79E-01
       N       E                     dE             d eps       ncg     rms          rms(c)
DAV:   1    -0.445902866354E+03    0.13161E+00   -0.16350E-02  1288   0.174E+00    0.135E-01
RMM:   2    -0.445905146678E+03   -0.22803E-02   -0.20817E-02   921   0.217E-01    0.112E-01
RMM:   3    -0.445905494799E+03   -0.34812E-03   -0.37726E-03  1098   0.105E-01    0.140E-01
RMM:   4    -0.445905547782E+03   -0.52984E-04   -0.57600E-04  1085   0.429E-02    0.129E-01
RMM:   5    -0.445905538790E+03    0.89922E-05   -0.71637E-05   798   0.129E-02
   1012 T=   586. E= -.44594423E+03 F= -.44590554E+03 E0= -.44593821E+03  EK= 0.84068E+01 SP= -.85E+01 SK= 0.84E-01
       N       E                     dE             d eps       ncg     rms          rms(c)
DAV:   1    -0.445814508215E+03    0.91040E-01   -0.13016E-02  1292   0.176E+00    0.257E-01
RMM:   2    -0.445816621028E+03   -0.21128E-02   -0.19486E-02   923   0.214E-01    0.667E-02
RMM:   3    -0.445816957102E+03   -0.33607E-03   -0.36306E-03  1100   0.103E-01    0.782E-02
RMM:   4    -0.445816978550E+03   -0.21447E-04   -0.61639E-04  1050   0.435E-02    0.588E-02
RMM:   5    -0.445816979030E+03   -0.48032E-06   -0.76622E-05   834   0.134E-02
   1013 T=   593. E= -.44594367E+03 F= -.44581698E+03 E0= -.44585078E+03  EK= 0.85062E+01 SP= -.87E+01 SK= 0.87E-01
       N       E                     dE             d eps       ncg     rms          rms(c)
DAV:   1    -0.445770293933E+03    0.46685E-01   -0.97710E-03  1296   0.180E+00    0.212E-01
RMM:   2    -0.445772319354E+03   -0.20254E-02   -0.19219E-02   910   0.212E-01    0.522E-02
RMM:   3    -0.445772649128E+03   -0.32977E-03   -0.36815E-03  1101   0.104E-01    0.765E-02
RMM:   4    -0.445772686586E+03   -0.37457E-04   -0.58626E-04  1069   0.429E-02    0.663E-02
RMM:   5    -0.445772681344E+03    0.52414E-05   -0.61413E-05   752   0.125E-02
   1014 T=   603. E= -.44594407E+03 F= -.44577268E+03 E0= -.44580731E+03  EK= 0.86538E+01 SP= -.89E+01 SK= 0.88E-01
       N       E                     dE             d eps       ncg     rms          rms(c)
DAV:   1    -0.445765891707E+03    0.67949E-02   -0.13864E-02  1292   0.182E+00    0.173E-01
RMM:   2    -0.445768002643E+03   -0.21109E-02   -0.19799E-02   918   0.216E-01    0.734E-02
RMM:   3    -0.445768329421E+03   -0.32678E-03   -0.37054E-03  1100   0.104E-01    0.982E-02
RMM:   4    -0.445768376495E+03   -0.47075E-04   -0.59109E-04  1071   0.435E-02    0.837E-02
RMM:   5    -0.445768364674E+03    0.11821E-04   -0.70867E-05   772   0.134E-02    0.595E-02
RMM:   6    -0.445768338718E+03    0.25955E-04   -0.35787E-05   666   0.811E-03    0.235E-02
RMM:   7    -0.445768312955E+03    0.25764E-04   -0.69951E-05   690   0.796E-03    0.318E-02
RMM:   8    -0.445768306588E+03    0.63667E-05   -0.30347E-05   619   0.565E-03
   1015 T=   616. E= -.44594465E+03 F= -.44576831E+03 E0= -.44580197E+03  EK= 0.88432E+01 SP= -.91E+01 SK= 0.84E-01
       N       E                     dE             d eps       ncg     rms          rms(c)
DAV:   1    -0.445789986665E+03   -0.21674E-01   -0.96584E-03  1288   0.184E+00    0.295E-01
RMM:   2    -0.445792303614E+03   -0.23169E-02   -0.23705E-02   907   0.231E-01    0.440E-02
RMM:   3    -0.445792658389E+03   -0.35477E-03   -0.44722E-03  1098   0.113E-01    0.653E-02
RMM:   4    -0.445792690207E+03   -0.31819E-04   -0.65730E-04  1061   0.462E-02    0.493E-02
RMM:   5    -0.445792671561E+03    0.18646E-04   -0.10973E-04   918   0.159E-02    0.284E-02
RMM:   6    -0.445792657343E+03    0.14218E-04   -0.36399E-05   647   0.781E-03    0.132E-02
RMM:   7    -0.445792648358E+03    0.89851E-05   -0.20479E-05   531   0.539E-03
   1016 T=   631. E= -.44594525E+03 F= -.44579265E+03 E0= -.44582496E+03  EK= 0.90594E+01 SP= -.93E+01 SK= 0.77E-01
       N       E                     dE             d eps       ncg     rms          rms(c)
DAV:   1    -0.445828348971E+03   -0.35692E-01   -0.17368E-02  1312   0.187E+00    0.215E-01
RMM:   2    -0.445830733655E+03   -0.23847E-02   -0.24253E-02   922   0.234E-01    0.763E-02
RMM:   3    -0.445831087686E+03   -0.35403E-03   -0.44361E-03  1100   0.112E-01    0.100E-01
RMM:   4    -0.445831117280E+03   -0.29593E-04   -0.67349E-04  1053   0.475E-02    0.690E-02
RMM:   5    -0.445831090607E+03    0.26673E-04   -0.13326E-04   928   0.180E-02    0.351E-02
RMM:   6    -0.445831055662E+03    0.34945E-04   -0.62663E-05   728   0.965E-03    0.129E-02
RMM:   7    -0.445831047749E+03    0.79125E-05   -0.32026E-05   637   0.644E-03
   1017 T=   647. E= -.44594647E+03 F= -.44583105E+03 E0= -.44586403E+03  EK= 0.92815E+01 SP= -.95E+01 SK= 0.65E-01
       N       E                     dE             d eps       ncg     rms          rms(c)
DAV:   1    -0.445863624861E+03   -0.32569E-01   -0.20312E-02  1304   0.189E+00    0.277E-01
RMM:   2    -0.445866119682E+03   -0.24948E-02   -0.24403E-02   911   0.237E-01    0.477E-02
RMM:   3    -0.445866522903E+03   -0.40322E-03   -0.45526E-03  1101   0.114E-01    0.836E-02
RMM:   4    -0.445866567854E+03   -0.44951E-04   -0.65343E-04  1064   0.466E-02    0.645E-02
RMM:   5    -0.445866562253E+03    0.56009E-05   -0.93023E-05   867   0.155E-02
   1018 T=   661. E= -.44594779E+03 F= -.44586656E+03 E0= -.44590124E+03  EK= 0.94863E+01 SP= -.96E+01 SK= 0.50E-01
       N       E                     dE             d eps       ncg     rms          rms(c)
DAV:   1    -0.445881994324E+03   -0.15426E-01   -0.18718E-02  1320   0.192E+00    0.139E-01
RMM:   2    -0.445884406988E+03   -0.24127E-02   -0.23045E-02   914   0.234E-01    0.119E-01
RMM:   3    -0.445884797835E+03   -0.39085E-03   -0.43622E-03  1097   0.112E-01    0.151E-01
RMM:   4    -0.445884856743E+03   -0.58908E-04   -0.68158E-04  1089   0.472E-02    0.136E-01
RMM:   5    -0.445884848192E+03    0.85516E-05   -0.79092E-05   797   0.143E-02
   1019 T=   673. E= -.44594902E+03 F= -.44588485E+03 E0= -.44592163E+03  EK= 0.96529E+01 SP= -.98E+01 SK= 0.35E-01
       N       E                     dE             d eps       ncg     rms          rms(c)
DAV:   1    -0.445871294413E+03    0.13562E-01   -0.20292E-02  1316   0.192E+00    0.193E-01
RMM:   2    -0.445873858439E+03   -0.25640E-02   -0.24090E-02   919   0.236E-01    0.120E-01
RMM:   3    -0.445874217486E+03   -0.35905E-03   -0.44081E-03  1098   0.113E-01    0.137E-01
RMM:   4    -0.445874265629E+03   -0.48143E-04   -0.68493E-04  1078   0.465E-02    0.123E-01
RMM:   5    -0.445874255984E+03    0.96454E-05   -0.90545E-05   883   0.147E-02
   1020 T=   681. E= -.44594961E+03 F= -.44587426E+03 E0= -.44591345E+03  EK= 0.97638E+01 SP= -.99E+01 SK= 0.21E-01
       N       E                     dE             d eps       ncg     rms          rms(c)
DAV:   1    -0.445825002397E+03    0.49263E-01   -0.24086E-02  1320   0.193E+00    0.386E-01
RMM:   2    -0.445827730360E+03   -0.27280E-02   -0.26718E-02   921   0.246E-01    0.825E-02
RMM:   3    -0.445828197110E+03   -0.46675E-03   -0.48710E-03  1099   0.117E-01    0.898E-02
RMM:   4    -0.445828143063E+03    0.54047E-04   -0.81941E-04  1048   0.500E-02    0.526E-02
RMM:   5    -0.445828140654E+03    0.24091E-05   -0.12219E-04   922   0.163E-02    0.276E-02
RMM:   6    -0.445828136200E+03    0.44546E-05   -0.14805E-05   481   0.662E-03
   1021 T=   684. E= -.44594997E+03 F= -.44582814E+03 E0= -.44586994E+03  EK= 0.98075E+01 SP= -.99E+01 SK= 0.97E-02
       N       E                     dE             d eps       ncg     rms          rms(c)
DAV:   1    -0.445741539687E+03    0.86601E-01   -0.27883E-02  1304   0.193E+00    0.262E-01
RMM:   2    -0.445744600510E+03   -0.30608E-02   -0.29565E-02   920   0.253E-01    0.740E-02
RMM:   3    -0.445745027677E+03   -0.42717E-03   -0.48017E-03  1096   0.118E-01    0.111E-01
RMM:   4    -0.445745085579E+03   -0.57902E-04   -0.74974E-04  1082   0.492E-02    0.101E-01
RMM:   5    -0.445745090267E+03   -0.46882E-05   -0.86317E-05   812   0.151E-02
   1022 T=   682. E= -.44595011E+03 F= -.44574509E+03 E0= -.44578915E+03  EK= 0.97803E+01 SP= -.10E+02 SK= 0.27E-02
       N       E                     dE             d eps       ncg     rms          rms(c)
DAV:   1    -0.445625463169E+03    0.11962E+00   -0.23703E-02  1304   0.193E+00    0.101E-01
RMM:   2    -0.445628257243E+03   -0.27941E-02   -0.27035E-02   928   0.243E-01    0.218E-01
RMM:   3    -0.445628704216E+03   -0.44697E-03   -0.46481E-03  1096   0.115E-01    0.273E-01
RMM:   4    -0.445628748944E+03   -0.44728E-04   -0.67744E-04  1091   0.468E-02    0.287E-01
RMM:   5    -0.445628763075E+03   -0.14131E-04   -0.13816E-04   965   0.230E-02    0.311E-01
RMM:   6    -0.445628847929E+03   -0.84854E-04   -0.25656E-04   929   0.343E-02    0.396E-01
RMM:   7    -0.445628988649E+03   -0.14072E-03   -0.17052E-04   893   0.251E-02    0.495E-01
RMM:   8    -0.445629147414E+03   -0.15876E-03   -0.11361E-04   892   0.170E-02    0.615E-01
RMM:   9    -0.445629261342E+03   -0.11393E-03   -0.54493E-05   792   0.119E-02    0.687E-01
RMM:  10    -0.445629036380E+03    0.22496E-03   -0.99183E-05   845   0.212E-02    0.548E-01
RMM:  11    -0.445628999246E+03    0.37134E-04   -0.16051E-05   480   0.645E-03    0.520E-01
RMM:  12    -0.445628968609E+03    0.30636E-04   -0.85766E-06   467   0.595E-03    0.491E-01
RMM:  13    -0.445628667291E+03    0.30132E-03   -0.81505E-04  1091   0.511E-02    0.102E-01
RMM:  14    -0.445628657630E+03    0.96611E-05   -0.59421E-05   822   0.120E-02
   1023 T=   675. E= -.44594985E+03 F= -.44562866E+03 E0= -.44567379E+03  EK= 0.96866E+01 SP= -.10E+02 SK= 0.72E-04
       N       E                     dE             d eps       ncg     rms          rms(c)
DAV:   1    -0.445484059390E+03    0.14461E+00   -0.24462E-02  1312   0.191E+00    0.330E-01
RMM:   2    -0.445486772431E+03   -0.27130E-02   -0.28600E-02   923   0.257E-01    0.807E-02
RMM:   3    -0.445487213745E+03   -0.44131E-03   -0.48369E-03  1097   0.116E-01    0.102E-01
RMM:   4    -0.445487261506E+03   -0.47761E-04   -0.62848E-04  1010   0.482E-02    0.756E-02
RMM:   5    -0.445487262856E+03   -0.13504E-05   -0.18615E-04   961   0.227E-02    0.313E-02
RMM:   6    -0.445487257598E+03    0.52579E-05   -0.43217E-05   636   0.112E-02
   1024 T=   665. E= -.44594895E+03 F= -.44548726E+03 E0= -.44553258E+03  EK= 0.95380E+01 SP= -.10E+02 SK= 0.94E-03
       N       E                     dE             d eps       ncg     rms          rms(c)
DAV:   1    -0.445329831711E+03    0.15743E+00   -0.21851E-02  1296   0.189E+00    0.428E-01
RMM:   2    -0.445332413295E+03   -0.25816E-02   -0.26604E-02   913   0.238E-01    0.891E-02
RMM:   3    -0.445332806817E+03   -0.39352E-03   -0.47198E-03  1104   0.118E-01    0.556E-02
RMM:   4    -0.445332857637E+03   -0.50820E-04   -0.75847E-04  1076   0.482E-02    0.453E-02
RMM:   5    -0.445332834718E+03    0.22919E-04   -0.98287E-05   915   0.151E-02    0.211E-02
RMM:   6    -0.445332826779E+03    0.79385E-05   -0.25679E-05   545   0.765E-03
   1025 T=   652. E= -.44594725E+03 F= -.44533283E+03 E0= -.44537895E+03  EK= 0.93516E+01 SP= -.10E+02 SK= 0.40E-02
       N       E                     dE             d eps       ncg     rms          rms(c)
DAV:   1    -0.445178074467E+03    0.15476E+00   -0.28115E-02  1296   0.184E+00    0.202E-01
RMM:   2    -0.445181090377E+03   -0.30159E-02   -0.28603E-02   923   0.247E-01    0.102E-01
RMM:   3    -0.445181528228E+03   -0.43785E-03   -0.46607E-03  1097   0.115E-01    0.141E-01
RMM:   4    -0.445181589718E+03   -0.61490E-04   -0.67482E-04  1085   0.468E-02    0.129E-01
RMM:   5    -0.445181591675E+03   -0.19571E-05   -0.91167E-05   823   0.154E-02
   1026 T=   638. E= -.44594609E+03 F= -.44518159E+03 E0= -.44522911E+03  EK= 0.91484E+01 SP= -.99E+01 SK= 0.78E-02
       N       E                     dE             d eps       ncg     rms          rms(c)
DAV:   1    -0.445045657645E+03    0.13593E+00   -0.21394E-02  1304   0.182E+00    0.145E-01
RMM:   2    -0.445048372503E+03   -0.27149E-02   -0.25776E-02   937   0.235E-01    0.154E-01
RMM:   3    -0.445048745599E+03   -0.37310E-03   -0.43541E-03  1103   0.111E-01    0.180E-01
RMM:   4    -0.445048804366E+03   -0.58768E-04   -0.60360E-04  1087   0.439E-02    0.176E-01
RMM:   5    -0.445048800991E+03    0.33756E-05   -0.80002E-05   831   0.142E-02
   1027 T=   624. E= -.44594515E+03 F= -.44504880E+03 E0= -.44509755E+03  EK= 0.89501E+01 SP= -.99E+01 SK= 0.11E-01
       N       E                     dE             d eps       ncg     rms          rms(c)
DAV:   1    -0.444944340870E+03    0.10446E+00   -0.21595E-02  1296   0.181E+00    0.576E-01
RMM:   2    -0.444946910473E+03   -0.25696E-02   -0.26148E-02   928   0.232E-01    0.185E-01
RMM:   3    -0.444947437329E+03   -0.52686E-03   -0.49450E-03  1103   0.113E-01    0.943E-02
RMM:   4    -0.444947347901E+03    0.89428E-04   -0.78773E-04   991   0.479E-02    0.438E-02
RMM:   5    -0.444947347055E+03    0.84628E-06   -0.15856E-04   985   0.197E-02    0.137E-02
RMM:   6    -0.444947346606E+03    0.44890E-06   -0.18026E-05   504   0.812E-03
   1028 T=   612. E= -.44594458E+03 F= -.44494735E+03 E0= -.44499667E+03  EK= 0.87749E+01 SP= -.98E+01 SK= 0.13E-01
       N       E                     dE             d eps       ncg     rms          rms(c)
DAV:   1    -0.444881988356E+03    0.65359E-01   -0.25607E-02  1272   0.179E+00    0.229E-01
RMM:   2    -0.444884966108E+03   -0.29778E-02   -0.28826E-02   915   0.237E-01    0.180E-01
RMM:   3    -0.444885365952E+03   -0.39984E-03   -0.47135E-03  1100   0.113E-01    0.192E-01
RMM:   4    -0.444885419851E+03   -0.53898E-04   -0.69875E-04  1062   0.460E-02    0.162E-01
RMM:   5    -0.444885432342E+03   -0.12491E-04   -0.63727E-04   778   0.284E-02    0.910E-02
RMM:   6    -0.444885401513E+03    0.30829E-04   -0.85701E-05   861   0.182E-02    0.656E-02
RMM:   7    -0.444885382505E+03    0.19008E-04   -0.35850E-05   696   0.872E-03    0.286E-02
RMM:   8    -0.444885380008E+03    0.24972E-05   -0.41654E-05   729   0.707E-03
   1029 T=   602. E= -.44594462E+03 F= -.44488538E+03 E0= -.44493425E+03  EK= 0.86354E+01 SP= -.97E+01 SK= 0.14E-01
       N       E                     dE             d eps       ncg     rms          rms(c)
DAV:   1    -0.444859850910E+03    0.25532E-01   -0.31574E-02  1280   0.179E+00    0.355E-01
RMM:   2    -0.444862888006E+03   -0.30371E-02   -0.29339E-02   931   0.241E-01    0.654E-02
RMM:   3    -0.444863337095E+03   -0.44909E-03   -0.47708E-03  1101   0.113E-01    0.822E-02
RMM:   4    -0.444863391872E+03   -0.54777E-04   -0.63059E-04  1040   0.457E-02    0.482E-02
RMM:   5    -0.444863401191E+03   -0.93195E-05   -0.13885E-04   918   0.184E-02    0.219E-02
RMM:   6    -0.444863400021E+03    0.11696E-05   -0.10604E-05   479   0.655E-03
   1030 T=   595. E= -.44594462E+03 F= -.44486340E+03 E0= -.44491056E+03  EK= 0.85357E+01 SP= -.96E+01 SK= 0.14E-01
       N       E                     dE             d eps       ncg     rms          rms(c)
DAV:   1    -0.444875526883E+03   -0.12126E-01   -0.32052E-02  1280   0.181E+00    0.270E-01
RMM:   2    -0.444878667630E+03   -0.31407E-02   -0.30593E-02   919   0.246E-01    0.568E-02
RMM:   3    -0.444879120737E+03   -0.45311E-03   -0.49949E-03  1100   0.116E-01    0.108E-01
RMM:   4    -0.444879178994E+03   -0.58257E-04   -0.70904E-04  1078   0.466E-02    0.865E-02
RMM:   5    -0.444879178693E+03    0.30059E-06   -0.89496E-05   841   0.151E-02
   1031 T=   591. E= -.44594510E+03 F= -.44487918E+03 E0= -.44492412E+03  EK= 0.84754E+01 SP= -.96E+01 SK= 0.13E-01
       N       E                     dE             d eps       ncg     rms          rms(c)
DAV:   1    -0.444923505128E+03   -0.44326E-01   -0.22141E-02  1288   0.177E+00    0.195E-01
RMM:   2    -0.444926471381E+03   -0.29663E-02   -0.28945E-02   932   0.232E-01    0.104E-01
RMM:   3    -0.444926871727E+03   -0.40035E-03   -0.45491E-03  1098   0.110E-01    0.137E-01
RMM:   4    -0.444926920960E+03   -0.49232E-04   -0.62194E-04  1080   0.445E-02    0.114E-01
RMM:   5    -0.444926915712E+03    0.52471E-05   -0.93684E-05   843   0.152E-02
   1032 T=   589. E= -.44594539E+03 F= -.44492692E+03 E0= -.44497014E+03  EK= 0.84503E+01 SP= -.95E+01 SK= 0.12E-01
       N       E                     dE             d eps       ncg     rms          rms(c)
DAV:   1    -0.444995198134E+03   -0.68277E-01   -0.29396E-02  1292   0.177E+00    0.402E-01
RMM:   2    -0.444998025727E+03   -0.28276E-02   -0.27898E-02   923   0.234E-01    0.587E-02
RMM:   3    -0.444998445222E+03   -0.41950E-03   -0.45542E-03  1099   0.112E-01    0.711E-02
RMM:   4    -0.444998496515E+03   -0.51293E-04   -0.60566E-04  1079   0.448E-02    0.421E-02
RMM:   5    -0.444998502226E+03   -0.57102E-05   -0.93337E-05   808   0.152E-02
   1033 T=   589. E= -.44594580E+03 F= -.44499850E+03 E0= -.44504059E+03  EK= 0.84525E+01 SP= -.94E+01 SK= 0.11E-01
       N       E                     dE             d eps       ncg     rms          rms(c)
DAV:   1    -0.445081228339E+03   -0.82732E-01   -0.25535E-02  1264   0.175E+00    0.189E-01
RMM:   2    -0.445083907497E+03   -0.26792E-02   -0.26255E-02   921   0.229E-01    0.936E-02
RMM:   3    -0.445084308333E+03   -0.40084E-03   -0.44340E-03  1098   0.109E-01    0.135E-01
RMM:   4    -0.445084363116E+03   -0.54783E-04   -0.60520E-04  1087   0.434E-02    0.131E-01
RMM:   5    -0.445084370268E+03   -0.71524E-05   -0.64600E-05   751   0.129E-02
   1034 T=   590. E= -.44594605E+03 F= -.44508437E+03 E0= -.44512525E+03  EK= 0.84723E+01 SP= -.93E+01 SK= 0.10E-01
       N       E                     dE             d eps       ncg     rms          rms(c)
DAV:   1    -0.445170459459E+03   -0.86096E-01   -0.22927E-02  1264   0.177E+00    0.972E-02
RMM:   2    -0.445173032711E+03   -0.25733E-02   -0.24917E-02   921   0.222E-01    0.177E-01
RMM:   3    -0.445173428541E+03   -0.39583E-03   -0.42000E-03  1096   0.106E-01    0.221E-01
RMM:   4    -0.445173487356E+03   -0.58815E-04   -0.58821E-04  1091   0.425E-02    0.241E-01
RMM:   5    -0.445173499163E+03   -0.11807E-04   -0.70009E-05   756   0.141E-02    0.269E-01
RMM:   6    -0.445173597189E+03   -0.98026E-04   -0.10240E-03   983   0.609E-02    0.275E-01
RMM:   7    -0.445173640606E+03   -0.43417E-04   -0.17486E-04   958   0.156E-02    0.370E-01
RMM:   8    -0.445173594096E+03    0.46510E-04   -0.19561E-05   508   0.964E-03    0.324E-01
RMM:   9    -0.445173583097E+03    0.10998E-04   -0.37433E-06   472   0.400E-03    0.313E-01
RMM:  10    -0.445173463248E+03    0.11985E-03   -0.28614E-04  1036   0.309E-02    0.109E-01
RMM:  11    -0.445173454478E+03    0.87698E-05   -0.31025E-05   577   0.109E-02
   1035 T=   592. E= -.44594603E+03 F= -.44517345E+03 E0= -.44521312E+03  EK= 0.84984E+01 SP= -.93E+01 SK= 0.92E-02
       N       E                     dE             d eps       ncg     rms          rms(c)
DAV:   1    -0.445252338553E+03   -0.78875E-01   -0.28914E-02  1296   0.178E+00    0.705E-01
RMM:   2    -0.445255218170E+03   -0.28796E-02   -0.31567E-02   928   0.238E-01    0.237E-01
RMM:   3    -0.445255647307E+03   -0.42914E-03   -0.49713E-03  1097   0.115E-01    0.564E-02
RMM:   4    -0.445255688183E+03   -0.40876E-04   -0.66188E-04  1016   0.470E-02    0.253E-02
RMM:   5    -0.445255694671E+03   -0.64881E-05   -0.13975E-04   985   0.186E-02    0.152E-02
RMM:   6    -0.445255693797E+03    0.87473E-06   -0.12582E-05   482   0.666E-03
   1036 T=   594. E= -.44594636E+03 F= -.44525569E+03 E0= -.44529425E+03  EK= 0.85193E+01 SP= -.92E+01 SK= 0.86E-02
