  55  55   0   0
  0.2301251E+02  0.1218282E-08  0.7661564E-09  0.1373046E-08  0.0000000E+00
   1.0000000000000000E-004
  CAR 
 NEB_refined                             
      9.30572103    -23.65811018  301      1.29160918      1.00000000
    -23.658  0.0000E+00  0.0000E+00
    -23.548  0.0000E+00  0.0000E+00
    -23.438  0.0000E+00  0.0000E+00
    -23.328 -0.4366E-31 -0.4798E-32
    -23.219 -0.2929E-27 -0.3218E-28
    -23.109 -0.1067E-23 -0.1173E-24
    -22.999 -0.2117E-20 -0.2327E-21
    -22.889 -0.2286E-17 -0.2514E-18
    -22.779 -0.1304E-14 -0.1435E-15
    -22.669 -0.4142E-12 -0.4566E-13
    -22.559 -0.7173E-10 -0.7927E-11
    -22.449 -0.6774E-08 -0.7523E-09
    -22.340 -0.3499E-06 -0.3920E-07
    -22.230 -0.9918E-05 -0.1129E-05
    -22.120 -0.1543E-03 -0.1809E-04
    -22.010 -0.1300E-02 -0.1609E-03
    -21.900 -0.5563E-02 -0.7722E-03
    -21.790 -0.8607E-02 -0.1718E-02
    -21.680  0.1892E-01  0.3606E-03
    -21.570  0.1223E+00  0.1380E-01
    -21.461  0.3211E+00  0.4909E-01
    -21.351  0.5500E+00  0.1095E+00
    -21.241  0.6434E+00  0.1802E+00
    -21.131  0.5231E+00  0.2377E+00
    -21.021  0.2844E+00  0.2689E+00
    -20.911  0.8234E-01  0.2780E+00
    -20.801 -0.2766E-02  0.2777E+00
    -20.691 -0.1097E-01  0.2765E+00
    -20.581 -0.3695E-02  0.2761E+00
    -20.472 -0.5805E-03  0.2760E+00
    -20.362 -0.4795E-04  0.2760E+00
    -20.252 -0.2135E-05  0.2760E+00
    -20.142 -0.5158E-07  0.2760E+00
    -20.032 -0.6771E-09  0.2760E+00
    -19.922 -0.4832E-11  0.2760E+00
    -19.812 -0.1875E-13  0.2760E+00
    -19.702 -0.4042E-16  0.2760E+00
    -19.593  0.0000E+00  0.2760E+00
    -19.483  0.0000E+00  0.2760E+00
    -19.373  0.0000E+00  0.2760E+00
    -19.263  0.0000E+00  0.2760E+00
    -19.153  0.0000E+00  0.2760E+00
    -19.043  0.0000E+00  0.2760E+00
    -18.933  0.0000E+00  0.2760E+00
    -18.823  0.0000E+00  0.2760E+00
    -18.714  0.0000E+00  0.2760E+00
    -18.604  0.0000E+00  0.2760E+00
    -18.494  0.0000E+00  0.2760E+00
    -18.384  0.0000E+00  0.2760E+00
    -18.274  0.0000E+00  0.2760E+00
    -18.164  0.0000E+00  0.2760E+00
    -18.054  0.0000E+00  0.2760E+00
    -17.944  0.0000E+00  0.2760E+00
    -17.834  0.0000E+00  0.2760E+00
    -17.725  0.0000E+00  0.2760E+00
    -17.615  0.0000E+00  0.2760E+00
    -17.505  0.0000E+00  0.2760E+00
    -17.395  0.0000E+00  0.2760E+00
    -17.285  0.0000E+00  0.2760E+00
    -17.175  0.0000E+00  0.2760E+00
    -17.065  0.0000E+00  0.2760E+00
    -16.955  0.0000E+00  0.2760E+00
    -16.846  0.0000E+00  0.2760E+00
    -16.736  0.0000E+00  0.2760E+00
    -16.626  0.0000E+00  0.2760E+00
    -16.516  0.0000E+00  0.2760E+00
    -16.406  0.0000E+00  0.2760E+00
    -16.296  0.0000E+00  0.2760E+00
    -16.186  0.0000E+00  0.2760E+00
    -16.076  0.0000E+00  0.2760E+00
    -15.967  0.0000E+00  0.2760E+00
    -15.857  0.0000E+00  0.2760E+00
    -15.747  0.0000E+00  0.2760E+00
    -15.637  0.0000E+00  0.2760E+00
    -15.527  0.0000E+00  0.2760E+00
    -15.417  0.0000E+00  0.2760E+00
    -15.307  0.0000E+00  0.2760E+00
    -15.197  0.0000E+00  0.2760E+00
    -15.088  0.0000E+00  0.2760E+00
    -14.978  0.0000E+00  0.2760E+00
    -14.868  0.0000E+00  0.2760E+00
    -14.758  0.0000E+00  0.2760E+00
    -14.648  0.0000E+00  0.2760E+00
    -14.538  0.0000E+00  0.2760E+00
    -14.428  0.0000E+00  0.2760E+00
    -14.318  0.0000E+00  0.2760E+00
    -14.208  0.0000E+00  0.2760E+00
    -14.099  0.0000E+00  0.2760E+00
    -13.989  0.0000E+00  0.2760E+00
    -13.879  0.0000E+00  0.2760E+00
    -13.769  0.0000E+00  0.2760E+00
    -13.659  0.0000E+00  0.2760E+00
    -13.549  0.0000E+00  0.2760E+00
    -13.439  0.0000E+00  0.2760E+00
    -13.329  0.0000E+00  0.2760E+00
    -13.220  0.0000E+00  0.2760E+00
    -13.110  0.0000E+00  0.2760E+00
    -13.000  0.0000E+00  0.2760E+00
    -12.890  0.0000E+00  0.2760E+00
    -12.780  0.0000E+00  0.2760E+00
    -12.670  0.0000E+00  0.2760E+00
    -12.560 -0.5870E-31  0.2760E+00
    -12.450 -0.3853E-27  0.2760E+00
    -12.341 -0.1375E-23  0.2760E+00
    -12.231 -0.2669E-20  0.2760E+00
    -12.121 -0.2817E-17  0.2760E+00
    -12.011 -0.1565E-14  0.2760E+00
    -11.901 -0.4834E-12  0.2760E+00
    -11.791 -0.8081E-10  0.2760E+00
    -11.681 -0.7287E-08  0.2760E+00
    -11.571 -0.3530E-06  0.2760E+00
    -11.461 -0.9110E-05  0.2760E+00
    -11.352 -0.1229E-03  0.2760E+00
    -11.242 -0.8216E-03  0.2759E+00
    -11.132 -0.2181E-02  0.2757E+00
    -11.022  0.2009E-02  0.2759E+00
    -10.912  0.2413E-01  0.2785E+00
    -10.802  0.5302E-01  0.2844E+00
    -10.692  0.5118E-01  0.2900E+00
    -10.582  0.2086E-01  0.2923E+00
    -10.473  0.3776E-03  0.2923E+00
    -10.363 -0.2948E-02  0.2920E+00
    -10.253 -0.2766E-02  0.2917E+00
    -10.143  0.6734E-03  0.2918E+00
    -10.033  0.1853E-01  0.2938E+00
     -9.923  0.4948E-01  0.2992E+00
     -9.813  0.7549E-01  0.3075E+00
     -9.703  0.8499E-01  0.3169E+00
     -9.594  0.8646E-01  0.3264E+00
     -9.484  0.1052E+00  0.3379E+00
     -9.374  0.1317E+00  0.3524E+00
     -9.264  0.1182E+00  0.3654E+00
     -9.154  0.5901E-01  0.3719E+00
     -9.044  0.8675E-02  0.3728E+00
     -8.934 -0.4713E-02  0.3723E+00
     -8.824 -0.2281E-02  0.3720E+00
     -8.715 -0.3899E-03  0.3720E+00
     -8.605 -0.3197E-04  0.3720E+00
     -8.495 -0.1350E-05  0.3720E+00
     -8.385 -0.3012E-07  0.3720E+00
     -8.275 -0.3599E-09  0.3720E+00
     -8.165 -0.2317E-11  0.3720E+00
     -8.055 -0.8075E-14  0.3720E+00
     -7.945 -0.1617E-16  0.3720E+00
     -7.835  0.0000E+00  0.3720E+00
     -7.726  0.0000E+00  0.3720E+00
     -7.616  0.0000E+00  0.3720E+00
     -7.506  0.0000E+00  0.3720E+00
     -7.396  0.0000E+00  0.3720E+00
     -7.286  0.0000E+00  0.3720E+00
     -7.176  0.0000E+00  0.3720E+00
     -7.066  0.0000E+00  0.3720E+00
     -6.956  0.0000E+00  0.3720E+00
     -6.847  0.0000E+00  0.3720E+00
     -6.737  0.0000E+00  0.3720E+00
     -6.627  0.0000E+00  0.3720E+00
     -6.517  0.0000E+00  0.3720E+00
     -6.407  0.0000E+00  0.3720E+00
     -6.297  0.0000E+00  0.3720E+00
     -6.187  0.0000E+00  0.3720E+00
     -6.077  0.0000E+00  0.3720E+00
     -5.968  0.0000E+00  0.3720E+00
     -5.858  0.0000E+00  0.3720E+00
     -5.748  0.0000E+00  0.3720E+00
     -5.638  0.0000E+00  0.3720E+00
     -5.528  0.0000E+00  0.3720E+00
     -5.418  0.0000E+00  0.3720E+00
     -5.308  0.0000E+00  0.3720E+00
     -5.198  0.0000E+00  0.3720E+00
     -5.088  0.0000E+00  0.3720E+00
     -4.979  0.0000E+00  0.3720E+00
     -4.869 -0.1130E-31  0.3720E+00
     -4.759 -0.8485E-28  0.3720E+00
     -4.649 -0.3400E-24  0.3720E+00
     -4.539 -0.7423E-21  0.3720E+00
     -4.429 -0.8828E-18  0.3720E+00
     -4.319 -0.5532E-15  0.3720E+00
     -4.209 -0.1938E-12  0.3720E+00
     -4.100 -0.3672E-10  0.3720E+00
     -3.990 -0.3759E-08  0.3720E+00
     -3.880 -0.2068E-06  0.3720E+00
     -3.770 -0.6048E-05  0.3720E+00
     -3.660 -0.9223E-04  0.3720E+00
     -3.550 -0.6994E-03  0.3719E+00
     -3.440 -0.2258E-02  0.3717E+00
     -3.330 -0.1700E-03  0.3716E+00
     -3.221  0.1779E-01  0.3736E+00
     -3.111  0.5323E-01  0.3794E+00
     -3.001  0.8569E-01  0.3889E+00
     -2.891  0.8560E-01  0.3983E+00
     -2.781  0.4740E-01  0.4035E+00
     -2.671  0.9669E-02  0.4045E+00
     -2.561 -0.2661E-02  0.4042E+00
     -2.451 -0.1837E-02  0.4040E+00
     -2.341 -0.4153E-03  0.4040E+00
     -2.232 -0.3048E-03  0.4040E+00
     -2.122 -0.1331E-02  0.4038E+00
     -2.012 -0.2124E-02  0.4036E+00
     -1.902  0.6350E-02  0.4043E+00
     -1.792  0.3282E-01  0.4079E+00
     -1.682  0.6075E-01  0.4146E+00
     -1.572  0.6905E-01  0.4222E+00
     -1.462  0.6945E-01  0.4298E+00
     -1.353  0.7157E-01  0.4377E+00
     -1.243  0.6233E-01  0.4445E+00
     -1.133  0.4490E-01  0.4494E+00
     -1.023  0.4074E-01  0.4539E+00
     -0.913  0.5190E-01  0.4596E+00
     -0.803  0.5592E-01  0.4658E+00
     -0.693  0.4220E-01  0.4704E+00
     -0.583  0.3911E-01  0.4747E+00
     -0.474  0.7437E-01  0.4829E+00
     -0.364  0.1239E+00  0.4965E+00
     -0.254  0.1381E+00  0.5116E+00
     -0.144  0.1089E+00  0.5236E+00
     -0.034  0.7456E-01  0.5318E+00
      0.076  0.6904E-01  0.5394E+00
      0.186  0.8548E-01  0.5488E+00
      0.296  0.8572E-01  0.5582E+00
      0.405  0.6849E-01  0.5657E+00
      0.515  0.7197E-01  0.5736E+00
      0.625  0.1088E+00  0.5856E+00
      0.735  0.1459E+00  0.6016E+00
      0.845  0.1498E+00  0.6181E+00
      0.955  0.1273E+00  0.6321E+00
      1.065  0.9742E-01  0.6428E+00
      1.175  0.7743E-01  0.6513E+00
      1.285  0.5848E-01  0.6577E+00
      1.394  0.2426E-01  0.6604E+00
      1.504  0.4482E-03  0.6604E+00
      1.614 -0.2849E-02  0.6601E+00
      1.724 -0.8672E-03  0.6600E+00
      1.834 -0.1092E-03  0.6600E+00
      1.944 -0.6808E-05  0.6600E+00
      2.054 -0.2218E-06  0.6600E+00
      2.164 -0.3859E-08  0.6600E+00
      2.273 -0.3621E-10  0.6600E+00
      2.383 -0.1842E-12  0.6600E+00
      2.493 -0.5092E-15  0.6600E+00
      2.603 -0.1760E-29  0.6600E+00
      2.713 -0.9152E-26  0.6600E+00
      2.823 -0.2589E-22  0.6600E+00
      2.933 -0.3980E-19  0.6600E+00
      3.043 -0.3320E-16  0.6600E+00
      3.152 -0.1450E-13  0.6600E+00
      3.262 -0.3514E-11  0.6600E+00
      3.372 -0.4573E-09  0.6600E+00
      3.482 -0.3173E-07  0.6600E+00
      3.592 -0.1159E-05  0.6600E+00
      3.702 -0.2173E-04  0.6600E+00
      3.812 -0.1980E-03  0.6600E+00
      3.922 -0.7312E-03  0.6599E+00
      4.032  0.1023E-03  0.6599E+00
      4.141  0.6970E-02  0.6607E+00
      4.251  0.1560E-01  0.6624E+00
      4.361  0.1275E-01  0.6638E+00
      4.471  0.3224E-02  0.6641E+00
      4.581 -0.7121E-03  0.6641E+00
      4.691 -0.4854E-03  0.6640E+00
      4.801 -0.1031E-03  0.6640E+00
      4.911 -0.2081E-03  0.6640E+00
      5.020 -0.1131E-02  0.6639E+00
      5.130 -0.2125E-02  0.6636E+00
      5.240  0.4872E-02  0.6642E+00
      5.350  0.2887E-01  0.6673E+00
      5.460  0.5516E-01  0.6734E+00
      5.570  0.5745E-01  0.6797E+00
      5.680  0.4306E-01  0.6844E+00
      5.790  0.4288E-01  0.6891E+00
      5.899  0.4858E-01  0.6945E+00
      6.009  0.4260E-01  0.6992E+00
      6.119  0.4843E-01  0.7045E+00
      6.229  0.6727E-01  0.7119E+00
      6.339  0.6862E-01  0.7194E+00
      6.449  0.5749E-01  0.7257E+00
      6.559  0.5917E-01  0.7322E+00
      6.669  0.6899E-01  0.7398E+00
      6.778  0.6833E-01  0.7473E+00
      6.888  0.7020E-01  0.7550E+00
      6.998  0.9287E-01  0.7652E+00
      7.108  0.1068E+00  0.7770E+00
      7.218  0.8172E-01  0.7860E+00
      7.328  0.4254E-01  0.7906E+00
      7.438  0.1442E-01  0.7922E+00
      7.548  0.6252E-03  0.7923E+00
      7.658 -0.1796E-02  0.7921E+00
      7.767 -0.6785E-03  0.7920E+00
      7.877 -0.1041E-03  0.7920E+00
      7.987 -0.7824E-05  0.7920E+00
      8.097 -0.3036E-06  0.7920E+00
      8.207 -0.6225E-08  0.7920E+00
      8.317 -0.6821E-10  0.7920E+00
      8.427 -0.4020E-12  0.7920E+00
      8.537 -0.1285E-14  0.7920E+00
      8.646  0.0000E+00  0.7920E+00
      8.756  0.0000E+00  0.7920E+00
      8.866  0.0000E+00  0.7920E+00
      8.976  0.0000E+00  0.7920E+00
      9.086  0.0000E+00  0.7920E+00
      9.196  0.0000E+00  0.7920E+00
      9.306  0.0000E+00  0.7920E+00
