  55  55   0   0
  0.2301251E+02  0.1218282E-08  0.7661564E-09  0.1373046E-08  0.0000000E+00
   1.0000000000000000E-004
  CAR 
 NEB                                     
      9.37347428    -23.51033598  301      1.28190801      1.00000000
    -23.510  0.0000E+00  0.0000E+00
    -23.401  0.0000E+00  0.0000E+00
    -23.291  0.0000E+00  0.0000E+00
    -23.181 -0.2098E-30 -0.2299E-31
    -23.072 -0.1537E-26 -0.1684E-27
    -22.962 -0.5924E-23 -0.6495E-24
    -22.853 -0.1252E-19 -0.1373E-20
    -22.743 -0.1449E-16 -0.1589E-17
    -22.633 -0.8916E-14 -0.9789E-15
    -22.524 -0.3068E-11 -0.3372E-12
    -22.414 -0.5763E-09 -0.6351E-10
    -22.305 -0.5885E-07 -0.6514E-08
    -22.195 -0.3248E-05 -0.3626E-06
    -22.085 -0.9596E-04 -0.1088E-04
    -21.976 -0.1486E-02 -0.1737E-03
    -21.866 -0.1146E-01 -0.1430E-02
    -21.757 -0.3719E-01 -0.5506E-02
    -21.647  0.3509E-02 -0.5122E-02
    -21.537  0.3201E+00  0.2997E-01
    -21.428  0.8438E+00  0.1225E+00
    -21.318  0.1127E+01  0.2460E+00
    -21.208  0.1005E+01  0.3562E+00
    -21.099  0.6235E+00  0.4245E+00
    -20.989  0.2445E+00  0.4513E+00
    -20.880  0.6976E-01  0.4590E+00
    -20.770  0.1880E-01  0.4610E+00
    -20.660 -0.2820E-02  0.4607E+00
    -20.551 -0.4939E-02  0.4602E+00
    -20.441 -0.1489E-02  0.4600E+00
    -20.332 -0.1923E-03  0.4600E+00
    -20.222 -0.1220E-04  0.4600E+00
    -20.112 -0.4007E-06  0.4600E+00
    -20.003 -0.6970E-08  0.4600E+00
    -19.893 -0.6508E-10  0.4600E+00
    -19.784 -0.3286E-12  0.4600E+00
    -19.674 -0.9048E-15  0.4600E+00
    -19.564  0.0000E+00  0.4600E+00
    -19.455  0.0000E+00  0.4600E+00
    -19.345  0.0000E+00  0.4600E+00
    -19.235  0.0000E+00  0.4600E+00
    -19.126  0.0000E+00  0.4600E+00
    -19.016  0.0000E+00  0.4600E+00
    -18.907  0.0000E+00  0.4600E+00
    -18.797  0.0000E+00  0.4600E+00
    -18.687  0.0000E+00  0.4600E+00
    -18.578  0.0000E+00  0.4600E+00
    -18.468  0.0000E+00  0.4600E+00
    -18.359  0.0000E+00  0.4600E+00
    -18.249  0.0000E+00  0.4600E+00
    -18.139  0.0000E+00  0.4600E+00
    -18.030  0.0000E+00  0.4600E+00
    -17.920  0.0000E+00  0.4600E+00
    -17.810  0.0000E+00  0.4600E+00
    -17.701  0.0000E+00  0.4600E+00
    -17.591  0.0000E+00  0.4600E+00
    -17.482  0.0000E+00  0.4600E+00
    -17.372  0.0000E+00  0.4600E+00
    -17.262  0.0000E+00  0.4600E+00
    -17.153  0.0000E+00  0.4600E+00
    -17.043  0.0000E+00  0.4600E+00
    -16.934  0.0000E+00  0.4600E+00
    -16.824  0.0000E+00  0.4600E+00
    -16.714  0.0000E+00  0.4600E+00
    -16.605  0.0000E+00  0.4600E+00
    -16.495  0.0000E+00  0.4600E+00
    -16.386  0.0000E+00  0.4600E+00
    -16.276  0.0000E+00  0.4600E+00
    -16.166  0.0000E+00  0.4600E+00
    -16.057  0.0000E+00  0.4600E+00
    -15.947  0.0000E+00  0.4600E+00
    -15.837  0.0000E+00  0.4600E+00
    -15.728  0.0000E+00  0.4600E+00
    -15.618  0.0000E+00  0.4600E+00
    -15.509  0.0000E+00  0.4600E+00
    -15.399  0.0000E+00  0.4600E+00
    -15.289  0.0000E+00  0.4600E+00
    -15.180  0.0000E+00  0.4600E+00
    -15.070  0.0000E+00  0.4600E+00
    -14.961  0.0000E+00  0.4600E+00
    -14.851  0.0000E+00  0.4600E+00
    -14.741  0.0000E+00  0.4600E+00
    -14.632  0.0000E+00  0.4600E+00
    -14.522  0.0000E+00  0.4600E+00
    -14.412  0.0000E+00  0.4600E+00
    -14.303  0.0000E+00  0.4600E+00
    -14.193  0.0000E+00  0.4600E+00
    -14.084  0.0000E+00  0.4600E+00
    -13.974  0.0000E+00  0.4600E+00
    -13.864  0.0000E+00  0.4600E+00
    -13.755  0.0000E+00  0.4600E+00
    -13.645  0.0000E+00  0.4600E+00
    -13.536  0.0000E+00  0.4600E+00
    -13.426  0.0000E+00  0.4600E+00
    -13.316  0.0000E+00  0.4600E+00
    -13.207  0.0000E+00  0.4600E+00
    -13.097  0.0000E+00  0.4600E+00
    -12.988  0.0000E+00  0.4600E+00
    -12.878  0.0000E+00  0.4600E+00
    -12.768  0.0000E+00  0.4600E+00
    -12.659  0.0000E+00  0.4600E+00
    -12.549 -0.5793E-30  0.4600E+00
    -12.439 -0.3298E-26  0.4600E+00
    -12.330 -0.1025E-22  0.4600E+00
    -12.220 -0.1735E-19  0.4600E+00
    -12.111 -0.1600E-16  0.4600E+00
    -12.001 -0.7759E-14  0.4600E+00
    -11.891 -0.2095E-11  0.4600E+00
    -11.782 -0.3051E-09  0.4600E+00
    -11.672 -0.2383E-07  0.4600E+00
    -11.563 -0.9886E-06  0.4600E+00
    -11.453 -0.2144E-04  0.4600E+00
    -11.343 -0.2351E-03  0.4600E+00
    -11.234 -0.1199E-02  0.4598E+00
    -11.124 -0.1935E-02  0.4596E+00
    -11.014  0.5094E-02  0.4602E+00
    -10.905  0.2776E-01  0.4632E+00
    -10.795  0.5978E-01  0.4698E+00
    -10.686  0.7861E-01  0.4784E+00
    -10.576  0.5947E-01  0.4849E+00
    -10.466  0.1979E-01  0.4871E+00
    -10.357 -0.2241E-02  0.4868E+00
    -10.247 -0.4419E-02  0.4864E+00
    -10.138  0.4675E-02  0.4869E+00
    -10.028  0.2611E-01  0.4897E+00
     -9.918  0.6289E-01  0.4966E+00
     -9.809  0.1179E+00  0.5095E+00
     -9.699  0.1595E+00  0.5270E+00
     -9.590  0.1593E+00  0.5445E+00
     -9.480  0.1619E+00  0.5622E+00
     -9.370  0.1907E+00  0.5831E+00
     -9.261  0.1871E+00  0.6036E+00
     -9.151  0.1197E+00  0.6168E+00
     -9.041  0.3805E-01  0.6209E+00
     -8.932 -0.1657E-02  0.6207E+00
     -8.822 -0.5109E-02  0.6202E+00
     -8.713 -0.1486E-02  0.6200E+00
     -8.603 -0.1900E-03  0.6200E+00
     -8.493 -0.1221E-04  0.6200E+00
     -8.384 -0.4113E-06  0.6200E+00
     -8.274 -0.7379E-08  0.6200E+00
     -8.165 -0.7118E-10  0.6200E+00
     -8.055 -0.3710E-12  0.6200E+00
     -7.945 -0.1040E-14  0.6200E+00
     -7.836  0.0000E+00  0.6200E+00
     -7.726  0.0000E+00  0.6200E+00
     -7.616  0.0000E+00  0.6200E+00
     -7.507  0.0000E+00  0.6200E+00
     -7.397  0.0000E+00  0.6200E+00
     -7.288  0.0000E+00  0.6200E+00
     -7.178  0.0000E+00  0.6200E+00
     -7.068  0.0000E+00  0.6200E+00
     -6.959  0.0000E+00  0.6200E+00
     -6.849  0.0000E+00  0.6200E+00
     -6.740  0.0000E+00  0.6200E+00
     -6.630  0.0000E+00  0.6200E+00
     -6.520  0.0000E+00  0.6200E+00
     -6.411  0.0000E+00  0.6200E+00
     -6.301  0.0000E+00  0.6200E+00
     -6.192  0.0000E+00  0.6200E+00
     -6.082  0.0000E+00  0.6200E+00
     -5.972  0.0000E+00  0.6200E+00
     -5.863  0.0000E+00  0.6200E+00
     -5.753  0.0000E+00  0.6200E+00
     -5.643  0.0000E+00  0.6200E+00
     -5.534  0.0000E+00  0.6200E+00
     -5.424  0.0000E+00  0.6200E+00
     -5.315  0.0000E+00  0.6200E+00
     -5.205  0.0000E+00  0.6200E+00
     -5.095  0.0000E+00  0.6200E+00
     -4.986  0.0000E+00  0.6200E+00
     -4.876 -0.7885E-31  0.6200E+00
     -4.767 -0.5175E-27  0.6200E+00
     -4.657 -0.1844E-23  0.6200E+00
     -4.547 -0.3588E-20  0.6200E+00
     -4.438 -0.3809E-17  0.6200E+00
     -4.328 -0.2134E-14  0.6200E+00
     -4.219 -0.6686E-12  0.6200E+00
     -4.109 -0.1135E-09  0.6200E+00
     -3.999 -0.1042E-07  0.6200E+00
     -3.890 -0.5140E-06  0.6200E+00
     -3.780 -0.1346E-04  0.6200E+00
     -3.670 -0.1830E-03  0.6200E+00
     -3.561 -0.1218E-02  0.6198E+00
     -3.451 -0.3244E-02  0.6195E+00
     -3.342  0.1810E-02  0.6197E+00
     -3.232  0.2919E-01  0.6229E+00
     -3.122  0.7621E-01  0.6312E+00
     -3.013  0.1216E+00  0.6446E+00
     -2.903  0.1345E+00  0.6593E+00
     -2.794  0.9470E-01  0.6697E+00
     -2.684  0.3597E-01  0.6736E+00
     -2.574  0.2548E-02  0.6739E+00
     -2.465 -0.3570E-02  0.6735E+00
     -2.355 -0.1494E-02  0.6734E+00
     -2.245 -0.6270E-03  0.6733E+00
     -2.136 -0.1829E-02  0.6731E+00
     -2.026 -0.2703E-02  0.6728E+00
     -1.917  0.8004E-02  0.6737E+00
     -1.807  0.4254E-01  0.6783E+00
     -1.697  0.8753E-01  0.6879E+00
     -1.588  0.1112E+00  0.7001E+00
     -1.478  0.1115E+00  0.7123E+00
     -1.369  0.1131E+00  0.7247E+00
     -1.259  0.1131E+00  0.7371E+00
     -1.149  0.9482E-01  0.7475E+00
     -1.040  0.7673E-01  0.7559E+00
     -0.930  0.7885E-01  0.7646E+00
     -0.821  0.8495E-01  0.7739E+00
     -0.711  0.7389E-01  0.7820E+00
     -0.601  0.6444E-01  0.7891E+00
     -0.492  0.1025E+00  0.8003E+00
     -0.382  0.1761E+00  0.8196E+00
     -0.272  0.2173E+00  0.8434E+00
     -0.163  0.2033E+00  0.8657E+00
     -0.053  0.1606E+00  0.8833E+00
      0.056  0.1317E+00  0.8977E+00
      0.166  0.1315E+00  0.9121E+00
      0.276  0.1254E+00  0.9259E+00
      0.385  0.1080E+00  0.9377E+00
      0.495  0.1079E+00  0.9495E+00
      0.604  0.1540E+00  0.9664E+00
      0.714  0.2120E+00  0.9897E+00
      0.824  0.2303E+00  0.1015E+01
      0.933  0.2205E+00  0.1039E+01
      1.043  0.2069E+00  0.1062E+01
      1.153  0.1818E+00  0.1082E+01
      1.262  0.1228E+00  0.1095E+01
      1.372  0.4810E-01  0.1100E+01
      1.481  0.3469E-02  0.1101E+01
      1.591 -0.4957E-02  0.1100E+01
      1.701 -0.1999E-02  0.1100E+01
      1.810 -0.3284E-03  0.1100E+01
      1.920 -0.2693E-04  0.1100E+01
      2.029 -0.1159E-05  0.1100E+01
      2.139 -0.2668E-07  0.1100E+01
      2.249 -0.3310E-09  0.1100E+01
      2.358 -0.2224E-11  0.1100E+01
      2.468 -0.8103E-14  0.1100E+01
      2.577 -0.1350E-16  0.1100E+01
      2.687 -0.4193E-25  0.1100E+01
      2.797 -0.1081E-21  0.1100E+01
      2.906 -0.1518E-18  0.1100E+01
      3.016 -0.1126E-15  0.1100E+01
      3.126 -0.4649E-13  0.1100E+01
      3.235 -0.1038E-10  0.1100E+01
      3.345 -0.1246E-08  0.1100E+01
      3.454 -0.7996E-07  0.1100E+01
      3.564 -0.2704E-05  0.1100E+01
      3.674 -0.4694E-04  0.1100E+01
      3.783 -0.3935E-03  0.1100E+01
      3.893 -0.1292E-02  0.1100E+01
      4.002  0.7262E-03  0.1100E+01
      4.112  0.1317E-01  0.1101E+01
      4.222  0.2656E-01  0.1104E+01
      4.331  0.1991E-01  0.1106E+01
      4.441  0.4335E-02  0.1107E+01
      4.551 -0.1287E-02  0.1107E+01
      4.660 -0.7303E-03  0.1107E+01
      4.770 -0.1635E-03  0.1107E+01
      4.879 -0.4432E-03  0.1107E+01
      4.989 -0.2084E-02  0.1106E+01
      5.099 -0.2889E-02  0.1106E+01
      5.208  0.1111E-01  0.1107E+01
      5.318  0.5027E-01  0.1113E+01
      5.427  0.8690E-01  0.1122E+01
      5.537  0.9395E-01  0.1133E+01
      5.647  0.9509E-01  0.1143E+01
      5.756  0.9981E-01  0.1154E+01
      5.866  0.8804E-01  0.1164E+01
      5.975  0.7416E-01  0.1172E+01
      6.085  0.7447E-01  0.1180E+01
      6.195  0.9009E-01  0.1190E+01
      6.304  0.1115E+00  0.1202E+01
      6.414  0.1325E+00  0.1217E+01
      6.524  0.1400E+00  0.1232E+01
      6.633  0.1145E+00  0.1244E+01
      6.743  0.8964E-01  0.1254E+01
      6.852  0.8825E-01  0.1264E+01
      6.962  0.8036E-01  0.1273E+01
      7.072  0.8138E-01  0.1282E+01
      7.181  0.1018E+00  0.1293E+01
      7.291  0.1089E+00  0.1305E+01
      7.400  0.9235E-01  0.1315E+01
      7.510  0.4710E-01  0.1320E+01
      7.620  0.5992E-02  0.1321E+01
      7.729 -0.4301E-02  0.1320E+01
      7.839 -0.1792E-02  0.1320E+01
      7.949 -0.2699E-03  0.1320E+01
      8.058 -0.1941E-04  0.1320E+01
      8.168 -0.7168E-06  0.1320E+01
      8.277 -0.1400E-07  0.1320E+01
      8.387 -0.1466E-09  0.1320E+01
      8.497 -0.8305E-12  0.1320E+01
      8.606 -0.2566E-14  0.1320E+01
      8.716  0.0000E+00  0.1320E+01
      8.825  0.0000E+00  0.1320E+01
      8.935  0.0000E+00  0.1320E+01
      9.045  0.0000E+00  0.1320E+01
      9.154  0.0000E+00  0.1320E+01
      9.264  0.0000E+00  0.1320E+01
      9.373  0.0000E+00  0.1320E+01
