       N       E                     dE             d eps       ncg     rms          rms(c)
DAV:   1     0.294947626320E+04    0.29495E+04   -0.13331E+05   432   0.137E+03
DAV:   2     0.177598016122E+03   -0.27719E+04   -0.26675E+04   444   0.380E+02
DAV:   3    -0.212914179308E+03   -0.39051E+03   -0.38705E+03   474   0.156E+02
DAV:   4    -0.233655907635E+03   -0.20742E+02   -0.20636E+02   468   0.350E+01
DAV:   5    -0.234539500524E+03   -0.88359E+00   -0.88248E+00   540   0.743E+00    0.249E+01
RMM:   6    -0.223131694417E+03    0.11408E+02   -0.20341E+01   421   0.595E+00    0.165E+01
RMM:   7    -0.222499803504E+03    0.63189E+00   -0.25357E+01   429   0.570E+00    0.949E+00
RMM:   8    -0.222306453276E+03    0.19335E+00   -0.19989E+00   509   0.289E+00    0.602E+00
RMM:   9    -0.222189601528E+03    0.11685E+00   -0.19661E+00   406   0.202E+00    0.255E+00
RMM:  10    -0.222099193209E+03    0.90408E-01   -0.13915E-01   469   0.101E+00    0.143E+00
RMM:  11    -0.222086020767E+03    0.13172E-01   -0.53840E-02   489   0.430E-01    0.756E-01
RMM:  12    -0.222089407870E+03   -0.33871E-02   -0.31827E-02   530   0.271E-01    0.517E-01
RMM:  13    -0.222092108016E+03   -0.27001E-02   -0.12602E-02   403   0.192E-01    0.189E-01
RMM:  14    -0.222092252345E+03   -0.14433E-03   -0.32007E-03   466   0.108E-01    0.139E-01
RMM:  15    -0.222092090683E+03    0.16166E-03   -0.53751E-04   432   0.535E-02    0.116E-01
RMM:  16    -0.222092171750E+03   -0.81067E-04   -0.43961E-04   355   0.360E-02    0.530E-02
RMM:  17    -0.222092238193E+03   -0.66443E-04   -0.18089E-04   365   0.280E-02    0.411E-02
RMM:  18    -0.222092230176E+03    0.80178E-05   -0.42711E-05   391   0.143E-02
   1 F= -.22209223E+03 E0= -.22210969E+03  d E =-.222092E+03
       N       E                     dE             d eps       ncg     rms          rms(c)
DAV:   1    -0.222092231794E+03    0.63996E-05   -0.12349E-05   258   0.935E-03    0.720E-03
RMM:   2    -0.222092231908E+03   -0.11438E-06   -0.50808E-06   231   0.550E-03
   2 F= -.22209223E+03 E0= -.22210974E+03  d E =-.173258E-05
       N       E                     dE             d eps       ncg     rms          rms(c)
DAV:   1    -0.222092231806E+03   -0.12169E-07   -0.30700E-06   276   0.419E-03    0.428E-03
RMM:   2    -0.222092231848E+03   -0.42546E-07   -0.42537E-07   176   0.216E-03
   3 F= -.22209223E+03 E0= -.22210975E+03  d E =0.596629E-07
       N       E                     dE             d eps       ncg     rms          rms(c)
DAV:   1    -0.222092231675E+03    0.13048E-06   -0.20619E-06   288   0.231E-03    0.247E-03
RMM:   2    -0.222092231671E+03    0.43510E-08   -0.37720E-09    53   0.123E-03
   4 F= -.22209223E+03 E0= -.22210974E+03  d E =0.177377E-06
       N       E                     dE             d eps       ncg     rms          rms(c)
DAV:   1    -0.222092231670E+03    0.55188E-08   -0.69804E-07   276   0.146E-03    0.149E-03
RMM:   2    -0.222092231691E+03   -0.20736E-07   -0.29905E-09    38   0.102E-03
   5 F= -.22209223E+03 E0= -.22210974E+03  d E =-.195687E-07
       N       E                     dE             d eps       ncg     rms          rms(c)
DAV:   1    -0.222092231663E+03    0.72978E-08   -0.36937E-07   252   0.119E-03    0.755E-04
RMM:   2    -0.222092231662E+03    0.84401E-09    0.48700-189    26   0.660E-04
   6 F= -.22209223E+03 E0= -.22210973E+03  d E =0.288783E-07
       N       E                     dE             d eps       ncg     rms          rms(c)
DAV:   1    -0.222092231666E+03   -0.31541E-08   -0.99603E-08   252   0.713E-04    0.689E-04
RMM:   2    -0.222092231660E+03    0.56752E-08    0.20521-189    20   0.512E-04
   7 F= -.22209223E+03 E0= -.22210973E+03  d E =0.167711E-08
       N       E                     dE             d eps       ncg     rms          rms(c)
DAV:   1    -0.222092231656E+03    0.98808E-08   -0.57866E-08   252   0.577E-04    0.321E-04
RMM:   2    -0.222092231653E+03    0.26557E-08    0.14075-189    19   0.287E-04
   8 F= -.22209223E+03 E0= -.22210973E+03  d E =0.686123E-08
       N       E                     dE             d eps       ncg     rms          rms(c)
DAV:   1    -0.222092231653E+03    0.32123E-08   -0.15563E-08   252   0.317E-04    0.245E-04
RMM:   2    -0.222092231649E+03    0.32996E-08    0.20945-270    16   0.222E-04
   9 F= -.22209223E+03 E0= -.22210973E+03  d E =0.385626E-08
       N       E                     dE             d eps       ncg     rms          rms(c)
DAV:   1    -0.222092231648E+03    0.50131E-08   -0.76688E-09   216   0.248E-04    0.145E-04
RMM:   2    -0.222092231647E+03    0.28376E-09    0.00000E+00    13   0.154E-04
  10 F= -.22209223E+03 E0= -.22210973E+03  d E =0.199725E-08
       N       E                     dE             d eps       ncg     rms          rms(c)
DAV:   1    -0.222092231646E+03    0.12878E-08   -0.41389E-09   216   0.173E-04    0.942E-05
RMM:   2    -0.222092231645E+03    0.97498E-09    0.00000E+00    12   0.121E-04
  11 F= -.22209223E+03 E0= -.22210973E+03  d E =0.197906E-08
       N       E                     dE             d eps       ncg     rms          rms(c)
DAV:   1    -0.222092231645E+03    0.15280E-08   -0.18060E-09   216   0.133E-04    0.774E-05
RMM:   2    -0.222092231645E+03   -0.14916E-09    0.00000E+00    12   0.930E-05
  12 F= -.22209223E+03 E0= -.22210973E+03  d E =0.403816E-09
       N       E                     dE             d eps       ncg     rms          rms(c)
DAV:   1    -0.222092231645E+03   -0.16735E-09   -0.11057E-09   216   0.103E-04    0.401E-05
RMM:   2    -0.222092231644E+03    0.64028E-09    0.00000E+00    12   0.649E-05
  13 F= -.22209223E+03 E0= -.22210973E+03  d E =0.622094E-09
       N       E                     dE             d eps       ncg     rms          rms(c)
DAV:   1    -0.222092231645E+03    0.36380E-11   -0.45900E-10   216   0.703E-05    0.365E-05
RMM:   2    -0.222092231644E+03    0.11169E-08    0.00000E+00    10   0.498E-05
  14 F= -.22209223E+03 E0= -.22210973E+03  d E =0.480213E-09
       N       E                     dE             d eps       ncg     rms          rms(c)
DAV:   1    -0.222092231643E+03    0.18517E-08   -0.32032E-10   216   0.557E-05    0.198E-05
RMM:   2    -0.222092231644E+03   -0.56025E-09    0.00000E+00     9   0.360E-05
  15 F= -.22209223E+03 E0= -.22210973E+03  d E =0.174623E-09
       N       E                     dE             d eps       ncg     rms          rms(c)
DAV:   1    -0.222092231645E+03   -0.14370E-08   -0.25661E-10   216   0.394E-05    0.125E-05
RMM:   2    -0.222092231644E+03    0.77853E-09    0.00000E+00     9   0.279E-05
  16 F= -.22209223E+03 E0= -.22210973E+03  d E =-.982254E-10
       N       E                     dE             d eps       ncg     rms          rms(c)
DAV:   1    -0.222092231644E+03    0.29468E-09    0.97790E-11   216   0.310E-05    0.101E-05
RMM:   2    -0.222092231643E+03    0.85856E-09    0.00000E+00     8   0.219E-05
  17 F= -.22209223E+03 E0= -.22210973E+03  d E =0.374712E-09
       N       E                     dE             d eps       ncg     rms          rms(c)
DAV:   1    -0.222092231643E+03    0.16298E-08   -0.88025E-11   216   0.239E-05    0.560E-06
RMM:   2    -0.222092231643E+03   -0.78580E-09    0.00000E+00     7   0.159E-05
  18 F= -.22209223E+03 E0= -.22210973E+03  d E =-.145519E-10
       N       E                     dE             d eps       ncg     rms          rms(c)
DAV:   1    -0.222092231644E+03   -0.14115E-08   -0.10467E-10   216   0.174E-05    0.588E-06
RMM:   2    -0.222092231643E+03    0.79308E-09    0.00000E+00     7   0.128E-05
  19 F= -.22209223E+03 E0= -.22210973E+03  d E =0.167347E-09
       N       E                     dE             d eps       ncg     rms          rms(c)
DAV:   1    -0.222092231643E+03    0.68030E-09    0.36668E-11   216   0.142E-05    0.325E-06
RMM:   2    -0.222092231643E+03   -0.29104E-10    0.00000E+00     7   0.937E-06
  20 F= -.22209223E+03 E0= -.22210973E+03  d E =-.141881E-09
       N       E                     dE             d eps       ncg     rms          rms(c)
DAV:   1    -0.222092231644E+03   -0.41109E-09   -0.79970E-11   216   0.102E-05    0.208E-06
RMM:   2    -0.222092231643E+03    0.44020E-09    0.00000E+00     7   0.745E-06
  21 F= -.22209223E+03 E0= -.22210973E+03  d E =0.582077E-10
       N       E                     dE             d eps       ncg     rms          rms(c)
DAV:   1    -0.222092231644E+03   -0.21828E-10   -0.61449E-11   216   0.834E-06    0.170E-06
RMM:   2    -0.222092231643E+03    0.40018E-09    0.00000E+00     7   0.585E-06
  22 F= -.22209223E+03 E0= -.22210973E+03  d E =-.618456E-10
       N       E                     dE             d eps       ncg     rms          rms(c)
DAV:   1    -0.222092231644E+03   -0.16007E-09   -0.96152E-11   216   0.643E-06    0.101E-06
RMM:   2    -0.222092231643E+03    0.62573E-09    0.00000E+00     7   0.439E-06
  23 F= -.22209223E+03 E0= -.22210973E+03  d E =0.654836E-10
       N       E                     dE             d eps       ncg     rms          rms(c)
DAV:   1    -0.222092231643E+03    0.12296E-08   -0.12781E-10   216   0.483E-06    0.105E-06
RMM:   2    -0.222092231643E+03   -0.70577E-09    0.00000E+00     7   0.354E-06
  24 F= -.22209223E+03 E0= -.22210973E+03  d E =-.101863E-09
       N       E                     dE             d eps       ncg     rms          rms(c)
DAV:   1    -0.222092231643E+03   -0.44747E-09    0.60441E-11   216   0.395E-06    0.643E-07
RMM:   2    -0.222092231643E+03   -0.94587E-10    0.00000E+00     6   0.263E-06
  25 F= -.22209223E+03 E0= -.22210973E+03  d E =0.163709E-09
       N       E                     dE             d eps       ncg     rms          rms(c)
DAV:   1    -0.222092231644E+03   -0.36744E-09    0.15068E-11   216   0.287E-06    0.481E-07
RMM:   2    -0.222092231643E+03    0.10550E-09    0.00000E+00     6   0.211E-06
  26 F= -.22209223E+03 E0= -.22210973E+03  d E =-.167347E-09
       N       E                     dE             d eps       ncg     rms          rms(c)
DAV:   1    -0.222092231643E+03    0.14916E-09    0.60567E-11   216   0.235E-06    0.379E-07
RMM:   2    -0.222092231643E+03    0.32742E-10    0.00000E+00     6   0.163E-06
  27 F= -.22209223E+03 E0= -.22210973E+03  d E =0.763976E-10
       N       E                     dE             d eps       ncg     rms          rms(c)
DAV:   1    -0.222092231644E+03   -0.57844E-09   -0.21092E-11   216   0.179E-06    0.266E-07
RMM:   2    -0.222092231643E+03    0.69122E-09    0.00000E+00     4   0.127E-06
  28 F= -.22209223E+03 E0= -.22210973E+03  d E =0.800355E-10
       N       E                     dE             d eps       ncg     rms          rms(c)
DAV:   1    -0.222092231644E+03   -0.21464E-09   -0.15512E-11   216   0.140E-06    0.223E-07
RMM:   2    -0.222092231643E+03    0.84037E-09    0.00000E+00     5   0.101E-06
  29 F= -.22209223E+03 E0= -.22210973E+03  d E =-.654836E-10
       N       E                     dE             d eps       ncg     rms          rms(c)
DAV:   1    -0.222092231644E+03    0.57844E-09    0.89494E-12   216   0.112E-06    0.168E-07
RMM:   2    -0.222092231643E+03    0.43292E-09    0.00000E+00     4   0.776E-07
  30 F= -.22209223E+03 E0= -.22210973E+03  d E =0.170985E-09
       N       E                     dE             d eps       ncg     rms          rms(c)
DAV:   1    -0.222092231644E+03   -0.50932E-09    0.61924E-11   216   0.856E-07    0.129E-07
RMM:   2    -0.222092231643E+03    0.77125E-09    0.00000E+00     4   0.612E-07
  31 F= -.22209223E+03 E0= -.22210973E+03  d E =-.170985E-09
       N       E                     dE             d eps       ncg     rms          rms(c)
DAV:   1    -0.222092231645E+03   -0.42928E-09   -0.29262E-10   216   0.680E-07    0.105E-07
RMM:   2    -0.222092231643E+03    0.12660E-08    0.00000E+00     2   0.480E-07
  32 F= -.22209223E+03 E0= -.22210973E+03  d E =0.654836E-10
       N       E                     dE             d eps       ncg     rms          rms(c)
DAV:   1    -0.222092231643E+03    0.11642E-08   -0.15988E-10   198   0.533E-07    0.775E-08
RMM:   2    -0.222092231643E+03    0.72760E-11    0.00000E+00     3   0.373E-07
  33 F= -.22209223E+03 E0= -.22210973E+03  d E =-.945874E-10
       N       E                     dE             d eps       ncg     rms          rms(c)
DAV:   1    -0.222092231643E+03    0.00000E+00   -0.84292E-11   198   0.413E-07    0.650E-08
RMM:   2    -0.222092231643E+03   -0.29104E-10    0.00000E+00     2   0.297E-07
  34 F= -.22209223E+03 E0= -.22210973E+03  d E =-.363798E-10
       N       E                     dE             d eps       ncg     rms          rms(c)
DAV:   1    -0.222092231643E+03    0.21828E-09    0.59849E-11   198   0.330E-07    0.485E-08
RMM:   2    -0.222092231643E+03   -0.29104E-10    0.00000E+00     3   0.229E-07
  35 F= -.22209223E+03 E0= -.22210973E+03  d E =0.218279E-09
       N       E                     dE             d eps       ncg     rms          rms(c)
DAV:   1    -0.222092231643E+03   -0.13824E-09   -0.77730E-11   198   0.254E-07    0.397E-08
RMM:   2    -0.222092231643E+03    0.18190E-10    0.00000E+00     2   0.182E-07
  36 F= -.22209223E+03 E0= -.22210973E+03  d E =-.909495E-10
       N       E                     dE             d eps       ncg     rms          rms(c)
DAV:   1    -0.222092231643E+03   -0.90949E-10   -0.10007E-10   198   0.203E-07    0.304E-08
RMM:   2    -0.222092231643E+03    0.50932E-10    0.00000E+00     4   0.141E-07
  37 F= -.22209223E+03 E0= -.22210973E+03  d E =-.582077E-10
       N       E                     dE             d eps       ncg     rms          rms(c)
DAV:   1    -0.222092231643E+03    0.44747E-09   -0.32736E-11   198   0.157E-07    0.240E-08
RMM:   2    -0.222092231643E+03   -0.37107E-09    0.00000E+00     2   0.112E-07
  38 F= -.22209223E+03 E0= -.22210973E+03  d E =0.254659E-10
       N       E                     dE             d eps       ncg     rms          rms(c)
DAV:   1    -0.222092231643E+03   -0.17462E-09    0.85565E-11   198   0.125E-07    0.187E-08
RMM:   2    -0.222092231643E+03   -0.31650E-09    0.00000E+00     3   0.875E-08
  39 F= -.22209223E+03 E0= -.22210973E+03  d E =-.120053E-09
       N       E                     dE             d eps       ncg     rms          rms(c)
DAV:   1    -0.222092231644E+03   -0.96406E-09   -0.51707E-11   198   0.975E-08    0.149E-08
RMM:   2    -0.222092231643E+03    0.63665E-09    0.00000E+00     2   0.690E-08
  40 F= -.22209223E+03 E0= -.22210973E+03  d E =-.109139E-10
       N       E                     dE             d eps       ncg     rms          rms(c)
DAV:   1    -0.222092231643E+03    0.75306E-09    0.41592E-11   198   0.766E-08    0.112E-08
RMM:   2    -0.222092231643E+03    0.47294E-10    0.00000E+00     2   0.539E-08
  41 F= -.22209223E+03 E0= -.22210973E+03  d E =0.163709E-09
       N       E                     dE             d eps       ncg     rms          rms(c)
DAV:   1    -0.222092231643E+03   -0.98225E-10   -0.39083E-11   198   0.605E-08    0.966E-09
RMM:   2    -0.222092231643E+03    0.16735E-09    0.00000E+00     1   0.429E-08
  42 F= -.22209223E+03 E0= -.22210973E+03  d E =0.218279E-10
       N       E                     dE             d eps       ncg     rms          rms(c)
DAV:   1    -0.222092231643E+03    0.51659E-09    0.43646E-11   198   0.481E-08    0.699E-09
RMM:   2    -0.222092231643E+03   -0.36016E-09    0.00000E+00     2   0.332E-08
  43 F= -.22209223E+03 E0= -.22210973E+03  d E =-.109139E-10
       N       E                     dE             d eps       ncg     rms          rms(c)
DAV:   1    -0.222092231643E+03    0.36380E-11   -0.53149E-11   198   0.370E-08    0.603E-09
RMM:   2    -0.222092231643E+03   -0.32378E-09    0.00000E+00     1   0.265E-08
  44 F= -.22209223E+03 E0= -.22210973E+03  d E =0.400178E-10
       N       E                     dE             d eps       ncg     rms          rms(c)
DAV:   1    -0.222092231644E+03   -0.64392E-09   -0.89161E-11   198   0.297E-08    0.443E-09
RMM:   2    -0.222092231643E+03    0.33469E-09    0.00000E+00     2   0.205E-08
  45 F= -.22209223E+03 E0= -.22210973E+03  d E =0.145519E-10
       N       E                     dE             d eps       ncg     rms          rms(c)
DAV:   1    -0.222092231643E+03    0.77489E-09   -0.19549E-11   198   0.227E-08    0.344E-09
RMM:   2    -0.222092231643E+03   -0.39290E-09    0.00000E+00     1   0.163E-08
  46 F= -.22209223E+03 E0= -.22210973E+03  d E =0.472937E-10
       N       E                     dE             d eps       ncg     rms          rms(c)
DAV:   1    -0.222092231643E+03    0.43656E-10   -0.23159E-10   198   0.182E-08    0.279E-09
RMM:   2    -0.222092231643E+03   -0.45839E-09    0.00000E+00     2   0.128E-08
  47 F= -.22209223E+03 E0= -.22210973E+03  d E =-.218279E-10
       N       E                     dE             d eps       ncg     rms          rms(c)
DAV:   1    -0.222092231643E+03   -0.37835E-09   -0.71950E-11   198   0.146E-08    0.226E-09
RMM:   2    -0.222092231643E+03   -0.16735E-09    0.00000E+00     1   0.101E-08
  48 F= -.22209223E+03 E0= -.22210973E+03  d E =-.873115E-10
       N       E                     dE             d eps       ncg     rms          rms(c)
DAV:   1    -0.222092231644E+03   -0.55297E-09    0.78558E-12   198   0.112E-08    0.164E-09
RMM:   2    -0.222092231643E+03    0.32014E-09    0.00000E+00     2   0.787E-09
  49 F= -.22209223E+03 E0= -.22210973E+03  d E =-.654836E-10
       N       E                     dE             d eps       ncg     rms          rms(c)
DAV:   1    -0.222092231643E+03    0.47658E-09    0.19740E-11   198   0.859E-09    0.138E-09
RMM:   2    -0.222092231643E+03   -0.13097E-09    0.00000E+00     1   0.625E-09
  50 F= -.22209223E+03 E0= -.22210973E+03  d E =0.254659E-10
       N       E                     dE             d eps       ncg     rms          rms(c)
DAV:   1    -0.222092231643E+03   -0.69122E-10    0.82590E-11   198   0.699E-09    0.110E-09
RMM:   2    -0.222092231643E+03    0.36380E-11    0.00000E+00     2   0.487E-09
  51 F= -.22209223E+03 E0= -.22210973E+03  d E =0.654836E-10
       N       E                     dE             d eps       ncg     rms          rms(c)
DAV:   1    -0.222092231643E+03    0.35288E-09    0.51410E-11   198   0.556E-09    0.830E-10
RMM:   2    -0.222092231643E+03   -0.37471E-09    0.00000E+00     1   0.386E-09
  52 F= -.22209223E+03 E0= -.22210973E+03  d E =-.254659E-10
       N       E                     dE             d eps       ncg     rms          rms(c)
DAV:   1    -0.222092231643E+03   -0.22192E-09    0.11808E-10   198   0.465E-09    0.801E-10
RMM:   2    -0.222092231643E+03   -0.54570E-10    0.00000E+00     2   0.308E-09
  53 F= -.22209223E+03 E0= -.22210973E+03  d E =0.982254E-10
       N       E                     dE             d eps       ncg     rms          rms(c)
DAV:   1    -0.222092231643E+03    0.94587E-10    0.10311E-10   198   0.343E-09    0.468E-10
RMM:   2    -0.222092231643E+03   -0.20373E-09    0.00000E+00     1   0.237E-09
  54 F= -.22209223E+03 E0= -.22210973E+03  d E =-.545697E-10
       N       E                     dE             d eps       ncg     rms          rms(c)
DAV:   1    -0.222092231643E+03    0.25830E-09    0.91697E-11   198   0.268E-09    0.508E-10
RMM:   2    -0.222092231643E+03   -0.61482E-09    0.00000E+00     2   0.193E-09
  55 F= -.22209223E+03 E0= -.22210973E+03  d E =-.152795E-09
       N       E                     dE             d eps       ncg     rms          rms(c)
DAV:   1    -0.222092231644E+03   -0.69122E-09   -0.81880E-11   198   0.226E-09    0.398E-10
RMM:   2    -0.222092231643E+03    0.50932E-10    0.00000E+00     1   0.149E-09
  56 F= -.22209223E+03 E0= -.22210973E+03  d E =-.254659E-10
       N       E                     dE             d eps       ncg     rms          rms(c)
DAV:   1    -0.222092231643E+03    0.63665E-09    0.26353E-11   198   0.166E-09    0.311E-10
RMM:   2    -0.222092231643E+03   -0.48749E-09    0.00000E+00     1   0.120E-09
  57 F= -.22209223E+03 E0= -.22210973E+03  d E =0.982254E-10
       N       E                     dE             d eps       ncg     rms          rms(c)
DAV:   1    -0.222092231644E+03   -0.95315E-09   -0.61433E-11   198   0.131E-09    0.392E-10
RMM:   2    -0.222092231643E+03    0.53842E-09    0.00000E+00     1   0.968E-10
  58 F= -.22209223E+03 E0= -.22210973E+03  d E =0.727596E-10
       N       E                     dE             d eps       ncg     rms          rms(c)
DAV:   1    -0.222092231643E+03    0.38563E-09    0.21212E-11   198   0.107E-09    0.329E-10
RMM:   2    -0.222092231643E+03    0.13097E-09    0.00000E+00     1   0.773E-10
  59 F= -.22209223E+03 E0= -.22210973E+03  d E =-.218279E-10
       N       E                     dE             d eps       ncg     rms          rms(c)
DAV:   1    -0.222092231644E+03   -0.59299E-09    0.12146E-10   198   0.858E-10    0.378E-10
RMM:   2    -0.222092231643E+03    0.75306E-09    0.00000E+00     1   0.641E-10
  60 F= -.22209223E+03 E0= -.22210973E+03  d E =0.291038E-10
       N       E                     dE             d eps       ncg     rms          rms(c)
DAV:   1    -0.222092231643E+03    0.71304E-09    0.59706E-11   198   0.746E-10    0.316E-10
RMM:   2    -0.222092231643E+03   -0.98225E-10    0.00000E+00     1   0.498E-10
  61 F= -.22209223E+03 E0= -.22210973E+03  d E =-.138243E-09
       N       E                     dE             d eps       ncg     rms          rms(c)
DAV:   1    -0.222092231643E+03    0.14916E-09   -0.71225E-11   198   0.581E-10    0.283E-10
RMM:   2    -0.222092231643E+03   -0.72760E-10    0.00000E+00     1   0.426E-10
  62 F= -.22209223E+03 E0= -.22210973E+03  d E =0.174623E-09
       N       E                     dE             d eps       ncg     rms          rms(c)
DAV:   1    -0.222092231643E+03    0.13097E-09   -0.65896E-11   198   0.481E-10    0.207E-10
RMM:   2    -0.222092231643E+03   -0.28376E-09    0.00000E+00     1   0.333E-10
  63 F= -.22209223E+03 E0= -.22210973E+03  d E =-.800355E-10
       N       E                     dE             d eps       ncg     rms          rms(c)
DAV:   1    -0.222092231643E+03   -0.21464E-09    0.10012E-11   198   0.367E-10    0.306E-10
RMM:   2    -0.222092231643E+03   -0.15280E-09    0.00000E+00     1   0.292E-10
  64 F= -.22209223E+03 E0= -.22210973E+03  d E =-.836735E-10
       N       E                     dE             d eps       ncg     rms          rms(c)
DAV:   1    -0.222092231644E+03   -0.11714E-08    0.40305E-11   198   0.343E-10    0.453E-10
RMM:   2    -0.222092231643E+03    0.10477E-08    0.00000E+00     1   0.306E-10
  65 F= -.22209223E+03 E0= -.22210973E+03  d E =0.291038E-10
       N       E                     dE             d eps       ncg     rms          rms(c)
DAV:   1    -0.222092231643E+03    0.12915E-08    0.10914E-11   198   0.386E-10    0.393E-10
RMM:   2    -0.222092231643E+03   -0.24374E-09    0.00000E+00     0   0.256E-10
  66 F= -.22209223E+03 E0= -.22210973E+03  d E =0.000000E+00
       N       E                     dE             d eps       ncg     rms          rms(c)
DAV:   1    -0.222092231642E+03    0.10223E-08    0.32425E-11   198   0.353E-10    0.289E-10
RMM:   2    -0.222092231643E+03   -0.13606E-08    0.00000E+00     1   0.229E-10
  67 F= -.22209223E+03 E0= -.22210973E+03  d E =-.945874E-10
       N       E                     dE             d eps       ncg     rms          rms(c)
DAV:   1    -0.222092231643E+03   -0.97862E-09   -0.22608E-11   198   0.297E-10    0.382E-10
RMM:   2    -0.222092231643E+03   -0.34197E-09    0.00000E+00     1   0.203E-10
  68 F= -.22209223E+03 E0= -.22210973E+03  d E =0.400178E-10
       N       E                     dE             d eps       ncg     rms          rms(c)
DAV:   1    -0.222092231643E+03    0.61846E-10   -0.47857E-11   198   0.316E-10    0.252E-10
RMM:   2    -0.222092231643E+03   -0.37835E-09    0.00000E+00     0   0.154E-10
  69 F= -.22209223E+03 E0= -.22210973E+03  d E =0.254659E-10
       N       E                     dE             d eps       ncg     rms          rms(c)
DAV:   1    -0.222092231643E+03   -0.37835E-09   -0.10619E-11   198   0.199E-10    0.230E-10
RMM:   2    -0.222092231643E+03    0.69122E-10    0.00000E+00     0   0.128E-10
  70 F= -.22209223E+03 E0= -.22210973E+03  d E =0.691216E-10
       N       E                     dE             d eps       ncg     rms          rms(c)
DAV:   1    -0.222092231643E+03    0.53842E-09    0.49408E-11   198   0.168E-10    0.307E-10
RMM:   2    -0.222092231643E+03   -0.34925E-09    0.00000E+00     0   0.133E-10
  71 F= -.22209223E+03 E0= -.22210973E+03  d E =0.120053E-09
       N       E                     dE             d eps       ncg     rms          rms(c)
DAV:   1    -0.222092231642E+03    0.83674E-09   -0.93456E-12   198   0.172E-10    0.247E-10
RMM:   2    -0.222092231643E+03   -0.11933E-08    0.00000E+00     0   0.105E-10
  72 F= -.22209223E+03 E0= -.22210973E+03  d E =-.727596E-11
       N       E                     dE             d eps       ncg     rms          rms(c)
DAV:   1    -0.222092231644E+03   -0.17390E-08   -0.13168E-10   198   0.135E-10    0.358E-10
RMM:   2    -0.222092231643E+03    0.36380E-09    0.00000E+00     0   0.128E-10
  73 F= -.22209223E+03 E0= -.22210973E+03  d E =-.181899E-09
       N       E                     dE             d eps       ncg     rms          rms(c)
DAV:   1    -0.222092231643E+03    0.45839E-09   -0.24943E-11   198   0.180E-10    0.326E-10
RMM:   2    -0.222092231643E+03    0.18190E-10    0.00000E+00     1   0.129E-10
  74 F= -.22209223E+03 E0= -.22210973E+03  d E =0.112777E-09
       N       E                     dE             d eps       ncg     rms          rms(c)
DAV:   1    -0.222092231645E+03   -0.12624E-08    0.68128E-11   198   0.164E-10    0.222E-10
RMM:   2    -0.222092231643E+03    0.13533E-08    0.00000E+00     2   0.988E-11
  75 F= -.22209223E+03 E0= -.22210973E+03  d E =0.727596E-10
       N       E                     dE             d eps       ncg     rms          rms(c)
DAV:   1    -0.222092231644E+03    0.73123E-09   -0.69343E-11   198   0.140E-10    0.293E-10
RMM:   2    -0.222092231643E+03    0.62937E-09    0.00000E+00     0   0.105E-10
  76 F= -.22209223E+03 E0= -.22210973E+03  d E =0.727596E-11
       N       E                     dE             d eps       ncg     rms          rms(c)
DAV:   1    -0.222092231644E+03    0.24374E-09   -0.52374E-11   198   0.176E-10    0.281E-10
RMM:   2    -0.222092231643E+03    0.28740E-09    0.00000E+00     0   0.106E-10
  77 F= -.22209223E+03 E0= -.22210973E+03  d E =-.982254E-10
       N       E                     dE             d eps       ncg     rms          rms(c)
DAV:   1    -0.222092231644E+03   -0.24738E-09    0.34134E-11   198   0.157E-10    0.321E-10
RMM:   2    -0.222092231643E+03    0.40018E-09    0.00000E+00     0   0.125E-10
  78 F= -.22209223E+03 E0= -.22210973E+03  d E =-.134605E-09
       N       E                     dE             d eps       ncg     rms          rms(c)
DAV:   1    -0.222092231643E+03    0.93132E-09    0.52435E-11   198   0.234E-10    0.313E-10
RMM:   2    -0.222092231643E+03   -0.38926E-09    0.00000E+00     0   0.132E-10
  79 F= -.22209223E+03 E0= -.22210973E+03  d E =0.141881E-09
       N       E                     dE             d eps       ncg     rms          rms(c)
DAV:   1    -0.222092231644E+03   -0.11751E-08    0.66455E-11   198   0.205E-10    0.409E-10
RMM:   2    -0.222092231643E+03    0.63665E-09    0.00000E+00     0   0.148E-10
  80 F= -.22209223E+03 E0= -.22210973E+03  d E =-.149157E-09
       N       E                     dE             d eps       ncg     rms          rms(c)
DAV:   1    -0.222092231643E+03    0.62573E-09    0.15282E-10   198   0.258E-10    0.530E-10
RMM:   2    -0.222092231643E+03    0.19281E-09    0.00000E+00     0   0.184E-10
  81 F= -.22209223E+03 E0= -.22210973E+03  d E =0.181899E-09
       N       E                     dE             d eps       ncg     rms          rms(c)
DAV:   1    -0.222092231644E+03   -0.94587E-10   -0.32155E-11   198   0.328E-10    0.239E-10
RMM:   2    -0.222092231643E+03    0.12005E-09    0.00000E+00     0   0.109E-10
  82 F= -.22209223E+03 E0= -.22210973E+03  d E =-.167347E-09
       N       E                     dE             d eps       ncg     rms          rms(c)
DAV:   1    -0.222092231643E+03    0.10914E-09   -0.62071E-11   198   0.142E-10    0.278E-10
RMM:   2    -0.222092231643E+03    0.17099E-09    0.00000E+00     0   0.114E-10
  83 F= -.22209223E+03 E0= -.22210973E+03  d E =0.160071E-09
       N       E                     dE             d eps       ncg     rms          rms(c)
DAV:   1    -0.222092231643E+03    0.56389E-09   -0.30575E-11   198   0.154E-10    0.346E-10
RMM:   2    -0.222092231643E+03   -0.49113E-09    0.00000E+00     0   0.139E-10
  84 F= -.22209223E+03 E0= -.22210973E+03  d E =-.982254E-10
       N       E                     dE             d eps       ncg     rms          rms(c)
DAV:   1    -0.222092231644E+03   -0.12624E-08    0.71833E-11   198   0.213E-10    0.288E-10
RMM:   2    -0.222092231643E+03    0.73487E-09    0.00000E+00     0   0.118E-10
  85 F= -.22209223E+03 E0= -.22210973E+03  d E =-.363798E-10
       N       E                     dE             d eps       ncg     rms          rms(c)
DAV:   1    -0.222092231644E+03    0.51296E-09    0.25102E-10   198   0.184E-10    0.331E-10
RMM:   2    -0.222092231643E+03    0.42564E-09    0.00000E+00     0   0.125E-10
  86 F= -.22209223E+03 E0= -.22210973E+03  d E =0.203727E-09
       N       E                     dE             d eps       ncg     rms          rms(c)
DAV:   1    -0.222092231643E+03    0.46930E-09   -0.13048E-11   198   0.189E-10    0.264E-10
RMM:   2    -0.222092231643E+03   -0.98225E-10    0.00000E+00     0   0.131E-10
  87 F= -.22209223E+03 E0= -.22210973E+03  d E =-.545697E-10
       N       E                     dE             d eps       ncg     rms          rms(c)
DAV:   1    -0.222092231644E+03   -0.60754E-09    0.17900E-11   198   0.172E-10    0.338E-10
RMM:   2    -0.222092231643E+03    0.52751E-09    0.00000E+00     0   0.129E-10
  88 F= -.22209223E+03 E0= -.22210973E+03  d E =0.181899E-10
       N       E                     dE             d eps       ncg     rms          rms(c)
DAV:   1    -0.222092231643E+03    0.76761E-09    0.64461E-11   198   0.205E-10    0.275E-10
RMM:   2    -0.222092231643E+03   -0.29831E-09    0.00000E+00     0   0.107E-10
  89 F= -.22209223E+03 E0= -.22210973E+03  d E =-.582077E-10
       N       E                     dE             d eps       ncg     rms          rms(c)
DAV:   1    -0.222092231644E+03   -0.10514E-08   -0.17699E-11   198   0.184E-10    0.340E-10
RMM:   2    -0.222092231643E+03    0.67666E-09    0.00000E+00     0   0.117E-10
  90 F= -.22209223E+03 E0= -.22210973E+03  d E =-.763976E-10
       N       E                     dE             d eps       ncg     rms          rms(c)
DAV:   1    -0.222092231645E+03   -0.48385E-09    0.25953E-11   198   0.208E-10    0.362E-10
RMM:   2    -0.222092231643E+03    0.12333E-08    0.00000E+00     0   0.138E-10
  91 F= -.22209223E+03 E0= -.22210973E+03  d E =0.727596E-10
       N       E                     dE             d eps       ncg     rms          rms(c)
DAV:   1    -0.222092231643E+03    0.13097E-08    0.95682E-11   198   0.220E-10    0.235E-10
RMM:   2    -0.222092231643E+03   -0.43656E-10    0.00000E+00     0   0.893E-11
  92 F= -.22209223E+03 E0= -.22210973E+03  d E =0.327418E-10
       N       E                     dE             d eps       ncg     rms          rms(c)
DAV:   1    -0.222092231644E+03   -0.11096E-08    0.35401E-11   198   0.142E-10    0.414E-10
RMM:   2    -0.222092231643E+03    0.94587E-09    0.00000E+00     0   0.131E-10
  93 F= -.22209223E+03 E0= -.22210973E+03  d E =-.120053E-09
       N       E                     dE             d eps       ncg     rms          rms(c)
DAV:   1    -0.222092231644E+03    0.53114E-09    0.82401E-12   198   0.186E-10    0.232E-10
RMM:   2    -0.222092231643E+03    0.52023E-09    0.00000E+00     0   0.939E-11
  94 F= -.22209223E+03 E0= -.22210973E+03  d E =0.105501E-09
       N       E                     dE             d eps       ncg     rms          rms(c)
DAV:   1    -0.222092231643E+03    0.91677E-09    0.33007E-11   198   0.140E-10    0.336E-10
RMM:   2    -0.222092231643E+03   -0.40745E-09    0.00000E+00     0   0.119E-10
  95 F= -.22209223E+03 E0= -.22210973E+03  d E =-.109139E-10
       N       E                     dE             d eps       ncg     rms          rms(c)
DAV:   1    -0.222092231643E+03   -0.42201E-09    0.17625E-10   198   0.202E-10    0.269E-10
RMM:   2    -0.222092231643E+03    0.72760E-10    0.00000E+00     0   0.107E-10
  96 F= -.22209223E+03 E0= -.22210973E+03  d E =0.582077E-10
       N       E                     dE             d eps       ncg     rms          rms(c)
DAV:   1    -0.222092231643E+03    0.40018E-10    0.70499E-11   198   0.161E-10    0.387E-10
RMM:   2    -0.222092231643E+03   -0.40018E-10    0.00000E+00     0   0.148E-10
  97 F= -.22209223E+03 E0= -.22210973E+03  d E =-.727596E-10
       N       E                     dE             d eps       ncg     rms          rms(c)
DAV:   1    -0.222092231644E+03   -0.56025E-09   -0.14050E-11   198   0.233E-10    0.307E-10
RMM:   2    -0.222092231643E+03    0.37107E-09    0.00000E+00     0   0.117E-10
  98 F= -.22209223E+03 E0= -.22210973E+03  d E =-.149157E-09
       N       E                     dE             d eps       ncg     rms          rms(c)
DAV:   1    -0.222092231644E+03    0.10914E-10    0.12667E-10   198   0.200E-10    0.171E-10
RMM:   2    -0.222092231643E+03    0.61482E-09    0.00000E+00     0   0.690E-11
  99 F= -.22209223E+03 E0= -.22210973E+03  d E =0.254659E-09
       N       E                     dE             d eps       ncg     rms          rms(c)
DAV:   1    -0.222092231645E+03   -0.12078E-08    0.31286E-11   198   0.949E-11    0.286E-10
RMM:   2    -0.222092231643E+03    0.18445E-08    0.00000E+00     0   0.106E-10
 100 F= -.22209223E+03 E0= -.22210973E+03  d E =0.218279E-10
       N       E                     dE             d eps       ncg     rms          rms(c)
DAV:   1    -0.222092231644E+03    0.94951E-09   -0.12745E-10   198   0.183E-10    0.434E-10
RMM:   2    -0.222092231643E+03    0.72396E-09    0.00000E+00     0   0.158E-10
 101 F= -.22209223E+03 E0= -.22210973E+03  d E =-.170985E-09
       N       E                     dE             d eps       ncg     rms          rms(c)
DAV:   1    -0.222092231643E+03    0.10332E-08    0.10776E-10   198   0.276E-10    0.220E-10
RMM:   2    -0.222092231643E+03   -0.17826E-09    0.00000E+00     0   0.962E-11
 102 F= -.22209223E+03 E0= -.22210973E+03  d E =0.130967E-09
       N       E                     dE             d eps       ncg     rms          rms(c)
DAV:   1    -0.222092231644E+03   -0.51296E-09    0.40384E-11   198   0.132E-10    0.270E-10
RMM:   2    -0.222092231643E+03    0.33469E-09    0.00000E+00     0   0.101E-10
 103 F= -.22209223E+03 E0= -.22210973E+03  d E =0.000000E+00
       N       E                     dE             d eps       ncg     rms          rms(c)
DAV:   1    -0.222092231644E+03   -0.15643E-09   -0.11488E-10   198   0.152E-10    0.202E-10
RMM:   2    -0.222092231643E+03    0.26557E-09    0.00000E+00     0   0.805E-11
 104 F= -.22209223E+03 E0= -.22210973E+03  d E =-.225555E-09
       N       E                     dE             d eps       ncg     rms          rms(c)
DAV:   1    -0.222092231644E+03   -0.29104E-10   -0.29100E-11   198   0.115E-10    0.305E-10
RMM:   2    -0.222092231643E+03    0.49113E-09    0.00000E+00     0   0.113E-10
 105 F= -.22209223E+03 E0= -.22210973E+03  d E =0.196451E-09
       N       E                     dE             d eps       ncg     rms          rms(c)
DAV:   1    -0.222092231643E+03    0.47658E-09   -0.14534E-10   198   0.156E-10    0.278E-10
RMM:   2    -0.222092231643E+03   -0.32742E-10    0.00000E+00     0   0.112E-10
 106 F= -.22209223E+03 E0= -.22210973E+03  d E =-.472937E-10
       N       E                     dE             d eps       ncg     rms          rms(c)
DAV:   1    -0.222092231643E+03   -0.18190E-10    0.25002E-11   198   0.180E-10    0.353E-10
RMM:   2    -0.222092231643E+03   -0.87311E-10    0.00000E+00     0   0.136E-10
 107 F= -.22209223E+03 E0= -.22210973E+03  d E =-.727596E-10
       N       E                     dE             d eps       ncg     rms          rms(c)
DAV:   1    -0.222092231644E+03   -0.99681E-09    0.38306E-11   198   0.220E-10    0.293E-10
RMM:   2    -0.222092231643E+03    0.97134E-09    0.00000E+00     0   0.121E-10
 108 F= -.22209223E+03 E0= -.22210973E+03  d E =0.618456E-10
       N       E                     dE             d eps       ncg     rms          rms(c)
DAV:   1    -0.222092231644E+03    0.59299E-09    0.10705E-10   198   0.187E-10    0.434E-10
RMM:   2    -0.222092231643E+03    0.43656E-09    0.00000E+00     0   0.169E-10
 109 F= -.22209223E+03 E0= -.22210973E+03  d E =0.582077E-10
       N       E                     dE             d eps       ncg     rms          rms(c)
DAV:   1    -0.222092231642E+03    0.12296E-08   -0.98350E-11   198   0.273E-10    0.250E-10
RMM:   2    -0.222092231643E+03   -0.95315E-09    0.00000E+00     0   0.107E-10
 110 F= -.22209223E+03 E0= -.22210973E+03  d E =-.160071E-09
       N       E                     dE             d eps       ncg     rms          rms(c)
DAV:   1    -0.222092231644E+03   -0.10659E-08    0.21383E-11   198   0.149E-10    0.560E-10
RMM:   2    -0.222092231643E+03    0.22555E-09    0.00000E+00     0   0.211E-10
 111 F= -.22209223E+03 E0= -.22210973E+03  d E =0.112777E-09
       N       E                     dE             d eps       ncg     rms          rms(c)
DAV:   1    -0.222092231642E+03    0.10914E-08    0.12859E-11   198   0.313E-10    0.373E-10
RMM:   2    -0.222092231643E+03   -0.95679E-09    0.00000E+00     0   0.151E-10
 112 F= -.22209223E+03 E0= -.22210973E+03  d E =-.909495E-10
       N       E                     dE             d eps       ncg     rms          rms(c)
DAV:   1    -0.222092231643E+03   -0.76034E-09    0.16341E-11   198   0.259E-10    0.334E-10
RMM:   2    -0.222092231643E+03   -0.80036E-10    0.00000E+00     0   0.125E-10
 113 F= -.22209223E+03 E0= -.22210973E+03  d E =0.116415E-09
       N       E                     dE             d eps       ncg     rms          rms(c)
DAV:   1    -0.222092231643E+03    0.37107E-09    0.97505E-11   198   0.206E-10    0.230E-10
RMM:   2    -0.222092231643E+03   -0.63301E-09    0.00000E+00     0   0.966E-11
 114 F= -.22209223E+03 E0= -.22210973E+03  d E =-.181899E-09
       N       E                     dE             d eps       ncg     rms          rms(c)
DAV:   1    -0.222092231643E+03   -0.65484E-10    0.48190E-11   198   0.148E-10    0.227E-10
RMM:   2    -0.222092231643E+03   -0.46930E-09    0.00000E+00     0   0.849E-11
 115 F= -.22209223E+03 E0= -.22210973E+03  d E =0.982254E-10
       N       E                     dE             d eps       ncg     rms          rms(c)
DAV:   1    -0.222092231643E+03    0.26193E-09   -0.45633E-11   198   0.104E-10    0.321E-10
RMM:   2    -0.222092231643E+03   -0.71668E-09    0.00000E+00     0   0.117E-10
 116 F= -.22209223E+03 E0= -.22210973E+03  d E =0.145519E-10
       N       E                     dE             d eps       ncg     rms          rms(c)
DAV:   1    -0.222092231644E+03   -0.10041E-08    0.14255E-11   198   0.189E-10    0.282E-10
RMM:   2    -0.222092231643E+03    0.40745E-09    0.00000E+00     0   0.104E-10
 117 F= -.22209223E+03 E0= -.22210973E+03  d E =0.120053E-09
       N       E                     dE             d eps       ncg     rms          rms(c)
DAV:   1    -0.222092231644E+03    0.90949E-10   -0.73387E-11   198   0.195E-10    0.345E-10
RMM:   2    -0.222092231643E+03    0.11642E-09    0.00000E+00     0   0.136E-10
 118 F= -.22209223E+03 E0= -.22210973E+03  d E =-.200089E-09
       N       E                     dE             d eps       ncg     rms          rms(c)
DAV:   1    -0.222092231643E+03    0.87311E-09   -0.52298E-11   198   0.236E-10    0.258E-10
RMM:   2    -0.222092231643E+03   -0.77125E-09    0.00000E+00     0   0.975E-11
 119 F= -.22209223E+03 E0= -.22210973E+03  d E =-.145519E-10
       N       E                     dE             d eps       ncg     rms          rms(c)
DAV:   1    -0.222092231644E+03   -0.13606E-08    0.12309E-10   198   0.142E-10    0.259E-10
RMM:   2    -0.222092231643E+03    0.77489E-09    0.00000E+00     0   0.110E-10
 120 F= -.22209223E+03 E0= -.22210973E+03  d E =0.185537E-09
       N       E                     dE             d eps       ncg     rms          rms(c)
DAV:   1    -0.222092231643E+03    0.71668E-09    0.30564E-11   198   0.181E-10    0.313E-10
RMM:   2    -0.222092231643E+03   -0.18190E-10    0.00000E+00     0   0.107E-10
 121 F= -.22209223E+03 E0= -.22210973E+03  d E =-.763976E-10
       N       E                     dE             d eps       ncg     rms          rms(c)
DAV:   1    -0.222092231643E+03    0.78580E-09    0.15003E-10   198   0.183E-10    0.268E-10
RMM:   2    -0.222092231643E+03   -0.83674E-09    0.00000E+00     0   0.104E-10
 122 F= -.22209223E+03 E0= -.22210973E+03  d E =-.327418E-10
       N       E                     dE             d eps       ncg     rms          rms(c)
DAV:   1    -0.222092231643E+03   -0.90949E-10   -0.30295E-12   198   0.173E-10    0.266E-10
RMM:   2    -0.222092231643E+03   -0.61846E-09    0.00000E+00     0   0.100E-10
 123 F= -.22209223E+03 E0= -.22210973E+03  d E =0.127329E-09
       N       E                     dE             d eps       ncg     rms          rms(c)
DAV:   1    -0.222092231644E+03   -0.17935E-08   -0.10220E-10   198   0.148E-10    0.232E-10
RMM:   2    -0.222092231643E+03    0.11678E-08    0.00000E+00     0   0.998E-11
 124 F= -.22209223E+03 E0= -.22210973E+03  d E =-.727596E-11
       N       E                     dE             d eps       ncg     rms          rms(c)
DAV:   1    -0.222092231644E+03    0.39654E-09    0.58064E-11   198   0.149E-10    0.476E-10
RMM:   2    -0.222092231643E+03    0.61846E-09    0.00000E+00     0   0.173E-10
 125 F= -.22209223E+03 E0= -.22210973E+03  d E =-.152795E-09
       N       E                     dE             d eps       ncg     rms          rms(c)
DAV:   1    -0.222092231642E+03    0.21355E-08    0.25342E-11   198   0.309E-10    0.544E-10
RMM:   2    -0.222092231643E+03   -0.15134E-08    0.00000E+00     0   0.196E-10
 126 F= -.22209223E+03 E0= -.22210973E+03  d E =0.363798E-11
       N       E                     dE             d eps       ncg     rms          rms(c)
DAV:   1    -0.222092231643E+03   -0.10477E-08   -0.27903E-11   198   0.328E-10    0.233E-10
RMM:   2    -0.222092231643E+03   -0.33833E-09    0.00000E+00     0   0.100E-10
 127 F= -.22209223E+03 E0= -.22210973E+03  d E =0.127329E-09
       N       E                     dE             d eps       ncg     rms          rms(c)
DAV:   1    -0.222092231644E+03   -0.65484E-09   -0.60340E-11   198   0.132E-10    0.346E-10
RMM:   2    -0.222092231643E+03    0.14552E-09    0.00000E+00     0   0.131E-10
 128 F= -.22209223E+03 E0= -.22210973E+03  d E =-.170985E-09
       N       E                     dE             d eps       ncg     rms          rms(c)
DAV:   1    -0.222092231644E+03   -0.55661E-09   -0.35976E-11   198   0.164E-10    0.285E-10
RMM:   2    -0.222092231643E+03    0.74215E-09    0.00000E+00     0   0.902E-11
 129 F= -.22209223E+03 E0= -.22210973E+03  d E =0.400178E-10
       N       E                     dE             d eps       ncg     rms          rms(c)
DAV:   1    -0.222092231643E+03    0.10114E-08    0.35554E-11   198   0.119E-10    0.491E-10
RMM:   2    -0.222092231643E+03   -0.21100E-09    0.00000E+00     0   0.140E-10
 130 F= -.22209223E+03 E0= -.22210973E+03  d E =0.582077E-10
       N       E                     dE             d eps       ncg     rms          rms(c)
DAV:   1    -0.222092231643E+03   -0.25466E-09    0.14473E-10   198   0.248E-10    0.360E-10
RMM:   2    -0.222092231643E+03   -0.18190E-10    0.00000E+00     0   0.139E-10
 131 F= -.22209223E+03 E0= -.22210973E+03  d E =-.618456E-10
       N       E                     dE             d eps       ncg     rms          rms(c)
DAV:   1    -0.222092231644E+03   -0.55297E-09    0.13656E-10   198   0.208E-10    0.340E-10
RMM:   2    -0.222092231643E+03    0.55297E-09    0.00000E+00     0   0.136E-10
 132 F= -.22209223E+03 E0= -.22210973E+03  d E =0.181899E-10
       N       E                     dE             d eps       ncg     rms          rms(c)
DAV:   1    -0.222092231642E+03    0.16335E-08    0.40169E-11   198   0.205E-10    0.373E-10
RMM:   2    -0.222092231643E+03   -0.10914E-08    0.00000E+00     0   0.137E-10
 133 F= -.22209223E+03 E0= -.22210973E+03  d E =-.109139E-10
       N       E                     dE             d eps       ncg     rms          rms(c)
DAV:   1    -0.222092231643E+03   -0.47658E-09    0.59427E-12   198   0.190E-10    0.292E-10
RMM:   2    -0.222092231643E+03   -0.59299E-09    0.00000E+00     0   0.108E-10
 134 F= -.22209223E+03 E0= -.22210973E+03  d E =0.218279E-10
       N       E                     dE             d eps       ncg     rms          rms(c)
DAV:   1    -0.222092231643E+03   -0.17462E-09   -0.79925E-11   198   0.196E-10    0.296E-10
RMM:   2    -0.222092231643E+03   -0.45839E-09    0.00000E+00     0   0.121E-10
 135 F= -.22209223E+03 E0= -.22210973E+03  d E =-.400178E-10
       N       E                     dE             d eps       ncg     rms          rms(c)
DAV:   1    -0.222092231643E+03    0.29104E-09    0.89815E-11   198   0.187E-10    0.299E-10
RMM:   2    -0.222092231643E+03   -0.52023E-09    0.00000E+00     0   0.102E-10
 136 F= -.22209223E+03 E0= -.22210973E+03  d E =0.229193E-09
       N       E                     dE             d eps       ncg     rms          rms(c)
DAV:   1    -0.222092231644E+03   -0.11787E-08   -0.28693E-11   198   0.162E-10    0.452E-10
RMM:   2    -0.222092231643E+03    0.41109E-09    0.00000E+00     0   0.171E-10
 137 F= -.22209223E+03 E0= -.22210973E+03  d E =-.247383E-09
       N       E                     dE             d eps       ncg     rms          rms(c)
DAV:   1    -0.222092231644E+03    0.10186E-09    0.99600E-11   198   0.248E-10    0.301E-10
RMM:   2    -0.222092231643E+03    0.45839E-09    0.00000E+00     0   0.127E-10
 138 F= -.22209223E+03 E0= -.22210973E+03  d E =0.149157E-09
       N       E                     dE             d eps       ncg     rms          rms(c)
DAV:   1    -0.222092231645E+03   -0.11969E-08    0.43523E-11   198   0.178E-10    0.231E-10
RMM:   2    -0.222092231643E+03    0.15316E-08    0.00000E+00     0   0.921E-11
 139 F= -.22209223E+03 E0= -.22210973E+03  d E =-.123691E-09
       N       E                     dE             d eps       ncg     rms          rms(c)
DAV:   1    -0.222092231643E+03    0.18845E-08   -0.11153E-10   198   0.116E-10    0.337E-10
RMM:   2    -0.222092231643E+03   -0.26193E-09    0.00000E+00     0   0.778E-11
 140 F= -.22209223E+03 E0= -.22210973E+03  d E =0.909495E-10
       N       E                     dE             d eps       ncg     rms          rms(c)
DAV:   1    -0.222092231644E+03   -0.12878E-08   -0.47323E-11   198   0.139E-10    0.283E-10
RMM:   2    -0.222092231643E+03    0.10368E-08    0.00000E+00     0   0.956E-11
 141 F= -.22209223E+03 E0= -.22210973E+03  d E =0.109139E-10
       N       E                     dE             d eps       ncg     rms          rms(c)
DAV:   1    -0.222092231644E+03    0.59663E-09    0.94013E-11   198   0.163E-10    0.178E-10
RMM:   2    -0.222092231643E+03    0.49113E-09    0.00000E+00     0   0.817E-11
 142 F= -.22209223E+03 E0= -.22210973E+03  d E =0.509317E-10
       N       E                     dE             d eps       ncg     rms          rms(c)
DAV:   1    -0.222092231643E+03    0.60027E-09    0.34012E-11   198   0.120E-10    0.502E-10
RMM:   2    -0.222092231643E+03   -0.28012E-09    0.00000E+00     0   0.171E-10
 143 F= -.22209223E+03 E0= -.22210973E+03  d E =-.170985E-09
       N       E                     dE             d eps       ncg     rms          rms(c)
DAV:   1    -0.222092231642E+03    0.89858E-09    0.82665E-11   198   0.299E-10    0.231E-10
RMM:   2    -0.222092231643E+03   -0.12151E-08    0.00000E+00     0   0.110E-10
 144 F= -.22209223E+03 E0= -.22210973E+03  d E =-.363798E-10
       N       E                     dE             d eps       ncg     rms          rms(c)
DAV:   1    -0.222092231643E+03   -0.10332E-08   -0.57240E-11   198   0.133E-10    0.306E-10
RMM:   2    -0.222092231643E+03    0.10914E-10    0.00000E+00     0   0.108E-10
 145 F= -.22209223E+03 E0= -.22210973E+03  d E =0.192813E-09
       N       E                     dE             d eps       ncg     rms          rms(c)
DAV:   1    -0.222092231642E+03    0.10295E-08    0.14212E-10   198   0.182E-10    0.370E-10
RMM:   2    -0.222092231643E+03   -0.10841E-08    0.00000E+00     0   0.147E-10
 146 F= -.22209223E+03 E0= -.22210973E+03  d E =-.654836E-10
       N       E                     dE             d eps       ncg     rms          rms(c)
DAV:   1    -0.222092231643E+03   -0.77125E-09    0.25586E-11   198   0.231E-10    0.329E-10
RMM:   2    -0.222092231643E+03   -0.36744E-09    0.00000E+00     0   0.122E-10
 147 F= -.22209223E+03 E0= -.22210973E+03  d E =-.545697E-10
       N       E                     dE             d eps       ncg     rms          rms(c)
DAV:   1    -0.222092231644E+03   -0.60027E-09    0.17887E-10   198   0.220E-10    0.215E-10
RMM:   2    -0.222092231643E+03    0.29468E-09    0.00000E+00     0   0.849E-11
 148 F= -.22209223E+03 E0= -.22210973E+03  d E =0.618456E-10
       N       E                     dE             d eps       ncg     rms          rms(c)
DAV:   1    -0.222092231644E+03   -0.36016E-09   -0.55369E-12   198   0.122E-10    0.207E-10
RMM:   2    -0.222092231643E+03    0.58935E-09    0.00000E+00     0   0.744E-11
 149 F= -.22209223E+03 E0= -.22210973E+03  d E =-.654836E-10
       N       E                     dE             d eps       ncg     rms          rms(c)
DAV:   1    -0.222092231643E+03    0.12515E-08    0.26471E-12   198   0.112E-10    0.406E-10
RMM:   2    -0.222092231643E+03   -0.54206E-09    0.00000E+00     0   0.145E-10
 150 F= -.22209223E+03 E0= -.22210973E+03  d E =0.120053E-09
       N       E                     dE             d eps       ncg     rms          rms(c)
DAV:   1    -0.222092231643E+03    0.14552E-10    0.14139E-10   198   0.230E-10    0.415E-10
RMM:   2    -0.222092231643E+03   -0.70213E-09    0.00000E+00     0   0.161E-10
 151 F= -.22209223E+03 E0= -.22210973E+03  d E =-.145519E-09
       N       E                     dE             d eps       ncg     rms          rms(c)
DAV:   1    -0.222092231643E+03   -0.13824E-09    0.11528E-10   198   0.246E-10    0.280E-10
RMM:   2    -0.222092231643E+03   -0.56752E-09    0.00000E+00     0   0.116E-10
 152 F= -.22209223E+03 E0= -.22210973E+03  d E =-.363798E-11
       N       E                     dE             d eps       ncg     rms          rms(c)
DAV:   1    -0.222092231643E+03    0.47294E-10   -0.13775E-10   198   0.199E-10    0.244E-10
RMM:   2    -0.222092231643E+03   -0.56752E-09    0.00000E+00     0   0.857E-11
 153 F= -.22209223E+03 E0= -.22210973E+03  d E =0.472937E-10
       N       E                     dE             d eps       ncg     rms          rms(c)
DAV:   1    -0.222092231644E+03   -0.12224E-08    0.33920E-12   198   0.141E-10    0.361E-10
RMM:   2    -0.222092231643E+03    0.69849E-09    0.00000E+00     0   0.133E-10
 154 F= -.22209223E+03 E0= -.22210973E+03  d E =0.436557E-10
       N       E                     dE             d eps       ncg     rms          rms(c)
DAV:   1    -0.222092231643E+03    0.69122E-09    0.60983E-11   198   0.226E-10    0.292E-10
RMM:   2    -0.222092231643E+03    0.98225E-10    0.00000E+00     0   0.129E-10
 155 F= -.22209223E+03 E0= -.22210973E+03  d E =0.909495E-10
       N       E                     dE             d eps       ncg     rms          rms(c)
DAV:   1    -0.222092231643E+03   -0.10550E-09    0.70350E-11   198   0.232E-10    0.371E-10
RMM:   2    -0.222092231643E+03    0.00000E+00    0.00000E+00     0   0.148E-10
 156 F= -.22209223E+03 E0= -.22210973E+03  d E =-.203727E-09
       N       E                     dE             d eps       ncg     rms          rms(c)
DAV:   1    -0.222092231643E+03    0.90222E-09    0.38411E-11   198   0.224E-10    0.380E-10
RMM:   2    -0.222092231643E+03   -0.66939E-09    0.00000E+00     0   0.162E-10
 157 F= -.22209223E+03 E0= -.22210973E+03  d E =0.232831E-09
       N       E                     dE             d eps       ncg     rms          rms(c)
DAV:   1    -0.222092231644E+03   -0.15098E-08    0.10090E-11   198   0.211E-10    0.276E-10
RMM:   2    -0.222092231643E+03    0.72396E-09    0.00000E+00     0   0.114E-10
 158 F= -.22209223E+03 E0= -.22210973E+03  d E =-.116415E-09
       N       E                     dE             d eps       ncg     rms          rms(c)
DAV:   1    -0.222092231644E+03    0.38563E-09    0.29754E-11   198   0.141E-10    0.215E-10
RMM:   2    -0.222092231643E+03    0.34925E-09    0.00000E+00     0   0.825E-11
 159 F= -.22209223E+03 E0= -.22210973E+03  d E =0.109139E-10
       N       E                     dE             d eps       ncg     rms          rms(c)
DAV:   1    -0.222092231643E+03    0.19645E-09   -0.17802E-10   198   0.121E-10    0.370E-10
RMM:   2    -0.222092231643E+03    0.25466E-10    0.00000E+00     0   0.110E-10
 160 F= -.22209223E+03 E0= -.22210973E+03  d E =-.127329E-09
       N       E                     dE             d eps       ncg     rms          rms(c)
DAV:   1    -0.222092231643E+03    0.46566E-09    0.87883E-11   198   0.162E-10    0.296E-10
RMM:   2    -0.222092231643E+03   -0.42928E-09    0.00000E+00     0   0.112E-10
 161 F= -.22209223E+03 E0= -.22210973E+03  d E =0.109139E-10
       N       E                     dE             d eps       ncg     rms          rms(c)
DAV:   1    -0.222092231644E+03   -0.98589E-09    0.95687E-11   198   0.157E-10    0.241E-10
RMM:   2    -0.222092231643E+03    0.62209E-09    0.00000E+00     0   0.927E-11
 162 F= -.22209223E+03 E0= -.22210973E+03  d E =0.654836E-10
       N       E                     dE             d eps       ncg     rms          rms(c)
DAV:   1    -0.222092231644E+03   -0.17099E-09   -0.16722E-12   198   0.150E-10    0.349E-10
RMM:   2    -0.222092231643E+03    0.92768E-09    0.00000E+00     0   0.106E-10
 163 F= -.22209223E+03 E0= -.22210973E+03  d E =0.134605E-09
       N       E                     dE             d eps       ncg     rms          rms(c)
DAV:   1    -0.222092231643E+03    0.16516E-08    0.15019E-10   198   0.158E-10    0.246E-10
RMM:   2    -0.222092231643E+03   -0.71304E-09    0.00000E+00     0   0.935E-11
 164 F= -.22209223E+03 E0= -.22210973E+03  d E =0.109139E-10
       N       E                     dE             d eps       ncg     rms          rms(c)
DAV:   1    -0.222092231644E+03   -0.15534E-08    0.13249E-11   198   0.105E-10    0.293E-10
RMM:   2    -0.222092231643E+03    0.82218E-09    0.00000E+00     0   0.107E-10
 165 F= -.22209223E+03 E0= -.22210973E+03  d E =-.181899E-10
       N       E                     dE             d eps       ncg     rms          rms(c)
DAV:   1    -0.222092231644E+03    0.41837E-09    0.10146E-12   198   0.164E-10    0.524E-10
RMM:   2    -0.222092231643E+03    0.20736E-09    0.00000E+00     0   0.190E-10
 166 F= -.22209223E+03 E0= -.22210973E+03  d E =-.196451E-09
       N       E                     dE             d eps       ncg     rms          rms(c)
DAV:   1    -0.222092231644E+03   -0.87311E-10    0.12688E-10   198   0.324E-10    0.447E-10
RMM:   2    -0.222092231643E+03    0.27285E-09    0.00000E+00     0   0.177E-10
 167 F= -.22209223E+03 E0= -.22210973E+03  d E =-.218279E-10
       N       E                     dE             d eps       ncg     rms          rms(c)
DAV:   1    -0.222092231644E+03    0.13461E-09   -0.86629E-12   198   0.338E-10    0.288E-10
RMM:   2    -0.222092231643E+03    0.25102E-09    0.00000E+00     0   0.123E-10
 168 F= -.22209223E+03 E0= -.22210973E+03  d E =0.112777E-09
       N       E                     dE             d eps       ncg     rms          rms(c)
DAV:   1    -0.222092231643E+03    0.28012E-09   -0.13264E-10   198   0.195E-10    0.296E-10
RMM:   2    -0.222092231643E+03   -0.16007E-09    0.00000E+00     0   0.112E-10
 169 F= -.22209223E+03 E0= -.22210973E+03  d E =-.130967E-09
       N       E                     dE             d eps       ncg     rms          rms(c)
DAV:   1    -0.222092231644E+03   -0.22192E-09    0.13936E-10   198   0.180E-10    0.295E-10
RMM:   2    -0.222092231643E+03    0.21464E-09    0.00000E+00     0   0.116E-10
 170 F= -.22209223E+03 E0= -.22210973E+03  d E =0.152795E-09
       N       E                     dE             d eps       ncg     rms          rms(c)
DAV:   1    -0.222092231644E+03   -0.68030E-09    0.88730E-11   198   0.195E-10    0.185E-10
RMM:   2    -0.222092231643E+03    0.75670E-09    0.00000E+00     0   0.811E-11
 171 F= -.22209223E+03 E0= -.22210973E+03  d E =-.138243E-09
       N       E                     dE             d eps       ncg     rms          rms(c)
DAV:   1    -0.222092231644E+03    0.39654E-09   -0.24859E-11   198   0.118E-10    0.397E-10
RMM:   2    -0.222092231643E+03    0.38563E-09    0.00000E+00     0   0.151E-10
 172 F= -.22209223E+03 E0= -.22210973E+03  d E =0.254659E-10
       N       E                     dE             d eps       ncg     rms          rms(c)
DAV:   1    -0.222092231644E+03   -0.52023E-09    0.64215E-11   198   0.255E-10    0.247E-10
RMM:   2    -0.222092231643E+03    0.93496E-09    0.00000E+00     0   0.825E-11
 173 F= -.22209223E+03 E0= -.22210973E+03  d E =0.291038E-10
       N       E                     dE             d eps       ncg     rms          rms(c)
DAV:   1    -0.222092231643E+03    0.97862E-09    0.12172E-10   198   0.113E-10    0.304E-10
RMM:   2    -0.222092231643E+03    0.40018E-10    0.00000E+00     0   0.103E-10
 174 F= -.22209223E+03 E0= -.22210973E+03  d E =0.836735E-10
       N       E                     dE             d eps       ncg     rms          rms(c)
DAV:   1    -0.222092231643E+03   -0.13461E-09   -0.13520E-11   198   0.148E-10    0.232E-10
RMM:   2    -0.222092231643E+03    0.15280E-09    0.00000E+00     0   0.979E-11
 175 F= -.22209223E+03 E0= -.22210973E+03  d E =-.218279E-10
       N       E                     dE             d eps       ncg     rms          rms(c)
DAV:   1    -0.222092231643E+03    0.87311E-09    0.64147E-11   198   0.134E-10    0.314E-10
RMM:   2    -0.222092231643E+03   -0.72396E-09    0.00000E+00     0   0.125E-10
 176 F= -.22209223E+03 E0= -.22210973E+03  d E =-.363798E-11
       N       E                     dE             d eps       ncg     rms          rms(c)
DAV:   1    -0.222092231643E+03   -0.77853E-09    0.18394E-11   198   0.171E-10    0.163E-10
RMM:   2    -0.222092231643E+03    0.18917E-09    0.00000E+00     0   0.925E-11
 177 F= -.22209223E+03 E0= -.22210973E+03  d E =0.134605E-09
       N       E                     dE             d eps       ncg     rms          rms(c)
DAV:   1    -0.222092231644E+03   -0.10550E-09   -0.13258E-11   198   0.114E-10    0.221E-10
RMM:   2    -0.222092231643E+03    0.22192E-09    0.00000E+00     0   0.898E-11
 178 F= -.22209223E+03 E0= -.22210973E+03  d E =-.727596E-10
       N       E                     dE             d eps       ncg     rms          rms(c)
DAV:   1    -0.222092231644E+03   -0.39290E-09    0.84343E-11   198   0.132E-10    0.355E-10
RMM:   2    -0.222092231643E+03    0.50932E-09    0.00000E+00     0   0.139E-10
 179 F= -.22209223E+03 E0= -.22210973E+03  d E =-.105501E-09
       N       E                     dE             d eps       ncg     rms          rms(c)
DAV:   1    -0.222092231644E+03    0.11642E-09    0.86877E-11   198   0.225E-10    0.255E-10
RMM:   2    -0.222092231643E+03    0.46202E-09    0.00000E+00     0   0.108E-10
 180 F= -.22209223E+03 E0= -.22210973E+03  d E =0.691216E-10
       N       E                     dE             d eps       ncg     rms          rms(c)
DAV:   1    -0.222092231644E+03    0.20009E-09   -0.29577E-11   198   0.166E-10    0.258E-10
RMM:   2    -0.222092231643E+03    0.21828E-09    0.00000E+00     0   0.105E-10
 181 F= -.22209223E+03 E0= -.22210973E+03  d E =-.436557E-10
       N       E                     dE             d eps       ncg     rms          rms(c)
DAV:   1    -0.222092231644E+03   -0.98225E-10    0.52977E-11   198   0.145E-10    0.544E-10
RMM:   2    -0.222092231643E+03    0.37107E-09    0.00000E+00     0   0.193E-10
 182 F= -.22209223E+03 E0= -.22210973E+03  d E =0.545697E-10
       N       E                     dE             d eps       ncg     rms          rms(c)
DAV:   1    -0.222092231643E+03    0.78580E-09    0.13361E-10   198   0.336E-10    0.206E-10
RMM:   2    -0.222092231643E+03   -0.38199E-09    0.00000E+00     0   0.994E-11
 183 F= -.22209223E+03 E0= -.22210973E+03  d E =0.327418E-10
       N       E                     dE             d eps       ncg     rms          rms(c)
DAV:   1    -0.222092231644E+03   -0.87311E-09   -0.62780E-11   198   0.112E-10    0.383E-10
RMM:   2    -0.222092231643E+03    0.52387E-09    0.00000E+00     0   0.142E-10
 184 F= -.22209223E+03 E0= -.22210973E+03  d E =0.327418E-10
       N       E                     dE             d eps       ncg     rms          rms(c)
DAV:   1    -0.222092231643E+03    0.90222E-09   -0.34882E-11   198   0.231E-10    0.257E-10
RMM:   2    -0.222092231643E+03   -0.41109E-09    0.00000E+00     0   0.989E-11
 185 F= -.22209223E+03 E0= -.22210973E+03  d E =-.327418E-10
       N       E                     dE             d eps       ncg     rms          rms(c)
DAV:   1    -0.222092231644E+03   -0.78944E-09   -0.35652E-11   198   0.129E-10    0.250E-10
RMM:   2    -0.222092231643E+03    0.34561E-09    0.00000E+00     0   0.916E-11
 186 F= -.22209223E+03 E0= -.22210973E+03  d E =-.327418E-10
       N       E                     dE             d eps       ncg     rms          rms(c)
DAV:   1    -0.222092231644E+03   -0.35652E-09    0.30323E-11   198   0.119E-10    0.248E-10
RMM:   2    -0.222092231643E+03    0.60390E-09    0.00000E+00     0   0.651E-11
 187 F= -.22209223E+03 E0= -.22210973E+03  d E =-.982254E-10
       N       E                     dE             d eps       ncg     rms          rms(c)
DAV:   1    -0.222092231643E+03    0.72032E-09   -0.12618E-10   198   0.989E-11    0.236E-10
RMM:   2    -0.222092231643E+03    0.61846E-10    0.00000E+00     0   0.783E-11
 188 F= -.22209223E+03 E0= -.22210973E+03  d E =0.178261E-09
       N       E                     dE             d eps       ncg     rms          rms(c)
DAV:   1    -0.222092231644E+03   -0.72032E-09   -0.18188E-11   198   0.137E-10    0.341E-10
RMM:   2    -0.222092231643E+03    0.56389E-09    0.00000E+00     0   0.114E-10
 189 F= -.22209223E+03 E0= -.22210973E+03  d E =-.218279E-09
       N       E                     dE             d eps       ncg     rms          rms(c)
DAV:   1    -0.222092231644E+03   -0.39654E-09   -0.17733E-11   198   0.169E-10    0.284E-10
RMM:   2    -0.222092231643E+03    0.94951E-09    0.00000E+00     0   0.102E-10
 190 F= -.22209223E+03 E0= -.22210973E+03  d E =-.109139E-10
       N       E                     dE             d eps       ncg     rms          rms(c)
DAV:   1    -0.222092231643E+03    0.10004E-08    0.50940E-11   198   0.142E-10    0.311E-10
RMM:   2    -0.222092231643E+03    0.14916E-09    0.00000E+00     0   0.130E-10
 191 F= -.22209223E+03 E0= -.22210973E+03  d E =0.200089E-09
       N       E                     dE             d eps       ncg     rms          rms(c)
DAV:   1    -0.222092231643E+03    0.78580E-09   -0.53795E-11   198   0.230E-10    0.345E-10
RMM:   2    -0.222092231643E+03   -0.65847E-09    0.00000E+00     0   0.123E-10
 192 F= -.22209223E+03 E0= -.22210973E+03  d E =-.218279E-10
       N       E                     dE             d eps       ncg     rms          rms(c)
DAV:   1    -0.222092231644E+03   -0.12296E-08    0.78180E-11   198   0.198E-10    0.304E-10
RMM:   2    -0.222092231643E+03    0.46930E-09    0.00000E+00     0   0.137E-10
 193 F= -.22209223E+03 E0= -.22210973E+03  d E =-.101863E-09
       N       E                     dE             d eps       ncg     rms          rms(c)
DAV:   1    -0.222092231643E+03    0.11969E-08    0.13021E-10   198   0.185E-10    0.267E-10
RMM:   2    -0.222092231643E+03   -0.61846E-09    0.00000E+00     0   0.998E-11
 194 F= -.22209223E+03 E0= -.22210973E+03  d E =0.109139E-09
       N       E                     dE             d eps       ncg     rms          rms(c)
DAV:   1    -0.222092231643E+03   -0.23647E-09   -0.16363E-11   198   0.154E-10    0.459E-10
RMM:   2    -0.222092231643E+03   -0.40018E-09    0.00000E+00     0   0.171E-10
 195 F= -.22209223E+03 E0= -.22210973E+03  d E =-.181899E-10
       N       E                     dE             d eps       ncg     rms          rms(c)
DAV:   1    -0.222092231644E+03   -0.65484E-09    0.10821E-10   198   0.250E-10    0.444E-10
RMM:   2    -0.222092231643E+03    0.27649E-09    0.00000E+00     0   0.170E-10
 196 F= -.22209223E+03 E0= -.22210973E+03  d E =0.218279E-10
       N       E                     dE             d eps       ncg     rms          rms(c)
DAV:   1    -0.222092231643E+03    0.72032E-09    0.35270E-11   198   0.252E-10    0.263E-10
RMM:   2    -0.222092231643E+03   -0.47658E-09    0.00000E+00     0   0.105E-10
 197 F= -.22209223E+03 E0= -.22210973E+03  d E =-.327418E-10
       N       E                     dE             d eps       ncg     rms          rms(c)
DAV:   1    -0.222092231643E+03   -0.72760E-10    0.27242E-11   198   0.143E-10    0.321E-10
RMM:   2    -0.222092231643E+03   -0.36016E-09    0.00000E+00     0   0.109E-10
 198 F= -.22209223E+03 E0= -.22210973E+03  d E =0.436557E-10
       N       E                     dE             d eps       ncg     rms          rms(c)
DAV:   1    -0.222092231644E+03   -0.81491E-09   -0.37453E-11   198   0.183E-10    0.262E-10
RMM:   2    -0.222092231643E+03    0.24738E-09    0.00000E+00     0   0.890E-11
 199 F= -.22209223E+03 E0= -.22210973E+03  d E =-.207365E-09
       N       E                     dE             d eps       ncg     rms          rms(c)
DAV:   1    -0.222092231644E+03    0.32742E-10    0.22492E-11   198   0.149E-10    0.389E-10
RMM:   2    -0.222092231643E+03    0.25102E-09    0.00000E+00     0   0.135E-10
 200 F= -.22209223E+03 E0= -.22210973E+03  d E =0.363798E-10
       N       E                     dE             d eps       ncg     rms          rms(c)
DAV:   1    -0.222092231643E+03    0.73487E-09    0.51099E-12   198   0.225E-10    0.488E-10
RMM:   2    -0.222092231643E+03   -0.38199E-09    0.00000E+00     0   0.179E-10
 201 F= -.22209223E+03 E0= -.22210973E+03  d E =0.101863E-09
       N       E                     dE             d eps       ncg     rms          rms(c)
DAV:   1    -0.222092231643E+03   -0.52387E-09    0.99139E-11   198   0.279E-10    0.321E-10
RMM:   2    -0.222092231643E+03    0.11642E-09    0.00000E+00     0   0.131E-10
 202 F= -.22209223E+03 E0= -.22210973E+03  d E =-.254659E-10
       N       E                     dE             d eps       ncg     rms          rms(c)
DAV:   1    -0.222092231645E+03   -0.11933E-08    0.10271E-11   198   0.208E-10    0.224E-10
RMM:   2    -0.222092231643E+03    0.12587E-08    0.00000E+00     0   0.802E-11
 203 F= -.22209223E+03 E0= -.22210973E+03  d E =-.509317E-10
       N       E                     dE             d eps       ncg     rms          rms(c)
DAV:   1    -0.222092231643E+03    0.15352E-08   -0.50321E-11   198   0.104E-10    0.213E-10
RMM:   2    -0.222092231643E+03   -0.13824E-09    0.00000E+00     0   0.687E-11
 204 F= -.22209223E+03 E0= -.22210973E+03  d E =0.138243E-09
       N       E                     dE             d eps       ncg     rms          rms(c)
DAV:   1    -0.222092231643E+03    0.10914E-10    0.58642E-11   198   0.963E-11    0.273E-10
RMM:   2    -0.222092231643E+03   -0.18917E-09    0.00000E+00     0   0.923E-11
 205 F= -.22209223E+03 E0= -.22210973E+03  d E =-.400178E-10
       N       E                     dE             d eps       ncg     rms          rms(c)
DAV:   1    -0.222092231644E+03   -0.61482E-09    0.72798E-11   198   0.128E-10    0.219E-10
RMM:   2    -0.222092231643E+03    0.32378E-09    0.00000E+00     0   0.845E-11
 206 F= -.22209223E+03 E0= -.22210973E+03  d E =-.101863E-09
       N       E                     dE             d eps       ncg     rms          rms(c)
DAV:   1    -0.222092231643E+03    0.38926E-09   -0.10098E-10   198   0.125E-10    0.287E-10
RMM:   2    -0.222092231643E+03    0.87311E-10    0.00000E+00     0   0.970E-11
 207 F= -.22209223E+03 E0= -.22210973E+03  d E =0.152795E-09
       N       E                     dE             d eps       ncg     rms          rms(c)
DAV:   1    -0.222092231644E+03   -0.33469E-09    0.84163E-12   198   0.143E-10    0.340E-10
RMM:   2    -0.222092231643E+03    0.36016E-09    0.00000E+00     0   0.112E-10
 208 F= -.22209223E+03 E0= -.22210973E+03  d E =-.618456E-10
       N       E                     dE             d eps       ncg     rms          rms(c)
DAV:   1    -0.222092231643E+03    0.60027E-09    0.12641E-10   198   0.202E-10    0.401E-10
RMM:   2    -0.222092231643E+03   -0.15643E-09    0.00000E+00     0   0.154E-10
 209 F= -.22209223E+03 E0= -.22210973E+03  d E =0.836735E-10
       N       E                     dE             d eps       ncg     rms          rms(c)
DAV:   1    -0.222092231644E+03   -0.62573E-09   -0.49118E-13   198   0.262E-10    0.348E-10
RMM:   2    -0.222092231643E+03    0.44020E-09    0.00000E+00     0   0.117E-10
 210 F= -.22209223E+03 E0= -.22210973E+03  d E =-.291038E-10
       N       E                     dE             d eps       ncg     rms          rms(c)
DAV:   1    -0.222092231643E+03    0.80036E-09    0.13115E-10   198   0.193E-10    0.285E-10
RMM:   2    -0.222092231643E+03   -0.38926E-09    0.00000E+00     0   0.104E-10
 211 F= -.22209223E+03 E0= -.22210973E+03  d E =-.291038E-10
       N       E                     dE             d eps       ncg     rms          rms(c)
DAV:   1    -0.222092231643E+03   -0.21464E-09    0.24056E-11   198   0.180E-10    0.425E-10
RMM:   2    -0.222092231643E+03   -0.26921E-09    0.00000E+00     0   0.144E-10
 212 F= -.22209223E+03 E0= -.22210973E+03  d E =-.945874E-10
       N       E                     dE             d eps       ncg     rms          rms(c)
DAV:   1    -0.222092231643E+03   -0.36744E-09   -0.19332E-11   198   0.241E-10    0.204E-10
RMM:   2    -0.222092231643E+03    0.72760E-10    0.00000E+00     0   0.969E-11
 213 F= -.22209223E+03 E0= -.22210973E+03  d E =-.254659E-10
       N       E                     dE             d eps       ncg     rms          rms(c)
DAV:   1    -0.222092231643E+03    0.74215E-09   -0.41250E-11   198   0.128E-10    0.294E-10
RMM:   2    -0.222092231643E+03   -0.57844E-09    0.00000E+00     0   0.116E-10
 214 F= -.22209223E+03 E0= -.22210973E+03  d E =0.909495E-10
       N       E                     dE             d eps       ncg     rms          rms(c)
DAV:   1    -0.222092231643E+03   -0.50932E-10    0.39575E-11   198   0.186E-10    0.230E-10
RMM:   2    -0.222092231643E+03   -0.56389E-09    0.00000E+00     0   0.126E-10
 215 F= -.22209223E+03 E0= -.22210973E+03  d E =-.363798E-10
       N       E                     dE             d eps       ncg     rms          rms(c)
DAV:   1    -0.222092231643E+03   -0.63301E-09   -0.58829E-11   198   0.160E-10    0.272E-10
RMM:   2    -0.222092231643E+03    0.94587E-10    0.00000E+00     0   0.103E-10
 216 F= -.22209223E+03 E0= -.22210973E+03  d E =0.254659E-10
       N       E                     dE             d eps       ncg     rms          rms(c)
DAV:   1    -0.222092231643E+03    0.36380E-10    0.59872E-11   198   0.133E-10    0.257E-10
RMM:   2    -0.222092231643E+03    0.14916E-09    0.00000E+00     0   0.753E-11
 217 F= -.22209223E+03 E0= -.22210973E+03  d E =0.909495E-10
       N       E                     dE             d eps       ncg     rms          rms(c)
DAV:   1    -0.222092231645E+03   -0.11278E-08   -0.48943E-11   198   0.158E-10    0.450E-10
RMM:   2    -0.222092231643E+03    0.10768E-08    0.00000E+00     0   0.151E-10
 218 F= -.22209223E+03 E0= -.22210973E+03  d E =-.200089E-09
       N       E                     dE             d eps       ncg     rms          rms(c)
DAV:   1    -0.222092231644E+03    0.70213E-09    0.43130E-11   198   0.257E-10    0.224E-10
RMM:   2    -0.222092231643E+03    0.54570E-09    0.00000E+00     0   0.109E-10
 219 F= -.22209223E+03 E0= -.22210973E+03  d E =0.170985E-09
       N       E                     dE             d eps       ncg     rms          rms(c)
DAV:   1    -0.222092231643E+03    0.60390E-09    0.61470E-12   198   0.134E-10    0.274E-10
RMM:   2    -0.222092231643E+03   -0.98225E-10    0.00000E+00     0   0.117E-10
 220 F= -.22209223E+03 E0= -.22210973E+03  d E =-.400178E-10
       N       E                     dE             d eps       ncg     rms          rms(c)
DAV:   1    -0.222092231643E+03    0.14552E-09    0.79194E-11   198   0.170E-10    0.427E-10
RMM:   2    -0.222092231643E+03   -0.37471E-09    0.00000E+00     0   0.157E-10
 221 F= -.22209223E+03 E0= -.22210973E+03  d E =-.130967E-09
       N       E                     dE             d eps       ncg     rms          rms(c)
DAV:   1    -0.222092231643E+03   -0.16735E-09    0.12104E-10   198   0.250E-10    0.289E-10
RMM:   2    -0.222092231643E+03   -0.11278E-09    0.00000E+00     0   0.997E-11
 222 F= -.22209223E+03 E0= -.22210973E+03  d E =0.945874E-10
       N       E                     dE             d eps       ncg     rms          rms(c)
DAV:   1    -0.222092231643E+03   -0.76398E-10   -0.65758E-12   198   0.154E-10    0.281E-10
RMM:   2    -0.222092231643E+03   -0.10550E-09    0.00000E+00     0   0.121E-10
 223 F= -.22209223E+03 E0= -.22210973E+03  d E =-.691216E-10
       N       E                     dE             d eps       ncg     rms          rms(c)
DAV:   1    -0.222092231643E+03    0.39654E-09    0.20731E-11   198   0.191E-10    0.418E-10
RMM:   2    -0.222092231643E+03   -0.53114E-09    0.00000E+00     0   0.141E-10
 224 F= -.22209223E+03 E0= -.22210973E+03  d E =-.291038E-10
       N       E                     dE             d eps       ncg     rms          rms(c)
DAV:   1    -0.222092231644E+03   -0.60754E-09   -0.27996E-12   198   0.214E-10    0.396E-10
RMM:   2    -0.222092231643E+03    0.13461E-09    0.00000E+00     0   0.155E-10
 225 F= -.22209223E+03 E0= -.22210973E+03  d E =0.582077E-10
       N       E                     dE             d eps       ncg     rms          rms(c)
DAV:   1    -0.222092231644E+03   -0.17462E-09   -0.46297E-11   198   0.236E-10    0.286E-10
RMM:   2    -0.222092231643E+03    0.36744E-09    0.00000E+00     0   0.116E-10
 226 F= -.22209223E+03 E0= -.22210973E+03  d E =0.582077E-10
       N       E                     dE             d eps       ncg     rms          rms(c)
DAV:   1    -0.222092231643E+03    0.95679E-09    0.10132E-10   198   0.159E-10    0.275E-10
RMM:   2    -0.222092231643E+03   -0.49113E-09    0.00000E+00     0   0.926E-11
 227 F= -.22209223E+03 E0= -.22210973E+03  d E =0.982254E-10
       N       E                     dE             d eps       ncg     rms          rms(c)
DAV:   1    -0.222092231643E+03   -0.46566E-09    0.54900E-11   198   0.186E-10    0.279E-10
RMM:   2    -0.222092231643E+03   -0.61846E-10    0.00000E+00     0   0.121E-10
 228 F= -.22209223E+03 E0= -.22210973E+03  d E =-.363798E-10
       N       E                     dE             d eps       ncg     rms          rms(c)
DAV:   1    -0.222092231643E+03   -0.13461E-09   -0.29751E-11   198   0.186E-10    0.375E-10
RMM:   2    -0.222092231643E+03    0.87311E-10    0.00000E+00     0   0.159E-10
 229 F= -.22209223E+03 E0= -.22210973E+03  d E =0.145519E-10
       N       E                     dE             d eps       ncg     rms          rms(c)
DAV:   1    -0.222092231644E+03   -0.55297E-09    0.69431E-11   198   0.247E-10    0.239E-10
RMM:   2    -0.222092231643E+03    0.56752E-09    0.00000E+00     0   0.103E-10
 230 F= -.22209223E+03 E0= -.22210973E+03  d E =-.727596E-10
       N       E                     dE             d eps       ncg     rms          rms(c)
DAV:   1    -0.222092231643E+03    0.82946E-09   -0.13837E-10   198   0.152E-10    0.297E-10
RMM:   2    -0.222092231643E+03   -0.29104E-09    0.00000E+00     0   0.109E-10
 231 F= -.22209223E+03 E0= -.22210973E+03  d E =-.291038E-10
       N       E                     dE             d eps       ncg     rms          rms(c)
DAV:   1    -0.222092231643E+03   -0.87311E-10   -0.68256E-11   198   0.144E-10    0.310E-10
RMM:   2    -0.222092231643E+03   -0.25466E-09    0.00000E+00     0   0.133E-10
 232 F= -.22209223E+03 E0= -.22210973E+03  d E =-.509317E-10
       N       E                     dE             d eps       ncg     rms          rms(c)
DAV:   1    -0.222092231644E+03   -0.41473E-09    0.37240E-11   198   0.196E-10    0.288E-10
RMM:   2    -0.222092231643E+03    0.24374E-09    0.00000E+00     0   0.117E-10
 233 F= -.22209223E+03 E0= -.22210973E+03  d E =0.836735E-10
       N       E                     dE             d eps       ncg     rms          rms(c)
DAV:   1    -0.222092231644E+03   -0.14552E-10    0.19694E-11   198   0.176E-10    0.284E-10
RMM:   2    -0.222092231643E+03    0.33469E-09    0.00000E+00     0   0.917E-11
 234 F= -.22209223E+03 E0= -.22210973E+03  d E =0.763976E-10
       N       E                     dE             d eps       ncg     rms          rms(c)
DAV:   1    -0.222092231643E+03    0.65484E-09    0.11515E-10   198   0.174E-10    0.322E-10
RMM:   2    -0.222092231643E+03   -0.33106E-09    0.00000E+00     0   0.124E-10
 235 F= -.22209223E+03 E0= -.22210973E+03  d E =-.109139E-10
       N       E                     dE             d eps       ncg     rms          rms(c)
DAV:   1    -0.222092231644E+03   -0.10914E-08   -0.43742E-11   198   0.207E-10    0.381E-10
RMM:   2    -0.222092231643E+03    0.79672E-09    0.00000E+00     0   0.141E-10
 236 F= -.22209223E+03 E0= -.22210973E+03  d E =0.363798E-10
       N       E                     dE             d eps       ncg     rms          rms(c)
DAV:   1    -0.222092231644E+03    0.41837E-09   -0.11974E-11   198   0.227E-10    0.435E-10
RMM:   2    -0.222092231643E+03    0.24374E-09    0.00000E+00     0   0.171E-10
 237 F= -.22209223E+03 E0= -.22210973E+03  d E =-.134605E-09
       N       E                     dE             d eps       ncg     rms          rms(c)
DAV:   1    -0.222092231644E+03   -0.40018E-10    0.66231E-11   198   0.267E-10    0.388E-10
RMM:   2    -0.222092231643E+03    0.25830E-09    0.00000E+00     0   0.164E-10
 238 F= -.22209223E+03 E0= -.22210973E+03  d E =-.254659E-10
       N       E                     dE             d eps       ncg     rms          rms(c)
DAV:   1    -0.222092231644E+03    0.65484E-10   -0.20117E-11   198   0.259E-10    0.449E-10
RMM:   2    -0.222092231643E+03    0.12733E-09    0.00000E+00     0   0.174E-10
 239 F= -.22209223E+03 E0= -.22210973E+03  d E =-.654836E-10
       N       E                     dE             d eps       ncg     rms          rms(c)
DAV:   1    -0.222092231643E+03    0.37471E-09    0.12946E-10   198   0.298E-10    0.309E-10
RMM:   2    -0.222092231643E+03   -0.98225E-10    0.00000E+00     0   0.139E-10
 240 F= -.22209223E+03 E0= -.22210973E+03  d E =0.149157E-09
       N       E                     dE             d eps       ncg     rms          rms(c)
DAV:   1    -0.222092231643E+03    0.37471E-09    0.14518E-11   198   0.205E-10    0.351E-10
RMM:   2    -0.222092231643E+03   -0.50932E-09    0.00000E+00     0   0.137E-10
 241 F= -.22209223E+03 E0= -.22210973E+03  d E =-.363798E-10
       N       E                     dE             d eps       ncg     rms          rms(c)
DAV:   1    -0.222092231644E+03   -0.94224E-09    0.82158E-12   198   0.205E-10    0.336E-10
RMM:   2    -0.222092231643E+03    0.48749E-09    0.00000E+00     0   0.123E-10
 242 F= -.22209223E+03 E0= -.22210973E+03  d E =0.545697E-10
       N       E                     dE             d eps       ncg     rms          rms(c)
DAV:   1    -0.222092231643E+03    0.42564E-09   -0.33753E-11   198   0.171E-10    0.283E-10
RMM:   2    -0.222092231643E+03    0.83674E-10    0.00000E+00     0   0.990E-11
 243 F= -.22209223E+03 E0= -.22210973E+03  d E =0.218279E-10
       N       E                     dE             d eps       ncg     rms          rms(c)
DAV:   1    -0.222092231643E+03   -0.87311E-10    0.69018E-11   198   0.173E-10    0.410E-10
RMM:   2    -0.222092231643E+03    0.15280E-09    0.00000E+00     0   0.133E-10
 244 F= -.22209223E+03 E0= -.22210973E+03  d E =-.181899E-10
       N       E                     dE             d eps       ncg     rms          rms(c)
DAV:   1    -0.222092231644E+03   -0.63665E-09   -0.10593E-10   198   0.241E-10    0.238E-10
RMM:   2    -0.222092231643E+03    0.86584E-09    0.00000E+00     0   0.995E-11
 245 F= -.22209223E+03 E0= -.22210973E+03  d E =0.763976E-10
       N       E                     dE             d eps       ncg     rms          rms(c)
DAV:   1    -0.222092231644E+03    0.29104E-10   -0.12052E-10   198   0.133E-10    0.427E-10
RMM:   2    -0.222092231643E+03    0.63301E-09    0.00000E+00     0   0.133E-10
 246 F= -.22209223E+03 E0= -.22210973E+03  d E =-.203727E-09
       N       E                     dE             d eps       ncg     rms          rms(c)
DAV:   1    -0.222092231644E+03   -0.15280E-09    0.65769E-11   198   0.257E-10    0.320E-10
RMM:   2    -0.222092231643E+03    0.97862E-09    0.00000E+00     0   0.138E-10
 247 F= -.22209223E+03 E0= -.22210973E+03  d E =0.192813E-09
       N       E                     dE             d eps       ncg     rms          rms(c)
DAV:   1    -0.222092231643E+03    0.97862E-09   -0.63425E-11   198   0.238E-10    0.384E-10
RMM:   2    -0.222092231643E+03   -0.76398E-10    0.00000E+00     0   0.137E-10
 248 F= -.22209223E+03 E0= -.22210973E+03  d E =-.763976E-10
       N       E                     dE             d eps       ncg     rms          rms(c)
DAV:   1    -0.222092231643E+03    0.29104E-10   -0.63589E-11   198   0.235E-10    0.295E-10
RMM:   2    -0.222092231643E+03   -0.90949E-10    0.00000E+00     0   0.118E-10
 249 F= -.22209223E+03 E0= -.22210973E+03  d E =0.145519E-10
       N       E                     dE             d eps       ncg     rms          rms(c)
DAV:   1    -0.222092231643E+03    0.10914E-09   -0.36373E-11   198   0.167E-10    0.276E-10
RMM:   2    -0.222092231643E+03   -0.28740E-09    0.00000E+00     0   0.109E-10
 250 F= -.22209223E+03 E0= -.22210973E+03  d E =-.873115E-10
       N       E                     dE             d eps       ncg     rms          rms(c)
DAV:   1    -0.222092231644E+03   -0.57116E-09    0.44372E-12   198   0.180E-10    0.330E-10
RMM:   2    -0.222092231643E+03    0.34561E-09    0.00000E+00     0   0.119E-10
 251 F= -.22209223E+03 E0= -.22210973E+03  d E =0.618456E-10
       N       E                     dE             d eps       ncg     rms          rms(c)
DAV:   1    -0.222092231643E+03    0.74579E-09    0.40563E-11   198   0.209E-10    0.251E-10
RMM:   2    -0.222092231643E+03   -0.49840E-09    0.00000E+00     0   0.112E-10
 252 F= -.22209223E+03 E0= -.22210973E+03  d E =-.982254E-10
       N       E                     dE             d eps       ncg     rms          rms(c)
DAV:   1    -0.222092231643E+03   -0.44383E-09    0.18838E-11   198   0.179E-10    0.351E-10
RMM:   2    -0.222092231643E+03    0.10550E-09    0.00000E+00     0   0.136E-10
 253 F= -.22209223E+03 E0= -.22210973E+03  d E =0.160071E-09
       N       E                     dE             d eps       ncg     rms          rms(c)
DAV:   1    -0.222092231644E+03   -0.10732E-08    0.36318E-11   198   0.226E-10    0.458E-10
RMM:   2    -0.222092231643E+03    0.10186E-08    0.00000E+00     0   0.171E-10
 254 F= -.22209223E+03 E0= -.22210973E+03  d E =-.160071E-09
       N       E                     dE             d eps       ncg     rms          rms(c)
DAV:   1    -0.222092231644E+03    0.63301E-09   -0.19238E-11   198   0.263E-10    0.282E-10
RMM:   2    -0.222092231643E+03    0.34925E-09    0.00000E+00     0   0.120E-10
 255 F= -.22209223E+03 E0= -.22210973E+03  d E =-.363798E-10
       N       E                     dE             d eps       ncg     rms          rms(c)
DAV:   1    -0.222092231643E+03    0.59299E-09    0.45305E-11   198   0.162E-10    0.301E-10
RMM:   2    -0.222092231643E+03   -0.12005E-09    0.00000E+00     0   0.874E-11
 256 F= -.22209223E+03 E0= -.22210973E+03  d E =0.123691E-09
       N       E                     dE             d eps       ncg     rms          rms(c)
DAV:   1    -0.222092231643E+03   -0.21828E-10   -0.68062E-11   198   0.128E-10    0.296E-10
RMM:   2    -0.222092231643E+03   -0.40018E-10    0.00000E+00     0   0.955E-11
 257 F= -.22209223E+03 E0= -.22210973E+03  d E =0.582077E-10
       N       E                     dE             d eps       ncg     rms          rms(c)
DAV:   1    -0.222092231642E+03    0.13752E-08    0.84497E-11   198   0.135E-10    0.242E-10
RMM:   2    -0.222092231643E+03   -0.13861E-08    0.00000E+00     0   0.983E-11
 258 F= -.22209223E+03 E0= -.22210973E+03  d E =0.291038E-10
       N       E                     dE             d eps       ncg     rms          rms(c)
DAV:   1    -0.222092231643E+03   -0.12878E-08    0.42834E-13   198   0.138E-10    0.329E-10
RMM:   2    -0.222092231643E+03   -0.34561E-09    0.00000E+00     0   0.116E-10
 259 F= -.22209223E+03 E0= -.22210973E+03  d E =-.247383E-09
       N       E                     dE             d eps       ncg     rms          rms(c)
DAV:   1    -0.222092231644E+03   -0.37835E-09    0.72027E-11   198   0.172E-10    0.457E-10
RMM:   2    -0.222092231643E+03    0.13824E-09    0.00000E+00     0   0.174E-10
 260 F= -.22209223E+03 E0= -.22210973E+03  d E =0.105501E-09
       N       E                     dE             d eps       ncg     rms          rms(c)
DAV:   1    -0.222092231644E+03   -0.10914E-09    0.88369E-11   198   0.274E-10    0.517E-10
RMM:   2    -0.222092231643E+03    0.37107E-09    0.00000E+00     0   0.182E-10
 261 F= -.22209223E+03 E0= -.22210973E+03  d E =0.123691E-09
       N       E                     dE             d eps       ncg     rms          rms(c)
DAV:   1    -0.222092231644E+03   -0.34197E-09   -0.18994E-11   198   0.278E-10    0.304E-10
RMM:   2    -0.222092231643E+03    0.61482E-09    0.00000E+00     0   0.138E-10
 262 F= -.22209223E+03 E0= -.22210973E+03  d E =-.982254E-10
       N       E                     dE             d eps       ncg     rms          rms(c)
DAV:   1    -0.222092231643E+03    0.14297E-08    0.46426E-11   198   0.234E-10    0.259E-10
RMM:   2    -0.222092231643E+03   -0.85493E-09    0.00000E+00     0   0.108E-10
 263 F= -.22209223E+03 E0= -.22210973E+03  d E =-.400178E-10
       N       E                     dE             d eps       ncg     rms          rms(c)
DAV:   1    -0.222092231644E+03   -0.14770E-08    0.79863E-11   198   0.179E-10    0.276E-10
RMM:   2    -0.222092231643E+03    0.63301E-09    0.00000E+00     0   0.111E-10
 264 F= -.22209223E+03 E0= -.22210973E+03  d E =0.109139E-10
       N       E                     dE             d eps       ncg     rms          rms(c)
DAV:   1    -0.222092231645E+03   -0.10441E-08    0.20412E-11   198   0.184E-10    0.395E-10
RMM:   2    -0.222092231643E+03    0.17935E-08    0.00000E+00     0   0.146E-10
 265 F= -.22209223E+03 E0= -.22210973E+03  d E =0.116415E-09
       N       E                     dE             d eps       ncg     rms          rms(c)
DAV:   1    -0.222092231644E+03    0.15061E-08    0.52520E-12   198   0.251E-10    0.412E-10
RMM:   2    -0.222092231643E+03    0.17099E-09    0.00000E+00     0   0.145E-10
 266 F= -.22209223E+03 E0= -.22210973E+03  d E =-.116415E-09
       N       E                     dE             d eps       ncg     rms          rms(c)
DAV:   1    -0.222092231643E+03    0.21100E-09   -0.29862E-11   198   0.266E-10    0.405E-10
RMM:   2    -0.222092231643E+03    0.76398E-10    0.00000E+00     0   0.151E-10
 267 F= -.22209223E+03 E0= -.22210973E+03  d E =0.116415E-09
       N       E                     dE             d eps       ncg     rms          rms(c)
DAV:   1    -0.222092231643E+03    0.12733E-09    0.20699E-11   198   0.222E-10    0.227E-10
RMM:   2    -0.222092231643E+03   -0.69122E-10    0.00000E+00     0   0.106E-10
 268 F= -.22209223E+03 E0= -.22210973E+03  d E =-.181899E-10
       N       E                     dE             d eps       ncg     rms          rms(c)
DAV:   1    -0.222092231644E+03   -0.55297E-09    0.14372E-10   198   0.149E-10    0.248E-10
RMM:   2    -0.222092231643E+03    0.52023E-09    0.00000E+00     0   0.106E-10
 269 F= -.22209223E+03 E0= -.22210973E+03  d E =0.363798E-10
       N       E                     dE             d eps       ncg     rms          rms(c)
DAV:   1    -0.222092231642E+03    0.14043E-08    0.24106E-11   198   0.168E-10    0.305E-10
RMM:   2    -0.222092231643E+03   -0.89130E-09    0.00000E+00     0   0.111E-10
 270 F= -.22209223E+03 E0= -.22210973E+03  d E =-.727596E-11
       N       E                     dE             d eps       ncg     rms          rms(c)
DAV:   1    -0.222092231643E+03   -0.80036E-09   -0.16472E-11   198   0.152E-10    0.225E-10
RMM:   2    -0.222092231643E+03   -0.76398E-10    0.00000E+00     0   0.110E-10
 271 F= -.22209223E+03 E0= -.22210973E+03  d E =0.145519E-10
       N       E                     dE             d eps       ncg     rms          rms(c)
DAV:   1    -0.222092231642E+03    0.91677E-09   -0.35615E-11   198   0.144E-10    0.270E-10
RMM:   2    -0.222092231643E+03   -0.10768E-08    0.00000E+00     0   0.112E-10
 272 F= -.22209223E+03 E0= -.22210973E+03  d E =-.836735E-10
       N       E                     dE             d eps       ncg     rms          rms(c)
DAV:   1    -0.222092231643E+03   -0.82218E-09    0.32434E-11   198   0.170E-10    0.438E-10
RMM:   2    -0.222092231643E+03   -0.22192E-09    0.00000E+00     0   0.152E-10
 273 F= -.22209223E+03 E0= -.22210973E+03  d E =0.327418E-10
       N       E                     dE             d eps       ncg     rms          rms(c)
DAV:   1    -0.222092231643E+03    0.52387E-09    0.34957E-11   198   0.250E-10    0.302E-10
RMM:   2    -0.222092231643E+03   -0.89494E-09    0.00000E+00     0   0.115E-10
 274 F= -.22209223E+03 E0= -.22210973E+03  d E =-.149157E-09
       N       E                     dE             d eps       ncg     rms          rms(c)
DAV:   1    -0.222092231643E+03   -0.88039E-09    0.22570E-11   198   0.165E-10    0.246E-10
RMM:   2    -0.222092231643E+03    0.80036E-10    0.00000E+00     0   0.101E-10
 275 F= -.22209223E+03 E0= -.22210973E+03  d E =0.945874E-10
       N       E                     dE             d eps       ncg     rms          rms(c)
DAV:   1    -0.222092231643E+03    0.29104E-10   -0.52233E-11   198   0.117E-10    0.329E-10
RMM:   2    -0.222092231643E+03    0.72760E-11    0.00000E+00     0   0.995E-11
 276 F= -.22209223E+03 E0= -.22210973E+03  d E =-.436557E-10
       N       E                     dE             d eps       ncg     rms          rms(c)
DAV:   1    -0.222092231643E+03    0.78580E-09   -0.45599E-11   198   0.182E-10    0.203E-10
RMM:   2    -0.222092231643E+03   -0.84765E-09    0.00000E+00     0   0.779E-11
 277 F= -.22209223E+03 E0= -.22210973E+03  d E =-.691216E-10
       N       E                     dE             d eps       ncg     rms          rms(c)
DAV:   1    -0.222092231644E+03   -0.99681E-09   -0.97904E-11   198   0.109E-10    0.324E-10
RMM:   2    -0.222092231643E+03    0.28012E-09    0.00000E+00     0   0.118E-10
 278 F= -.22209223E+03 E0= -.22210973E+03  d E =0.130967E-09
       N       E                     dE             d eps       ncg     rms          rms(c)
DAV:   1    -0.222092231644E+03   -0.35288E-09    0.10253E-10   198   0.183E-10    0.335E-10
RMM:   2    -0.222092231643E+03    0.55297E-09    0.00000E+00     0   0.120E-10
 279 F= -.22209223E+03 E0= -.22210973E+03  d E =-.800355E-10
       N       E                     dE             d eps       ncg     rms          rms(c)
DAV:   1    -0.222092231643E+03    0.57116E-09   -0.73343E-13   198   0.197E-10    0.290E-10
RMM:   2    -0.222092231643E+03   -0.87311E-10    0.00000E+00     0   0.104E-10
 280 F= -.22209223E+03 E0= -.22210973E+03  d E =-.691216E-10
       N       E                     dE             d eps       ncg     rms          rms(c)
DAV:   1    -0.222092231643E+03    0.29831E-09    0.12958E-10   198   0.160E-10    0.340E-10
RMM:   2    -0.222092231643E+03   -0.15280E-09    0.00000E+00     0   0.134E-10
 281 F= -.22209223E+03 E0= -.22210973E+03  d E =0.232831E-09
       N       E                     dE             d eps       ncg     rms          rms(c)
DAV:   1    -0.222092231644E+03   -0.80036E-09    0.44739E-11   198   0.238E-10    0.365E-10
RMM:   2    -0.222092231643E+03    0.53842E-09    0.00000E+00     0   0.155E-10
 282 F= -.22209223E+03 E0= -.22210973E+03  d E =-.109139E-09
       N       E                     dE             d eps       ncg     rms          rms(c)
DAV:   1    -0.222092231642E+03    0.14552E-08   -0.34416E-11   198   0.279E-10    0.256E-10
RMM:   2    -0.222092231643E+03   -0.98953E-09    0.00000E+00     0   0.111E-10
 283 F= -.22209223E+03 E0= -.22210973E+03  d E =-.727596E-10
       N       E                     dE             d eps       ncg     rms          rms(c)
DAV:   1    -0.222092231643E+03   -0.34561E-09    0.54370E-11   198   0.185E-10    0.318E-10
RMM:   2    -0.222092231643E+03   -0.55661E-09    0.00000E+00     0   0.108E-10
 284 F= -.22209223E+03 E0= -.22210973E+03  d E =0.873115E-10
       N       E                     dE             d eps       ncg     rms          rms(c)
DAV:   1    -0.222092231644E+03   -0.11896E-08    0.89834E-12   198   0.183E-10    0.343E-10
RMM:   2    -0.222092231643E+03    0.56752E-09    0.00000E+00     0   0.121E-10
 285 F= -.22209223E+03 E0= -.22210973E+03  d E =-.654836E-10
       N       E                     dE             d eps       ncg     rms          rms(c)
DAV:   1    -0.222092231642E+03    0.17317E-08    0.75344E-11   198   0.199E-10    0.253E-10
RMM:   2    -0.222092231643E+03   -0.12078E-08    0.00000E+00     0   0.946E-11
 286 F= -.22209223E+03 E0= -.22210973E+03  d E =-.436557E-10
       N       E                     dE             d eps       ncg     rms          rms(c)
DAV:   1    -0.222092231643E+03   -0.44747E-09    0.89866E-11   198   0.134E-10    0.287E-10
RMM:   2    -0.222092231643E+03   -0.77125E-09    0.00000E+00     0   0.100E-10
 287 F= -.22209223E+03 E0= -.22210973E+03  d E =-.109139E-10
       N       E                     dE             d eps       ncg     rms          rms(c)
DAV:   1    -0.222092231645E+03   -0.19245E-08    0.50292E-11   198   0.141E-10    0.167E-10
RMM:   2    -0.222092231643E+03    0.12878E-08    0.00000E+00     0   0.742E-11
 288 F= -.22209223E+03 E0= -.22210973E+03  d E =0.134605E-09
       N       E                     dE             d eps       ncg     rms          rms(c)
DAV:   1    -0.222092231643E+03    0.17426E-08   -0.81420E-11   198   0.880E-11    0.345E-10
RMM:   2    -0.222092231643E+03   -0.51659E-09    0.00000E+00     0   0.119E-10
 289 F= -.22209223E+03 E0= -.22210973E+03  d E =-.618456E-10
       N       E                     dE             d eps       ncg     rms          rms(c)
DAV:   1    -0.222092231642E+03    0.43656E-09    0.43255E-11   198   0.175E-10    0.205E-10
RMM:   2    -0.222092231643E+03   -0.10332E-08    0.00000E+00     0   0.101E-10
 290 F= -.22209223E+03 E0= -.22210973E+03  d E =-.800355E-10
       N       E                     dE             d eps       ncg     rms          rms(c)
DAV:   1    -0.222092231644E+03   -0.10987E-08    0.64746E-11   198   0.134E-10    0.329E-10
RMM:   2    -0.222092231643E+03    0.12733E-09    0.00000E+00     0   0.131E-10
 291 F= -.22209223E+03 E0= -.22210973E+03  d E =0.618456E-10
       N       E                     dE             d eps       ncg     rms          rms(c)
DAV:   1    -0.222092231643E+03    0.20736E-09    0.75365E-11   198   0.208E-10    0.277E-10
RMM:   2    -0.222092231643E+03   -0.13097E-09    0.00000E+00     0   0.993E-11
 292 F= -.22209223E+03 E0= -.22210973E+03  d E =-.509317E-10
       N       E                     dE             d eps       ncg     rms          rms(c)
DAV:   1    -0.222092231643E+03    0.18190E-10    0.25391E-11   198   0.142E-10    0.322E-10
RMM:   2    -0.222092231643E+03   -0.14188E-09    0.00000E+00     0   0.121E-10
 293 F= -.22209223E+03 E0= -.22210973E+03  d E =0.727596E-11
       N       E                     dE             d eps       ncg     rms          rms(c)
DAV:   1    -0.222092231643E+03    0.32742E-09    0.84804E-11   198   0.205E-10    0.257E-10
RMM:   2    -0.222092231643E+03   -0.40745E-09    0.00000E+00     0   0.108E-10
 294 F= -.22209223E+03 E0= -.22210973E+03  d E =0.618456E-10
       N       E                     dE             d eps       ncg     rms          rms(c)
DAV:   1    -0.222092231644E+03   -0.10295E-08    0.23842E-11   198   0.163E-10    0.339E-10
RMM:   2    -0.222092231643E+03    0.56752E-09    0.00000E+00     0   0.116E-10
 295 F= -.22209223E+03 E0= -.22210973E+03  d E =-.545697E-10
       N       E                     dE             d eps       ncg     rms          rms(c)
DAV:   1    -0.222092231643E+03    0.51296E-09    0.19856E-11   198   0.171E-10    0.294E-10
RMM:   2    -0.222092231643E+03    0.47294E-10    0.00000E+00     0   0.122E-10
 296 F= -.22209223E+03 E0= -.22210973E+03  d E =-.727596E-11
       N       E                     dE             d eps       ncg     rms          rms(c)
DAV:   1    -0.222092231643E+03    0.50932E-09    0.85337E-12   198   0.188E-10    0.285E-10
RMM:   2    -0.222092231643E+03   -0.49477E-09    0.00000E+00     0   0.114E-10
 297 F= -.22209223E+03 E0= -.22210973E+03  d E =-.327418E-10
       N       E                     dE             d eps       ncg     rms          rms(c)
DAV:   1    -0.222092231643E+03   -0.45839E-09    0.12488E-10   198   0.175E-10    0.339E-10
RMM:   2    -0.222092231643E+03    0.17099E-09    0.00000E+00     0   0.109E-10
 298 F= -.22209223E+03 E0= -.22210973E+03  d E =0.207365E-09
       N       E                     dE             d eps       ncg     rms          rms(c)
DAV:   1    -0.222092231643E+03    0.51296E-09    0.28399E-12   198   0.193E-10    0.225E-10
RMM:   2    -0.222092231643E+03   -0.50932E-09    0.00000E+00     0   0.107E-10
 299 F= -.22209223E+03 E0= -.22210973E+03  d E =-.167347E-09
       N       E                     dE             d eps       ncg     rms          rms(c)
DAV:   1    -0.222092231643E+03   -0.30195E-09    0.64313E-11   198   0.146E-10    0.240E-10
RMM:   2    -0.222092231643E+03   -0.61846E-10    0.00000E+00     0   0.857E-11
 300 F= -.22209223E+03 E0= -.22210973E+03  d E =0.145519E-09
