LAMMPS data file. CGCMM style. atom_style full generated by VMD/TopoTools v1.7 on Sun Oct 22 08:54:34 -0400 2023
 12680 atoms
 10320 bonds
 11830 angles
 0 dihedrals
 0 impropers
 8 atom types
 5 bond types
 5 angle types
 0 dihedral types
 0 improper types
 -0.500000 80.00000  xlo xhi
 -0.500000 80.00000  ylo yhi
 -80.00000 160.20000  zlo zhi

# Pair Coeffs
#
# 1  C
# 2  CA
# 3  Cu
# 4  H
# 5  N1
# 6  N2
# 7  O
# 8  OW

# Bond Coeffs
#
# 1  C-C
# 2  C-H
# 3  C-O
# 4  CA-OW
# 5  N1-N2

# Angle Coeffs
#
# 1  C-C-C
# 2  C-C-H
# 3  C-C-O
# 4  O-C-O
# 5  OW-CA-OW

 Masses

 1 12.011000 # C
 2 12.010700 # CA
 3 63.546000 # Cu
 4 1.008000 # H
 5 14.006700 # N1
 6 14.006700 # N2
 7 15.999000 # O
 8 15.999400 # OW

 Atoms # full

1 1 3 0.000000 13.683000 42.714001 51.396999 # Cu BNS
2 1 3 0.000000 12.831000 32.284000 46.987000 # Cu BNS
3 1 3 0.000000 12.590000 47.185001 41.015999 # Cu BNS
4 1 3 0.000000 11.733000 36.758999 36.613998 # Cu BNS
5 1 3 0.000000 6.529000 42.148998 39.485001 # Cu BNS
6 1 3 0.000000 7.622000 37.678001 49.866001 # Cu BNS
7 1 3 0.000000 17.794001 41.794998 38.145000 # Cu BNS
8 1 3 0.000000 18.892000 37.320000 48.518002 # Cu BNS
9 1 3 0.000000 17.915001 34.344002 41.130001 # Cu BNS
10 1 3 0.000000 6.650000 34.699001 42.470001 # Cu BNS
11 1 3 0.000000 18.771000 44.771000 45.533001 # Cu BNS
12 1 3 0.000000 7.502000 45.127998 46.881001 # Cu BNS
13 1 4 0.000000 2.409000 45.334000 40.918999 # H BNS
14 1 4 0.000000 9.737000 51.422001 42.771000 # H BNS
15 1 4 0.000000 9.111000 45.571999 39.053001 # H BNS
16 1 4 0.000000 2.818000 52.088001 42.523998 # H BNS
17 1 4 0.000000 5.520000 44.119999 43.191002 # H BNS
18 1 4 0.000000 5.374000 53.125999 39.583000 # H BNS
19 1 4 0.000000 7.182000 50.383999 45.712002 # H BNS
20 1 4 0.000000 6.001000 46.785999 36.779999 # H BNS
21 1 4 0.000000 2.904000 46.828999 44.631001 # H BNS
22 1 4 0.000000 9.051000 49.320000 37.550999 # H BNS
23 1 4 0.000000 2.324000 50.592999 38.812000 # H BNS
24 1 4 0.000000 9.798000 47.674000 44.271999 # H BNS
25 1 4 0.000000 15.679000 28.049999 45.241001 # H BNS
26 1 4 0.000000 23.007000 34.138000 47.091999 # H BNS
27 1 4 0.000000 16.306000 33.902000 48.959000 # H BNS
28 1 4 0.000000 22.598000 27.384001 45.487000 # H BNS
29 1 4 0.000000 15.619000 31.799000 43.738998 # H BNS
30 1 4 0.000000 23.091999 28.879000 49.199001 # H BNS
31 1 4 0.000000 22.511999 32.643002 43.380001 # H BNS
32 1 4 0.000000 16.367001 30.153000 50.460999 # H BNS
33 1 4 0.000000 18.235001 29.087999 42.299000 # H BNS
34 1 4 0.000000 19.415001 32.686001 51.230999 # H BNS
35 1 4 0.000000 20.042999 26.346001 48.429001 # H BNS
36 1 4 0.000000 19.896999 35.354000 44.820000 # H BNS
37 1 1 0.000000 2.883000 45.360001 41.719002 # C BNS
38 1 1 0.000000 9.414000 50.787998 43.368999 # C BNS
39 1 1 0.000000 8.694000 46.229000 38.542000 # C BNS
40 1 1 0.000000 3.085000 52.037998 41.637001 # C BNS
41 1 1 0.000000 4.751000 44.632000 43.084000 # C BNS
42 1 1 0.000000 4.621000 52.660000 39.867001 # C BNS
43 1 1 0.000000 7.878000 50.166000 45.139000 # C BNS
44 1 1 0.000000 6.825000 46.959000 37.176998 # C BNS
45 1 1 0.000000 3.178000 46.259998 43.952000 # C BNS
46 1 1 0.000000 8.657000 48.480999 37.639999 # C BNS
47 1 1 0.000000 2.789000 51.138000 39.403999 # C BNS
48 1 1 0.000000 9.451000 48.536999 44.271000 # C BNS
49 1 1 0.000000 16.002001 28.684999 44.641998 # C BNS
50 1 1 0.000000 22.533001 34.112000 46.292000 # C BNS
51 1 1 0.000000 16.723000 33.243000 49.469002 # C BNS
52 1 1 0.000000 22.332001 27.434999 46.375000 # C BNS
53 1 1 0.000000 15.965000 30.936001 43.740002 # C BNS
54 1 1 0.000000 22.627001 28.334000 48.606998 # C BNS
55 1 1 0.000000 22.239000 33.212002 44.060001 # C BNS
56 1 1 0.000000 16.759001 30.993000 50.370998 # C BNS
57 1 1 0.000000 17.539000 29.306999 42.872002 # C BNS
58 1 1 0.000000 18.591000 32.514000 50.834000 # C BNS
59 1 1 0.000000 20.795000 26.812000 48.144001 # C BNS
60 1 1 0.000000 20.665001 34.841999 44.926998 # C BNS
61 1 1 0.000000 2.460000 46.192001 42.758999 # C BNS
62 1 1 0.000000 1.297000 47.118000 42.542000 # C BNS
63 1 1 0.000000 9.950000 49.499001 43.390999 # C BNS
64 1 1 0.000000 10.982000 49.106998 42.372002 # C BNS
65 1 1 0.000000 9.287000 47.480999 38.382000 # C BNS
66 1 1 0.000000 10.553000 47.799000 39.124001 # C BNS
67 1 1 0.000000 2.378000 51.244999 40.735001 # C BNS
68 1 1 0.000000 1.244000 50.391998 41.230000 # C BNS
69 1 1 0.000000 4.024000 44.574001 41.893002 # C BNS
70 1 1 0.000000 4.543000 43.757000 40.744999 # C BNS
71 1 1 0.000000 4.195000 52.754002 41.194000 # C BNS
72 1 1 0.000000 5.018000 53.528999 42.182999 # C BNS
73 1 1 0.000000 8.387000 51.116001 44.256001 # C BNS
74 1 1 0.000000 7.735000 52.467999 44.167999 # C BNS
75 1 1 0.000000 7.470000 45.972000 37.923000 # C BNS
76 1 1 0.000000 6.779000 44.661999 38.169998 # C BNS
77 1 1 0.000000 4.313000 45.467999 44.112999 # C BNS
78 1 1 0.000000 5.147000 45.613998 45.354000 # C BNS
79 1 1 0.000000 7.434000 48.205002 37.028999 # C BNS
80 1 1 0.000000 6.703000 49.303001 36.311001 # C BNS
81 1 1 0.000000 3.906000 51.860001 38.973999 # C BNS
82 1 1 0.000000 4.415000 51.672001 37.574001 # C BNS
83 1 1 0.000000 8.423000 48.882999 45.151001 # C BNS
84 1 1 0.000000 7.811000 47.827000 46.028000 # C BNS
85 1 1 0.000000 17.028999 28.356001 43.755001 # C BNS
86 1 1 0.000000 17.681999 27.004999 43.842999 # C BNS
87 1 1 0.000000 21.393000 34.898998 46.118000 # C BNS
88 1 1 0.000000 20.872999 35.715000 47.265999 # C BNS
89 1 1 0.000000 17.945999 33.500999 50.088001 # C BNS
90 1 1 0.000000 18.638000 34.810001 49.841000 # C BNS
91 1 1 0.000000 21.221001 26.718000 46.818001 # C BNS
92 1 1 0.000000 20.398001 25.944000 45.827999 # C BNS
93 1 1 0.000000 15.466000 29.974001 44.620998 # C BNS
94 1 1 0.000000 14.435000 30.365000 45.639999 # C BNS
95 1 1 0.000000 23.039000 28.229000 47.277000 # C BNS
96 1 1 0.000000 24.172001 29.080000 46.782001 # C BNS
97 1 1 0.000000 22.957001 33.280998 45.252998 # C BNS
98 1 1 0.000000 24.118999 32.354000 45.470001 # C BNS
99 1 1 0.000000 16.129000 31.990999 49.629002 # C BNS
100 1 1 0.000000 14.863000 31.673000 48.888000 # C BNS
101 1 1 0.000000 16.993000 30.590000 42.860001 # C BNS
102 1 1 0.000000 17.606001 31.645000 41.984001 # C BNS
103 1 1 0.000000 17.982000 31.267000 50.983002 # C BNS
104 1 1 0.000000 18.714001 30.170000 51.700001 # C BNS
105 1 1 0.000000 21.511000 27.612000 49.037998 # C BNS
106 1 1 0.000000 21.000999 27.801001 50.437000 # C BNS
107 1 1 0.000000 21.103001 34.004002 43.897999 # C BNS
108 1 1 0.000000 20.270000 33.859001 42.657001 # C BNS
109 1 7 0.000000 15.100000 41.462002 51.912998 # O BNS
110 1 7 0.000000 11.624000 32.668999 48.492001 # O BNS
111 1 7 0.000000 11.045000 46.890999 39.848999 # O BNS
112 1 7 0.000000 13.064000 37.923000 35.769001 # O BNS
113 1 7 0.000000 5.617000 43.125999 40.929001 # O BNS
114 1 7 0.000000 6.344000 36.771999 48.688999 # O BNS
115 1 7 0.000000 18.865000 40.158001 38.247002 # O BNS
116 1 7 0.000000 20.007000 38.889000 48.158001 # O BNS
117 1 7 0.000000 16.864000 33.903999 39.537998 # O BNS
118 1 7 0.000000 7.534000 33.115002 43.209999 # O BNS
119 1 7 0.000000 18.148001 45.266998 47.332001 # O BNS
120 1 7 0.000000 8.287000 46.659000 45.943001 # O BNS
121 1 7 0.000000 16.957001 43.527000 37.776001 # O BNS
122 1 7 0.000000 7.153000 41.285999 37.841999 # O BNS
123 1 7 0.000000 18.056000 35.643002 49.092999 # O BNS
124 1 7 0.000000 8.668000 38.487999 51.311001 # O BNS
125 1 7 0.000000 14.041000 31.559999 45.626999 # O BNS
126 1 7 0.000000 10.357000 35.459000 37.120998 # O BNS
127 1 7 0.000000 12.311000 44.101002 51.220001 # O BNS
128 1 7 0.000000 14.124000 47.825001 42.055000 # O BNS
129 1 7 0.000000 6.478000 43.845001 47.950001 # O BNS
130 1 7 0.000000 5.483000 36.053001 41.667999 # O BNS
131 1 7 0.000000 19.667000 44.508999 43.812000 # O BNS
132 1 7 0.000000 19.205000 34.537998 42.592999 # O BNS
133 1 7 0.000000 10.316000 38.009998 36.098000 # O BNS
134 1 7 0.000000 13.793000 46.804001 39.520000 # O BNS
135 1 7 0.000000 14.371000 32.581001 48.161999 # O BNS
136 1 7 0.000000 12.352000 41.549000 52.242001 # O BNS
137 1 7 0.000000 19.799999 36.346001 47.082001 # O BNS
138 1 7 0.000000 19.073000 42.701000 39.321999 # O BNS
139 1 7 0.000000 6.552000 39.314999 49.764999 # O BNS
140 1 7 0.000000 5.409000 40.583000 39.853001 # O BNS
141 1 7 0.000000 8.553000 45.569000 48.473999 # O BNS
142 1 7 0.000000 17.882000 46.356998 44.800999 # O BNS
143 1 7 0.000000 7.268000 34.205002 40.679001 # O BNS
144 1 7 0.000000 17.129999 32.813999 42.069000 # O BNS
145 1 7 0.000000 8.461000 35.945000 50.235001 # O BNS
146 1 7 0.000000 18.263000 38.186001 50.168999 # O BNS
147 1 7 0.000000 7.360000 43.828999 38.917999 # O BNS
148 1 7 0.000000 16.749001 40.984001 36.700001 # O BNS
149 1 7 0.000000 11.377000 47.911999 42.383999 # O BNS
150 1 7 0.000000 15.059000 44.014000 50.890999 # O BNS
151 1 7 0.000000 13.105000 35.370998 36.792000 # O BNS
152 1 7 0.000000 11.292000 31.648001 45.956001 # O BNS
153 1 7 0.000000 18.938999 35.627998 40.062000 # O BNS
154 1 7 0.000000 19.934000 43.418999 46.342999 # O BNS
155 1 7 0.000000 5.749000 34.963001 44.200001 # O BNS
156 1 7 0.000000 6.212000 44.935001 45.418999 # O BNS
157 1 7 0.000000 1.001000 47.907001 43.476002 # O BNS
158 1 7 0.000000 0.729000 47.076000 41.412998 # O BNS
159 1 7 0.000000 11.343000 49.990002 41.551998 # O BNS
160 1 7 0.000000 11.012000 48.969002 39.015999 # O BNS
161 1 7 0.000000 0.959000 50.458000 42.453999 # O BNS
162 1 7 0.000000 0.688000 49.626999 40.390999 # O BNS
163 1 7 0.000000 3.892000 43.799000 39.668999 # O BNS
164 1 7 0.000000 4.643000 53.520000 43.384998 # O BNS
165 1 7 0.000000 6.063000 54.094002 41.749001 # O BNS
166 1 7 0.000000 6.760000 52.693001 44.931000 # O BNS
167 1 7 0.000000 8.180000 53.266998 43.294998 # O BNS
168 1 7 0.000000 5.636000 44.502998 37.658001 # O BNS
169 1 7 0.000000 4.758000 46.438999 46.222000 # O BNS
170 1 7 0.000000 5.563000 49.032001 35.842999 # O BNS
171 1 7 0.000000 7.253000 50.438000 36.270000 # O BNS
172 1 7 0.000000 3.778000 50.880001 36.832001 # O BNS
173 1 7 0.000000 5.468000 52.285000 37.258999 # O BNS
174 1 7 0.000000 6.833000 48.164001 46.745998 # O BNS
175 1 7 0.000000 17.237000 26.205000 44.716999 # O BNS
176 1 7 0.000000 18.652000 26.782000 43.089001 # O BNS
177 1 7 0.000000 21.525000 35.673000 48.341999 # O BNS
178 1 7 0.000000 19.780001 34.970001 50.353001 # O BNS
179 1 7 0.000000 19.354000 25.379000 46.263000 # O BNS
180 1 7 0.000000 20.768000 25.955999 44.634998 # O BNS
181 1 7 0.000000 14.074000 29.482000 46.459999 # O BNS
182 1 7 0.000000 24.729000 29.844999 47.620998 # O BNS
183 1 7 0.000000 24.452999 29.018000 45.566002 # O BNS
184 1 7 0.000000 24.688000 32.396000 46.598999 # O BNS
185 1 7 0.000000 24.412001 31.568001 44.543999 # O BNS
186 1 7 0.000000 14.405000 30.503000 48.994999 # O BNS
187 1 7 0.000000 18.577999 31.313000 41.272999 # O BNS
188 1 7 0.000000 18.163000 29.035000 51.741001 # O BNS
189 1 7 0.000000 19.854000 30.440001 52.167999 # O BNS
190 1 7 0.000000 19.948000 27.187000 50.751999 # O BNS
191 1 7 0.000000 21.639000 28.591999 51.179001 # O BNS
192 1 7 0.000000 20.653000 33.036999 41.798000 # O BNS
193 1 1 0.000000 15.668000 41.505001 53.042000 # C BNS
194 1 1 0.000000 11.263000 31.785000 49.312000 # C BNS
195 1 1 0.000000 13.344000 37.860001 34.553001 # C BNS
196 1 1 0.000000 5.299000 36.207001 49.123001 # C BNS
197 1 1 0.000000 19.836000 39.935001 37.492001 # C BNS
198 1 1 0.000000 21.150000 39.049000 48.669998 # C BNS
199 1 1 0.000000 17.247000 33.082001 38.678001 # C BNS
200 1 1 0.000000 6.984000 31.981001 43.250999 # C BNS
201 1 1 0.000000 18.785999 46.057999 48.074001 # C BNS
202 1 1 0.000000 17.400999 44.327000 36.903000 # C BNS
203 1 1 0.000000 6.502000 41.328999 36.765999 # C BNS
204 1 1 0.000000 8.292000 38.479000 52.512001 # C BNS
205 1 1 0.000000 9.801000 34.694000 36.280998 # C BNS
206 1 1 0.000000 12.014000 44.890999 52.153999 # C BNS
207 1 1 0.000000 14.583000 48.995998 41.946999 # C BNS
208 1 1 0.000000 5.501000 44.180000 48.667999 # C BNS
209 1 1 0.000000 4.342000 35.783001 41.200001 # C BNS
210 1 1 0.000000 20.719999 45.122002 43.497002 # C BNS
211 1 1 0.000000 9.748000 37.969002 34.969002 # C BNS
212 1 1 0.000000 14.154000 47.687000 38.699001 # C BNS
213 1 1 0.000000 12.067000 41.616001 53.466000 # C BNS
214 1 1 0.000000 20.117001 43.265999 38.888000 # C BNS
215 1 1 0.000000 5.576000 39.541000 50.527000 # C BNS
216 1 1 0.000000 4.267000 40.423000 39.341000 # C BNS
217 1 1 0.000000 8.164000 46.394001 49.341000 # C BNS
218 1 1 0.000000 18.433001 47.492001 44.759998 # C BNS
219 1 1 0.000000 6.630000 33.414001 39.937000 # C BNS
220 1 1 0.000000 8.016000 35.146000 51.109001 # C BNS
221 1 1 0.000000 18.914000 38.144001 51.244999 # C BNS
222 1 1 0.000000 17.118999 40.995998 35.507000 # C BNS
223 1 1 0.000000 15.615000 44.778999 51.730000 # C BNS
224 1 1 0.000000 13.397000 34.585999 35.865002 # C BNS
225 1 1 0.000000 10.834000 30.476999 46.063999 # C BNS
226 1 1 0.000000 19.910999 35.294998 39.351002 # C BNS
227 1 1 0.000000 21.073999 43.688999 46.811001 # C BNS
228 1 1 0.000000 4.696000 34.349998 44.514000 # C BNS
229 1 1 0.000000 16.830999 40.577999 53.258999 # C BNS
230 1 7 0.000000 15.371000 42.292999 53.976002 # O BNS
231 1 7 0.000000 11.657000 30.591000 49.324001 # O BNS
232 1 1 0.000000 10.231000 32.175999 50.331001 # C BNS
233 1 1 0.000000 14.479000 38.712002 34.058998 # C BNS
234 1 7 0.000000 12.788000 37.095001 33.714001 # O BNS
235 1 7 0.000000 4.924000 36.198002 50.325001 # O BNS
236 1 1 0.000000 4.476000 35.431999 48.133999 # C BNS
237 1 1 0.000000 20.488001 38.584999 37.580002 # C BNS
238 1 7 0.000000 20.280001 40.734001 36.618999 # O BNS
239 1 1 0.000000 21.841000 40.358002 48.424000 # C BNS
240 1 7 0.000000 21.731001 38.216000 49.417999 # O BNS
241 1 7 0.000000 18.312000 32.403000 38.742001 # O BNS
242 1 1 0.000000 16.414000 32.935001 37.437000 # C BNS
243 1 1 0.000000 7.715000 30.884001 43.969002 # C BNS
244 1 7 0.000000 5.844000 31.711000 42.783001 # O BNS
245 1 1 0.000000 18.277000 46.247002 49.473999 # C BNS
246 1 7 0.000000 19.839001 46.672001 47.758999 # O BNS
247 1 7 0.000000 18.371000 44.105000 36.147999 # O BNS
248 1 1 0.000000 16.747999 45.678001 36.814999 # C BNS
249 1 1 0.000000 7.021000 40.513000 35.618000 # C BNS
250 1 7 0.000000 5.429000 41.959999 36.582001 # O BNS
251 1 7 0.000000 7.248000 37.915001 52.946999 # O BNS
252 1 1 0.000000 9.116000 39.252998 53.501999 # C BNS
253 1 7 0.000000 10.081000 34.631001 35.066002 # O BNS
254 1 1 0.000000 8.667000 33.841999 36.776001 # C BNS
255 1 7 0.000000 12.582000 44.931999 53.283001 # O BNS
256 1 1 0.000000 10.851000 45.816002 51.937000 # C BNS
257 1 1 0.000000 15.849000 49.313000 42.688999 # C BNS
258 1 7 0.000000 14.090000 49.903000 41.222000 # O BNS
259 1 1 0.000000 4.888000 43.125000 49.543999 # C BNS
260 1 7 0.000000 5.025000 45.348999 48.752998 # O BNS
261 1 7 0.000000 3.792000 34.648998 41.241001 # O BNS
262 1 1 0.000000 3.612000 36.881001 40.483002 # C BNS
263 1 7 0.000000 21.358999 45.914001 44.238998 # O BNS
264 1 1 0.000000 21.230000 44.935001 42.097000 # C BNS
265 1 7 0.000000 10.040000 37.181999 34.042999 # O BNS
266 1 1 0.000000 8.585000 38.894001 34.751999 # C BNS
267 1 1 0.000000 15.185000 47.296001 37.680000 # C BNS
268 1 7 0.000000 13.760000 48.882000 38.687000 # O BNS
269 1 7 0.000000 12.623000 42.381001 54.305000 # O BNS
270 1 1 0.000000 10.933000 40.764000 53.960999 # C BNS
271 1 1 0.000000 20.940001 44.040001 39.876999 # C BNS
272 1 7 0.000000 20.487000 43.277000 37.695000 # O BNS
273 1 7 0.000000 5.132000 38.741001 51.401001 # O BNS
274 1 1 0.000000 4.925000 40.890999 50.439999 # C BNS
275 1 1 0.000000 3.575000 39.115002 39.588001 # C BNS
276 1 7 0.000000 3.685000 41.256001 38.594002 # O BNS
277 1 1 0.000000 8.998000 46.540001 50.583000 # C BNS
278 1 7 0.000000 7.099000 47.074001 49.277000 # O BNS
279 1 7 0.000000 19.573000 47.762001 45.228001 # O BNS
280 1 1 0.000000 17.702000 48.589001 44.042000 # C BNS
281 1 7 0.000000 5.577000 32.800999 40.251999 # O BNS
282 1 1 0.000000 7.140000 33.226002 38.536999 # C BNS
283 1 1 0.000000 8.668000 33.794998 51.195999 # C BNS
284 1 7 0.000000 7.041000 35.372002 51.870998 # O BNS
285 1 7 0.000000 19.987000 37.513000 51.429001 # O BNS
286 1 1 0.000000 18.395000 38.959999 52.394001 # C BNS
287 1 1 0.000000 16.296000 40.222000 34.518002 # C BNS
288 1 7 0.000000 18.163000 41.562000 35.071999 # O BNS
289 1 1 0.000000 16.749001 45.630001 51.235001 # C BNS
290 1 7 0.000000 15.330000 44.845001 52.953999 # O BNS
291 1 1 0.000000 14.560000 33.660000 36.083000 # C BNS
292 1 7 0.000000 12.829000 34.542999 34.737000 # O BNS
293 1 7 0.000000 11.326000 29.570000 46.789001 # O BNS
294 1 1 0.000000 9.568000 30.159000 45.323002 # C BNS
295 1 1 0.000000 20.524000 36.349998 38.474998 # C BNS
296 1 7 0.000000 20.386999 34.126999 39.265999 # O BNS
297 1 1 0.000000 21.805000 42.591999 47.528000 # C BNS
298 1 7 0.000000 21.624001 44.823002 46.770000 # O BNS
299 1 1 0.000000 4.187000 34.537998 45.914001 # C BNS
300 1 7 0.000000 4.059000 33.558998 43.771999 # O BNS
301 1 1 0.000000 17.549000 40.646999 54.452000 # C BNS
302 1 1 0.000000 17.254999 39.747002 52.219002 # C BNS
303 1 1 0.000000 9.695000 33.466000 50.308998 # C BNS
304 1 1 0.000000 9.732000 31.215000 51.210999 # C BNS
305 1 1 0.000000 15.185000 39.506001 34.960999 # C BNS
306 1 1 0.000000 14.890000 38.605999 32.728001 # C BNS
307 1 1 0.000000 4.902000 35.339001 46.806999 # C BNS
308 1 1 0.000000 3.366000 34.716000 48.577000 # C BNS
309 1 1 0.000000 21.514999 38.255001 36.693001 # C BNS
310 1 1 0.000000 19.978001 37.633999 38.463001 # C BNS
311 1 1 0.000000 23.063999 40.616001 49.042000 # C BNS
312 1 1 0.000000 21.197001 41.345001 47.676998 # C BNS
313 1 1 0.000000 16.851000 32.098999 36.407001 # C BNS
314 1 1 0.000000 15.278000 33.728001 37.276001 # C BNS
315 1 1 0.000000 8.938000 31.158001 44.580002 # C BNS
316 1 1 0.000000 7.106000 29.636000 44.117001 # C BNS
317 1 1 0.000000 18.992001 47.047001 50.367001 # C BNS
318 1 1 0.000000 17.160999 45.525002 49.903999 # C BNS
319 1 1 0.000000 17.257999 46.629002 35.931999 # C BNS
320 1 1 0.000000 15.721000 46.006001 37.702000 # C BNS
321 1 1 0.000000 8.162000 39.724998 35.792000 # C BNS
322 1 1 0.000000 6.294000 40.455002 34.426998 # C BNS
323 1 1 0.000000 10.227000 39.970001 53.058998 # C BNS
324 1 1 0.000000 8.690000 39.347000 54.828999 # C BNS
325 1 1 0.000000 8.256000 33.946999 38.106998 # C BNS
326 1 1 0.000000 7.961000 33.048000 35.874001 # C BNS
327 1 1 0.000000 10.427000 46.646999 52.977001 # C BNS
328 1 1 0.000000 10.133000 45.748001 50.743999 # C BNS
329 1 1 0.000000 16.441999 50.566002 42.528999 # C BNS
330 1 1 0.000000 16.478001 48.313999 43.431000 # C BNS
331 1 1 0.000000 5.433000 41.842999 49.556000 # C BNS
332 1 1 0.000000 3.860000 43.471001 50.424999 # C BNS
333 1 1 0.000000 4.220000 38.127998 40.334000 # C BNS
334 1 1 0.000000 2.388000 36.605999 39.870998 # C BNS
335 1 1 0.000000 22.346001 45.654999 41.667000 # C BNS
336 1 1 0.000000 20.514000 44.133999 41.203999 # C BNS
337 1 1 0.000000 7.867000 38.826000 33.558998 # C BNS
338 1 1 0.000000 15.684000 48.257999 36.799999 # C BNS
339 1 1 0.000000 10.521000 40.868999 55.292000 # C BNS
340 1 1 0.000000 22.051001 44.756001 39.435001 # C BNS
341 1 1 0.000000 3.897000 41.220001 51.327000 # C BNS
342 1 1 0.000000 2.352000 38.856998 38.969002 # C BNS
343 1 1 0.000000 8.560000 47.376999 51.612000 # C BNS
344 1 1 0.000000 18.309999 49.835999 43.894001 # C BNS
345 1 1 0.000000 6.424000 32.424999 37.645000 # C BNS
346 1 1 0.000000 8.159000 32.844002 52.080002 # C BNS
347 1 1 0.000000 19.122000 39.016998 53.584000 # C BNS
348 1 1 0.000000 16.721001 40.127998 33.189999 # C BNS
349 1 1 0.000000 17.455999 46.424000 52.137001 # C BNS
350 1 1 0.000000 14.984000 32.828999 35.042999 # C BNS
351 1 1 0.000000 8.974000 28.908001 45.481998 # C BNS
352 1 1 0.000000 21.551001 36.005001 37.595001 # C BNS
353 1 1 0.000000 23.028000 42.866001 48.139999 # C BNS
354 1 1 0.000000 3.070000 33.817001 46.344002 # C BNS
355 1 4 0.000000 17.275000 41.216000 55.131001 # H BNS
356 1 1 0.000000 18.684000 39.854000 54.612999 # C BNS
357 1 4 0.000000 16.781000 39.721001 51.418999 # H BNS
358 1 4 0.000000 10.018000 34.101002 49.710999 # H BNS
359 1 4 0.000000 10.078000 30.351999 51.213001 # H BNS
360 1 1 0.000000 8.704000 31.561001 52.091999 # C BNS
361 1 4 0.000000 14.919000 39.556000 35.848000 # H BNS
362 1 4 0.000000 14.425000 38.061001 32.136002 # H BNS
363 1 1 0.000000 16.006001 39.327999 32.298000 # C BNS
364 1 4 0.000000 5.654000 35.805000 46.522999 # H BNS
365 1 4 0.000000 3.099000 34.765999 49.465000 # H BNS
366 1 1 0.000000 2.659000 33.922001 47.674999 # C BNS
367 1 4 0.000000 21.837000 38.889999 36.094002 # H BNS
368 1 1 0.000000 22.049999 36.966999 36.714001 # C BNS
369 1 4 0.000000 19.282000 37.852001 39.035999 # H BNS
370 1 4 0.000000 23.482000 39.958000 49.553001 # H BNS
371 1 1 0.000000 23.658001 41.868000 48.882999 # C BNS
372 1 4 0.000000 20.372000 41.173000 47.279999 # H BNS
373 1 4 0.000000 17.620001 31.587000 36.514999 # H BNS
374 1 1 0.000000 16.124001 32.041000 35.216999 # C BNS
375 1 4 0.000000 15.005000 34.298000 37.955002 # H BNS
376 1 4 0.000000 9.331000 31.997999 44.491001 # H BNS
377 1 4 0.000000 6.282000 29.464001 43.721001 # H BNS
378 1 1 0.000000 7.751000 28.650000 44.863998 # C BNS
379 1 4 0.000000 19.743999 47.513000 50.083000 # H BNS
380 1 1 0.000000 18.566000 47.140999 51.694000 # C BNS
381 1 4 0.000000 16.695999 44.980000 49.312000 # H BNS
382 1 4 0.000000 17.954000 46.410000 35.359001 # H BNS
383 1 1 0.000000 16.712000 47.910999 35.919998 # C BNS
384 1 4 0.000000 15.399000 45.372002 38.299999 # H BNS
385 1 4 0.000000 8.636000 39.752998 36.591999 # H BNS
386 1 1 0.000000 6.732000 39.618999 33.397999 # C BNS
387 1 4 0.000000 5.526000 40.966999 34.320000 # H BNS
388 1 4 0.000000 10.498000 39.917000 52.162998 # H BNS
389 1 1 0.000000 9.410000 40.144001 55.714001 # C BNS
390 1 4 0.000000 7.938000 38.881001 55.112999 # H BNS
391 1 4 0.000000 8.721000 34.493999 38.699001 # H BNS
392 1 1 0.000000 6.850000 32.332001 36.318001 # C BNS
393 1 4 0.000000 8.227000 32.998001 34.987000 # H BNS
394 1 4 0.000000 10.901000 46.674000 53.776001 # H BNS
395 1 1 0.000000 9.292000 47.431000 52.793999 # C BNS
396 1 4 0.000000 10.412000 45.175999 50.056000 # H BNS
397 1 1 0.000000 17.665001 50.823002 43.147999 # C BNS
398 1 4 0.000000 16.025000 51.223000 42.019001 # H BNS
399 1 4 0.000000 16.086000 47.474998 43.520000 # H BNS
400 1 4 0.000000 6.134000 41.620998 48.974998 # H BNS
401 1 1 0.000000 3.366000 42.507000 51.297001 # C BNS
402 1 4 0.000000 3.514000 44.334000 50.423000 # H BNS
403 1 4 0.000000 5.044000 38.299999 40.730999 # H BNS
404 1 4 0.000000 1.995000 35.765999 39.959999 # H BNS
405 1 1 0.000000 1.759000 37.605000 39.129002 # C BNS
406 1 1 0.000000 22.757999 45.549999 40.337002 # C BNS
407 1 4 0.000000 22.811001 46.202000 42.258999 # H BNS
408 1 4 0.000000 19.761999 43.667999 41.487999 # H BNS
409 1 4 0.000000 8.142000 38.257000 32.880001 # H BNS
410 1 4 0.000000 15.338000 49.119999 36.799000 # H BNS
411 1 4 0.000000 10.986000 41.415001 55.882999 # H BNS
412 1 4 0.000000 22.316999 44.706001 38.547001 # H BNS
413 1 4 0.000000 3.575000 40.584999 51.924999 # H BNS
414 1 4 0.000000 1.934000 39.514999 38.458000 # H BNS
415 1 4 0.000000 7.792000 47.889000 51.504002 # H BNS
416 1 4 0.000000 19.134001 50.007999 44.291000 # H BNS
417 1 4 0.000000 5.672000 31.959000 37.929001 # H BNS
418 1 4 0.000000 7.462000 33.062000 52.653000 # H BNS
419 1 4 0.000000 19.889999 38.505001 53.692001 # H BNS
420 1 4 0.000000 17.474001 40.594002 32.905998 # H BNS
421 1 4 0.000000 17.188999 46.474998 53.023998 # H BNS
422 1 4 0.000000 14.510000 32.801998 34.243000 # H BNS
423 1 4 0.000000 9.392000 28.250000 45.993000 # H BNS
424 1 4 0.000000 21.898001 35.140999 37.596001 # H BNS
425 1 4 0.000000 23.421000 43.706001 48.050999 # H BNS
426 1 4 0.000000 2.605000 33.271000 45.751999 # H BNS
427 1 1 0.000000 19.518000 40.000999 55.855000 # C BNS
428 1 1 0.000000 8.092000 30.506001 52.967999 # C BNS
429 1 1 0.000000 16.516001 39.139999 30.898001 # C BNS
430 1 1 0.000000 1.525000 33.070000 48.169998 # C BNS
431 1 1 0.000000 23.082001 36.575001 35.695000 # C BNS
432 1 1 0.000000 24.924000 42.186001 49.624001 # C BNS
433 1 1 0.000000 16.643999 31.225000 34.069000 # C BNS
434 1 1 0.000000 7.060000 27.341000 45.110001 # C BNS
435 1 1 0.000000 19.389999 47.915001 52.683998 # C BNS
436 1 1 0.000000 17.325001 48.967999 35.043999 # C BNS
437 1 1 0.000000 5.899000 39.472000 32.157001 # C BNS
438 1 1 0.000000 8.901000 40.333000 57.113998 # C BNS
439 1 1 0.000000 6.027000 31.558001 35.327999 # C BNS
440 1 1 0.000000 8.773000 48.247002 53.943001 # C BNS
441 1 1 0.000000 18.357000 52.132000 42.901001 # C BNS
442 1 1 0.000000 2.334000 42.897999 52.316002 # C BNS
443 1 1 0.000000 0.493000 37.287998 38.387001 # C BNS
444 1 1 0.000000 23.891001 46.402000 39.841000 # C BNS
445 1 7 0.000000 20.583000 39.320999 55.917999 # O BNS
446 1 7 0.000000 19.129999 40.826000 56.722000 # O BNS
447 1 7 0.000000 8.568000 29.337000 52.882999 # O BNS
448 1 7 0.000000 7.114000 30.841000 53.686001 # O BNS
449 1 7 0.000000 15.878000 38.348000 30.156000 # O BNS
450 1 7 0.000000 17.568001 39.752998 30.583000 # O BNS
451 1 7 0.000000 1.240000 33.136002 49.394001 # O BNS
452 1 7 0.000000 0.969000 32.305000 47.331001 # O BNS
453 1 7 0.000000 23.476999 35.380001 35.708000 # O BNS
454 1 7 0.000000 23.443001 37.458000 34.875000 # O BNS
455 1 7 0.000000 25.416000 41.278000 50.348999 # O BNS
456 1 7 0.000000 25.382000 43.355999 49.515999 # O BNS
457 1 7 0.000000 17.716999 30.594000 34.251999 # O BNS
458 1 7 0.000000 15.993000 31.267000 32.993000 # O BNS
459 1 7 0.000000 7.641000 26.507000 45.858002 # O BNS
460 1 7 0.000000 5.917000 27.181000 44.598000 # O BNS
461 1 7 0.000000 19.014999 47.905998 53.884998 # O BNS
462 1 7 0.000000 20.434000 48.480999 52.249001 # O BNS
463 1 7 0.000000 18.297001 48.633999 34.333000 # O BNS
464 1 7 0.000000 16.849001 50.136002 35.129002 # O BNS
465 1 7 0.000000 6.282000 38.650002 31.298000 # O BNS
466 1 7 0.000000 4.833000 40.152000 32.091999 # O BNS
467 1 7 0.000000 7.843000 39.723000 57.436001 # O BNS
468 1 7 0.000000 9.534000 41.126999 57.863998 # O BNS
469 1 7 0.000000 4.982000 30.993000 35.762001 # O BNS
470 1 7 0.000000 6.397000 31.569000 34.134998 # O BNS
471 1 7 0.000000 9.419000 48.208000 55.027000 # O BNS
472 1 7 0.000000 7.695000 48.882000 53.766998 # O BNS
473 1 7 0.000000 19.499001 52.291000 43.412998 # O BNS
474 1 7 0.000000 17.775000 52.965000 42.153000 # O BNS
475 1 7 0.000000 1.969000 42.016998 53.144001 # O BNS
476 1 7 0.000000 1.935000 44.095001 52.312000 # O BNS
477 1 7 0.000000 0.034000 36.117001 38.494999 # O BNS
478 1 7 0.000000 0.000000 38.195000 37.661999 # O BNS
479 1 7 0.000000 24.448000 47.167999 40.681000 # O BNS
480 1 7 0.000000 24.172001 46.340000 38.625999 # O BNS
481 1 3 0.000000 11.412000 35.794998 34.221001 # Cu BNS
482 1 3 0.000000 12.550000 49.605999 40.046001 # Cu BNS
483 1 3 0.000000 12.871000 29.864000 47.956001 # Cu BNS
484 1 3 0.000000 13.999000 43.681000 53.798000 # Cu BNS
485 1 3 0.000000 20.900000 36.535999 49.985001 # Cu BNS
486 1 3 0.000000 19.441999 42.466999 36.249001 # Cu BNS
487 1 3 0.000000 5.970000 37.008999 51.770000 # Cu BNS
488 1 3 0.000000 4.521000 42.932999 38.018002 # Cu BNS
489 1 3 0.000000 5.810000 46.880001 47.814999 # Cu BNS
490 1 3 0.000000 20.740000 46.407001 46.029999 # Cu BNS
491 1 3 0.000000 4.681000 33.062000 41.973000 # Cu BNS
492 1 3 0.000000 19.601999 32.596001 40.203999 # Cu BNS
493 2 3 0.000000 27.808001 58.875999 59.875000 # Cu BNS
494 2 3 0.000000 21.487000 65.447998 53.105000 # Cu BNS
495 2 3 0.000000 37.202000 62.548000 54.658001 # Cu BNS
496 2 3 0.000000 30.881001 69.117996 47.896999 # Cu BNS
497 2 3 0.000000 34.456001 70.083000 55.014999 # Cu BNS
498 2 3 0.000000 25.062000 66.411003 60.233002 # Cu BNS
499 2 3 0.000000 33.625999 61.583000 47.539001 # Cu BNS
500 2 3 0.000000 24.233000 57.912998 52.747002 # Cu BNS
501 2 3 0.000000 25.768999 63.033001 46.763000 # Cu BNS
502 2 3 0.000000 26.599001 71.532997 54.238998 # Cu BNS
503 2 3 0.000000 32.090000 56.463001 53.522999 # Cu BNS
504 2 3 0.000000 32.917999 64.960999 61.008999 # Cu BNS
505 2 4 0.000000 36.823002 71.620003 59.619999 # H BNS
506 2 4 0.000000 40.141998 62.511002 59.187000 # H BNS
507 2 4 0.000000 37.275002 66.853996 54.566002 # H BNS
508 2 4 0.000000 41.597000 68.021004 63.173000 # H BNS
509 2 4 0.000000 34.251999 68.557999 59.049000 # H BNS
510 2 4 0.000000 43.750000 66.806000 59.987999 # H BNS
511 2 4 0.000000 37.988998 63.726002 62.373001 # H BNS
512 2 4 0.000000 39.846001 69.916000 55.137001 # H BNS
513 2 4 0.000000 36.050999 69.043999 62.625000 # H BNS
514 2 4 0.000000 41.227001 66.125000 54.957001 # H BNS
515 2 4 0.000000 42.368999 70.597000 60.167999 # H BNS
516 2 4 0.000000 36.189999 63.240002 58.797001 # H BNS
517 2 4 0.000000 18.546000 65.484001 48.584999 # H BNS
518 2 4 0.000000 21.864000 56.375000 48.152000 # H BNS
519 2 4 0.000000 21.414000 61.139000 53.206001 # H BNS
520 2 4 0.000000 17.091000 59.973999 44.598999 # H BNS
521 2 4 0.000000 22.499001 64.754997 48.976002 # H BNS
522 2 4 0.000000 16.319000 57.397999 47.604000 # H BNS
523 2 4 0.000000 22.636999 58.950001 45.146999 # H BNS
524 2 4 0.000000 17.459999 61.868999 52.814999 # H BNS
525 2 4 0.000000 20.698999 64.268997 45.400002 # H BNS
526 2 4 0.000000 18.841000 58.078999 52.634998 # H BNS