  18  18   0   0
  0.2080852E+02  0.5949176E-09  0.8620167E-09  0.8620167E-09  0.5000000E-15
   1.0000000000000000E-004
  CAR 
 unknown system                          
     10.70572658    -23.38319897  301      1.85680965      1.00000000
    -23.383  0.0000E+00  0.0000E+00
    -23.270  0.0000E+00  0.0000E+00
    -23.156  0.0000E+00  0.0000E+00
    -23.042  0.0000E+00  0.0000E+00
    -22.929  0.0000E+00  0.0000E+00
    -22.815  0.0000E+00  0.0000E+00
    -22.701  0.0000E+00  0.0000E+00
    -22.588  0.0000E+00  0.0000E+00
    -22.474  0.0000E+00  0.0000E+00
    -22.361  0.0000E+00  0.0000E+00
    -22.247  0.0000E+00  0.0000E+00
    -22.133  0.0000E+00  0.0000E+00
    -22.020  0.2139E-07  0.2431E-08
    -21.906  0.1031E-01  0.1172E-02
    -21.792  0.1227E+01  0.1406E+00
    -21.679  0.8731E+00  0.2398E+00
    -21.565  0.1901E-02  0.2400E+00
    -21.451  0.5660E-09  0.2400E+00
    -21.338  0.0000E+00  0.2400E+00
    -21.224  0.0000E+00  0.2400E+00
    -21.111  0.0000E+00  0.2400E+00
    -20.997  0.0000E+00  0.2400E+00
    -20.883  0.0000E+00  0.2400E+00
    -20.770  0.0000E+00  0.2400E+00
    -20.656  0.0000E+00  0.2400E+00
    -20.542  0.0000E+00  0.2400E+00
    -20.429  0.0000E+00  0.2400E+00
    -20.315  0.0000E+00  0.2400E+00
    -20.202  0.0000E+00  0.2400E+00
    -20.088  0.0000E+00  0.2400E+00
    -19.974  0.0000E+00  0.2400E+00
    -19.861  0.0000E+00  0.2400E+00
    -19.747  0.0000E+00  0.2400E+00
    -19.633  0.0000E+00  0.2400E+00
    -19.520  0.0000E+00  0.2400E+00
    -19.406  0.0000E+00  0.2400E+00
    -19.293  0.0000E+00  0.2400E+00
    -19.179  0.0000E+00  0.2400E+00
    -19.065  0.0000E+00  0.2400E+00
    -18.952  0.0000E+00  0.2400E+00
    -18.838  0.0000E+00  0.2400E+00
    -18.724  0.0000E+00  0.2400E+00
    -18.611  0.0000E+00  0.2400E+00
    -18.497  0.0000E+00  0.2400E+00
    -18.383  0.0000E+00  0.2400E+00
    -18.270  0.0000E+00  0.2400E+00
    -18.156  0.0000E+00  0.2400E+00
    -18.043  0.0000E+00  0.2400E+00
    -17.929  0.0000E+00  0.2400E+00
    -17.815  0.0000E+00  0.2400E+00
    -17.702  0.0000E+00  0.2400E+00
    -17.588  0.0000E+00  0.2400E+00
    -17.474  0.0000E+00  0.2400E+00
    -17.361  0.0000E+00  0.2400E+00
    -17.247  0.0000E+00  0.2400E+00
    -17.134  0.0000E+00  0.2400E+00
    -17.020  0.0000E+00  0.2400E+00
    -16.906  0.0000E+00  0.2400E+00
    -16.793  0.0000E+00  0.2400E+00
    -16.679  0.0000E+00  0.2400E+00
    -16.565  0.0000E+00  0.2400E+00
    -16.452  0.0000E+00  0.2400E+00
    -16.338  0.0000E+00  0.2400E+00
    -16.225  0.0000E+00  0.2400E+00
    -16.111  0.0000E+00  0.2400E+00
    -15.997  0.0000E+00  0.2400E+00
    -15.884  0.0000E+00  0.2400E+00
    -15.770  0.0000E+00  0.2400E+00
    -15.656  0.0000E+00  0.2400E+00
    -15.543  0.0000E+00  0.2400E+00
    -15.429  0.0000E+00  0.2400E+00
    -15.315  0.0000E+00  0.2400E+00
    -15.202  0.0000E+00  0.2400E+00
    -15.088  0.0000E+00  0.2400E+00
    -14.975  0.0000E+00  0.2400E+00
    -14.861  0.0000E+00  0.2400E+00
    -14.747  0.0000E+00  0.2400E+00
    -14.634  0.0000E+00  0.2400E+00
    -14.520  0.0000E+00  0.2400E+00
    -14.406  0.0000E+00  0.2400E+00
    -14.293  0.0000E+00  0.2400E+00
    -14.179  0.0000E+00  0.2400E+00
    -14.066  0.0000E+00  0.2400E+00
    -13.952  0.0000E+00  0.2400E+00
    -13.838  0.0000E+00  0.2400E+00
    -13.725  0.0000E+00  0.2400E+00
    -13.611  0.0000E+00  0.2400E+00
    -13.497  0.0000E+00  0.2400E+00
    -13.384  0.0000E+00  0.2400E+00
    -13.270  0.0000E+00  0.2400E+00
    -13.157  0.0000E+00  0.2400E+00
    -13.043  0.0000E+00  0.2400E+00
    -12.929  0.0000E+00  0.2400E+00
    -12.816  0.0000E+00  0.2400E+00
    -12.702  0.0000E+00  0.2400E+00
    -12.588  0.0000E+00  0.2400E+00
    -12.475  0.0000E+00  0.2400E+00
    -12.361  0.0000E+00  0.2400E+00
    -12.247  0.0000E+00  0.2400E+00
    -12.134  0.0000E+00  0.2400E+00
    -12.020  0.0000E+00  0.2400E+00
    -11.907  0.0000E+00  0.2400E+00
    -11.793  0.0000E+00  0.2400E+00
    -11.679  0.0000E+00  0.2400E+00
    -11.566  0.0000E+00  0.2400E+00
    -11.452  0.0000E+00  0.2400E+00
    -11.338  0.0000E+00  0.2400E+00
    -11.225  0.1229E-15  0.2400E+00
    -11.111  0.6021E-07  0.2400E+00
    -10.998  0.1561E-02  0.2402E+00
    -10.884  0.1359E-01  0.2417E+00
    -10.770  0.2701E-01  0.2448E+00
    -10.657  0.9019E-01  0.2550E+00
    -10.543  0.7995E-01  0.2641E+00
    -10.429  0.6724E-01  0.2718E+00
    -10.316  0.4796E-01  0.2772E+00
    -10.202  0.8885E-01  0.2873E+00
    -10.089  0.1136E+00  0.3002E+00
     -9.975  0.2474E+00  0.3283E+00
     -9.861  0.3618E+00  0.3694E+00
     -9.748  0.2265E+00  0.3952E+00
     -9.634  0.3977E-01  0.3997E+00
     -9.520  0.2599E-02  0.4000E+00
     -9.407  0.2484E-06  0.4000E+00
     -9.293  0.1352E-14  0.4000E+00
     -9.179  0.0000E+00  0.4000E+00
     -9.066  0.0000E+00  0.4000E+00
     -8.952  0.0000E+00  0.4000E+00
     -8.839  0.0000E+00  0.4000E+00
     -8.725  0.0000E+00  0.4000E+00
     -8.611  0.0000E+00  0.4000E+00
     -8.498  0.0000E+00  0.4000E+00
     -8.384  0.0000E+00  0.4000E+00
     -8.270  0.0000E+00  0.4000E+00
     -8.157  0.0000E+00  0.4000E+00
     -8.043  0.0000E+00  0.4000E+00
     -7.930  0.0000E+00  0.4000E+00
     -7.816  0.0000E+00  0.4000E+00
     -7.702  0.0000E+00  0.4000E+00
     -7.589  0.0000E+00  0.4000E+00
     -7.475  0.0000E+00  0.4000E+00
     -7.361  0.0000E+00  0.4000E+00
     -7.248  0.0000E+00  0.4000E+00
     -7.134  0.0000E+00  0.4000E+00
     -7.021  0.0000E+00  0.4000E+00
     -6.907  0.0000E+00  0.4000E+00
     -6.793  0.0000E+00  0.4000E+00
     -6.680  0.0000E+00  0.4000E+00
     -6.566  0.0000E+00  0.4000E+00
     -6.452  0.0000E+00  0.4000E+00
     -6.339  0.0000E+00  0.4000E+00
     -6.225  0.0000E+00  0.4000E+00
     -6.111  0.0000E+00  0.4000E+00
     -5.998  0.0000E+00  0.4000E+00
     -5.884  0.0000E+00  0.4000E+00
     -5.771  0.0000E+00  0.4000E+00
     -5.657  0.0000E+00  0.4000E+00
     -5.543  0.0000E+00  0.4000E+00
     -5.430  0.0000E+00  0.4000E+00
     -5.316  0.0000E+00  0.4000E+00
     -5.202  0.0000E+00  0.4000E+00
     -5.089  0.0000E+00  0.4000E+00
     -4.975  0.1867E-10  0.4000E+00
     -4.862  0.5206E-04  0.4000E+00
     -4.748  0.2565E-01  0.4029E+00
     -4.634  0.3928E+00  0.4476E+00
     -4.521  0.7884E+00  0.5371E+00
     -4.407  0.6323E+00  0.6090E+00
     -4.293  0.8466E+00  0.7052E+00
     -4.180  0.1210E+01  0.8426E+00
     -4.066  0.9215E+00  0.9473E+00
     -3.953  0.3759E+00  0.9900E+00
     -3.839  0.8738E-01  0.1000E+01
     -3.725  0.1959E-03  0.1000E+01
     -3.612  0.5277E-10  0.1000E+01
     -3.498  0.0000E+00  0.1000E+01
     -3.384  0.0000E+00  0.1000E+01
     -3.271  0.0000E+00  0.1000E+01
     -3.157  0.0000E+00  0.1000E+01
     -3.043  0.1248E-11  0.1000E+01
     -2.930  0.1562E-04  0.1000E+01
     -2.816  0.2147E-01  0.1002E+01
     -2.703  0.1090E+00  0.1015E+01
     -2.589  0.1369E+00  0.1030E+01
     -2.475  0.1718E+00  0.1050E+01
     -2.362  0.9113E-01  0.1060E+01
     -2.248  0.5612E-01  0.1067E+01
     -2.134  0.1022E+00  0.1078E+01
     -2.021  0.1612E+00  0.1097E+01
     -1.907  0.9243E-01  0.1107E+01
     -1.794  0.3870E-01  0.1111E+01
     -1.680  0.3628E-01  0.1116E+01
     -1.566  0.9435E-01  0.1126E+01
     -1.453  0.7565E-01  0.1135E+01
     -1.339  0.1641E-01  0.1137E+01
     -1.225  0.7235E-01  0.1145E+01
     -1.112  0.5363E-01  0.1151E+01
     -0.998  0.2769E-01  0.1154E+01
     -0.885  0.3838E-01  0.1159E+01
     -0.771  0.4555E-01  0.1164E+01
     -0.657  0.6116E-01  0.1171E+01
     -0.544  0.1230E+00  0.1185E+01
     -0.430  0.1797E+00  0.1205E+01
     -0.316  0.1507E+00  0.1222E+01
     -0.203  0.1404E+00  0.1238E+01
     -0.089  0.1547E+00  0.1256E+01
      0.025  0.5569E-01  0.1262E+01
      0.138  0.1704E+00  0.1281E+01
      0.252  0.1385E+00  0.1297E+01
      0.365  0.1513E+00  0.1314E+01
      0.479  0.1623E+00  0.1333E+01
      0.593  0.1142E+00  0.1346E+01
      0.706  0.1483E+00  0.1363E+01
      0.820  0.2142E+00  0.1387E+01
      0.934  0.1160E+00  0.1400E+01
      1.047  0.1142E+00  0.1413E+01
      1.161  0.1817E+00  0.1434E+01
      1.274  0.2367E+00  0.1461E+01
      1.388  0.5861E-01  0.1467E+01
      1.502  0.8662E-01  0.1477E+01
      1.615  0.1497E-01  0.1479E+01
      1.729  0.9597E-02  0.1480E+01
      1.843  0.3620E-04  0.1480E+01
      1.956  0.1239E-10  0.1480E+01
      2.070  0.0000E+00  0.1480E+01
      2.183  0.0000E+00  0.1480E+01
      2.297  0.0000E+00  0.1480E+01
      2.411  0.0000E+00  0.1480E+01
      2.524  0.0000E+00  0.1480E+01
      2.638  0.0000E+00  0.1480E+01
      2.752  0.0000E+00  0.1480E+01
      2.865  0.0000E+00  0.1480E+01
      2.979  0.0000E+00  0.1480E+01
      3.093  0.0000E+00  0.1480E+01
      3.206  0.0000E+00  0.1480E+01
      3.320  0.0000E+00  0.1480E+01
      3.433  0.3163E-11  0.1480E+01
      3.547  0.1803E-04  0.1480E+01
      3.661  0.8396E-02  0.1481E+01
      3.774  0.6249E-02  0.1482E+01
      3.888  0.4950E-05  0.1482E+01
      4.002  0.2753E-12  0.1482E+01
      4.115  0.0000E+00  0.1482E+01
      4.229  0.0000E+00  0.1482E+01
      4.342  0.0000E+00  0.1482E+01
      4.456  0.1140E-16  0.1482E+01
      4.570  0.1443E-07  0.1482E+01
      4.683  0.9122E-03  0.1482E+01
      4.797  0.3679E-01  0.1486E+01
      4.911  0.7798E-01  0.1495E+01
      5.024  0.1686E-01  0.1497E+01
      5.138  0.7371E-01  0.1505E+01
      5.251  0.1211E+00  0.1519E+01
      5.365  0.1795E+00  0.1539E+01
      5.479  0.3949E-01  0.1544E+01
      5.592  0.6771E-01  0.1551E+01
      5.706  0.1220E+00  0.1565E+01
      5.820  0.9676E-01  0.1576E+01
      5.933  0.8829E-01  0.1586E+01
      6.047  0.1096E+00  0.1599E+01
      6.161  0.6230E-01  0.1606E+01
      6.274  0.7021E-01  0.1614E+01
      6.388  0.1851E+00  0.1635E+01
      6.501  0.1363E+00  0.1650E+01
      6.615  0.1040E+00  0.1662E+01
      6.729  0.1099E+00  0.1675E+01
      6.842  0.1390E+00  0.1690E+01
      6.956  0.8623E-01  0.1700E+01
      7.070  0.9910E-01  0.1712E+01
      7.183  0.5922E-01  0.1718E+01
      7.297  0.1929E-01  0.1720E+01
      7.410  0.9371E-01  0.1731E+01
      7.524  0.1396E+00  0.1747E+01
      7.638  0.1399E+00  0.1763E+01
      7.751  0.1075E+00  0.1775E+01
      7.865  0.8666E-01  0.1785E+01
      7.979  0.7775E-01  0.1794E+01
      8.092  0.7505E-01  0.1802E+01
      8.206  0.1280E+00  0.1817E+01
      8.320  0.1390E+00  0.1833E+01
      8.433  0.9473E-01  0.1843E+01
      8.547  0.8860E-01  0.1853E+01
      8.660  0.8910E-01  0.1864E+01
      8.774  0.1688E+00  0.1883E+01
      8.888  0.1146E+00  0.1896E+01
      9.001  0.1233E+00  0.1910E+01
      9.115  0.5391E-01  0.1916E+01
      9.229  0.3562E-01  0.1920E+01
      9.342  0.6018E-03  0.1920E+01
      9.456  0.2123E-08  0.1920E+01
      9.569  0.0000E+00  0.1920E+01
      9.683  0.0000E+00  0.1920E+01
      9.797  0.0000E+00  0.1920E+01
      9.910  0.0000E+00  0.1920E+01
     10.024  0.0000E+00  0.1920E+01
     10.138  0.0000E+00  0.1920E+01
     10.251  0.0000E+00  0.1920E+01
     10.365  0.0000E+00  0.1920E+01
     10.478  0.0000E+00  0.1920E+01
     10.592  0.0000E+00  0.1920E+01
     10.706  0.0000E+00  0.1920E+01
