  18  18   0   0
  0.2363041E+02  0.7819616E-09  0.7819616E-09  0.6956213E-09  0.5000000E-15
   1.0000000000000000E-004
  CAR 
 unknown system                          
     12.35430660    -22.67596395  301      1.74305382      1.00000000
    -22.676  0.0000E+00  0.0000E+00
    -22.559  0.0000E+00  0.0000E+00
    -22.442  0.0000E+00  0.0000E+00
    -22.326  0.0000E+00  0.0000E+00
    -22.209  0.0000E+00  0.0000E+00
    -22.092  0.0000E+00  0.0000E+00
    -21.975  0.0000E+00  0.0000E+00
    -21.859  0.0000E+00  0.0000E+00
    -21.742  0.0000E+00  0.0000E+00
    -21.625  0.0000E+00  0.0000E+00
    -21.508  0.0000E+00  0.0000E+00
    -21.392  0.0000E+00  0.0000E+00
    -21.275  0.1266E-07  0.1478E-08
    -21.158  0.1291E-01  0.1507E-02
    -21.041  0.2171E+01  0.2550E+00
    -20.924  0.1920E+01  0.4792E+00
    -20.808  0.6644E-02  0.4800E+00
    -20.691  0.2654E-08  0.4800E+00
    -20.574  0.0000E+00  0.4800E+00
    -20.457  0.0000E+00  0.4800E+00
    -20.341  0.0000E+00  0.4800E+00
    -20.224  0.0000E+00  0.4800E+00
    -20.107  0.0000E+00  0.4800E+00
    -19.990  0.0000E+00  0.4800E+00
    -19.874  0.0000E+00  0.4800E+00
    -19.757  0.0000E+00  0.4800E+00
    -19.640  0.0000E+00  0.4800E+00
    -19.523  0.1538E-10  0.4800E+00
    -19.406  0.4181E-03  0.4800E+00
    -19.290  0.5014E+00  0.5386E+00
    -19.173  0.1088E+01  0.6657E+00
    -19.056  0.1226E+00  0.6800E+00
    -18.939  0.1299E-04  0.6800E+00
    -18.823  0.5916E-13  0.6800E+00
    -18.706  0.0000E+00  0.6800E+00
    -18.589  0.0000E+00  0.6800E+00
    -18.472  0.0000E+00  0.6800E+00
    -18.356  0.0000E+00  0.6800E+00
    -18.239  0.0000E+00  0.6800E+00
    -18.122  0.0000E+00  0.6800E+00
    -18.005  0.0000E+00  0.6800E+00
    -17.888  0.0000E+00  0.6800E+00
    -17.772  0.0000E+00  0.6800E+00
    -17.655  0.0000E+00  0.6800E+00
    -17.538  0.0000E+00  0.6800E+00
    -17.421  0.0000E+00  0.6800E+00
    -17.305  0.0000E+00  0.6800E+00
    -17.188  0.0000E+00  0.6800E+00
    -17.071  0.0000E+00  0.6800E+00
    -16.954  0.0000E+00  0.6800E+00
    -16.838  0.0000E+00  0.6800E+00
    -16.721  0.0000E+00  0.6800E+00
    -16.604  0.0000E+00  0.6800E+00
    -16.487  0.0000E+00  0.6800E+00
    -16.371  0.0000E+00  0.6800E+00
    -16.254  0.0000E+00  0.6800E+00
    -16.137  0.0000E+00  0.6800E+00
    -16.020  0.0000E+00  0.6800E+00
    -15.903  0.0000E+00  0.6800E+00
    -15.787  0.0000E+00  0.6800E+00
    -15.670  0.0000E+00  0.6800E+00
    -15.553  0.0000E+00  0.6800E+00
    -15.436  0.0000E+00  0.6800E+00
    -15.320  0.0000E+00  0.6800E+00
    -15.203  0.0000E+00  0.6800E+00
    -15.086  0.0000E+00  0.6800E+00
    -14.969  0.0000E+00  0.6800E+00
    -14.853  0.0000E+00  0.6800E+00
    -14.736  0.0000E+00  0.6800E+00
    -14.619  0.0000E+00  0.6800E+00
    -14.502  0.0000E+00  0.6800E+00
    -14.385  0.0000E+00  0.6800E+00
    -14.269  0.0000E+00  0.6800E+00
    -14.152  0.0000E+00  0.6800E+00
    -14.035  0.0000E+00  0.6800E+00
    -13.918  0.0000E+00  0.6800E+00
    -13.802  0.0000E+00  0.6800E+00
    -13.685  0.0000E+00  0.6800E+00
    -13.568  0.0000E+00  0.6800E+00
    -13.451  0.0000E+00  0.6800E+00
    -13.335  0.0000E+00  0.6800E+00
    -13.218  0.0000E+00  0.6800E+00
    -13.101  0.0000E+00  0.6800E+00
    -12.984  0.0000E+00  0.6800E+00
    -12.867  0.0000E+00  0.6800E+00
    -12.751  0.0000E+00  0.6800E+00
    -12.634  0.0000E+00  0.6800E+00
    -12.517  0.0000E+00  0.6800E+00
    -12.400  0.0000E+00  0.6800E+00
    -12.284  0.0000E+00  0.6800E+00
    -12.167  0.0000E+00  0.6800E+00
    -12.050  0.0000E+00  0.6800E+00
    -11.933  0.0000E+00  0.6800E+00
    -11.817  0.0000E+00  0.6800E+00
    -11.700  0.0000E+00  0.6800E+00
    -11.583  0.0000E+00  0.6800E+00
    -11.466  0.0000E+00  0.6800E+00
    -11.350  0.0000E+00  0.6800E+00
    -11.233  0.0000E+00  0.6800E+00
    -11.116  0.0000E+00  0.6800E+00
    -10.999  0.0000E+00  0.6800E+00
    -10.882  0.0000E+00  0.6800E+00
    -10.766  0.0000E+00  0.6800E+00
    -10.649  0.1335E-09  0.6800E+00
    -10.532  0.1449E-03  0.6800E+00
    -10.415  0.1416E-01  0.6817E+00
    -10.299  0.8646E-01  0.6918E+00
    -10.182  0.2183E+00  0.7173E+00
    -10.065  0.2309E-01  0.7200E+00
     -9.948  0.4134E-03  0.7200E+00
     -9.832  0.1421E-08  0.7200E+00
     -9.715  0.3296E-13  0.7200E+00
     -9.598  0.2944E-05  0.7200E+00
     -9.481  0.1206E-01  0.7214E+00
     -9.364  0.2342E+00  0.7488E+00
     -9.248  0.4731E+00  0.8040E+00
     -9.131  0.3060E+00  0.8397E+00
     -9.014  0.2333E-02  0.8400E+00
     -8.897  0.4451E-08  0.8400E+00
     -8.781  0.0000E+00  0.8400E+00
     -8.664  0.0000E+00  0.8400E+00
     -8.547  0.0000E+00  0.8400E+00
     -8.430  0.0000E+00  0.8400E+00
     -8.314  0.0000E+00  0.8400E+00
     -8.197  0.0000E+00  0.8400E+00
     -8.080  0.0000E+00  0.8400E+00
     -7.963  0.0000E+00  0.8400E+00
     -7.846  0.0000E+00  0.8400E+00
     -7.730  0.0000E+00  0.8400E+00
     -7.613  0.0000E+00  0.8400E+00
     -7.496  0.0000E+00  0.8400E+00
     -7.379  0.0000E+00  0.8400E+00
     -7.263  0.0000E+00  0.8400E+00
     -7.146  0.0000E+00  0.8400E+00
     -7.029  0.0000E+00  0.8400E+00
     -6.912  0.0000E+00  0.8400E+00
     -6.796  0.0000E+00  0.8400E+00
     -6.679  0.0000E+00  0.8400E+00
     -6.562  0.0000E+00  0.8400E+00
     -6.445  0.0000E+00  0.8400E+00
     -6.329  0.0000E+00  0.8400E+00
     -6.212  0.0000E+00  0.8400E+00
     -6.095  0.0000E+00  0.8400E+00
     -5.978  0.0000E+00  0.8400E+00
     -5.861  0.0000E+00  0.8400E+00
     -5.745  0.0000E+00  0.8400E+00
     -5.628  0.0000E+00  0.8400E+00
     -5.511  0.0000E+00  0.8400E+00
     -5.394  0.0000E+00  0.8400E+00
     -5.278  0.0000E+00  0.8400E+00
     -5.161  0.0000E+00  0.8400E+00
     -5.044  0.0000E+00  0.8400E+00
     -4.927  0.0000E+00  0.8400E+00
     -4.811  0.0000E+00  0.8400E+00
     -4.694  0.0000E+00  0.8400E+00
     -4.577  0.7923E-18  0.8400E+00
     -4.460  0.5591E-08  0.8400E+00
     -4.343  0.1620E-02  0.8402E+00
     -4.227  0.1511E+00  0.8578E+00
     -4.110  0.1853E+00  0.8795E+00
     -3.993  0.4578E-02  0.8800E+00
     -3.876  0.4770E-07  0.8800E+00
     -3.760  0.0000E+00  0.8800E+00
     -3.643  0.0000E+00  0.8800E+00
     -3.526  0.0000E+00  0.8800E+00
     -3.409  0.0000E+00  0.8800E+00
     -3.293  0.0000E+00  0.8800E+00
     -3.176  0.0000E+00  0.8800E+00
     -3.059  0.0000E+00  0.8800E+00
     -2.942  0.0000E+00  0.8800E+00
     -2.825  0.0000E+00  0.8800E+00
     -2.709  0.0000E+00  0.8800E+00
     -2.592  0.0000E+00  0.8800E+00
     -2.475  0.0000E+00  0.8800E+00
     -2.358  0.0000E+00  0.8800E+00
     -2.242  0.0000E+00  0.8800E+00
     -2.125  0.0000E+00  0.8800E+00
     -2.008  0.0000E+00  0.8800E+00
     -1.891  0.0000E+00  0.8800E+00
     -1.775  0.5071E-16  0.8800E+00
     -1.658  0.7030E-07  0.8800E+00
     -1.541  0.3091E-02  0.8804E+00
     -1.424  0.1438E+00  0.8972E+00
     -1.307  0.1859E+00  0.9189E+00
     -1.191  0.1662E+00  0.9383E+00
     -1.074  0.9142E-01  0.9489E+00
     -0.957  0.1194E+00  0.9629E+00
     -0.840  0.1454E+00  0.9799E+00
     -0.724  0.7928E-01  0.9891E+00
     -0.607  0.1085E+00  0.1002E+01
     -0.490  0.2194E-01  0.1004E+01
     -0.373  0.5483E-01  0.1011E+01
     -0.257  0.5173E-01  0.1017E+01
     -0.140  0.1178E+00  0.1031E+01
     -0.023  0.2059E+00  0.1055E+01
      0.094  0.1410E+00  0.1071E+01
      0.210  0.6101E-01  0.1078E+01
      0.327  0.1224E+00  0.1092E+01
      0.444  0.3103E+00  0.1129E+01
      0.561  0.2184E+00  0.1154E+01
      0.678  0.1762E+00  0.1175E+01
      0.794  0.2195E+00  0.1200E+01
      0.911  0.1729E+00  0.1221E+01
      1.028  0.3597E+00  0.1263E+01
      1.145  0.1768E+00  0.1283E+01
      1.261  0.1418E+00  0.1300E+01
      1.378  0.1448E+00  0.1317E+01
      1.495  0.2597E-01  0.1320E+01
      1.612  0.2247E-02  0.1320E+01
      1.728  0.3427E-07  0.1320E+01
      1.845  0.0000E+00  0.1320E+01
      1.962  0.0000E+00  0.1320E+01
      2.079  0.0000E+00  0.1320E+01
      2.196  0.0000E+00  0.1320E+01
      2.312  0.0000E+00  0.1320E+01
      2.429  0.0000E+00  0.1320E+01
      2.546  0.0000E+00  0.1320E+01
      2.663  0.0000E+00  0.1320E+01
      2.779  0.0000E+00  0.1320E+01
      2.896  0.0000E+00  0.1320E+01
      3.013  0.0000E+00  0.1320E+01
      3.130  0.0000E+00  0.1320E+01
      3.246  0.8264E-15  0.1320E+01
      3.363  0.2717E-06  0.1320E+01
      3.480  0.2957E-02  0.1320E+01
      3.597  0.1122E-01  0.1322E+01
      3.714  0.9207E-04  0.1322E+01
      3.830  0.5208E-10  0.1322E+01
      3.947  0.2373E-04  0.1322E+01
      4.064  0.1840E-01  0.1324E+01
      4.181  0.2991E-01  0.1327E+01
      4.297  0.1122E+00  0.1340E+01
      4.414  0.9987E-01  0.1352E+01
      4.531  0.6133E-01  0.1359E+01
      4.648  0.6542E-02  0.1360E+01
      4.764  0.6983E-06  0.1360E+01
      4.881  0.2561E-14  0.1360E+01
      4.998  0.0000E+00  0.1360E+01
      5.115  0.4079E-10  0.1360E+01
      5.231  0.8323E-04  0.1360E+01
      5.348  0.1109E-01  0.1361E+01
      5.465  0.2081E-01  0.1364E+01
      5.582  0.1281E+00  0.1379E+01
      5.699  0.9548E-01  0.1390E+01
      5.815  0.8361E-01  0.1400E+01
      5.932  0.9111E-01  0.1410E+01
      6.049  0.9001E-01  0.1421E+01
      6.166  0.1056E+00  0.1433E+01
      6.282  0.3981E-01  0.1438E+01
      6.399  0.1261E+00  0.1452E+01
      6.516  0.7442E-01  0.1461E+01
      6.633  0.1196E+00  0.1475E+01
      6.749  0.7522E-01  0.1484E+01
      6.866  0.8238E-01  0.1494E+01
      6.983  0.1748E+00  0.1514E+01
      7.100  0.4574E-01  0.1519E+01
      7.217  0.6738E-01  0.1527E+01
      7.333  0.2020E+00  0.1551E+01
      7.450  0.1600E+00  0.1569E+01
      7.567  0.3905E-01  0.1574E+01
      7.684  0.1401E+00  0.1590E+01
      7.800  0.6232E-01  0.1598E+01
      7.917  0.8077E-01  0.1607E+01
      8.034  0.1053E+00  0.1619E+01
      8.151  0.7684E-01  0.1628E+01
      8.267  0.3035E-01  0.1632E+01
      8.384  0.9151E-01  0.1643E+01
      8.501  0.1313E+00  0.1658E+01
      8.618  0.1097E+00  0.1671E+01
      8.735  0.1322E+00  0.1686E+01
      8.851  0.2348E+00  0.1714E+01
      8.968  0.1920E+00  0.1736E+01
      9.085  0.9826E-01  0.1747E+01
      9.202  0.6391E-01  0.1755E+01
      9.318  0.1926E+00  0.1777E+01
      9.435  0.1054E+00  0.1790E+01
      9.552  0.1020E+00  0.1802E+01
      9.669  0.1302E+00  0.1817E+01
      9.785  0.9718E-01  0.1828E+01
      9.902  0.1002E+00  0.1840E+01
     10.019  0.1069E+00  0.1852E+01
     10.136  0.1493E+00  0.1870E+01
     10.252  0.1066E+00  0.1882E+01
     10.369  0.7328E-01  0.1891E+01
     10.486  0.1467E+00  0.1908E+01
     10.603  0.5617E-01  0.1914E+01
     10.720  0.1509E-01  0.1916E+01
     10.836  0.3180E-01  0.1920E+01
     10.953  0.5143E-03  0.1920E+01
     11.070  0.9284E-09  0.1920E+01
     11.187  0.0000E+00  0.1920E+01
     11.303  0.0000E+00  0.1920E+01
     11.420  0.0000E+00  0.1920E+01
     11.537  0.0000E+00  0.1920E+01
     11.654  0.0000E+00  0.1920E+01
     11.770  0.0000E+00  0.1920E+01
     11.887  0.0000E+00  0.1920E+01
     12.004  0.0000E+00  0.1920E+01
     12.121  0.0000E+00  0.1920E+01
     12.238  0.0000E+00  0.1920E+01
     12.354  0.0000E+00  0.1920E+01
