       N       E                     dE             d eps       ncg     rms          rms(c)
DAV:   1     0.109985321657E+04    0.10999E+04   -0.56846E+04  1152   0.130E+03
DAV:   2     0.450535915304E+02   -0.10548E+04   -0.10098E+04  1152   0.362E+02
DAV:   3    -0.690074233254E+02   -0.11406E+03   -0.11291E+03  1536   0.125E+02
DAV:   4    -0.726156748440E+02   -0.36083E+01   -0.36050E+01  1376   0.243E+01
DAV:   5    -0.727280669781E+02   -0.11239E+00   -0.11238E+00  1664   0.412E+00    0.138E+01
DAV:   6    -0.688060100155E+02    0.39221E+01   -0.58807E+00  1536   0.951E+00    0.104E+01
DAV:   7    -0.685232361607E+02    0.28277E+00   -0.17273E+00  1536   0.318E+00    0.530E+00
DAV:   8    -0.685469355511E+02   -0.23699E-01   -0.12280E-01  1504   0.166E+00    0.760E-01
DAV:   9    -0.685544375577E+02   -0.75020E-02   -0.21058E-02  1504   0.664E-01    0.298E-01
DAV:  10    -0.685575288949E+02   -0.30913E-02   -0.37676E-03  1504   0.176E-01    0.121E-01
DAV:  11    -0.685591135792E+02   -0.15847E-02   -0.15137E-03  1408   0.113E-01    0.727E-02
DAV:  12    -0.685592155598E+02   -0.10198E-03   -0.14094E-04  1280   0.366E-02    0.221E-02
DAV:  13    -0.685592497294E+02   -0.34170E-04   -0.49703E-05  1216   0.264E-02    0.545E-03
DAV:  14    -0.685592513915E+02   -0.16621E-05   -0.42544E-06  1088   0.852E-03
   1 F= -.68559251E+02 E0= -.68559251E+02  d E =-.685593E+02
       N       E                     dE             d eps       ncg     rms          rms(c)
DAV:   1    -0.691409412356E+02   -0.58169E+00   -0.13920E+01  1344   0.255E+01    0.467E+00
DAV:   2    -0.687217516137E+02    0.41919E+00   -0.73561E-01  1408   0.501E+00    0.231E+00
DAV:   3    -0.686100221908E+02    0.11173E+00   -0.30369E-01  1440   0.323E+00    0.670E-01
DAV:   4    -0.686060297043E+02    0.39925E-02   -0.13699E-02  1536   0.490E-01    0.495E-01
DAV:   5    -0.686025918026E+02    0.34379E-02   -0.14494E-03  1536   0.157E-01    0.971E-02
DAV:   6    -0.686024653727E+02    0.12643E-03   -0.21703E-04  1440   0.884E-02    0.224E-02
DAV:   7    -0.686024507044E+02    0.14668E-04   -0.83476E-06  1088   0.138E-02    0.112E-02
DAV:   8    -0.686024461011E+02    0.46034E-05   -0.50878E-06  1024   0.121E-02
   2 F= -.68602446E+02 E0= -.68602446E+02  d E =-.431947E-01
       N       E                     dE             d eps       ncg     rms          rms(c)
DAV:   1    -0.686125240530E+02   -0.10073E-01   -0.22966E-01  1344   0.316E+00    0.616E-01
DAV:   2    -0.686053573559E+02    0.71667E-02   -0.12600E-02  1376   0.654E-01    0.300E-01
DAV:   3    -0.686035171262E+02    0.18402E-02   -0.50672E-03  1568   0.416E-01    0.942E-02
DAV:   4    -0.686034679494E+02    0.49177E-04   -0.20394E-04  1472   0.612E-02    0.707E-02
DAV:   5    -0.686034314239E+02    0.36525E-04   -0.27453E-05  1312   0.216E-02    0.124E-02
DAV:   6    -0.686034329649E+02   -0.15409E-05   -0.29247E-06   960   0.108E-02
   3 F= -.68603433E+02 E0= -.68603433E+02  d E =-.441816E-01
       N       E                     dE             d eps       ncg     rms          rms(c)
DAV:   1    -0.686101974058E+02   -0.67660E-02   -0.21751E-01  1280   0.240E+00    0.457E-01
DAV:   2    -0.686071226635E+02    0.30747E-02   -0.13482E-02  1568   0.579E-01    0.230E-01
DAV:   3    -0.686061873429E+02    0.93532E-03   -0.17122E-03  1632   0.225E-01    0.931E-02
DAV:   4    -0.686060439708E+02    0.14337E-03   -0.22966E-04  1920   0.666E-02    0.532E-02
DAV:   5    -0.686060100399E+02    0.33931E-04   -0.14235E-05  1024   0.167E-02    0.935E-03
DAV:   6    -0.686060075707E+02    0.24693E-05   -0.49880E-06   864   0.125E-02
   4 F= -.68606008E+02 E0= -.68606008E+02  d E =-.257461E-02
       N       E                     dE             d eps       ncg     rms          rms(c)
DAV:   1    -0.686311167733E+02   -0.25107E-01   -0.11642E+00  1248   0.558E+00    0.105E+00
DAV:   2    -0.686148643451E+02    0.16252E-01   -0.74204E-02  1568   0.135E+00    0.535E-01
DAV:   3    -0.686098798407E+02    0.49845E-02   -0.90332E-03  1632   0.513E-01    0.217E-01
DAV:   4    -0.686091204692E+02    0.75937E-03   -0.12563E-03  1920   0.158E-01    0.122E-01
DAV:   5    -0.686089818969E+02    0.13857E-03   -0.10475E-04  1632   0.397E-02    0.252E-02
DAV:   6    -0.686089729736E+02    0.89233E-05   -0.92397E-06   992   0.143E-02
   5 F= -.68608973E+02 E0= -.68608973E+02  d E =-.554001E-02
