   3   3   0   0
  0.3125821E+02  0.4348378E-09  0.7529192E-09  0.3503750E-09  0.5000000E-15
   1.0000000000000000E-004
  CAR 
 unknown system                          
     24.58590115    -24.11880051  301      2.14091838      1.00000000
    -24.119  0.0000E+00  0.0000E+00
    -23.956  0.0000E+00  0.0000E+00
    -23.794  0.0000E+00  0.0000E+00
    -23.632  0.0000E+00  0.0000E+00
    -23.469  0.0000E+00  0.0000E+00
    -23.307  0.0000E+00  0.0000E+00
    -23.145  0.0000E+00  0.0000E+00
    -22.982  0.0000E+00  0.0000E+00
    -22.820  0.0000E+00  0.0000E+00
    -22.658  0.0000E+00  0.0000E+00
    -22.495  0.0000E+00  0.0000E+00
    -22.333  0.0000E+00  0.0000E+00
    -22.171  0.1092E-14  0.1773E-15
    -22.008  0.9601E-04  0.1559E-04
    -21.846  0.1874E+00  0.3044E-01
    -21.684  0.1821E+00  0.6000E-01
    -21.521  0.9681E-05  0.6000E-01
    -21.359  0.0000E+00  0.6000E-01
    -21.197  0.0000E+00  0.6000E-01
    -21.034  0.0000E+00  0.6000E-01
    -20.872  0.0000E+00  0.6000E-01
    -20.709  0.0000E+00  0.6000E-01
    -20.547  0.0000E+00  0.6000E-01
    -20.385  0.0000E+00  0.6000E-01
    -20.222  0.0000E+00  0.6000E-01
    -20.060  0.0000E+00  0.6000E-01
    -19.898  0.0000E+00  0.6000E-01
    -19.735  0.0000E+00  0.6000E-01
    -19.573  0.0000E+00  0.6000E-01
    -19.411  0.0000E+00  0.6000E-01
    -19.248  0.0000E+00  0.6000E-01
    -19.086  0.0000E+00  0.6000E-01
    -18.924  0.0000E+00  0.6000E-01
    -18.761  0.0000E+00  0.6000E-01
    -18.599  0.0000E+00  0.6000E-01
    -18.437  0.0000E+00  0.6000E-01
    -18.274  0.0000E+00  0.6000E-01
    -18.112  0.0000E+00  0.6000E-01
    -17.950  0.0000E+00  0.6000E-01
    -17.787  0.0000E+00  0.6000E-01
    -17.625  0.0000E+00  0.6000E-01
    -17.462  0.0000E+00  0.6000E-01
    -17.300  0.0000E+00  0.6000E-01
    -17.138  0.0000E+00  0.6000E-01
    -16.975  0.0000E+00  0.6000E-01
    -16.813  0.0000E+00  0.6000E-01
    -16.651  0.0000E+00  0.6000E-01
    -16.488  0.0000E+00  0.6000E-01
    -16.326  0.0000E+00  0.6000E-01
    -16.164  0.0000E+00  0.6000E-01
    -16.001  0.0000E+00  0.6000E-01
    -15.839  0.0000E+00  0.6000E-01
    -15.677  0.0000E+00  0.6000E-01
    -15.514  0.0000E+00  0.6000E-01
    -15.352  0.0000E+00  0.6000E-01
    -15.190  0.0000E+00  0.6000E-01
    -15.027  0.0000E+00  0.6000E-01
    -14.865  0.0000E+00  0.6000E-01
    -14.703  0.0000E+00  0.6000E-01
    -14.540  0.0000E+00  0.6000E-01
    -14.378  0.0000E+00  0.6000E-01
    -14.216  0.0000E+00  0.6000E-01
    -14.053  0.0000E+00  0.6000E-01
    -13.891  0.0000E+00  0.6000E-01
    -13.728  0.0000E+00  0.6000E-01
    -13.566  0.0000E+00  0.6000E-01
    -13.404  0.0000E+00  0.6000E-01
    -13.241  0.0000E+00  0.6000E-01
    -13.079  0.0000E+00  0.6000E-01
    -12.917  0.0000E+00  0.6000E-01
    -12.754  0.0000E+00  0.6000E-01
    -12.592  0.0000E+00  0.6000E-01
    -12.430  0.0000E+00  0.6000E-01
    -12.267  0.0000E+00  0.6000E-01
    -12.105  0.0000E+00  0.6000E-01
    -11.943  0.0000E+00  0.6000E-01
    -11.780  0.0000E+00  0.6000E-01
    -11.618  0.0000E+00  0.6000E-01
    -11.456  0.0000E+00  0.6000E-01
    -11.293  0.0000E+00  0.6000E-01
    -11.131  0.0000E+00  0.6000E-01
    -10.969  0.6129E-15  0.6000E-01
    -10.806  0.6349E-05  0.6000E-01
    -10.644  0.9196E-02  0.6149E-01
    -10.481  0.4177E-01  0.6827E-01
    -10.319  0.3504E-01  0.7396E-01
    -10.157  0.3529E-01  0.7969E-01
     -9.994  0.1893E-02  0.8000E-01
     -9.832  0.4484E-09  0.8000E-01
     -9.670  0.0000E+00  0.8000E-01
     -9.507  0.0000E+00  0.8000E-01
     -9.345  0.0000E+00  0.8000E-01
     -9.183  0.0000E+00  0.8000E-01
     -9.020  0.0000E+00  0.8000E-01
     -8.858  0.0000E+00  0.8000E-01
     -8.696  0.0000E+00  0.8000E-01
     -8.533  0.0000E+00  0.8000E-01
     -8.371  0.0000E+00  0.8000E-01
     -8.209  0.0000E+00  0.8000E-01
     -8.046  0.0000E+00  0.8000E-01
     -7.884  0.0000E+00  0.8000E-01
     -7.722  0.0000E+00  0.8000E-01
     -7.559  0.0000E+00  0.8000E-01
     -7.397  0.0000E+00  0.8000E-01
     -7.235  0.0000E+00  0.8000E-01
     -7.072  0.1085E-18  0.8000E-01
     -6.910  0.1808E-06  0.8000E-01
     -6.747  0.2457E-02  0.8040E-01
     -6.585  0.7875E-02  0.8168E-01
     -6.423  0.1133E-01  0.8352E-01
     -6.260  0.2060E-01  0.8686E-01
     -6.098  0.1441E-01  0.8920E-01
     -5.936  0.1825E-01  0.9216E-01
     -5.773  0.1419E-01  0.9447E-01
     -5.611  0.1531E-01  0.9695E-01
     -5.449  0.1090E-01  0.9872E-01
     -5.286  0.7599E-02  0.9996E-01
     -5.124  0.2675E-03  0.1000E+00
     -4.962  0.2086E-11  0.1000E+00
     -4.799  0.0000E+00  0.1000E+00
     -4.637  0.0000E+00  0.1000E+00
     -4.475  0.0000E+00  0.1000E+00
     -4.312  0.0000E+00  0.1000E+00
     -4.150  0.0000E+00  0.1000E+00
     -3.988  0.0000E+00  0.1000E+00
     -3.825  0.0000E+00  0.1000E+00
     -3.663  0.0000E+00  0.1000E+00
     -3.500  0.0000E+00  0.1000E+00
     -3.338  0.0000E+00  0.1000E+00
     -3.176  0.0000E+00  0.1000E+00
     -3.013  0.0000E+00  0.1000E+00
     -2.851  0.0000E+00  0.1000E+00
     -2.689  0.0000E+00  0.1000E+00
     -2.526  0.1428E-13  0.1000E+00
     -2.364  0.1933E-04  0.1000E+00
     -2.202  0.1552E-02  0.1003E+00
     -2.039  0.2848E-02  0.1007E+00
     -1.877  0.9356E-02  0.1022E+00
     -1.715  0.1049E-01  0.1039E+00
     -1.552  0.1298E-01  0.1060E+00
     -1.390  0.1684E-01  0.1088E+00
     -1.228  0.1733E-01  0.1116E+00
     -1.065  0.4050E-01  0.1182E+00
     -0.903  0.2675E-01  0.1225E+00
     -0.741  0.2084E-01  0.1259E+00
     -0.578  0.1995E-01  0.1291E+00
     -0.416  0.2982E-01  0.1340E+00
     -0.253  0.3441E-01  0.1396E+00
     -0.091  0.3068E-01  0.1445E+00
      0.071  0.1943E-01  0.1477E+00
      0.234  0.1504E-01  0.1501E+00
      0.396  0.7296E-02  0.1513E+00
      0.558  0.4071E-02  0.1520E+00
      0.721  0.7138E-02  0.1531E+00
      0.883  0.1495E-01  0.1556E+00
      1.045  0.4704E-01  0.1632E+00
      1.208  0.1243E-01  0.1652E+00
      1.370  0.6634E-02  0.1663E+00
      1.532  0.2101E-01  0.1697E+00
      1.695  0.1813E-01  0.1727E+00
      1.857  0.1160E-01  0.1745E+00
      2.019  0.1702E-01  0.1773E+00
      2.182  0.2103E-01  0.1807E+00
      2.344  0.1505E-01  0.1832E+00
      2.506  0.1067E-01  0.1849E+00
      2.669  0.7702E-02  0.1861E+00
      2.831  0.9422E-02  0.1877E+00
      2.993  0.3390E-02  0.1882E+00
      3.156  0.1248E-01  0.1903E+00
      3.318  0.5499E-02  0.1911E+00
      3.481  0.5981E-02  0.1921E+00
      3.643  0.6760E-02  0.1932E+00
      3.805  0.1032E-01  0.1949E+00
      3.968  0.2144E-01  0.1984E+00
      4.130  0.7711E-02  0.1996E+00
      4.292  0.1969E-01  0.2028E+00
      4.455  0.5108E-02  0.2036E+00
      4.617  0.7873E-03  0.2038E+00
      4.779  0.1001E-01  0.2054E+00
      4.942  0.8265E-02  0.2067E+00
      5.104  0.1060E-01  0.2085E+00
      5.266  0.1924E-01  0.2116E+00
      5.429  0.2183E-01  0.2151E+00
      5.591  0.1535E-01  0.2176E+00
      5.753  0.2137E-01  0.2211E+00
      5.916  0.1535E-01  0.2236E+00
      6.078  0.7971E-02  0.2249E+00
      6.240  0.2542E-02  0.2253E+00
      6.403  0.1464E-01  0.2277E+00
      6.565  0.3457E-01  0.2333E+00
      6.728  0.2785E-01  0.2378E+00
      6.890  0.1096E-01  0.2396E+00
      7.052  0.7498E-02  0.2408E+00
      7.215  0.1257E-01  0.2428E+00
      7.377  0.1253E-01  0.2449E+00
      7.539  0.1975E-01  0.2481E+00
      7.702  0.1624E-01  0.2507E+00
      7.864  0.2013E-01  0.2540E+00
      8.026  0.2232E-01  0.2576E+00
      8.189  0.1119E-01  0.2594E+00
      8.351  0.8874E-02  0.2609E+00
      8.513  0.1919E-01  0.2640E+00
      8.676  0.1964E-01  0.2672E+00
      8.838  0.1735E-01  0.2700E+00
      9.000  0.1960E-01  0.2732E+00
      9.163  0.3291E-01  0.2785E+00
      9.325  0.3067E-01  0.2835E+00
      9.487  0.2485E-01  0.2875E+00
      9.650  0.3227E-01  0.2928E+00
      9.812  0.2830E-01  0.2974E+00
      9.974  0.1167E-01  0.2993E+00
     10.137  0.2706E-01  0.3036E+00
     10.299  0.3906E-01  0.3100E+00
     10.462  0.3500E-01  0.3157E+00
     10.624  0.1947E-01  0.3188E+00
     10.786  0.2613E-01  0.3231E+00
     10.949  0.2580E-01  0.3273E+00
     11.111  0.2770E-01  0.3318E+00
     11.273  0.2153E-01  0.3353E+00
     11.436  0.3062E-01  0.3402E+00
     11.598  0.1738E-01  0.3430E+00
     11.760  0.2942E-01  0.3478E+00
     11.923  0.3651E-01  0.3538E+00
     12.085  0.3221E-01  0.3590E+00
     12.247  0.2904E-01  0.3637E+00
     12.410  0.3653E-01  0.3696E+00
     12.572  0.3211E-01  0.3748E+00
     12.734  0.2606E-01  0.3791E+00
     12.897  0.2389E-01  0.3829E+00
     13.059  0.3520E-01  0.3887E+00
     13.221  0.3368E-01  0.3941E+00
     13.384  0.2311E-01  0.3979E+00
     13.546  0.3873E-01  0.4042E+00
     13.709  0.2752E-01  0.4086E+00
     13.871  0.3168E-01  0.4138E+00
     14.033  0.1961E-01  0.4170E+00
     14.196  0.3236E-01  0.4222E+00
     14.358  0.3223E-01  0.4275E+00
     14.520  0.2696E-01  0.4318E+00
     14.683  0.3296E-01  0.4372E+00
     14.845  0.2052E-01  0.4405E+00
     15.007  0.3143E-01  0.4456E+00
     15.170  0.3991E-01  0.4521E+00
     15.332  0.2171E-01  0.4556E+00
     15.494  0.2264E-01  0.4593E+00
     15.657  0.3027E-01  0.4642E+00
     15.819  0.5248E-01  0.4727E+00
     15.981  0.4152E-01  0.4795E+00
     16.144  0.2242E-01  0.4831E+00
     16.306  0.3608E-01  0.4890E+00
     16.468  0.2263E-01  0.4926E+00
     16.631  0.2914E-01  0.4974E+00
     16.793  0.4571E-01  0.5048E+00
     16.955  0.5294E-01  0.5134E+00
     17.118  0.2387E-01  0.5173E+00
     17.280  0.3157E-01  0.5224E+00
     17.443  0.2493E-01  0.5264E+00
     17.605  0.1744E-01  0.5293E+00
     17.767  0.3178E-01  0.5344E+00
     17.930  0.3002E-01  0.5393E+00
     18.092  0.2309E-01  0.5430E+00
     18.254  0.4209E-01  0.5499E+00
     18.417  0.3711E-01  0.5559E+00
     18.579  0.3542E-01  0.5617E+00
     18.741  0.3834E-01  0.5679E+00
     18.904  0.4961E-01  0.5759E+00
     19.066  0.3620E-01  0.5818E+00
     19.228  0.2667E-01  0.5861E+00
     19.391  0.2932E-01  0.5909E+00
     19.553  0.3139E-01  0.5960E+00
     19.715  0.4510E-01  0.6033E+00
     19.878  0.3567E-01  0.6091E+00
     20.040  0.2285E-01  0.6128E+00
     20.202  0.4068E-01  0.6194E+00
     20.365  0.3757E-01  0.6255E+00
     20.527  0.1984E-01  0.6287E+00
     20.690  0.2536E-01  0.6329E+00
     20.852  0.1946E-01  0.6360E+00
     21.014  0.1085E-01  0.6378E+00
     21.177  0.9392E-02  0.6393E+00
     21.339  0.2303E-02  0.6397E+00
     21.501  0.1996E-06  0.6397E+00
     21.664  0.0000E+00  0.6397E+00
     21.826  0.0000E+00  0.6397E+00
     21.988  0.0000E+00  0.6397E+00
     22.151  0.3723E-12  0.6397E+00
     22.313  0.9284E-04  0.6397E+00
     22.475  0.1859E-02  0.6400E+00
     22.638  0.3399E-05  0.6400E+00
     22.800  0.0000E+00  0.6400E+00
     22.962  0.0000E+00  0.6400E+00
     23.125  0.0000E+00  0.6400E+00
     23.287  0.0000E+00  0.6400E+00
     23.449  0.0000E+00  0.6400E+00
     23.612  0.0000E+00  0.6400E+00
     23.774  0.0000E+00  0.6400E+00
     23.937  0.0000E+00  0.6400E+00
     24.099  0.0000E+00  0.6400E+00
     24.261  0.0000E+00  0.6400E+00
     24.424  0.0000E+00  0.6400E+00
     24.586  0.0000E+00  0.6400E+00
