       N       E                     dE             d eps       ncg     rms          rms(c)
DAV:   1     0.272966373932E+02    0.27297E+02   -0.80463E+03  2560   0.409E+02
DAV:   2    -0.104010416650E+02   -0.37698E+02   -0.37401E+02  3808   0.544E+01
DAV:   3    -0.108684407564E+02   -0.46740E+00   -0.46720E+00  2560   0.814E+00
DAV:   4    -0.108708880685E+02   -0.24473E-02   -0.24473E-02  5056   0.667E-01
DAV:   5    -0.108708882679E+02   -0.19938E-06   -0.19967E-06  2560   0.591E-03    0.547E+00
DAV:   6    -0.101466915025E+02    0.72420E+00   -0.37253E+00  3744   0.308E+00    0.412E+00
DAV:   7    -0.101283816374E+02    0.18310E-01   -0.60179E-02  3584   0.620E-01    0.230E+00
DAV:   8    -0.101262227720E+02    0.21589E-02   -0.27483E-02  4192   0.451E-01    0.281E-01
DAV:   9    -0.101267360438E+02   -0.51327E-03   -0.32806E-03  3936   0.116E-01    0.139E-01
DAV:  10    -0.101274402334E+02   -0.70419E-03   -0.14713E-03  3040   0.908E-02    0.284E-02
DAV:  11    -0.101274960251E+02   -0.55792E-04   -0.19285E-04  4448   0.352E-02    0.287E-02
DAV:  12    -0.101275118578E+02   -0.15833E-04   -0.27505E-05  3136   0.126E-02    0.123E-02
DAV:  13    -0.101275132677E+02   -0.14099E-05   -0.23186E-06  4352   0.402E-03
   1 F= -.10127513E+02 E0= -.10125959E+02  d E =-.101275E+02
       N       E                     dE             d eps       ncg     rms          rms(c)
DAV:   1    -0.101511761898E+02   -0.23664E-01   -0.92620E-01  3744   0.354E+00    0.803E-01
DAV:   2    -0.101368752900E+02    0.14301E-01   -0.32808E-02  3616   0.628E-01    0.404E-01
DAV:   3    -0.101319367344E+02    0.49386E-02   -0.11008E-02  3968   0.341E-01    0.176E-01
DAV:   4    -0.101316081721E+02    0.32856E-03   -0.54845E-04  3456   0.656E-02    0.128E-01
DAV:   5    -0.101315544946E+02    0.53677E-04   -0.11551E-04  4096   0.325E-02    0.345E-02
DAV:   6    -0.101315558488E+02   -0.13543E-05   -0.64171E-06  3360   0.879E-03
   2 F= -.10131556E+02 E0= -.10130040E+02  d E =-.404258E-02
       N       E                     dE             d eps       ncg     rms          rms(c)
DAV:   1    -0.101334754338E+02   -0.19209E-02   -0.62577E-02  3808   0.913E-01    0.210E-01
DAV:   2    -0.101325082688E+02    0.96717E-03   -0.21819E-03  3584   0.162E-01    0.106E-01
DAV:   3    -0.101321763827E+02    0.33189E-03   -0.73756E-04  3968   0.870E-02    0.479E-02
DAV:   4    -0.101321555040E+02    0.20879E-04   -0.35977E-05  3488   0.167E-02    0.345E-02
DAV:   5    -0.101321530672E+02    0.24368E-05   -0.80110E-06  3552   0.848E-03
   3 F= -.10132153E+02 E0= -.10130629E+02  d E =-.463980E-02
       N       E                     dE             d eps       ncg     rms          rms(c)
DAV:   1    -0.101643817100E+02   -0.32226E-01   -0.81332E-01  2592   0.444E+00    0.102E+00
DAV:   2    -0.101428043571E+02    0.21577E-01   -0.68157E-02  4096   0.876E-01    0.485E-01
DAV:   3    -0.101375814679E+02    0.52229E-02   -0.97808E-03  3328   0.404E-01    0.186E-01
DAV:   4    -0.101367523359E+02    0.82913E-03   -0.10409E-03  4448   0.112E-01    0.120E-01
DAV:   5    -0.101366462694E+02    0.10607E-03   -0.70065E-05  2816   0.361E-02    0.480E-02
DAV:   6    -0.101366296738E+02    0.16596E-04   -0.11631E-05  4224   0.115E-02    0.766E-03
DAV:   7    -0.101366302003E+02   -0.52648E-06   -0.15113E-06  2176   0.493E-03
   4 F= -.10136630E+02 E0= -.10135089E+02  d E =-.447713E-02
       N       E                     dE             d eps       ncg     rms          rms(c)
DAV:   1    -0.101485989366E+02   -0.11969E-01   -0.33224E-01  2688   0.282E+00    0.659E-01
DAV:   2    -0.101396965062E+02    0.89024E-02   -0.28302E-02  4000   0.559E-01    0.309E-01
DAV:   3    -0.101375655291E+02    0.21310E-02   -0.40497E-03  3456   0.257E-01    0.121E-01
DAV:   4    -0.101372191939E+02    0.34634E-03   -0.43368E-04  4288   0.719E-02    0.782E-02
DAV:   5    -0.101371719601E+02    0.47234E-04   -0.31613E-05  3040   0.239E-02    0.293E-02
DAV:   6    -0.101371655014E+02    0.64586E-05   -0.44749E-06  3136   0.723E-03
   5 F= -.10137166E+02 E0= -.10135619E+02  d E =-.501243E-02
