 vasp.6.3.2 27Jun22 (build Jun 14 2024 17:29:11) complex                         
 executed on             LinuxGNU date 2026.03.29  20:06:33
 running on   32 total cores
 distrk:  each k-point on   32 cores,    1 groups
 distr:  one band on NCORE=   1 cores,   32 groups


--------------------------------------------------------------------------------------------------------


 INCAR:
   EDIFF = 1e-05
   EDIFFG = -0.05
   ENCUT = 400.0
   IBRION = 2
   ISIF = 3
   ISMEAR = 0
   LCHARG = False
   LREAL = Auto
   LWAVE = False
   NSW = 100
   SIGMA = 0.05

 POTCAR:    PAW_PBE Na_pv 19Sep2006               
 POTCAR:    PAW_PBE Sb 06Sep2000                  
 POTCAR:    PAW_PBE S 06Sep2000                   
 -----------------------------------------------------------------------------
|                                                                             |
|           W    W    AA    RRRRR   N    N  II  N    N   GGGG   !!!           |
|           W    W   A  A   R    R  NN   N  II  NN   N  G    G  !!!           |
|           W    W  A    A  R    R  N N  N  II  N N  N  G       !!!           |
|           W WW W  AAAAAA  RRRRR   N  N N  II  N  N N  G  GGG   !            |
|           WW  WW  A    A  R   R   N   NN  II  N   NN  G    G                |
|           W    W  A    A  R    R  N    N  II  N    N   GGGG   !!!           |
|                                                                             |
|     For optimal performance we recommend to set                             |
|       NCORE = 2 up to number-of-cores-per-socket                            |
|     NCORE specifies how many cores store one orbital (NPAR=cpu/NCORE).      |
|     This setting can greatly improve the performance of VASP for DFT.       |
|     The default, NCORE=1 might be grossly inefficient on modern             |
|     multi-core architectures or massively parallel machines. Do your        |
|     own testing! More info at https://www.vasp.at/wiki/index.php/NCORE      |
|     Unfortunately you need to use the default for GW and RPA                |
|     calculations (for HF NCORE is supported but not extensively tested      |
|     yet).                                                                   |
|                                                                             |
 -----------------------------------------------------------------------------

 POTCAR:    PAW_PBE Na_pv 19Sep2006               
   SHA256 =  6a2f546d9e11350984debacf3dc457d8cffc0868e817d445faca461816a32b94 Na_pv/POTCAR          
   COPYR  = (c) Copyright 19Sep2006 Georg Kresse                                                    
   COPYR  = This file is part of the software VASP. Any use, copying, and all other rights are regul
   COPYR  = If you do not have a valid VASP license, you may not use, copy or distribute this file. 
   VRHFIN =Na: p6s1                                                                                 
   LEXCH  = PE                                                                                      
   EATOM  =   766.0439 eV,   56.3026 Ry                                                             
                                                                                                    
   TITEL  = PAW_PBE Na_pv 19Sep2006                                                                 
   LULTRA =        F    use ultrasoft PP ?                                                          
   IUNSCR =        1    unscreen: 0-lin 1-nonlin 2-no                                               
   RPACOR =    1.800    partial core radius                                                         
   POMASS =   22.990; ZVAL   =    7.000    mass and valenz                                          
   RCORE  =    2.200    outmost cutoff radius                                                       
   RWIGS  =    2.200; RWIGS  =    1.164    wigner-seitz radius (au A)                               
   ENMAX  =  259.561; ENMIN  =  194.671 eV                                                          
   ICORE  =        2    local potential                                                             
   LCOR   =        T    correct aug charges                                                         
   LPAW   =        T    paw PP                                                                      
   EAUG   =  368.056                                                                                
   DEXC   =    0.000                                                                                
   RMAX   =    2.245    core radius for proj-oper                                                   
   RAUG   =    1.300    factor for augmentation sphere                                              
   RDEP   =    2.259    radius for radial grids                                                     
   RDEPT  =    1.738    core radius for aug-charge                                                  
                                                                                                    
   Atomic configuration                                                                             
    5 entries                                                                                       
     n  l   j            E        occ.                                                              
     1  0  0.50     -1033.6933   2.0000                                                             
     2  0  0.50       -56.7526   2.0000                                                             
     2  1  1.50       -28.6721   6.0000                                                             
     3  0  0.50        -2.7440   1.0000                                                             
     3  2  1.50        -1.3606   0.0000                                                             
   Description                                                                                      
     l       E           TYP  RCUT    TYP  RCUT                                                     
     1    -28.6720912     23  2.000                                                                 
     1      6.8029130     23  2.000                                                                 
     0     -2.7439560     23  2.200                                                                 
     0     34.0145650     23  2.200                                                                 
     2     -1.3605826     23  2.200                                                                 
  local pseudopotential read in
  partial core-charges read in
  partial kinetic energy density read in
  atomic valenz-charges read in
  non local Contribution for L=           1  read in
    real space projection operators read in
  non local Contribution for L=           1  read in
    real space projection operators read in
  non local Contribution for L=           0  read in
    real space projection operators read in
  non local Contribution for L=           0  read in
    real space projection operators read in
    PAW grid and wavefunctions read in

   number of l-projection  operators is LMAX  =           4
   number of lm-projection operators is LMMAX =           8

 POTCAR:    PAW_PBE Sb 06Sep2000                  
   SHA256 =  8a1325a3afd8ca988779475cff04188eb880a428d1acb53275fe456fa3b784fc Sb/POTCAR             
   COPYR  = (c) Copyright 06Sep2000 Georg Kresse                                                    
   COPYR  = This file is part of the software VASP. Any use, copying, and all other rights are regul
   COPYR  = If you do not have a valid VASP license, you may not use, copy or distribute this file. 
   VRHFIN =Sb: s2p3                                                                                 
   LEXCH  = PE                                                                                      
   EATOM  =   149.9515 eV,   11.0211 Ry                                                             
                                                                                                    
   TITEL  = PAW_PBE Sb 06Sep2000                                                                    
   LULTRA =        F    use ultrasoft PP ?                                                          
   IUNSCR =        1    unscreen: 0-lin 1-nonlin 2-no                                               
   RPACOR =    2.200    partial core radius                                                         
   POMASS =  121.750; ZVAL   =    5.000    mass and valenz                                          
   RCORE  =    2.300    outmost cutoff radius                                                       
   RWIGS  =    2.980; RWIGS  =    1.577    wigner-seitz radius (au A)                               
   ENMAX  =  172.069; ENMIN  =  129.052 eV                                                          
   ICORE  =        3    local potential                                                             
   LCOR   =        T    correct aug charges                                                         
   LPAW   =        T    paw PP                                                                      
   EAUG   =  380.513                                                                                
   DEXC   =    0.000                                                                                
   RMAX   =    2.346    core radius for proj-oper                                                   
   RAUG   =    1.300    factor for augmentation sphere                                              
   RDEP   =    2.360    radius for radial grids                                                     
   RDEPT  =    2.192    core radius for aug-charge                                                  
                                                                                                    
   Atomic configuration                                                                             
   13 entries                                                                                       
     n  l   j            E        occ.                                                              
     1  0  0.50    -30298.2797   2.0000                                                             
     2  0  0.50     -4610.2252   2.0000                                                             
     2  1  1.50     -4138.3407   6.0000                                                             
     3  0  0.50      -903.8815   2.0000                                                             
     3  1  1.50      -750.1337   6.0000                                                             
     3  2  2.50      -515.7092  10.0000                                                             
     4  0  0.50      -148.8034   2.0000                                                             
     4  1  1.50      -101.7581   6.0000                                                             
     4  2  2.50       -33.5048  10.0000                                                             
     5  0  0.50       -12.8298   2.0000                                                             
     5  1  0.50        -4.8276   3.0000                                                             
     5  2  1.50        -4.0817   0.0000                                                             
     4  3  2.50        -4.0817   0.0000                                                             
   Description                                                                                      
     l       E           TYP  RCUT    TYP  RCUT                                                     
     0    -12.8297861     23  2.300                                                                 
     0     13.6058260     23  2.300                                                                 
     1     -4.8275512     23  2.300                                                                 
     1     -0.7245443     23  2.300                                                                 
     2     -4.0817478     23  2.300                                                                 
     3     -1.3605826     23  2.300                                                                 
  local pseudopotential read in
  partial core-charges read in
  partial kinetic energy density read in
  atomic valenz-charges read in
  non local Contribution for L=           0  read in
    real space projection operators read in
  non local Contribution for L=           0  read in
    real space projection operators read in
  non local Contribution for L=           1  read in
    real space projection operators read in
  non local Contribution for L=           1  read in
    real space projection operators read in
  non local Contribution for L=           2  read in
    real space projection operators read in
    PAW grid and wavefunctions read in

   number of l-projection  operators is LMAX  =           5
   number of lm-projection operators is LMMAX =          13

 POTCAR:    PAW_PBE S 06Sep2000                   
   SHA256 =  0fc7481fb0695f01bdc6462160264c5c84044ae9ec85a907d398b887a2bc3132 S/POTCAR              
   COPYR  = (c) Copyright 06Sep2000 Georg Kresse                                                    
   COPYR  = This file is part of the software VASP. Any use, copying, and all other rights are regul
   COPYR  = If you do not have a valid VASP license, you may not use, copy or distribute this file. 
   VRHFIN =S : s2p4                                                                                 
   LEXCH  = PE                                                                                      
   EATOM  =   276.8230 eV,   20.3459 Ry                                                             
                                                                                                    
   TITEL  = PAW_PBE S 06Sep2000                                                                     
   LULTRA =        F    use ultrasoft PP ?                                                          
   IUNSCR =        1    unscreen: 0-lin 1-nonlin 2-no                                               
   RPACOR =    1.500    partial core radius                                                         
   POMASS =   32.066; ZVAL   =    6.000    mass and valenz                                          
   RCORE  =    1.900    outmost cutoff radius                                                       
   RWIGS  =    2.200; RWIGS  =    1.164    wigner-seitz radius (au A)                               
   ENMAX  =  258.689; ENMIN  =  194.016 eV                                                          
   ICORE  =        2    local potential                                                             
   LCOR   =        T    correct aug charges                                                         
   LPAW   =        T    paw PP                                                                      
   EAUG   =  335.092                                                                                
   DEXC   =    0.000                                                                                
   RMAX   =    1.942    core radius for proj-oper                                                   
   RAUG   =    1.300    factor for augmentation sphere                                              
   RDEP   =    1.954    radius for radial grids                                                     
   RDEPT  =    1.744    core radius for aug-charge                                                  
                                                                                                    
   Atomic configuration                                                                             
    6 entries                                                                                       
     n  l   j            E        occ.                                                              
     1  0  0.50     -2405.8406   2.0000                                                             
     2  0  0.50      -211.7007   2.0000                                                             
     2  1  1.50      -156.4958   6.0000                                                             
     3  0  0.50       -17.2562   2.0000                                                             
     3  1  0.50        -7.0085   4.0000                                                             
     3  2  1.50        -6.8029   0.0000                                                             
   Description                                                                                      
     l       E           TYP  RCUT    TYP  RCUT                                                     
     0    -17.2561641     23  1.900                                                                 
     0    -15.8743224     23  1.900                                                                 
     1     -7.0085400     23  1.900                                                                 
     1     -2.7779785     23  1.900                                                                 
     2     -6.8029130     23  1.900                                                                 
  local pseudopotential read in
  partial core-charges read in
  partial kinetic energy density read in
  atomic valenz-charges read in
  non local Contribution for L=           0  read in
    real space projection operators read in
  non local Contribution for L=           0  read in
    real space projection operators read in
  non local Contribution for L=           1  read in
    real space projection operators read in
  non local Contribution for L=           1  read in
    real space projection operators read in
    PAW grid and wavefunctions read in

   number of l-projection  operators is LMAX  =           4
   number of lm-projection operators is LMMAX =           8

 -----------------------------------------------------------------------------
|                                                                             |
|               ----> ADVICE to this user running VASP <----                  |
|                                                                             |
|     You have a (more or less) 'small supercell' and for smaller cells       |
|     it is recommended to use the reciprocal-space projection scheme!        |
|     The real-space optimization is not efficient for small cells and it     |
|     is also less accurate ...                                               |
|     Therefore, set LREAL=.FALSE. in the INCAR file.                         |
|                                                                             |
 -----------------------------------------------------------------------------

 Optimization of the real space projectors (new method)

 maximal supplied QI-value         = 17.01
 optimisation between [QCUT,QGAM] = [ 10.20, 20.41] = [ 29.16,116.64] Ry 
 Optimized for a Real-space Cutoff    1.30 Angstroem

   l    n(q)    QCUT    max X(q) W(low)/X(q) W(high)/X(q)  e(spline) 
   1      7    10.205     4.940    0.23E-03    0.84E-03    0.11E-06
   1      7    10.205     6.253    0.40E-03    0.13E-02    0.18E-06
   0      8    10.205    37.438    0.23E-03    0.37E-03    0.42E-07
   0      8    10.205     9.606    0.16E-03    0.26E-03    0.31E-07
 Optimization of the real space projectors (new method)

 maximal supplied QI-value         = 16.25
 optimisation between [QCUT,QGAM] = [ 10.24, 20.48] = [ 29.35,117.42] Ry 
 Optimized for a Real-space Cutoff    1.38 Angstroem

   l    n(q)    QCUT    max X(q) W(low)/X(q) W(high)/X(q)  e(spline) 
   0      8    10.239    19.000    0.74E-04    0.15E-03    0.61E-07
   0      8    10.239     9.057    0.91E-04    0.19E-03    0.74E-07
   1      8    10.239   125.345    0.50E-03    0.38E-03    0.74E-07
   1      8    10.239    79.963    0.49E-03    0.37E-03    0.73E-07
   2      7    10.239     6.963    0.74E-04    0.11E-03    0.40E-07
 Optimization of the real space projectors (new method)

 maximal supplied QI-value         = 19.84
 optimisation between [QCUT,QGAM] = [ 10.12, 20.44] = [ 28.68,116.96] Ry 
 Optimized for a Real-space Cutoff    1.23 Angstroem

   l    n(q)    QCUT    max X(q) W(low)/X(q) W(high)/X(q)  e(spline) 
   0      7    10.119   187.594    0.62E-04    0.28E-03    0.52E-07
   0      7    10.119   164.243    0.61E-04    0.28E-03    0.52E-07
   1      7    10.119    67.533    0.45E-03    0.63E-03    0.13E-06
   1      7    10.119    50.729    0.44E-03    0.62E-03    0.12E-06
  PAW_PBE Na_pv 19Sep2006               :
 energy of atom  1       EATOM= -766.0439
 kinetic energy error for atom=    0.0103 (will be added to EATOM!!)
  PAW_PBE Sb 06Sep2000                  :
 energy of atom  2       EATOM= -149.9515
 kinetic energy error for atom=    0.0008 (will be added to EATOM!!)
  PAW_PBE S 06Sep2000                   :
 energy of atom  3       EATOM= -276.8230
 kinetic energy error for atom=    0.0046 (will be added to EATOM!!)


 POSCAR: Na1 Sb1 S1
  positions in direct lattice
  No initial velocities read in
 exchange correlation table for  LEXCH =        8
   RHO(1)=    0.500       N(1)  =     2000
   RHO(2)=  100.500       N(2)  =     4000



--------------------------------------------------------------------------------------------------------


 ion  position               nearest neighbor table
   1  0.039  0.837  0.000-   3 2.61   3 2.61   2 3.23   2 3.23
   2  0.927  0.449  0.000-   3 2.33   1 3.23   1 3.23
   3  0.306  0.071  0.000-   2 2.33   1 2.61   1 2.61

  LATTYP: Found a simple monoclinic cell.
 ALAT       =     4.3483776252
 B/A-ratio  =     0.8057602212
 C/A-ratio  =     1.4154631101
 COS(beta)  =    -0.0019297594
  
  Lattice vectors:
  
 A1 = (   3.8838548430,   1.9555202709,   0.0000000000)
 A2 = (   0.0000000000,   0.0000000000,  -3.5037497171)
 A3 = (  -2.7785704125,   5.4921015092,   0.0000000000)


Analysis of symmetry for initial positions (statically):
=====================================================================
 Subroutine PRICEL returns:
 Original cell was already a primitive cell.
 

 Routine SETGRP: Setting up the symmetry group for a 
 simple monoclinic supercell.


 Subroutine GETGRP returns: Found  2 space group operations
 (whereof  2 operations were pure point group operations)
 out of a pool of  4 trial point group operations.


The static configuration has the point symmetry C_1h.


Analysis of symmetry for dynamics (positions and initial velocities):
=====================================================================
 Subroutine PRICEL returns:
 Original cell was already a primitive cell.
 

 Routine SETGRP: Setting up the symmetry group for a 
 simple monoclinic supercell.


 Subroutine GETGRP returns: Found  2 space group operations
 (whereof  2 operations were pure point group operations)
 out of a pool of  4 trial point group operations.


The dynamic configuration has the point symmetry C_1h.


 Subroutine INISYM returns: Found  2 space group operations
 (whereof  2 operations are pure point group operations),
 and found     1 'primitive' translations


----------------------------------------------------------------------------------------

                                     Primitive cell                                     

  volume of cell :      93.7746

  direct lattice vectors                    reciprocal lattice vectors
     3.883854843  1.955520271  0.000000000     0.278269343 -0.041297314  0.000000000
     1.105284430  7.447621780  0.000000000    -0.073065115  0.145114476  0.000000000
     0.000000000  0.000000000  3.503749717     0.000000000  0.000000000  0.285408514

  length of vectors
     4.348377625  7.529191447  3.503749717     0.281317072  0.162470681  0.285408514

  position of ions in fractional coordinates (direct lattice)
     0.039008928  0.837415978  0.000000000
     0.926951276  0.449276855  0.000000000
     0.306066975  0.070879830  0.000000000

  ion indices of the primitive-cell ions
   primitive index   ion index
                 1           1
                 2           2
                 3           3

----------------------------------------------------------------------------------------



 KPOINTS: pymatgen with grid density = 500 / numbe

Automatic generation of k-mesh.
 Grid dimensions read from file:
 generate k-points for:    6    3    7

 Generating k-lattice:

  Cartesian coordinates                     Fractional coordinates (reciprocal lattice)
     0.046378224 -0.006882886  0.000000000     0.166666667  0.000000000  0.000000000
    -0.024355038  0.048371492  0.000000000     0.000000000  0.333333333  0.000000000
     0.000000000  0.000000000  0.040772645     0.000000000  0.000000000  0.142857143

  Length of vectors
     0.046886179  0.054156894  0.040772645

  Shift w.r.t. Gamma in fractional coordinates (k-lattice)
     0.000000000  0.000000000  0.000000000

 
 Subroutine IBZKPT returns following result:
 ===========================================
 
 Found     40 irreducible k-points:
 
 Following reciprocal coordinates:
            Coordinates               Weight
  0.000000  0.000000  0.000000      1.000000
  0.166667  0.000000  0.000000      2.000000
  0.333333  0.000000  0.000000      2.000000
  0.500000  0.000000  0.000000      1.000000
  0.000000  0.333333  0.000000      2.000000
  0.166667  0.333333  0.000000      2.000000
  0.333333  0.333333  0.000000      2.000000
  0.500000  0.333333  0.000000      2.000000
 -0.333333  0.333333  0.000000      2.000000
 -0.166667  0.333333  0.000000      2.000000
  0.000000  0.000000  0.142857      2.000000
  0.166667  0.000000  0.142857      4.000000
  0.333333  0.000000  0.142857      4.000000
  0.500000  0.000000  0.142857      2.000000
  0.000000  0.333333  0.142857      4.000000
  0.166667  0.333333  0.142857      4.000000
  0.333333  0.333333  0.142857      4.000000
  0.500000  0.333333  0.142857      4.000000
 -0.333333  0.333333  0.142857      4.000000
 -0.166667  0.333333  0.142857      4.000000
  0.000000  0.000000  0.285714      2.000000
  0.166667  0.000000  0.285714      4.000000
  0.333333  0.000000  0.285714      4.000000
  0.500000  0.000000  0.285714      2.000000
  0.000000  0.333333  0.285714      4.000000
  0.166667  0.333333  0.285714      4.000000
  0.333333  0.333333  0.285714      4.000000
  0.500000  0.333333  0.285714      4.000000
 -0.333333  0.333333  0.285714      4.000000
 -0.166667  0.333333  0.285714      4.000000
  0.000000  0.000000  0.428571      2.000000
  0.166667  0.000000  0.428571      4.000000
  0.333333  0.000000  0.428571      4.000000
  0.500000  0.000000  0.428571      2.000000
  0.000000  0.333333  0.428571      4.000000
  0.166667  0.333333  0.428571      4.000000
  0.333333  0.333333  0.428571      4.000000
  0.500000  0.333333  0.428571      4.000000
 -0.333333  0.333333  0.428571      4.000000
 -0.166667  0.333333  0.428571      4.000000
 
 Following cartesian coordinates:
            Coordinates               Weight
  0.000000  0.000000  0.000000      1.000000
  0.046378 -0.006883  0.000000      2.000000
  0.092756 -0.013766  0.000000      2.000000
  0.139135 -0.020649  0.000000      1.000000
 -0.024355  0.048371  0.000000      2.000000
  0.022023  0.041489  0.000000      2.000000
  0.068401  0.034606  0.000000      2.000000
  0.114780  0.027723  0.000000      2.000000
 -0.117111  0.062137  0.000000      2.000000
 -0.070733  0.055254  0.000000      2.000000
  0.000000  0.000000  0.040773      2.000000
  0.046378 -0.006883  0.040773      4.000000
  0.092756 -0.013766  0.040773      4.000000
  0.139135 -0.020649  0.040773      2.000000
 -0.024355  0.048371  0.040773      4.000000
  0.022023  0.041489  0.040773      4.000000
  0.068401  0.034606  0.040773      4.000000
  0.114780  0.027723  0.040773      4.000000
 -0.117111  0.062137  0.040773      4.000000
 -0.070733  0.055254  0.040773      4.000000
  0.000000  0.000000  0.081545      2.000000
  0.046378 -0.006883  0.081545      4.000000
  0.092756 -0.013766  0.081545      4.000000
  0.139135 -0.020649  0.081545      2.000000
 -0.024355  0.048371  0.081545      4.000000
  0.022023  0.041489  0.081545      4.000000
  0.068401  0.034606  0.081545      4.000000
  0.114780  0.027723  0.081545      4.000000
 -0.117111  0.062137  0.081545      4.000000
 -0.070733  0.055254  0.081545      4.000000
  0.000000  0.000000  0.122318      2.000000
  0.046378 -0.006883  0.122318      4.000000
  0.092756 -0.013766  0.122318      4.000000
  0.139135 -0.020649  0.122318      2.000000
 -0.024355  0.048371  0.122318      4.000000
  0.022023  0.041489  0.122318      4.000000
  0.068401  0.034606  0.122318      4.000000
  0.114780  0.027723  0.122318      4.000000
 -0.117111  0.062137  0.122318      4.000000
 -0.070733  0.055254  0.122318      4.000000
 


--------------------------------------------------------------------------------------------------------




 Dimension of arrays:
   k-points           NKPTS =     40   k-points in BZ     NKDIM =     40   number of bands    NBANDS=     32
   number of dos      NEDOS =    301   number of ions     NIONS =      3
   non local maximal  LDIM  =      5   non local SUM 2l+1 LMDIM =     13
   total plane-waves  NPLWV =  17280
   max r-space proj   IRMAX =   2080   max aug-charges    IRDMAX=  10425
   dimension x,y,z NGX =    24 NGY =   40 NGZ =   18
   dimension x,y,z NGXF=    48 NGYF=   80 NGZF=   36
   support grid    NGXF=    48 NGYF=   80 NGZF=   36
   ions per type =               1   1   1
   NGX,Y,Z   is equivalent  to a cutoff of   9.18,  8.83,  8.54 a.u.
   NGXF,Y,Z  is equivalent  to a cutoff of  18.35, 17.66, 17.08 a.u.

 SYSTEM =  unknown system                          
 POSCAR =  Na1 Sb1 S1                              

 Startparameter for this run:
   NWRITE =      2    write-flag & timer
   PREC   = normal    normal or accurate (medium, high low for compatibility)
   ISTART =      0    job   : 0-new  1-cont  2-samecut
   ICHARG =      2    charge: 1-file 2-atom 10-const
   ISPIN  =      1    spin polarized calculation?
   LNONCOLLINEAR =      F non collinear calculations
   LSORBIT =      F    spin-orbit coupling
   INIWAV =      1    electr: 0-lowe 1-rand  2-diag
   LASPH  =      F    aspherical Exc in radial PAW
 Electronic Relaxation 1
   ENCUT  =  400.0 eV  29.40 Ry    5.42 a.u.   7.09 12.28  5.71*2*pi/ulx,y,z
   ENINI  =  400.0     initial cutoff
   ENAUG  =  380.5 eV  augmentation charge cutoff
   NELM   =     60;   NELMIN=  2; NELMDL= -5     # of ELM steps 
   EDIFF  = 0.1E-04   stopping-criterion for ELM
   LREAL  =      T    real-space projection
   NLSPLINE    = F    spline interpolate recip. space projectors
   LCOMPAT=      F    compatible to vasp.4.4
   GGA_COMPAT  = T    GGA compatible to vasp.4.4-vasp.4.6
   LMAXPAW     = -100 max onsite density
   LMAXMIX     =    2 max onsite mixed and CHGCAR
   VOSKOWN=      0    Vosko Wilk Nusair interpolation
   ROPT   =   -0.00050  -0.00050  -0.00050
 Ionic relaxation
   EDIFFG = -.5E-01   stopping-criterion for IOM
   NSW    =    100    number of steps for IOM
   NBLOCK =      1;   KBLOCK =    100    inner block; outer block 
   IBRION =      2    ionic relax: 0-MD 1-quasi-New 2-CG
   NFREE  =      1    steps in history (QN), initial steepest desc. (CG)
   ISIF   =      3    stress and relaxation
   IWAVPR =     11    prediction:  0-non 1-charg 2-wave 3-comb
   ISYM   =      2    0-nonsym 1-usesym 2-fastsym
   LCORR  =      T    Harris-Foulkes like correction to forces

   POTIM  = 0.5000    time-step for ionic-motion
   TEIN   =    0.0    initial temperature
   TEBEG  =    0.0;   TEEND  =   0.0 temperature during run
   SMASS  =  -3.00    Nose mass-parameter (am)
   estimated Nose-frequenzy (Omega)   =  0.10E-29 period in steps = 0.13E+47 mass=  -0.432E-27a.u.
   SCALEE = 1.0000    scale energy and forces
   NPACO  =    256;   APACO  = 10.0  distance and # of slots for P.C.
   PSTRESS=    0.0 pullay stress

  Mass of Ions in am
   POMASS =  22.99121.75 32.07
  Ionic Valenz
   ZVAL   =   7.00  5.00  6.00
  Atomic Wigner-Seitz radii
   RWIGS  =  -1.00 -1.00 -1.00
  virtual crystal weights 
   VCA    =   1.00  1.00  1.00
   NELECT =      18.0000    total number of electrons
   NUPDOWN=      -1.0000    fix difference up-down

 DOS related values:
   EMIN   =  10.00;   EMAX   =-10.00  energy-range for DOS
   EFERMI =   0.00
   ISMEAR =     0;   SIGMA  =   0.05  broadening in eV -4-tet -1-fermi 0-gaus

 Electronic relaxation 2 (details)
   IALGO  =     38    algorithm
   LDIAG  =      T    sub-space diagonalisation (order eigenvalues)
   LSUBROT=      F    optimize rotation matrix (better conditioning)
   TURBO    =      0    0=normal 1=particle mesh
   IRESTART =      0    0=no restart 2=restart with 2 vectors
   NREBOOT  =      0    no. of reboots
   NMIN     =      0    reboot dimension
   EREF     =   0.00    reference energy to select bands
   IMIX   =      4    mixing-type and parameters
     AMIX     =   0.40;   BMIX     =  1.00
     AMIX_MAG =   1.60;   BMIX_MAG =  1.00
     AMIN     =   0.10
     WC   =   100.;   INIMIX=   1;  MIXPRE=   1;  MAXMIX= -45

 Intra band minimization:
   WEIMIN = 0.0010     energy-eigenvalue tresh-hold
   EBREAK =  0.78E-07  absolut break condition
   DEPER  =   0.30     relativ break condition  

   TIME   =   0.40     timestep for ELM

  volume/ion in A,a.u.               =      31.26       210.94
  Fermi-wavevector in a.u.,A,eV,Ry     =   0.944359  1.784580 12.133871  0.891814
  Thomas-Fermi vector in A             =   2.072156

 Write flags
   LWAVE        =      F    write WAVECAR
   LDOWNSAMPLE  =      F    k-point downsampling of WAVECAR
   LCHARG       =      F    write CHGCAR
   LVTOT        =      F    write LOCPOT, total local potential
   LVHAR        =      F    write LOCPOT, Hartree potential only
   LELF         =      F    write electronic localiz. function (ELF)
   LORBIT       =      0    0 simple, 1 ext, 2 COOP (PROOUT), +10 PAW based schemes


 Dipole corrections
   LMONO  =      F    monopole corrections only (constant potential shift)
   LDIPOL =      F    correct potential (dipole corrections)
   IDIPOL =      0    1-x, 2-y, 3-z, 4-all directions 
   EPSILON=  1.0000000 bulk dielectric constant

 Exchange correlation treatment:
   GGA     =    --    GGA type
   LEXCH   =     8    internal setting for exchange type
   LIBXC   =     F    Libxc                    
   VOSKOWN =     0    Vosko Wilk Nusair interpolation
   LHFCALC =     F    Hartree Fock is set to
   LHFONE  =     F    Hartree Fock one center treatment
   AEXX    =    0.0000 exact exchange contribution

 Linear response parameters
   LEPSILON=     F    determine dielectric tensor
   LRPA    =     F    only Hartree local field effects (RPA)
   LNABLA  =     F    use nabla operator in PAW spheres
   LVEL    =     F    velocity operator in full k-point grid
   CSHIFT  =0.1000    complex shift for real part using Kramers Kronig
   OMEGAMAX=  -1.0    maximum frequency
   DEG_THRESHOLD= 0.2000000E-02 threshold for treating states as degnerate
   RTIME   =   -0.100 relaxation time in fs
  (WPLASMAI=    0.000 imaginary part of plasma frequency in eV, 0.658/RTIME)
   DFIELD  = 0.0000000 0.0000000 0.0000000 field for delta impulse in time

  Optional k-point grid parameters
   LKPOINTS_OPT  =     F    use optional k-point grid
   KPOINTS_OPT_MODE=     1    mode for optional k-point grid

 Orbital magnetization related:
   ORBITALMAG=     F  switch on orbital magnetization
   LCHIMAG   =     F  perturbation theory with respect to B field
   DQ        =  0.001000  dq finite difference perturbation B field
   LLRAUG    =     F  two centre corrections for induced B field



--------------------------------------------------------------------------------------------------------


 conjugate gradient relaxation of ions
 charge density and potential will be updated during run
 non-spin polarized calculation
 Variant of blocked Davidson
 Davidson routine will perform the subspace rotation
 perform sub-space diagonalisation
    after iterative eigenvector-optimisation
 modified Broyden-mixing scheme, WC =      100.0
 initial mixing is a Kerker type mixing with AMIX =  0.4000 and BMIX =      1.0000
 Hartree-type preconditioning will be used
 using additional bands           23
 real space projection scheme for non local part
 use partial core corrections
 calculate Harris-corrections to forces   (improved forces if not selfconsistent)
 use gradient corrections 
 use of overlap-Matrix (Vanderbilt PP)
 Gauss-broadening in eV      SIGMA  =   0.05


--------------------------------------------------------------------------------------------------------


  energy-cutoff  :      400.00
  volume of cell :       93.77
      direct lattice vectors                 reciprocal lattice vectors
     3.883854843  1.955520271  0.000000000     0.278269343 -0.041297314  0.000000000
     1.105284430  7.447621780  0.000000000    -0.073065115  0.145114476  0.000000000
     0.000000000  0.000000000  3.503749717     0.000000000  0.000000000  0.285408514

  length of vectors
     4.348377625  7.529191447  3.503749717     0.281317072  0.162470681  0.285408514



 k-points in units of 2pi/SCALE and weight: pymatgen with grid density = 500 / numbe
   0.00000000  0.00000000  0.00000000       0.008
   0.04637822 -0.00688289  0.00000000       0.016
   0.09275645 -0.01376577  0.00000000       0.016
   0.13913467 -0.02064866  0.00000000       0.008
  -0.02435504  0.04837149  0.00000000       0.016
   0.02202319  0.04148861  0.00000000       0.016
   0.06840141  0.03460572  0.00000000       0.016
   0.11477963  0.02772284  0.00000000       0.016
  -0.11711149  0.06213726  0.00000000       0.016
  -0.07073326  0.05525438  0.00000000       0.016
   0.00000000  0.00000000  0.04077264       0.016
   0.04637822 -0.00688289  0.04077264       0.032
   0.09275645 -0.01376577  0.04077264       0.032
   0.13913467 -0.02064866  0.04077264       0.016
  -0.02435504  0.04837149  0.04077264       0.032
   0.02202319  0.04148861  0.04077264       0.032
   0.06840141  0.03460572  0.04077264       0.032
   0.11477963  0.02772284  0.04077264       0.032
  -0.11711149  0.06213726  0.04077264       0.032
  -0.07073326  0.05525438  0.04077264       0.032
   0.00000000  0.00000000  0.08154529       0.016
   0.04637822 -0.00688289  0.08154529       0.032
   0.09275645 -0.01376577  0.08154529       0.032
   0.13913467 -0.02064866  0.08154529       0.016
  -0.02435504  0.04837149  0.08154529       0.032
   0.02202319  0.04148861  0.08154529       0.032
   0.06840141  0.03460572  0.08154529       0.032
   0.11477963  0.02772284  0.08154529       0.032
  -0.11711149  0.06213726  0.08154529       0.032
  -0.07073326  0.05525438  0.08154529       0.032
   0.00000000  0.00000000  0.12231793       0.016
   0.04637822 -0.00688289  0.12231793       0.032
   0.09275645 -0.01376577  0.12231793       0.032
   0.13913467 -0.02064866  0.12231793       0.016
  -0.02435504  0.04837149  0.12231793       0.032
   0.02202319  0.04148861  0.12231793       0.032
   0.06840141  0.03460572  0.12231793       0.032
   0.11477963  0.02772284  0.12231793       0.032
  -0.11711149  0.06213726  0.12231793       0.032
  -0.07073326  0.05525438  0.12231793       0.032

 k-points in reciprocal lattice and weights: pymatgen with grid density = 500 / numbe
   0.00000000  0.00000000  0.00000000       0.008
   0.16666667  0.00000000  0.00000000       0.016
   0.33333333  0.00000000  0.00000000       0.016
   0.50000000  0.00000000  0.00000000       0.008
   0.00000000  0.33333333  0.00000000       0.016
   0.16666667  0.33333333  0.00000000       0.016
   0.33333333  0.33333333  0.00000000       0.016
   0.50000000  0.33333333  0.00000000       0.016
  -0.33333333  0.33333333  0.00000000       0.016
  -0.16666667  0.33333333  0.00000000       0.016
   0.00000000  0.00000000  0.14285714       0.016
   0.16666667  0.00000000  0.14285714       0.032
   0.33333333  0.00000000  0.14285714       0.032
   0.50000000  0.00000000  0.14285714       0.016
   0.00000000  0.33333333  0.14285714       0.032
   0.16666667  0.33333333  0.14285714       0.032
   0.33333333  0.33333333  0.14285714       0.032
   0.50000000  0.33333333  0.14285714       0.032
  -0.33333333  0.33333333  0.14285714       0.032
  -0.16666667  0.33333333  0.14285714       0.032
   0.00000000  0.00000000  0.28571429       0.016
   0.16666667  0.00000000  0.28571429       0.032
   0.33333333  0.00000000  0.28571429       0.032
   0.50000000  0.00000000  0.28571429       0.016
   0.00000000  0.33333333  0.28571429       0.032
   0.16666667  0.33333333  0.28571429       0.032
   0.33333333  0.33333333  0.28571429       0.032
   0.50000000  0.33333333  0.28571429       0.032
  -0.33333333  0.33333333  0.28571429       0.032
  -0.16666667  0.33333333  0.28571429       0.032
   0.00000000  0.00000000  0.42857143       0.016
   0.16666667  0.00000000  0.42857143       0.032
   0.33333333  0.00000000  0.42857143       0.032
   0.50000000  0.00000000  0.42857143       0.016
   0.00000000  0.33333333  0.42857143       0.032
   0.16666667  0.33333333  0.42857143       0.032
   0.33333333  0.33333333  0.42857143       0.032
   0.50000000  0.33333333  0.42857143       0.032
  -0.33333333  0.33333333  0.42857143       0.032
  -0.16666667  0.33333333  0.42857143       0.032

 position of ions in fractional coordinates (direct lattice) 
   0.03900893  0.83741598  0.00000000
   0.92695128  0.44927685  0.00000000
   0.30606698  0.07087983  0.00000000

 position of ions in cartesian coordinates  (Angst):
   1.07708786  6.31304023  0.00000000
   4.09672292  5.15871610  0.00000000
   1.26706208  1.12640634  0.00000000



--------------------------------------------------------------------------------------------------------


 k-point   1 :   0.0000 0.0000 0.0000  plane waves:    1705
 k-point   2 :   0.1667 0.0000 0.0000  plane waves:    1703
 k-point   3 :   0.3333 0.0000 0.0000  plane waves:    1720
 k-point   4 :   0.5000 0.0000 0.0000  plane waves:    1720
 k-point   5 :   0.0000 0.3333 0.0000  plane waves:    1701
 k-point   6 :   0.1667 0.3333 0.0000  plane waves:    1703
 k-point   7 :   0.3333 0.3333 0.0000  plane waves:    1700
 k-point   8 :   0.5000 0.3333 0.0000  plane waves:    1714
 k-point   9 :  -0.3333 0.3333 0.0000  plane waves:    1716
 k-point  10 :  -0.1667 0.3333 0.0000  plane waves:    1706
 k-point  11 :   0.0000 0.0000 0.1429  plane waves:    1707
 k-point  12 :   0.1667 0.0000 0.1429  plane waves:    1703
 k-point  13 :   0.3333 0.0000 0.1429  plane waves:    1711
 k-point  14 :   0.5000 0.0000 0.1429  plane waves:    1716
 k-point  15 :   0.0000 0.3333 0.1429  plane waves:    1689
 k-point  16 :   0.1667 0.3333 0.1429  plane waves:    1700
 k-point  17 :   0.3333 0.3333 0.1429  plane waves:    1714
 k-point  18 :   0.5000 0.3333 0.1429  plane waves:    1709
 k-point  19 :  -0.3333 0.3333 0.1429  plane waves:    1711
 k-point  20 :  -0.1667 0.3333 0.1429  plane waves:    1695
 k-point  21 :   0.0000 0.0000 0.2857  plane waves:    1697
 k-point  22 :   0.1667 0.0000 0.2857  plane waves:    1694
 k-point  23 :   0.3333 0.0000 0.2857  plane waves:    1704
 k-point  24 :   0.5000 0.0000 0.2857  plane waves:    1708
 k-point  25 :   0.0000 0.3333 0.2857  plane waves:    1700
 k-point  26 :   0.1667 0.3333 0.2857  plane waves:    1692
 k-point  27 :   0.3333 0.3333 0.2857  plane waves:    1695
 k-point  28 :   0.5000 0.3333 0.2857  plane waves:    1702
 k-point  29 :  -0.3333 0.3333 0.2857  plane waves:    1702
 k-point  30 :  -0.1667 0.3333 0.2857  plane waves:    1702
 k-point  31 :   0.0000 0.0000 0.4286  plane waves:    1702
 k-point  32 :   0.1667 0.0000 0.4286  plane waves:    1701
 k-point  33 :   0.3333 0.0000 0.4286  plane waves:    1702
 k-point  34 :   0.5000 0.0000 0.4286  plane waves:    1696
 k-point  35 :   0.0000 0.3333 0.4286  plane waves:    1709
 k-point  36 :   0.1667 0.3333 0.4286  plane waves:    1702
 k-point  37 :   0.3333 0.3333 0.4286  plane waves:    1705
 k-point  38 :   0.5000 0.3333 0.4286  plane waves:    1701
 k-point  39 :  -0.3333 0.3333 0.4286  plane waves:    1703
 k-point  40 :  -0.1667 0.3333 0.4286  plane waves:    1713

 maximum and minimum number of plane-waves per node :      1720     1689

 maximum number of plane-waves:      1720
 maximum index in each direction: 
   IXMAX=    7   IYMAX=   12   IZMAX=    5
   IXMIN=   -7   IYMIN=  -12   IZMIN=   -6


 serial   3D FFT for wavefunctions
 parallel 3D FFT for charge:
    minimum data exchange during FFTs selected (reduces bandwidth)


 total amount of memory used by VASP MPI-rank0    33053. kBytes
=======================================================================

   base      :      30000. kBytes
   nonlr-proj:        539. kBytes
   fftplans  :        274. kBytes
   grid      :       1090. kBytes
   one-center:         24. kBytes
   wavefun   :       1126. kBytes

     INWAV:  cpu time      0.0000: real time      0.0002
 Broyden mixing: mesh for mixing (old mesh)
   NGX = 15   NGY = 25   NGZ = 11
  (NGX  = 48   NGY  = 80   NGZ  = 36)
  gives a total of   4125 points

 initial charge density was supplied:
 charge density of overlapping atoms calculated
 number of electron      18.0000000 magnetization 
 keeping initial charge density in first step


--------------------------------------------------------------------------------------------------------


 Maximum index for non-local projection operator         1965
 Maximum index for augmentation-charges          622 (set IRDMAX)


--------------------------------------------------------------------------------------------------------


 First call to EWALD:  gamma=   0.390
 Maximum number of real-space cells 3x 2x 3
 Maximum number of reciprocal cells 3x 4x 2

    FEWALD:  cpu time      0.0007: real time      0.0007


--------------------------------------- Iteration      1(   1)  ---------------------------------------


    POTLOK:  cpu time      0.0078: real time      0.0080
    SETDIJ:  cpu time      0.0025: real time      0.0026
     EDDAV:  cpu time      0.6336: real time      0.6340
       DOS:  cpu time      0.0007: real time      0.0009
    --------------------------------------------
      LOOP:  cpu time      0.6446: real time      0.6455

 eigenvalue-minimisations  :  2560
 total energy-change (2. order) : 0.2729664E+02  (-0.8046266E+03)
 number of electron      18.0000000 magnetization 
 augmentation part       18.0000000 magnetization 

 Free energy of the ion-electron system (eV)
  ---------------------------------------------------
  alpha Z        PSCENC =        10.90175193
  Ewald energy   TEWEN  =      -662.19906381
  -Hartree energ DENC   =      -345.17220690
  -exchange      EXHF   =         0.00000000
  -V(xc)+E(xc)   XCENC  =        -9.77649584
  PAW double counting   =       883.51146072     -914.93798830
  entropy T*S    EENTRO =        -0.00210898
  eigenvalues    EBANDS =      -127.83138780
  atomic energy  EATOM  =      1192.80267636
  Solvation  Ediel_sol  =         0.00000000
  ---------------------------------------------------
  free energy    TOTEN  =        27.29663739 eV

  energy without entropy =       27.29874637  energy(sigma->0) =       27.29769188


--------------------------------------------------------------------------------------------------------




--------------------------------------- Iteration      1(   2)  ---------------------------------------


     EDDAV:  cpu time      1.2281: real time      1.2288
       DOS:  cpu time      0.0005: real time      0.0006
    --------------------------------------------
      LOOP:  cpu time      1.2286: real time      1.2294

 eigenvalue-minimisations  :  3808
 total energy-change (2. order) :-0.3769768E+02  (-0.3740105E+02)
 number of electron      18.0000000 magnetization 
 augmentation part       18.0000000 magnetization 

 Free energy of the ion-electron system (eV)
  ---------------------------------------------------
  alpha Z        PSCENC =        10.90175193
  Ewald energy   TEWEN  =      -662.19906381
  -Hartree energ DENC   =      -345.17220690
  -exchange      EXHF   =         0.00000000
  -V(xc)+E(xc)   XCENC  =        -9.77649584
  PAW double counting   =       883.51146072     -914.93798830
  entropy T*S    EENTRO =        -0.00488041
  eigenvalues    EBANDS =      -165.52629543
  atomic energy  EATOM  =      1192.80267636
  Solvation  Ediel_sol  =         0.00000000
  ---------------------------------------------------
  free energy    TOTEN  =       -10.40104166 eV

  energy without entropy =      -10.39616126  energy(sigma->0) =      -10.39860146


--------------------------------------------------------------------------------------------------------




--------------------------------------- Iteration      1(   3)  ---------------------------------------


     EDDAV:  cpu time      0.6236: real time      0.6241
       DOS:  cpu time      0.0004: real time      0.0005
    --------------------------------------------
      LOOP:  cpu time      0.6240: real time      0.6246

 eigenvalue-minimisations  :  2560
 total energy-change (2. order) :-0.4673991E+00  (-0.4672015E+00)
 number of electron      18.0000000 magnetization 
 augmentation part       18.0000000 magnetization 

 Free energy of the ion-electron system (eV)
  ---------------------------------------------------
  alpha Z        PSCENC =        10.90175193
  Ewald energy   TEWEN  =      -662.19906381
  -Hartree energ DENC   =      -345.17220690
  -exchange      EXHF   =         0.00000000
  -V(xc)+E(xc)   XCENC  =        -9.77649584
  PAW double counting   =       883.51146072     -914.93798830
  entropy T*S    EENTRO =        -0.00460554
  eigenvalues    EBANDS =      -165.99396939
  atomic energy  EATOM  =      1192.80267636
  Solvation  Ediel_sol  =         0.00000000
  ---------------------------------------------------
  free energy    TOTEN  =       -10.86844076 eV

  energy without entropy =      -10.86383522  energy(sigma->0) =      -10.86613799


--------------------------------------------------------------------------------------------------------




--------------------------------------- Iteration      1(   4)  ---------------------------------------


     EDDAV:  cpu time      2.1495: real time      2.1518
       DOS:  cpu time      0.0005: real time      0.0007
    --------------------------------------------
      LOOP:  cpu time      2.1500: real time      2.1524

 eigenvalue-minimisations  :  5056
 total energy-change (2. order) :-0.2447312E-02  (-0.2447302E-02)
 number of electron      18.0000000 magnetization 
 augmentation part       18.0000000 magnetization 

 Free energy of the ion-electron system (eV)
  ---------------------------------------------------
  alpha Z        PSCENC =        10.90175193
  Ewald energy   TEWEN  =      -662.19906381
  -Hartree energ DENC   =      -345.17220690
  -exchange      EXHF   =         0.00000000
  -V(xc)+E(xc)   XCENC  =        -9.77649584
  PAW double counting   =       883.51146072     -914.93798830
  entropy T*S    EENTRO =        -0.00460335
  eigenvalues    EBANDS =      -165.99641889
  atomic energy  EATOM  =      1192.80267636
  Solvation  Ediel_sol  =         0.00000000
  ---------------------------------------------------
  free energy    TOTEN  =       -10.87088807 eV

  energy without entropy =      -10.86628472  energy(sigma->0) =      -10.86858640


--------------------------------------------------------------------------------------------------------




--------------------------------------- Iteration      1(   5)  ---------------------------------------


     EDDAV:  cpu time      0.6234: real time      0.6240
       DOS:  cpu time      0.0004: real time      0.0006
    CHARGE:  cpu time      0.0192: real time      0.0192
    MIXING:  cpu time      0.0010: real time      0.0011
    --------------------------------------------
      LOOP:  cpu time      0.6440: real time      0.6449

 eigenvalue-minimisations  :  2560
 total energy-change (2. order) :-0.1993847E-06  (-0.1996665E-06)
 number of electron      18.0000005 magnetization 
 augmentation part        2.8208398 magnetization 

 Broyden mixing:
  rms(total) = 0.54663E+00    rms(broyden)= 0.54662E+00
  rms(prec ) = 0.96504E+00
  weight for this iteration     100.00

 Free energy of the ion-electron system (eV)
  ---------------------------------------------------
  alpha Z        PSCENC =        10.90175193
  Ewald energy   TEWEN  =      -662.19906381
  -Hartree energ DENC   =      -345.17220690
  -exchange      EXHF   =         0.00000000
  -V(xc)+E(xc)   XCENC  =        -9.77649584
  PAW double counting   =       883.51146072     -914.93798830
  entropy T*S    EENTRO =        -0.00460335
  eigenvalues    EBANDS =      -165.99641909
  atomic energy  EATOM  =      1192.80267636
  Solvation  Ediel_sol  =         0.00000000
  ---------------------------------------------------
  free energy    TOTEN  =       -10.87088827 eV

  energy without entropy =      -10.86628492  energy(sigma->0) =      -10.86858660


--------------------------------------------------------------------------------------------------------




--------------------------------------- Iteration      1(   6)  ---------------------------------------


    POTLOK:  cpu time      0.0065: real time      0.0067
    SETDIJ:  cpu time      0.0015: real time      0.0015
     EDDAV:  cpu time      1.2167: real time      1.2187
       DOS:  cpu time      0.0004: real time      0.0005
    CHARGE:  cpu time      0.0182: real time      0.0182
    MIXING:  cpu time      0.0005: real time      0.0005
    --------------------------------------------
      LOOP:  cpu time      1.2438: real time      1.2461

 eigenvalue-minimisations  :  3744
 total energy-change (2. order) : 0.7241968E+00  (-0.3725275E+00)
 number of electron      18.0000004 magnetization 
 augmentation part        2.8524307 magnetization 

 Broyden mixing:
  rms(total) = 0.41209E+00    rms(broyden)= 0.41209E+00
  rms(prec ) = 0.45273E+00
  weight for this iteration     100.00

 eigenvalues of (default mixing * dielectric matrix)
  average eigenvalue GAMMA=   1.1585
  1.1585

 Free energy of the ion-electron system (eV)
  ---------------------------------------------------
  alpha Z        PSCENC =        10.90175193
  Ewald energy   TEWEN  =      -662.19906381
  -Hartree energ DENC   =      -350.67948289
  -exchange      EXHF   =         0.00000000
  -V(xc)+E(xc)   XCENC  =        -9.31733478
  PAW double counting   =      1007.56817206    -1039.12325848
  entropy T*S    EENTRO =        -0.00350011
  eigenvalues    EBANDS =      -160.09665179
  atomic energy  EATOM  =      1192.80267636
  Solvation  Ediel_sol  =         0.00000000
  ---------------------------------------------------
  free energy    TOTEN  =       -10.14669150 eV

  energy without entropy =      -10.14319139  energy(sigma->0) =      -10.14494145


--------------------------------------------------------------------------------------------------------




--------------------------------------- Iteration      1(   7)  ---------------------------------------


    POTLOK:  cpu time      0.0062: real time      0.0064
    SETDIJ:  cpu time      0.0014: real time      0.0014
     EDDAV:  cpu time      1.1707: real time      1.1712
       DOS:  cpu time      0.0004: real time      0.0006
    CHARGE:  cpu time      0.0182: real time      0.0182
    MIXING:  cpu time      0.0003: real time      0.0003
    --------------------------------------------
      LOOP:  cpu time      1.1972: real time      1.1981

 eigenvalue-minimisations  :  3584
 total energy-change (2. order) : 0.1830987E-01  (-0.6017890E-02)
 number of electron      18.0000004 magnetization 
 augmentation part        2.8566532 magnetization 

 Broyden mixing:
  rms(total) = 0.23045E+00    rms(broyden)= 0.23045E+00
  rms(prec ) = 0.25325E+00
  weight for this iteration     100.00

 eigenvalues of (default mixing * dielectric matrix)
  average eigenvalue GAMMA=   1.7203
  1.0605  2.3802

 Free energy of the ion-electron system (eV)
  ---------------------------------------------------
  alpha Z        PSCENC =        10.90175193
  Ewald energy   TEWEN  =      -662.19906381
  -Hartree energ DENC   =      -351.02464683
  -exchange      EXHF   =         0.00000000
  -V(xc)+E(xc)   XCENC  =        -9.20030920
  PAW double counting   =      1138.05696014    -1169.75131476
  entropy T*S    EENTRO =        -0.00321259
  eigenvalues    EBANDS =      -159.71122288
  atomic energy  EATOM  =      1192.80267636
  Solvation  Ediel_sol  =         0.00000000
  ---------------------------------------------------
  free energy    TOTEN  =       -10.12838164 eV

  energy without entropy =      -10.12516904  energy(sigma->0) =      -10.12677534


--------------------------------------------------------------------------------------------------------




--------------------------------------- Iteration      1(   8)  ---------------------------------------


    POTLOK:  cpu time      0.0061: real time      0.0063
    SETDIJ:  cpu time      0.0014: real time      0.0014
     EDDAV:  cpu time      1.5438: real time      1.5446
       DOS:  cpu time      0.0005: real time      0.0006
    CHARGE:  cpu time      0.0190: real time      0.0190
    MIXING:  cpu time      0.0004: real time      0.0004
    --------------------------------------------
      LOOP:  cpu time      1.5712: real time      1.5724

 eigenvalue-minimisations  :  4192
 total energy-change (2. order) : 0.2158865E-02  (-0.2748283E-02)
 number of electron      18.0000004 magnetization 
 augmentation part        2.8577953 magnetization 

 Broyden mixing:
  rms(total) = 0.28061E-01    rms(broyden)= 0.28061E-01
  rms(prec ) = 0.37523E-01
  weight for this iteration     100.00

 eigenvalues of (default mixing * dielectric matrix)
  average eigenvalue GAMMA=   1.4536
  2.2240  1.0684  1.0684

 Free energy of the ion-electron system (eV)
  ---------------------------------------------------
  alpha Z        PSCENC =        10.90175193
  Ewald energy   TEWEN  =      -662.19906381
  -Hartree energ DENC   =      -350.80635515
  -exchange      EXHF   =         0.00000000
  -V(xc)+E(xc)   XCENC  =        -9.08345227
  PAW double counting   =      1312.14049863    -1344.01433642
  entropy T*S    EENTRO =        -0.00315025
  eigenvalues    EBANDS =      -159.86479181
  atomic energy  EATOM  =      1192.80267636
  Solvation  Ediel_sol  =         0.00000000
  ---------------------------------------------------
  free energy    TOTEN  =       -10.12622277 eV

  energy without entropy =      -10.12307252  energy(sigma->0) =      -10.12464765


--------------------------------------------------------------------------------------------------------




--------------------------------------- Iteration      1(   9)  ---------------------------------------


    POTLOK:  cpu time      0.0063: real time      0.0065
    SETDIJ:  cpu time      0.0015: real time      0.0015
     EDDAV:  cpu time      1.3440: real time      1.3450
       DOS:  cpu time      0.0004: real time      0.0005
    CHARGE:  cpu time      0.0188: real time      0.0188
    MIXING:  cpu time      0.0003: real time      0.0003
    --------------------------------------------
      LOOP:  cpu time      1.3713: real time      1.3726

 eigenvalue-minimisations  :  3936
 total energy-change (2. order) :-0.5132718E-03  (-0.3280551E-03)
 number of electron      18.0000004 magnetization 
 augmentation part        2.8581443 magnetization 

 Broyden mixing:
  rms(total) = 0.13887E-01    rms(broyden)= 0.13887E-01
  rms(prec ) = 0.21122E-01
  weight for this iteration     100.00

 eigenvalues of (default mixing * dielectric matrix)
  average eigenvalue GAMMA=   1.8231
  0.9853  0.9853  2.6610  2.6610

 Free energy of the ion-electron system (eV)
  ---------------------------------------------------
  alpha Z        PSCENC =        10.90175193
  Ewald energy   TEWEN  =      -662.19906381
  -Hartree energ DENC   =      -350.88050415
  -exchange      EXHF   =         0.00000000
  -V(xc)+E(xc)   XCENC  =        -9.07321628
  PAW double counting   =      1302.25328854    -1334.13806698
  entropy T*S    EENTRO =        -0.00310422
  eigenvalues    EBANDS =      -159.79049745
  atomic energy  EATOM  =      1192.80267636
  Solvation  Ediel_sol  =         0.00000000
  ---------------------------------------------------
  free energy    TOTEN  =       -10.12673604 eV

  energy without entropy =      -10.12363182  energy(sigma->0) =      -10.12518393


--------------------------------------------------------------------------------------------------------




--------------------------------------- Iteration      1(  10)  ---------------------------------------


    POTLOK:  cpu time      0.0063: real time      0.0065
    SETDIJ:  cpu time      0.0015: real time      0.0015
     EDDAV:  cpu time      0.9017: real time      0.9022
       DOS:  cpu time      0.0004: real time      0.0005
    CHARGE:  cpu time      0.0182: real time      0.0182
    MIXING:  cpu time      0.0003: real time      0.0003
    --------------------------------------------
      LOOP:  cpu time      0.9283: real time      0.9292

 eigenvalue-minimisations  :  3040
 total energy-change (2. order) :-0.7041896E-03  (-0.1471343E-03)
 number of electron      18.0000004 magnetization 
 augmentation part        2.8580213 magnetization 

 Broyden mixing:
  rms(total) = 0.28449E-02    rms(broyden)= 0.28448E-02
  rms(prec ) = 0.65806E-02
  weight for this iteration     100.00

 eigenvalues of (default mixing * dielectric matrix)
  average eigenvalue GAMMA=   1.6221
  2.7423  2.3563  1.0817  1.0817  0.8484

 Free energy of the ion-electron system (eV)
  ---------------------------------------------------
  alpha Z        PSCENC =        10.90175193
  Ewald energy   TEWEN  =      -662.19906381
  -Hartree energ DENC   =      -350.75434781
  -exchange      EXHF   =         0.00000000
  -V(xc)+E(xc)   XCENC  =        -9.06545050
  PAW double counting   =      1297.02080791    -1328.92824919
  entropy T*S    EENTRO =        -0.00312344
  eigenvalues    EBANDS =      -159.90244168
  atomic energy  EATOM  =      1192.80267636
  Solvation  Ediel_sol  =         0.00000000
  ---------------------------------------------------
  free energy    TOTEN  =       -10.12744023 eV

  energy without entropy =      -10.12431679  energy(sigma->0) =      -10.12587851


--------------------------------------------------------------------------------------------------------




--------------------------------------- Iteration      1(  11)  ---------------------------------------


    POTLOK:  cpu time      0.0061: real time      0.0063
    SETDIJ:  cpu time      0.0015: real time      0.0015
     EDDAV:  cpu time      1.7207: real time      1.7215
       DOS:  cpu time      0.0004: real time      0.0006
    CHARGE:  cpu time      0.0187: real time      0.0187
    MIXING:  cpu time      0.0004: real time      0.0004
    --------------------------------------------
      LOOP:  cpu time      1.7478: real time      1.7490

 eigenvalue-minimisations  :  4448
 total energy-change (2. order) :-0.5579167E-04  (-0.1928518E-04)
 number of electron      18.0000004 magnetization 
 augmentation part        2.8581949 magnetization 

 Broyden mixing:
  rms(total) = 0.28704E-02    rms(broyden)= 0.28704E-02
  rms(prec ) = 0.32934E-02
  weight for this iteration     100.00

 eigenvalues of (default mixing * dielectric matrix)
  average eigenvalue GAMMA=   1.6285
  2.9710  2.5270  1.2424  1.1390  0.9458  0.9458

 Free energy of the ion-electron system (eV)
  ---------------------------------------------------
  alpha Z        PSCENC =        10.90175193
  Ewald energy   TEWEN  =      -662.19906381
  -Hartree energ DENC   =      -350.77292136
  -exchange      EXHF   =         0.00000000
  -V(xc)+E(xc)   XCENC  =        -9.05936250
  PAW double counting   =      1299.44138165    -1331.35644333
  entropy T*S    EENTRO =        -0.00311148
  eigenvalues    EBANDS =      -159.88240349
  atomic energy  EATOM  =      1192.80267636
  Solvation  Ediel_sol  =         0.00000000
  ---------------------------------------------------
  free energy    TOTEN  =       -10.12749603 eV

  energy without entropy =      -10.12438455  energy(sigma->0) =      -10.12594029


--------------------------------------------------------------------------------------------------------




--------------------------------------- Iteration      1(  12)  ---------------------------------------


    POTLOK:  cpu time      0.0063: real time      0.0065
    SETDIJ:  cpu time      0.0015: real time      0.0015
     EDDAV:  cpu time      0.9506: real time      0.9511
       DOS:  cpu time      0.0004: real time      0.0005
    CHARGE:  cpu time      0.0183: real time      0.0183
    MIXING:  cpu time      0.0004: real time      0.0004
    --------------------------------------------
      LOOP:  cpu time      0.9774: real time      0.9782

 eigenvalue-minimisations  :  3136
 total energy-change (2. order) :-0.1583275E-04  (-0.2750486E-05)
 number of electron      18.0000004 magnetization 
 augmentation part        2.8582632 magnetization 

 Broyden mixing:
  rms(total) = 0.12310E-02    rms(broyden)= 0.12309E-02
  rms(prec ) = 0.13112E-02
  weight for this iteration     100.00

 eigenvalues of (default mixing * dielectric matrix)
  average eigenvalue GAMMA=   1.6825
  3.2875  2.4169  1.8933  1.3750  0.9751  0.9751  0.8547

 Free energy of the ion-electron system (eV)
  ---------------------------------------------------
  alpha Z        PSCENC =        10.90175193
  Ewald energy   TEWEN  =      -662.19906381
  -Hartree energ DENC   =      -350.77987973
  -exchange      EXHF   =         0.00000000
  -V(xc)+E(xc)   XCENC  =        -9.05859767
  PAW double counting   =      1296.64646127    -1328.56307941
  entropy T*S    EENTRO =        -0.00310882
  eigenvalues    EBANDS =      -159.87467198
  atomic energy  EATOM  =      1192.80267636
  Solvation  Ediel_sol  =         0.00000000
  ---------------------------------------------------
  free energy    TOTEN  =       -10.12751186 eV

  energy without entropy =      -10.12440304  energy(sigma->0) =      -10.12595745


--------------------------------------------------------------------------------------------------------




--------------------------------------- Iteration      1(  13)  ---------------------------------------


    POTLOK:  cpu time      0.0061: real time      0.0063
    SETDIJ:  cpu time      0.0015: real time      0.0015
     EDDAV:  cpu time      1.6685: real time      1.6695
       DOS:  cpu time      0.0004: real time      0.0005
    --------------------------------------------
      LOOP:  cpu time      1.6765: real time      1.6778

 eigenvalue-minimisations  :  4352
 total energy-change (2. order) :-0.1409869E-05  (-0.2318616E-06)
 number of electron      18.0000004 magnetization 
 augmentation part        2.8582632 magnetization 

 Free energy of the ion-electron system (eV)
  ---------------------------------------------------
  alpha Z        PSCENC =        10.90175193
  Ewald energy   TEWEN  =      -662.19906381
  -Hartree energ DENC   =      -350.78181172
  -exchange      EXHF   =         0.00000000
  -V(xc)+E(xc)   XCENC  =        -9.05832592
  PAW double counting   =      1297.14199472    -1329.05891282
  entropy T*S    EENTRO =        -0.00310934
  eigenvalues    EBANDS =      -159.87271268
  atomic energy  EATOM  =      1192.80267636
  Solvation  Ediel_sol  =         0.00000000
  ---------------------------------------------------
  free energy    TOTEN  =       -10.12751327 eV

  energy without entropy =      -10.12440393  energy(sigma->0) =      -10.12595860


--------------------------------------------------------------------------------------------------------




 average (electrostatic) potential at core
  the test charge radii are     0.9254  1.1712  0.9698
  (the norm of the test charge is              1.0000)
       1 -47.3815       2 -90.4299       3 -88.5768



 E-fermi :   2.3512     XC(G=0):  -7.8132     alpha+bet : -7.8604

 Fermi energy:         2.3512231340

 k-point     1 :       0.0000    0.0000    0.0000
  band No.  band energies     occupation 
      1     -21.6127      2.00000
      2     -21.5710      2.00000
      3     -21.5542      2.00000
      4     -10.4975      2.00000
      5      -6.2563      2.00000
      6      -2.1299      2.00000
      7       0.1660      2.00000
      8       1.9548      2.00000
      9       3.1089      0.00000
     10       5.2028      0.00000
     11       5.8189      0.00000
     12       5.9506      0.00000
     13       7.9073      0.00000
     14       8.7095      0.00000
     15       9.0612      0.00000
     16       9.3359      0.00000
     17      11.6493      0.00000
     18      12.2565      0.00000
     19      12.3029      0.00000
     20      14.5618      0.00000
     21      14.6238      0.00000
     22      15.3882      0.00000
     23      16.4109      0.00000
     24      16.9151      0.00000
     25      17.0598      0.00000
     26      17.4526      0.00000
     27      17.8449      0.00000
     28      18.4237      0.00000
     29      19.2506      0.00000
     30      19.5404      0.00000
     31      19.9588      0.00000
     32      20.0199      0.00000

 k-point     2 :       0.1667    0.0000    0.0000
  band No.  band energies     occupation 
      1     -21.6126      2.00000
      2     -21.5734      2.00000
      3     -21.5538      2.00000
      4     -10.4487      2.00000
      5      -6.3255      2.00000
      6      -1.7361      2.00000
      7      -0.2103      2.00000
      8       1.9882      2.00000
      9       2.2922      1.90471
     10       5.0024      0.00000
     11       5.8131      0.00000
     12       6.3162      0.00000
     13       7.9181      0.00000
     14       8.7861      0.00000
     15       9.5530      0.00000
     16      10.2737      0.00000
     17      11.7455      0.00000
     18      12.6478      0.00000
     19      13.4878      0.00000
     20      13.7719      0.00000
     21      13.8955      0.00000
     22      15.0066      0.00000
     23      15.6100      0.00000
     24      15.7405      0.00000
     25      17.1286      0.00000
     26      17.5310      0.00000
     27      18.0119      0.00000
     28      18.5473      0.00000
     29      19.2722      0.00000
     30      19.4785      0.00000
     31      19.5970      0.00000
     32      20.5506      0.00000

 k-point     3 :       0.3333    0.0000    0.0000
  band No.  band energies     occupation 
      1     -21.6125      2.00000
      2     -21.5781      2.00000
      3     -21.5530      2.00000
      4     -10.3567      2.00000
      5      -6.3962      2.00000
      6      -0.9571      2.00000
      7      -0.7075      2.00000
      8       1.0037      2.00000
      9       2.0557      2.00000
     10       4.1613      0.00000
     11       5.8131      0.00000
     12       6.7425      0.00000
     13       8.7143      0.00000
     14       9.7994      0.00000
     15      10.2230      0.00000
     16      10.9732      0.00000
     17      12.3645      0.00000
     18      12.8569      0.00000
     19      13.0034      0.00000
     20      13.7025      0.00000
     21      13.8686      0.00000
     22      14.2352      0.00000
     23      14.9458      0.00000
     24      16.2418      0.00000
     25      16.6026      0.00000
     26      16.9751      0.00000
     27      17.6941      0.00000
     28      18.3540      0.00000
     29      18.9263      0.00000
     30      19.4935      0.00000
     31      20.0101      0.00000
     32      20.5851      0.00000

 k-point     4 :       0.5000    0.0000    0.0000
  band No.  band energies     occupation 
      1     -21.6123      2.00000
      2     -21.5804      2.00000
      3     -21.5526      2.00000
      4     -10.3141      2.00000
      5      -6.4011      2.00000
      6      -0.9757      2.00000
      7      -0.3964      2.00000
      8       0.3837      2.00000
      9       2.0898      2.00000
     10       3.7344      0.00000
     11       5.8191      0.00000
     12       6.9114      0.00000
     13       9.3688      0.00000
     14       9.6215      0.00000
     15      10.7397      0.00000
     16      10.9735      0.00000
     17      12.8698      0.00000
     18      12.9016      0.00000
     19      13.4192      0.00000
     20      13.4866      0.00000
     21      13.8776      0.00000
     22      14.6105      0.00000
     23      14.9314      0.00000
     24      15.6906      0.00000
     25      15.8311      0.00000
     26      16.7304      0.00000
     27      17.3532      0.00000
     28      18.9392      0.00000
     29      19.1115      0.00000
     30      19.1464      0.00000
     31      19.2225      0.00000
     32      20.0260      0.00000

 k-point     5 :       0.0000    0.3333    0.0000
  band No.  band energies     occupation 
      1     -21.6127      2.00000
      2     -21.5709      2.00000
      3     -21.5543      2.00000
      4     -10.4418      2.00000
      5      -6.6262      2.00000
      6      -1.0488      2.00000
      7       0.2375      2.00000
      8       1.9993      2.00000
      9       2.8601      0.00000
     10       3.5563      0.00000
     11       5.6278      0.00000
     12       5.8370      0.00000
     13       7.1138      0.00000
     14       9.0933      0.00000
     15      10.2002      0.00000
     16      10.3221      0.00000
     17      11.6304      0.00000
     18      13.0135      0.00000
     19      13.3590      0.00000
     20      14.1053      0.00000
     21      14.8297      0.00000
     22      15.6146      0.00000
     23      15.8025      0.00000
     24      16.3694      0.00000
     25      16.4030      0.00000
     26      16.5869      0.00000
     27      17.4222      0.00000
     28      17.9127      0.00000
     29      18.0824      0.00000
     30      19.2387      0.00000
     31      20.2438      0.00000
     32      20.5554      0.00000

 k-point     6 :       0.1667    0.3333    0.0000
  band No.  band energies     occupation 
      1     -21.6126      2.00000
      2     -21.5734      2.00000
      3     -21.5538      2.00000
      4     -10.4486      2.00000
      5      -6.3258      2.00000
      6      -1.7360      2.00000
      7      -0.2109      2.00000
      8       1.9882      2.00000
      9       2.2962      1.88011
     10       5.0024      0.00000
     11       5.8130      0.00000
     12       6.3158      0.00000
     13       7.9067      0.00000
     14       8.7819      0.00000
     15       9.5424      0.00000
     16      10.2901      0.00000
     17      11.7454      0.00000
     18      12.6474      0.00000
     19      13.5002      0.00000
     20      13.7900      0.00000
     21      13.8943      0.00000
     22      15.0072      0.00000
     23      15.6159      0.00000
     24      15.7517      0.00000
     25      17.1299      0.00000
     26      17.5290      0.00000
     27      17.9758      0.00000
     28      18.5346      0.00000
     29      19.2536      0.00000
     30      19.4812      0.00000
     31      19.5869      0.00000
     32      20.5450      0.00000

 k-point     7 :       0.3333    0.3333    0.0000
  band No.  band energies     occupation 
      1     -21.6124      2.00000
      2     -21.5780      2.00000
      3     -21.5528      2.00000
      4     -10.3998      2.00000
      5      -6.0726      2.00000
      6      -1.8877      2.00000
      7      -0.9725      2.00000
      8       1.5737      2.00000
      9       2.0121      2.00000
     10       5.5114      0.00000
     11       6.0042      0.00000
     12       6.6359      0.00000
     13       8.3049      0.00000
     14       9.6322      0.00000
     15       9.6796      0.00000
     16      11.5170      0.00000
     17      12.0877      0.00000
     18      12.4893      0.00000
     19      12.9191      0.00000
     20      13.3530      0.00000
     21      14.0563      0.00000
     22      14.8079      0.00000
     23      15.0570      0.00000
     24      15.4746      0.00000
     25      16.4033      0.00000
     26      16.6976      0.00000
     27      17.4291      0.00000
     28      18.3859      0.00000
     29      19.1811      0.00000
     30      19.5206      0.00000
     31      19.9976      0.00000
     32      20.1674      0.00000

 k-point     8 :       0.5000    0.3333    0.0000
  band No.  band energies     occupation 
      1     -21.6124      2.00000
      2     -21.5804      2.00000
      3     -21.5524      2.00000
      4     -10.3534      2.00000
      5      -6.1130      2.00000
      6      -1.4613      2.00000
      7      -1.2662      2.00000
      8       1.0279      2.00000
      9       2.0457      2.00000
     10       5.6731      0.00000
     11       5.7172      0.00000
     12       6.0064      0.00000
     13       9.3172      0.00000
     14       9.5572      0.00000
     15      10.5628      0.00000
     16      12.1758      0.00000
     17      12.2754      0.00000
     18      12.4632      0.00000
     19      13.0504      0.00000
     20      13.6080      0.00000
     21      13.9492      0.00000
     22      14.3650      0.00000
     23      14.7282      0.00000
     24      15.5692      0.00000
     25      15.7811      0.00000
     26      16.4334      0.00000
     27      17.5531      0.00000
     28      18.2301      0.00000
     29      18.3204      0.00000
     30      18.9578      0.00000
     31      19.3473      0.00000
     32      21.1983      0.00000

 k-point     9 :      -0.3333    0.3333    0.0000
  band No.  band energies     occupation 
      1     -21.6124      2.00000
      2     -21.5781      2.00000
      3     -21.5529      2.00000
      4     -10.3567      2.00000
      5      -6.3965      2.00000
      6      -0.9601      2.00000
      7      -0.7055      2.00000
      8       1.0079      2.00000
      9       2.0557      2.00000
     10       4.1599      0.00000
     11       5.8130      0.00000
     12       6.7363      0.00000
     13       8.7135      0.00000
     14       9.7947      0.00000
     15      10.2225      0.00000
     16      10.9768      0.00000
     17      12.3642      0.00000
     18      12.8727      0.00000
     19      12.9988      0.00000
     20      13.7053      0.00000
     21      13.8701      0.00000
     22      14.2432      0.00000
     23      14.9504      0.00000
     24      16.2472      0.00000
     25      16.5977      0.00000
     26      16.9795      0.00000
     27      17.6810      0.00000
     28      18.3510      0.00000
     29      18.9151      0.00000
     30      19.4857      0.00000
     31      20.0069      0.00000
     32      20.5742      0.00000

 k-point    10 :      -0.1667    0.3333    0.0000
  band No.  band energies     occupation 
      1     -21.6126      2.00000
      2     -21.5733      2.00000
      3     -21.5538      2.00000
      4     -10.3958      2.00000
      5      -6.6576      2.00000
      6      -0.5461      2.00000
      7      -0.0879      2.00000
      8       1.8893      2.00000
      9       2.0332      2.00000
     10       3.1599      0.00000
     11       5.6259      0.00000
     12       6.7891      0.00000
     13       7.4929      0.00000
     14       9.3832      0.00000
     15      10.1134      0.00000
     16      10.8918      0.00000
     17      11.1040      0.00000
     18      13.2515      0.00000
     19      14.1091      0.00000
     20      14.2816      0.00000
     21      14.5946      0.00000
     22      14.6602      0.00000
     23      15.3625      0.00000
     24      15.6101      0.00000
[...]
     11       3.7923      0.00000
     12       7.0209      0.00000
     13       7.7520      0.00000
     14       9.5734      0.00000
     15       9.7257      0.00000
     16      10.3429      0.00000
     17      10.3742      0.00000
     18      11.4272      0.00000
     19      11.8422      0.00000
     20      12.8270      0.00000
     21      14.1494      0.00000
     22      14.5225      0.00000
     23      14.8953      0.00000
     24      15.3535      0.00000
     25      15.7752      0.00000
     26      16.8868      0.00000
     27      17.1352      0.00000
     28      18.3111      0.00000
     29      19.1436      0.00000
     30      19.6729      0.00000
     31      20.6320      0.00000
     32      20.7353      0.00000

 k-point    31 :       0.0000    0.0000    0.4286
  band No.  band energies     occupation 
      1     -21.9049      2.00000
      2     -21.8324      2.00000
      3     -21.8175      2.00000
      4     -10.3062      2.00000
      5      -5.4947      2.00000
      6      -1.6598      2.00000
      7      -1.3591      2.00000
      8       0.3446      2.00000
      9       1.1462      2.00000
     10       3.6887      0.00000
     11       5.4643      0.00000
     12       7.0176      0.00000
     13       7.3967      0.00000
     14       8.9885      0.00000
     15       9.4318      0.00000
     16      10.0085      0.00000
     17      10.1481      0.00000
     18      10.3725      0.00000
     19      11.6208      0.00000
     20      12.0262      0.00000
     21      13.2025      0.00000
     22      13.6064      0.00000
     23      14.2354      0.00000
     24      15.7409      0.00000
     25      15.8218      0.00000
     26      16.9877      0.00000
     27      17.6420      0.00000
     28      18.3938      0.00000
     29      19.6828      0.00000
     30      20.5019      0.00000
     31      20.8242      0.00000
     32      22.3721      0.00000

 k-point    32 :       0.1667    0.0000    0.4286
  band No.  band energies     occupation 
      1     -21.9048      2.00000
      2     -21.8343      2.00000
      3     -21.8172      2.00000
      4     -10.2708      2.00000
      5      -5.5624      2.00000
      6      -1.4144      2.00000
      7      -1.1406      2.00000
      8       0.0968      2.00000
      9       1.0517      2.00000
     10       3.0339      0.00000
     11       5.6797      0.00000
     12       6.4225      0.00000
     13       7.5281      0.00000
     14       8.4637      0.00000
     15       9.1514      0.00000
     16       9.5762      0.00000
     17      10.9266      0.00000
     18      11.3832      0.00000
     19      11.8887      0.00000
     20      12.3320      0.00000
     21      12.9527      0.00000
     22      14.5671      0.00000
     23      14.9487      0.00000
     24      15.6294      0.00000
     25      16.3510      0.00000
     26      17.2755      0.00000
     27      18.5432      0.00000
     28      19.0736      0.00000
     29      19.1797      0.00000
     30      19.7259      0.00000
     31      20.1932      0.00000
     32      20.8349      0.00000

 k-point    33 :       0.3333    0.0000    0.4286
  band No.  band energies     occupation 
      1     -21.9045      2.00000
      2     -21.8380      2.00000
      3     -21.8165      2.00000
      4     -10.2041      2.00000
      5      -5.6401      2.00000
      6      -1.1026      2.00000
      7      -0.5068      2.00000
      8      -0.2888      2.00000
      9       0.9292      2.00000
     10       1.9557      2.00000
     11       5.1687      0.00000
     12       5.8348      0.00000
     13       7.0785      0.00000
     14       8.2186      0.00000
     15       9.0472      0.00000
     16      10.7550      0.00000
     17      11.1566      0.00000
     18      12.0167      0.00000
     19      12.3414      0.00000
     20      13.4661      0.00000
     21      14.1699      0.00000
     22      14.7976      0.00000
     23      15.6520      0.00000
     24      16.4488      0.00000
     25      16.7100      0.00000
     26      17.3229      0.00000
     27      18.2071      0.00000
     28      18.7483      0.00000
     29      18.9426      0.00000
     30      19.8803      0.00000
     31      20.5838      0.00000
     32      21.0196      0.00000

 k-point    34 :       0.5000    0.0000    0.4286
  band No.  band energies     occupation 
      1     -21.9044      2.00000
      2     -21.8399      2.00000
      3     -21.8162      2.00000
      4     -10.1731      2.00000
      5      -5.6540      2.00000
      6      -0.9640      2.00000
      7      -0.4723      2.00000
      8      -0.0974      2.00000
      9       0.9059      2.00000
     10       1.4398      2.00000
     11       4.7441      0.00000
     12       5.7025      0.00000
     13       6.3072      0.00000
     14       9.1504      0.00000
     15       9.4549      0.00000
     16      10.1428      0.00000
     17      10.8867      0.00000
     18      12.9218      0.00000
     19      13.4909      0.00000
     20      13.9713      0.00000
     21      14.0372      0.00000
     22      15.3109      0.00000
     23      15.5946      0.00000
     24      16.1778      0.00000
     25      16.5643      0.00000
     26      17.5006      0.00000
     27      18.2414      0.00000
     28      18.5949      0.00000
     29      19.4690      0.00000
     30      19.8740      0.00000
     31      20.4139      0.00000
     32      20.9081      0.00000

 k-point    35 :       0.0000    0.3333    0.4286
  band No.  band energies     occupation 
      1     -21.9050      2.00000
      2     -21.8324      2.00000
      3     -21.8176      2.00000
      4     -10.2683      2.00000
      5      -5.8323      2.00000
      6      -1.2913      2.00000
      7      -0.6090      2.00000
      8       0.3915      2.00000
      9       0.6621      2.00000
     10       3.4991      0.00000
     11       4.8214      0.00000
     12       6.6124      0.00000
     13       7.6748      0.00000
     14       9.0678      0.00000
     15       9.3851      0.00000
     16       9.7590      0.00000
     17      10.2503      0.00000
     18      10.5759      0.00000
     19      11.3204      0.00000
     20      12.4609      0.00000
     21      13.0287      0.00000
     22      14.0569      0.00000
     23      15.1081      0.00000
     24      15.7664      0.00000
     25      15.8877      0.00000
     26      16.9555      0.00000
     27      17.9228      0.00000
     28      19.2989      0.00000
     29      19.3872      0.00000
     30      19.5662      0.00000
     31      20.3965      0.00000
     32      21.0709      0.00000

 k-point    36 :       0.1667    0.3333    0.4286
  band No.  band energies     occupation 
      1     -21.9048      2.00000
      2     -21.8343      2.00000
      3     -21.8172      2.00000
      4     -10.2707      2.00000
      5      -5.5626      2.00000
      6      -1.4143      2.00000
      7      -1.1403      2.00000
      8       0.0966      2.00000
      9       1.0513      2.00000
     10       3.0352      0.00000
     11       5.6793      0.00000
     12       6.4212      0.00000
     13       7.5277      0.00000
     14       8.4659      0.00000
     15       9.1551      0.00000
     16       9.5771      0.00000
     17      10.9190      0.00000
     18      11.3860      0.00000
     19      11.8956      0.00000
     20      12.3170      0.00000
     21      12.9424      0.00000
     22      14.5632      0.00000
     23      14.9647      0.00000
     24      15.6333      0.00000
     25      16.3554      0.00000
     26      17.2835      0.00000
     27      18.5460      0.00000
     28      19.0647      0.00000
     29      19.1881      0.00000
     30      19.7326      0.00000
     31      20.1951      0.00000
     32      20.8347      0.00000

 k-point    37 :       0.3333    0.3333    0.4286
  band No.  band energies     occupation 
      1     -21.9046      2.00000
      2     -21.8381      2.00000
      3     -21.8164      2.00000
      4     -10.2335      2.00000
      5      -5.3396      2.00000
      6      -1.4604      2.00000
      7      -1.1652      2.00000
      8      -0.4386      2.00000
      9       1.3603      2.00000
     10       2.3286      0.00000
     11       5.3221      0.00000
     12       6.6765      0.00000
     13       7.3373      0.00000
     14       7.9591      0.00000
     15       8.7662      0.00000
     16      10.1065      0.00000
     17      10.5656      0.00000
     18      11.1649      0.00000
     19      13.2222      0.00000
     20      13.4037      0.00000
     21      15.2256      0.00000
     22      15.5091      0.00000
     23      15.7921      0.00000
     24      16.1786      0.00000
     25      17.4705      0.00000
     26      17.5628      0.00000
     27      17.6795      0.00000
     28      17.9602      0.00000
     29      19.0910      0.00000
     30      19.6119      0.00000
     31      20.2288      0.00000
     32      20.5365      0.00000

 k-point    38 :       0.5000    0.3333    0.4286
  band No.  band energies     occupation 
      1     -21.9044      2.00000
      2     -21.8399      2.00000
      3     -21.8161      2.00000
      4     -10.1999      2.00000
      5      -5.3855      2.00000
      6      -1.1978      2.00000
      7      -0.9469      2.00000
      8      -0.6489      2.00000
      9       1.3047      2.00000
     10       1.8674      2.00000
     11       5.1493      0.00000
     12       6.5092      0.00000
     13       7.3394      0.00000
     14       7.4290      0.00000
     15       8.0365      0.00000
     16      10.3425      0.00000
     17      12.1632      0.00000
     18      12.5156      0.00000
     19      12.9451      0.00000
     20      13.9737      0.00000
     21      14.2283      0.00000
     22      15.9166      0.00000
     23      16.1251      0.00000
     24      16.5650      0.00000
     25      17.2026      0.00000
     26      18.0648      0.00000
     27      18.2163      0.00000
     28      18.3334      0.00000
     29      18.8346      0.00000
     30      19.4103      0.00000
     31      20.2243      0.00000
     32      20.2705      0.00000

 k-point    39 :      -0.3333    0.3333    0.4286
  band No.  band energies     occupation 
      1     -21.9045      2.00000
      2     -21.8380      2.00000
      3     -21.8165      2.00000
      4     -10.2040      2.00000
      5      -5.6402      2.00000
      6      -1.1025      2.00000
      7      -0.5072      2.00000
      8      -0.2886      2.00000
      9       0.9287      2.00000
     10       1.9571      2.00000
     11       5.1679      0.00000
     12       5.8321      0.00000
     13       7.0829      0.00000
     14       8.2225      0.00000
     15       9.0425      0.00000
     16      10.7562      0.00000
     17      11.1527      0.00000
     18      12.0182      0.00000
     19      12.3310      0.00000
     20      13.4618      0.00000
     21      14.1797      0.00000
     22      14.7991      0.00000
     23      15.6616      0.00000
     24      16.4477      0.00000
     25      16.7051      0.00000
     26      17.3215      0.00000
     27      18.2131      0.00000
     28      18.7502      0.00000
     29      18.9425      0.00000
     30      19.8879      0.00000
     31      20.5885      0.00000
     32      21.0128      0.00000

 k-point    40 :      -0.1667    0.3333    0.4286
  band No.  band energies     occupation 
      1     -21.9048      2.00000
      2     -21.8343      2.00000
      3     -21.8174      2.00000
      4     -10.2351      2.00000
      5      -5.8655      2.00000
      6      -1.1534      2.00000
      7      -0.2193      2.00000
      8       0.1693      2.00000
      9       0.5988      2.00000
     10       2.7844      0.00000
     11       4.3630      0.00000
     12       6.8081      0.00000
     13       7.7704      0.00000
     14       8.8642      0.00000
     15       9.3407      0.00000
     16       9.6426      0.00000
     17       9.7132      0.00000
     18      11.7572      0.00000
     19      12.2166      0.00000
     20      12.3164      0.00000
     21      13.3261      0.00000
     22      14.8537      0.00000
     23      15.0007      0.00000
     24      15.8882      0.00000
     25      16.2059      0.00000
     26      17.0021      0.00000
     27      18.2156      0.00000
     28      18.9095      0.00000
     29      19.1958      0.00000
     30      20.1309      0.00000
     31      20.4026      0.00000
     32      20.5353      0.00000


--------------------------------------------------------------------------------------------------------


 soft charge-density along one line, spin component           1
         0         1         2         3         4         5         6         7         8         9
 total charge-density along one line

 pseudopotential strength for first ion, spin component:           1
-25.764   0.000  -0.001   2.764  -0.000   0.000  -0.012  -0.037
  0.000 -25.812   0.000  -0.000   2.784  -0.000   0.000   0.000
 -0.001   0.000 -25.765   0.000  -0.000   2.765   0.006   0.019
  2.764  -0.000   0.000   6.496  -0.000   0.000   0.001  -0.001
 -0.000   2.784  -0.000  -0.000   6.493  -0.000  -0.000   0.000
  0.000  -0.000   2.765   0.000  -0.000   6.496  -0.001   0.000
 -0.012   0.000   0.006   0.001  -0.000  -0.001   1.431   7.019
 -0.037   0.000   0.019  -0.001   0.000   0.000   7.019  34.160
 total augmentation occupancy for first ion, spin component:           1
  2.001   0.000   0.000  -0.003   0.000  -0.000   0.038  -0.013
  0.000   2.001   0.000   0.000   0.004   0.000   0.000   0.000
  0.000   0.000   2.001  -0.000   0.000  -0.003  -0.019   0.007
 -0.003   0.000  -0.000   0.024   0.000   0.002   0.019  -0.000
  0.000   0.004   0.000   0.000   0.006   0.000   0.000   0.000
 -0.000   0.000  -0.003   0.002   0.000   0.027  -0.010   0.000
  0.038   0.000  -0.019   0.019   0.000  -0.010   0.621  -0.001
 -0.013   0.000   0.007  -0.000   0.000   0.000  -0.001   0.000


------------------------ aborting loop because EDIFF is reached ----------------------------------------


    CHARGE:  cpu time      0.0184: real time      0.0184
    FORLOC:  cpu time      0.0003: real time      0.0003
    FORNL :  cpu time      0.0790: real time      0.0790
    STRESS:  cpu time      0.2376: real time      0.2376
    FORCOR:  cpu time      0.0053: real time      0.0053
    FORHAR:  cpu time      0.0015: real time      0.0015
    MIXING:  cpu time      0.0003: real time      0.0003
    OFIELD:  cpu time      0.0000: real time      0.0000

  FORCE on cell =-STRESS in cart. coord.  units (eV):
  Direction    XX          YY          ZZ          XY          YZ          ZX
  --------------------------------------------------------------------------------------
  Alpha Z    10.51200    10.51200    10.51200
  Ewald    -178.23939  -179.76196  -295.04075     0.98874     0.00000    -0.00000
  Hartree   150.63193   111.41976    93.12950    26.54015    -0.00000    -0.00000
  E(xc)     -78.73840   -78.84785   -78.67386     0.07405     0.00000     0.00000
  Local    -207.91043  -161.42396   -37.44847   -31.44208     0.00000     0.00000
  n-local   133.26963   136.09715   129.66341    -1.93166     0.00069    -0.00038
  augment     7.63181     8.21206     6.91847    -0.39754    -0.00000    -0.00000
  Kinetic   162.80879   153.68243   170.95814     6.21696    -0.11960    -0.17970
  Fock        0.00000     0.00000     0.00000     0.00000     0.00000     0.00000
  -------------------------------------------------------------------------------------
  Total      -0.03406    -0.11037     0.01843     0.04863     0.00000     0.00000
  in kB      -0.56115    -1.81832     0.30356     0.80114     0.00000     0.00000
  external pressure =       -0.69 kB  Pullay stress =        0.00 kB


 VOLUME and BASIS-vectors are now :
 -----------------------------------------------------------------------------
  energy-cutoff  :      400.00
  volume of cell :       97.25
      direct lattice vectors                 reciprocal lattice vectors
     3.927985639  1.979407760  0.000000000     0.275944822 -0.042390103  0.000000000
     1.148659713  7.477375068  0.000000000    -0.073048004  0.144958263  0.000000000
     0.000000000  0.000000000  3.588966615     0.000000000  0.000000000  0.278631736

  length of vectors
     4.398536832  7.565088039  3.588966615     0.279181779  0.162323470  0.278631736


 FORCES acting on ions
    electron-ion (+dipol)            ewald-force                    non-local-force                 convergence-correction
 -----------------------------------------------------------------------------------------------
   -.223E+02 0.439E+02 0.165E-06   0.208E+02 -.411E+02 -.783E-15   0.143E+01 -.283E+01 -.192E-18   0.466E-03 -.111E-02 0.468E-13
   0.969E+01 -.189E+02 0.379E-06   -.124E+02 0.243E+02 -.360E-15   0.274E+01 -.543E+01 0.199E-18   -.103E-02 0.204E-02 0.541E-14
   0.101E+02 -.201E+02 0.330E-06   -.842E+01 0.168E+02 0.688E-16   -.167E+01 0.330E+01 -.605E-18   0.182E-02 -.361E-02 0.874E-15
 -----------------------------------------------------------------------------------------------
   -.250E+01 0.496E+01 0.873E-06   0.000E+00 0.000E+00 -.107E-14   0.250E+01 -.496E+01 -.599E-18   0.125E-02 -.267E-02 0.530E-13


 POSITION                                       TOTAL-FORCE (eV/Angst)
 -----------------------------------------------------------------------------------
      1.11528      6.33704      0.00000        -0.005057      0.023449     -0.000000
      4.16038      5.19107     -0.00000         0.006684     -0.024372      0.000000
      1.28024      1.14084     -0.00000        -0.001628      0.000924      0.000000
 -----------------------------------------------------------------------------------
    total drift:                                0.003374      0.000734      0.000001


--------------------------------------------------------------------------------------------------------



  FREE ENERGIE OF THE ION-ELECTRON SYSTEM (eV)
  ---------------------------------------------------
  free  energy   TOTEN  =       -10.13716550 eV

  energy  without entropy=      -10.13407196  energy(sigma->0) =      -10.13561873

 d Force = 0.1033088E-04[-0.339E-04, 0.545E-04]  d Energy = 0.5353011E-03-0.525E-03
 d Force = 0.3899659E-01[ 0.388E-01, 0.392E-01]  d Ewald  =-0.2743374E+01 0.278E+01


--------------------------------------------------------------------------------------------------------


    POTLOK:  cpu time      0.0073: real time      0.0073


--------------------------------------------------------------------------------------------------------




--------------------------------------------------------------------------------------------------------


  
 reached required accuracy - stopping structural energy minimisation
     LOOP+:  cpu time      7.1383: real time      7.1691
    4ORBIT:  cpu time      0.0000: real time      0.0000

 total amount of memory used by VASP MPI-rank0    33053. kBytes
=======================================================================

   base      :      30000. kBytes
   nonlr-proj:        539. kBytes
   fftplans  :        274. kBytes
   grid      :       1090. kBytes
   one-center:         24. kBytes
   wavefun   :       1126. kBytes

  
  
 General timing and accounting informations for this job:
 ========================================================
  
                  Total CPU time used (sec):       49.403
                            User time (sec):       47.966
                          System time (sec):        1.437
                         Elapsed time (sec):       49.938
  
                   Maximum memory used (kb):      123012.
                   Average memory used (kb):          N/A
  
                          Minor page faults:        28904
                          Major page faults:          144
                 Voluntary context switches:         1247
