   4   4   0   0
  0.1890567E+02  0.7265314E-09  0.7265314E-09  0.7265314E-09  0.1500000E-16
   1.0000000000000000E-004
  CAR 
 unknown system                          
     22.90791745    -22.47019240  301      2.66001080      1.00000000
    -22.470  0.0000E+00  0.0000E+00
    -22.319  0.0000E+00  0.0000E+00
    -22.168  0.0000E+00  0.0000E+00
    -22.016  0.0000E+00  0.0000E+00
    -21.865  0.0000E+00  0.0000E+00
    -21.714  0.0000E+00  0.0000E+00
    -21.563  0.0000E+00  0.0000E+00
    -21.411  0.0000E+00  0.0000E+00
    -21.260  0.0000E+00  0.0000E+00
    -21.109  0.0000E+00  0.0000E+00
    -20.958  0.0000E+00  0.0000E+00
    -20.806  0.0000E+00  0.0000E+00
    -20.655  0.8926E-13  0.1350E-13
    -20.504  0.3082E-03  0.4662E-04
    -20.353  0.2967E+00  0.4492E-01
    -20.201  0.1697E+00  0.7059E-01
    -20.050  0.1249E-04  0.7059E-01
    -19.899  0.0000E+00  0.7059E-01
    -19.748  0.0000E+00  0.7059E-01
    -19.596  0.0000E+00  0.7059E-01
    -19.445  0.0000E+00  0.7059E-01
    -19.294  0.0000E+00  0.7059E-01
    -19.142  0.0000E+00  0.7059E-01
    -18.991  0.0000E+00  0.7059E-01
    -18.840  0.0000E+00  0.7059E-01
    -18.689  0.0000E+00  0.7059E-01
    -18.537  0.0000E+00  0.7059E-01
    -18.386  0.0000E+00  0.7059E-01
    -18.235  0.0000E+00  0.7059E-01
    -18.084  0.0000E+00  0.7059E-01
    -17.932  0.0000E+00  0.7059E-01
    -17.781  0.0000E+00  0.7059E-01
    -17.630  0.0000E+00  0.7059E-01
    -17.479  0.0000E+00  0.7059E-01
    -17.327  0.0000E+00  0.7059E-01
    -17.176  0.0000E+00  0.7059E-01
    -17.025  0.0000E+00  0.7059E-01
    -16.874  0.0000E+00  0.7059E-01
    -16.722  0.0000E+00  0.7059E-01
    -16.571  0.0000E+00  0.7059E-01
    -16.420  0.0000E+00  0.7059E-01
    -16.269  0.0000E+00  0.7059E-01
    -16.117  0.0000E+00  0.7059E-01
    -15.966  0.0000E+00  0.7059E-01
    -15.815  0.0000E+00  0.7059E-01
    -15.663  0.0000E+00  0.7059E-01
    -15.512  0.0000E+00  0.7059E-01
    -15.361  0.0000E+00  0.7059E-01
    -15.210  0.0000E+00  0.7059E-01
    -15.058  0.0000E+00  0.7059E-01
    -14.907  0.0000E+00  0.7059E-01
    -14.756  0.0000E+00  0.7059E-01
    -14.605  0.0000E+00  0.7059E-01
    -14.453  0.0000E+00  0.7059E-01
    -14.302  0.0000E+00  0.7059E-01
    -14.151  0.0000E+00  0.7059E-01
    -14.000  0.0000E+00  0.7059E-01
    -13.848  0.0000E+00  0.7059E-01
    -13.697  0.0000E+00  0.7059E-01
    -13.546  0.0000E+00  0.7059E-01
    -13.395  0.0000E+00  0.7059E-01
    -13.243  0.0000E+00  0.7059E-01
    -13.092  0.0000E+00  0.7059E-01
    -12.941  0.0000E+00  0.7059E-01
    -12.790  0.0000E+00  0.7059E-01
    -12.638  0.0000E+00  0.7059E-01
    -12.487  0.0000E+00  0.7059E-01
    -12.336  0.0000E+00  0.7059E-01
    -12.184  0.0000E+00  0.7059E-01
    -12.033  0.0000E+00  0.7059E-01
    -11.882  0.0000E+00  0.7059E-01
    -11.731  0.0000E+00  0.7059E-01
    -11.579  0.0000E+00  0.7059E-01
    -11.428  0.0000E+00  0.7059E-01
    -11.277  0.0000E+00  0.7059E-01
    -11.126  0.0000E+00  0.7059E-01
    -10.974  0.0000E+00  0.7059E-01
    -10.823  0.0000E+00  0.7059E-01
    -10.672  0.4478E-14  0.7059E-01
    -10.521  0.7379E-05  0.7059E-01
    -10.369  0.4178E-02  0.7122E-01
    -10.218  0.2036E-02  0.7153E-01
    -10.067  0.3631E-02  0.7208E-01
     -9.916  0.3319E-01  0.7710E-01
     -9.764  0.5127E-03  0.7718E-01
     -9.613  0.1178E-09  0.7718E-01
     -9.462  0.1321E-02  0.7738E-01
     -9.311  0.3717E-01  0.8300E-01
     -9.159  0.3049E-01  0.8761E-01
     -9.008  0.4638E-01  0.9463E-01
     -8.857  0.1825E-01  0.9739E-01
     -8.705  0.1228E+00  0.1160E+00
     -8.554  0.1118E-01  0.1176E+00
     -8.403  0.6278E-07  0.1176E+00
     -8.252  0.0000E+00  0.1176E+00
     -8.100  0.0000E+00  0.1176E+00
     -7.949  0.0000E+00  0.1176E+00
     -7.798  0.0000E+00  0.1176E+00
     -7.647  0.0000E+00  0.1176E+00
     -7.495  0.0000E+00  0.1176E+00
     -7.344  0.0000E+00  0.1176E+00
     -7.193  0.0000E+00  0.1176E+00
     -7.042  0.0000E+00  0.1176E+00
     -6.890  0.0000E+00  0.1176E+00
     -6.739  0.0000E+00  0.1176E+00
     -6.588  0.0000E+00  0.1176E+00
     -6.437  0.0000E+00  0.1176E+00
     -6.285  0.0000E+00  0.1176E+00
     -6.134  0.0000E+00  0.1176E+00
     -5.983  0.0000E+00  0.1176E+00
     -5.832  0.0000E+00  0.1176E+00
     -5.680  0.0000E+00  0.1176E+00
     -5.529  0.0000E+00  0.1176E+00
     -5.378  0.0000E+00  0.1176E+00
     -5.227  0.0000E+00  0.1176E+00
     -5.075  0.0000E+00  0.1176E+00
     -4.924  0.0000E+00  0.1176E+00
     -4.773  0.0000E+00  0.1176E+00
     -4.621  0.0000E+00  0.1176E+00
     -4.470  0.0000E+00  0.1176E+00
     -4.319  0.0000E+00  0.1176E+00
     -4.168  0.0000E+00  0.1176E+00
     -4.016  0.0000E+00  0.1176E+00
     -3.865  0.9784E-12  0.1176E+00
     -3.714  0.3576E-03  0.1177E+00
     -3.563  0.1833E+00  0.1454E+00
     -3.411  0.2119E+00  0.1775E+00
     -3.260  0.2296E+00  0.2122E+00
     -3.109  0.1522E+00  0.2352E+00
     -2.958  0.4309E-03  0.2353E+00
     -2.806  0.8191E-12  0.2353E+00
     -2.655  0.0000E+00  0.2353E+00
     -2.504  0.0000E+00  0.2353E+00
     -2.353  0.0000E+00  0.2353E+00
     -2.201  0.2074E-13  0.2353E+00
     -2.050  0.6493E-04  0.2353E+00
     -1.899  0.3320E-01  0.2403E+00
     -1.748  0.3906E-01  0.2462E+00
     -1.596  0.8007E-02  0.2474E+00
     -1.445  0.4038E-01  0.2536E+00
     -1.294  0.1708E-01  0.2561E+00
     -1.142  0.1225E-01  0.2580E+00
     -0.991  0.5930E-01  0.2670E+00
     -0.840  0.2087E-01  0.2701E+00
     -0.689  0.1295E-05  0.2701E+00
     -0.537  0.8285E-06  0.2701E+00
     -0.386  0.1082E-01  0.2718E+00
     -0.235  0.2408E-01  0.2754E+00
     -0.084  0.1108E-01  0.2771E+00
      0.068  0.4391E-01  0.2837E+00
      0.219  0.1038E-01  0.2853E+00
      0.370  0.4125E-01  0.2915E+00
      0.521  0.3768E-01  0.2972E+00
      0.673  0.2830E-01  0.3015E+00
      0.824  0.1663E-01  0.3040E+00
      0.975  0.2364E-02  0.3044E+00
      1.126  0.1356E-01  0.3064E+00
      1.278  0.4957E-01  0.3139E+00
      1.429  0.3556E-01  0.3193E+00
      1.580  0.2961E-01  0.3238E+00
      1.731  0.7114E-01  0.3345E+00
      1.883  0.3684E-01  0.3401E+00
      2.034  0.4725E-01  0.3473E+00
      2.185  0.5427E-01  0.3555E+00
      2.337  0.2555E-01  0.3593E+00
      2.488  0.1114E-01  0.3610E+00
      2.639  0.1493E-01  0.3633E+00
      2.790  0.3741E-01  0.3689E+00
      2.942  0.2763E-01  0.3731E+00
      3.093  0.2207E-01  0.3765E+00
      3.244  0.9301E-04  0.3765E+00
      3.395  0.4013E-12  0.3765E+00
      3.547  0.0000E+00  0.3765E+00
      3.698  0.0000E+00  0.3765E+00
      3.849  0.0000E+00  0.3765E+00
      4.000  0.0000E+00  0.3765E+00
      4.152  0.0000E+00  0.3765E+00
      4.303  0.0000E+00  0.3765E+00
      4.454  0.0000E+00  0.3765E+00
      4.605  0.0000E+00  0.3765E+00
      4.757  0.0000E+00  0.3765E+00
      4.908  0.0000E+00  0.3765E+00
      5.059  0.0000E+00  0.3765E+00
      5.210  0.0000E+00  0.3765E+00
      5.362  0.1244E-07  0.3765E+00
      5.513  0.7213E-03  0.3766E+00
      5.664  0.1297E-01  0.3785E+00
      5.815  0.2667E-02  0.3789E+00
      5.967  0.1435E-01  0.3811E+00
      6.118  0.1723E-01  0.3837E+00
      6.269  0.8091E-02  0.3849E+00
      6.421  0.1343E-01  0.3870E+00
      6.572  0.1480E-02  0.3872E+00
      6.723  0.6070E-02  0.3881E+00
      6.874  0.9406E-02  0.3895E+00
      7.026  0.2650E-01  0.3935E+00
      7.177  0.2592E-01  0.3975E+00
      7.328  0.5073E-02  0.3982E+00
      7.479  0.2190E-01  0.4015E+00
      7.631  0.2279E-01  0.4050E+00
      7.782  0.2964E-01  0.4095E+00
      7.933  0.3227E-01  0.4144E+00
      8.084  0.1895E-01  0.4172E+00
      8.236  0.2571E-01  0.4211E+00
      8.387  0.1028E-02  0.4213E+00
      8.538  0.5076E-02  0.4220E+00
      8.689  0.1222E-01  0.4239E+00
      8.841  0.4409E-01  0.4306E+00
      8.992  0.8392E-03  0.4307E+00
      9.143  0.7817E-02  0.4319E+00
      9.294  0.1452E-01  0.4341E+00
      9.446  0.3328E-01  0.4391E+00
      9.597  0.7433E-02  0.4402E+00
      9.748  0.3292E-01  0.4452E+00
      9.900  0.2733E-01  0.4493E+00
     10.051  0.2328E-01  0.4529E+00
     10.202  0.2900E-01  0.4572E+00
     10.353  0.4750E-01  0.4644E+00
     10.505  0.4537E-01  0.4713E+00
     10.656  0.3549E-01  0.4767E+00
     10.807  0.4677E-01  0.4837E+00
     10.958  0.4294E-01  0.4902E+00
     11.110  0.7111E-01  0.5010E+00
     11.261  0.6586E-01  0.5109E+00
     11.412  0.1855E-01  0.5138E+00
     11.563  0.2560E-01  0.5176E+00
     11.715  0.1830E-01  0.5204E+00
     11.866  0.2389E-01  0.5240E+00
     12.017  0.3581E-01  0.5294E+00
     12.168  0.1090E-01  0.5311E+00
     12.320  0.3287E-01  0.5360E+00
     12.471  0.3665E-01  0.5416E+00
     12.622  0.4076E-01  0.5478E+00
     12.773  0.3800E-01  0.5535E+00
     12.925  0.2828E-01  0.5578E+00
     13.076  0.9662E-02  0.5592E+00
     13.227  0.1019E-01  0.5608E+00
     13.379  0.2445E-01  0.5645E+00
     13.530  0.1689E-01  0.5670E+00
     13.681  0.2117E-01  0.5702E+00
     13.832  0.1542E-01  0.5726E+00
     13.984  0.2314E-01  0.5761E+00
     14.135  0.1446E-01  0.5783E+00
     14.286  0.2936E-01  0.5827E+00
     14.437  0.3749E-01  0.5884E+00
     14.589  0.3276E-01  0.5933E+00
     14.740  0.9264E-02  0.5947E+00
     14.891  0.3205E-01  0.5996E+00
     15.042  0.1515E-01  0.6019E+00
     15.194  0.1399E-01  0.6040E+00
     15.345  0.3172E-01  0.6088E+00
     15.496  0.2839E-01  0.6131E+00
     15.647  0.7255E-01  0.6240E+00
     15.799  0.2750E-01  0.6282E+00
     15.950  0.8867E-02  0.6295E+00
     16.101  0.3705E-01  0.6352E+00
     16.252  0.2546E-01  0.6390E+00
     16.404  0.4629E-01  0.6460E+00
     16.555  0.7616E-02  0.6472E+00
     16.706  0.1564E-01  0.6495E+00
     16.858  0.3367E-01  0.6546E+00
     17.009  0.3813E-01  0.6604E+00
     17.160  0.2629E-01  0.6644E+00
     17.311  0.2368E-01  0.6679E+00
     17.463  0.4995E-01  0.6755E+00
     17.614  0.5964E-01  0.6845E+00
     17.765  0.1620E-01  0.6870E+00
     17.916  0.1248E-01  0.6889E+00
     18.068  0.3027E-01  0.6934E+00
     18.219  0.2054E-01  0.6965E+00
     18.370  0.2765E-01  0.7007E+00
     18.521  0.1544E-01  0.7031E+00
     18.673  0.2756E-01  0.7072E+00
     18.824  0.2398E-01  0.7109E+00
     18.975  0.5012E-01  0.7184E+00
     19.126  0.5064E-01  0.7261E+00
     19.278  0.4630E-01  0.7331E+00
     19.429  0.1905E-01  0.7360E+00
     19.580  0.9079E-02  0.7374E+00
     19.731  0.2103E-01  0.7405E+00
     19.883  0.1936E-01  0.7435E+00
     20.034  0.7764E-02  0.7446E+00
     20.185  0.1990E-01  0.7476E+00
     20.336  0.2222E-01  0.7510E+00
     20.488  0.5319E-02  0.7518E+00
     20.639  0.2502E-07  0.7518E+00
     20.790  0.4471E-03  0.7519E+00
     20.942  0.6995E-02  0.7529E+00
     21.093  0.2418E-04  0.7529E+00
     21.244  0.9499E-14  0.7529E+00
     21.395  0.0000E+00  0.7529E+00
     21.547  0.0000E+00  0.7529E+00
     21.698  0.0000E+00  0.7529E+00
     21.849  0.0000E+00  0.7529E+00
     22.000  0.0000E+00  0.7529E+00
     22.152  0.0000E+00  0.7529E+00
     22.303  0.0000E+00  0.7529E+00
     22.454  0.0000E+00  0.7529E+00
     22.605  0.0000E+00  0.7529E+00
     22.757  0.0000E+00  0.7529E+00
     22.908  0.0000E+00  0.7529E+00
