   4   4   0   0
  0.1890567E+02  0.7265314E-09  0.7265314E-09  0.7265314E-09  0.1500000E-16
   1.0000000000000000E-004
  CAR 
 unknown system                          
     16.18871838    -22.15019373  301      2.65993957      1.00000000
    -22.150  0.0000E+00  0.0000E+00
    -22.022  0.0000E+00  0.0000E+00
    -21.895  0.0000E+00  0.0000E+00
    -21.767  0.0000E+00  0.0000E+00
    -21.639  0.0000E+00  0.0000E+00
    -21.511  0.0000E+00  0.0000E+00
    -21.383  0.0000E+00  0.0000E+00
    -21.256  0.0000E+00  0.0000E+00
    -21.128  0.0000E+00  0.0000E+00
    -21.000  0.0000E+00  0.0000E+00
    -20.872  0.0000E+00  0.0000E+00
    -20.744  0.0000E+00  0.0000E+00
    -20.617  0.1446E-09  0.1848E-10
    -20.489  0.1284E-02  0.1640E-03
    -20.361  0.3104E+00  0.3984E-01
    -20.233  0.2403E+00  0.7054E-01
    -20.105  0.3819E-03  0.7059E-01
    -19.978  0.8606E-11  0.7059E-01
    -19.850  0.0000E+00  0.7059E-01
    -19.722  0.0000E+00  0.7059E-01
    -19.594  0.0000E+00  0.7059E-01
    -19.466  0.0000E+00  0.7059E-01
    -19.339  0.0000E+00  0.7059E-01
    -19.211  0.0000E+00  0.7059E-01
    -19.083  0.0000E+00  0.7059E-01
    -18.955  0.0000E+00  0.7059E-01
    -18.827  0.0000E+00  0.7059E-01
    -18.700  0.0000E+00  0.7059E-01
    -18.572  0.0000E+00  0.7059E-01
    -18.444  0.0000E+00  0.7059E-01
    -18.316  0.0000E+00  0.7059E-01
    -18.189  0.0000E+00  0.7059E-01
    -18.061  0.0000E+00  0.7059E-01
    -17.933  0.0000E+00  0.7059E-01
    -17.805  0.0000E+00  0.7059E-01
    -17.677  0.0000E+00  0.7059E-01
    -17.550  0.0000E+00  0.7059E-01
    -17.422  0.0000E+00  0.7059E-01
    -17.294  0.0000E+00  0.7059E-01
    -17.166  0.0000E+00  0.7059E-01
    -17.038  0.0000E+00  0.7059E-01
    -16.911  0.0000E+00  0.7059E-01
    -16.783  0.0000E+00  0.7059E-01
    -16.655  0.0000E+00  0.7059E-01
    -16.527  0.0000E+00  0.7059E-01
    -16.399  0.0000E+00  0.7059E-01
    -16.272  0.0000E+00  0.7059E-01
    -16.144  0.0000E+00  0.7059E-01
    -16.016  0.0000E+00  0.7059E-01
    -15.888  0.0000E+00  0.7059E-01
    -15.760  0.0000E+00  0.7059E-01
    -15.633  0.0000E+00  0.7059E-01
    -15.505  0.0000E+00  0.7059E-01
    -15.377  0.0000E+00  0.7059E-01
    -15.249  0.0000E+00  0.7059E-01
    -15.121  0.0000E+00  0.7059E-01
    -14.994  0.0000E+00  0.7059E-01
    -14.866  0.0000E+00  0.7059E-01
    -14.738  0.0000E+00  0.7059E-01
    -14.610  0.0000E+00  0.7059E-01
    -14.482  0.0000E+00  0.7059E-01
    -14.355  0.0000E+00  0.7059E-01
    -14.227  0.0000E+00  0.7059E-01
    -14.099  0.0000E+00  0.7059E-01
    -13.971  0.0000E+00  0.7059E-01
    -13.843  0.0000E+00  0.7059E-01
    -13.716  0.0000E+00  0.7059E-01
    -13.588  0.0000E+00  0.7059E-01
    -13.460  0.0000E+00  0.7059E-01
    -13.332  0.0000E+00  0.7059E-01
    -13.204  0.0000E+00  0.7059E-01
    -13.077  0.0000E+00  0.7059E-01
    -12.949  0.0000E+00  0.7059E-01
    -12.821  0.0000E+00  0.7059E-01
    -12.693  0.0000E+00  0.7059E-01
    -12.565  0.0000E+00  0.7059E-01
    -12.438  0.0000E+00  0.7059E-01
    -12.310  0.0000E+00  0.7059E-01
    -12.182  0.0000E+00  0.7059E-01
    -12.054  0.0000E+00  0.7059E-01
    -11.926  0.0000E+00  0.7059E-01
    -11.799  0.0000E+00  0.7059E-01
    -11.671  0.0000E+00  0.7059E-01
    -11.543  0.0000E+00  0.7059E-01
    -11.415  0.0000E+00  0.7059E-01
    -11.288  0.0000E+00  0.7059E-01
    -11.160  0.0000E+00  0.7059E-01
    -11.032  0.0000E+00  0.7059E-01
    -10.904  0.0000E+00  0.7059E-01
    -10.776  0.0000E+00  0.7059E-01
    -10.649  0.4409E-12  0.7059E-01
    -10.521  0.8688E-05  0.7059E-01
    -10.393  0.3538E-02  0.7104E-01
    -10.265  0.3805E-02  0.7153E-01
    -10.137  0.6093E-04  0.7154E-01
    -10.010  0.2230E-01  0.7438E-01
     -9.882  0.2180E-01  0.7717E-01
     -9.754  0.4873E-04  0.7718E-01
     -9.626  0.1616E-10  0.7718E-01
     -9.498  0.1319E-03  0.7719E-01
     -9.371  0.3001E-01  0.8103E-01
     -9.243  0.2096E-01  0.8371E-01
     -9.115  0.5374E-01  0.9057E-01
     -8.987  0.3385E-01  0.9490E-01
     -8.859  0.1779E-01  0.9717E-01
     -8.732  0.1316E+00  0.1140E+00
     -8.604  0.2855E-01  0.1176E+00
     -8.476  0.2143E-04  0.1176E+00
     -8.348  0.2133E-12  0.1176E+00
     -8.220  0.0000E+00  0.1176E+00
     -8.093  0.0000E+00  0.1176E+00
     -7.965  0.0000E+00  0.1176E+00
     -7.837  0.0000E+00  0.1176E+00
     -7.709  0.0000E+00  0.1176E+00
     -7.581  0.0000E+00  0.1176E+00
     -7.454  0.0000E+00  0.1176E+00
     -7.326  0.0000E+00  0.1176E+00
     -7.198  0.0000E+00  0.1176E+00
     -7.070  0.0000E+00  0.1176E+00
     -6.942  0.0000E+00  0.1176E+00
     -6.815  0.0000E+00  0.1176E+00
     -6.687  0.0000E+00  0.1176E+00
     -6.559  0.0000E+00  0.1176E+00
     -6.431  0.0000E+00  0.1176E+00
     -6.303  0.0000E+00  0.1176E+00
     -6.176  0.0000E+00  0.1176E+00
     -6.048  0.0000E+00  0.1176E+00
     -5.920  0.0000E+00  0.1176E+00
     -5.792  0.0000E+00  0.1176E+00
     -5.664  0.0000E+00  0.1176E+00
     -5.537  0.0000E+00  0.1176E+00
     -5.409  0.0000E+00  0.1176E+00
     -5.281  0.0000E+00  0.1176E+00
     -5.153  0.0000E+00  0.1176E+00
     -5.025  0.0000E+00  0.1176E+00
     -4.898  0.0000E+00  0.1176E+00
     -4.770  0.0000E+00  0.1176E+00
     -4.642  0.0000E+00  0.1176E+00
     -4.514  0.0000E+00  0.1176E+00
     -4.386  0.0000E+00  0.1176E+00
     -4.259  0.0000E+00  0.1176E+00
     -4.131  0.0000E+00  0.1176E+00
     -4.003  0.0000E+00  0.1176E+00
     -3.875  0.1764E-12  0.1176E+00
     -3.748  0.1889E-04  0.1176E+00
     -3.620  0.6551E-01  0.1260E+00
     -3.492  0.3111E+00  0.1658E+00
     -3.364  0.1628E+00  0.1866E+00
     -3.236  0.2508E+00  0.2186E+00
     -3.109  0.1299E+00  0.2352E+00
     -2.981  0.5005E-03  0.2353E+00
     -2.853  0.6452E-10  0.2353E+00
     -2.725  0.0000E+00  0.2353E+00
     -2.597  0.0000E+00  0.2353E+00
     -2.470  0.0000E+00  0.2353E+00
     -2.342  0.0000E+00  0.2353E+00
     -2.214  0.1780E-14  0.2353E+00
     -2.086  0.1975E-05  0.2353E+00
     -1.958  0.1503E-01  0.2372E+00
     -1.831  0.3787E-01  0.2421E+00
     -1.703  0.3669E-01  0.2467E+00
     -1.575  0.1052E-01  0.2481E+00
     -1.447  0.4227E-01  0.2535E+00
     -1.319  0.1800E-01  0.2558E+00
     -1.192  0.1375E-01  0.2575E+00
     -1.064  0.3767E-01  0.2624E+00
     -0.936  0.5684E-01  0.2696E+00
     -0.808  0.3842E-02  0.2701E+00
     -0.680  0.2644E-07  0.2701E+00
     -0.553  0.1552E-06  0.2701E+00
     -0.425  0.4472E-02  0.2707E+00
     -0.297  0.2893E-01  0.2744E+00
     -0.169  0.1109E-01  0.2758E+00
     -0.041  0.2071E-01  0.2785E+00
      0.086  0.4581E-01  0.2843E+00
      0.214  0.6878E-02  0.2852E+00
      0.342  0.4509E-01  0.2909E+00
      0.470  0.3077E-01  0.2949E+00
      0.598  0.4093E-01  0.3001E+00
      0.725  0.1778E-01  0.3024E+00
      0.853  0.1480E-01  0.3043E+00
      0.981  0.8092E-03  0.3044E+00
      1.109  0.9914E-02  0.3056E+00
      1.237  0.4395E-01  0.3113E+00
      1.364  0.4999E-01  0.3176E+00
      1.492  0.2372E-01  0.3207E+00
      1.620  0.5012E-01  0.3271E+00
      1.748  0.6520E-01  0.3354E+00
      1.876  0.3564E-01  0.3400E+00
      2.003  0.3311E-01  0.3442E+00
      2.131  0.7536E-01  0.3538E+00
      2.259  0.2891E-01  0.3575E+00
      2.387  0.2069E-01  0.3602E+00
      2.515  0.8582E-02  0.3613E+00
      2.642  0.1731E-01  0.3635E+00
      2.770  0.4246E-01  0.3689E+00
      2.898  0.1366E-01  0.3707E+00
      3.026  0.4173E-01  0.3760E+00
      3.153  0.3758E-02  0.3765E+00
      3.281  0.3614E-06  0.3765E+00
      3.409  0.2700E-15  0.3765E+00
      3.537  0.0000E+00  0.3765E+00
      3.665  0.0000E+00  0.3765E+00
      3.792  0.0000E+00  0.3765E+00
      3.920  0.0000E+00  0.3765E+00
      4.048  0.0000E+00  0.3765E+00
      4.176  0.0000E+00  0.3765E+00
      4.304  0.0000E+00  0.3765E+00
      4.431  0.0000E+00  0.3765E+00
      4.559  0.0000E+00  0.3765E+00
      4.687  0.0000E+00  0.3765E+00
      4.815  0.0000E+00  0.3765E+00
      4.943  0.0000E+00  0.3765E+00
      5.070  0.0000E+00  0.3765E+00
      5.198  0.0000E+00  0.3765E+00
      5.326  0.9802E-10  0.3765E+00
      5.454  0.7178E-04  0.3765E+00
      5.582  0.5009E-02  0.3771E+00
      5.709  0.1372E-01  0.3789E+00
      5.837  0.1204E-02  0.3790E+00
      5.965  0.1627E-01  0.3811E+00
      6.093  0.1381E-01  0.3829E+00
      6.221  0.1614E-01  0.3849E+00
      6.348  0.4049E-02  0.3855E+00
      6.476  0.1365E-01  0.3872E+00
      6.604  0.4671E-04  0.3872E+00
      6.732  0.8643E-02  0.3883E+00
      6.860  0.9251E-02  0.3895E+00
      6.987  0.2350E-01  0.3925E+00
      7.115  0.2305E-01  0.3954E+00
      7.243  0.1806E-01  0.3977E+00
      7.371  0.8568E-02  0.3988E+00
      7.499  0.2427E-01  0.4019E+00
      7.626  0.2259E-01  0.4048E+00
      7.754  0.3053E-01  0.4087E+00
      7.882  0.3082E-01  0.4127E+00
      8.010  0.2591E-01  0.4160E+00
      8.138  0.2686E-01  0.4194E+00
      8.265  0.1403E-01  0.4212E+00
      8.393  0.5164E-03  0.4213E+00
      8.521  0.4357E-02  0.4218E+00
      8.649  0.8771E-02  0.4230E+00
      8.777  0.4451E-01  0.4286E+00
      8.904  0.1598E-01  0.4307E+00
      9.032  0.2294E-03  0.4307E+00
      9.160  0.1241E-01  0.4323E+00
      9.288  0.1239E-01  0.4339E+00
      9.416  0.3884E-01  0.4388E+00
      9.543  0.3566E-02  0.4393E+00
      9.671  0.2524E-01  0.4425E+00
      9.799  0.2757E-01  0.4460E+00
      9.927  0.3205E-01  0.4501E+00
     10.054  0.2169E-01  0.4529E+00
     10.182  0.2853E-01  0.4566E+00
     10.310  0.4201E-01  0.4619E+00
     10.438  0.4402E-01  0.4676E+00
     10.566  0.4501E-01  0.4733E+00
     10.693  0.4141E-01  0.4786E+00
     10.821  0.4442E-01  0.4843E+00
     10.949  0.4355E-01  0.4898E+00
     11.077  0.5985E-01  0.4975E+00
     11.205  0.7790E-01  0.5074E+00
     11.332  0.4480E-01  0.5132E+00
     11.460  0.1377E-01  0.5149E+00
     11.588  0.2544E-01  0.5182E+00
     11.716  0.1741E-01  0.5204E+00
     11.844  0.1741E-01  0.5226E+00
     11.971  0.4555E-01  0.5285E+00
     12.099  0.1488E-01  0.5304E+00
     12.227  0.1392E-01  0.5321E+00
     12.355  0.4351E-01  0.5377E+00
     12.483  0.3607E-01  0.5423E+00
     12.610  0.4040E-01  0.5475E+00
     12.738  0.2152E-01  0.5502E+00
     12.866  0.4176E-01  0.5555E+00
     12.994  0.9451E-03  0.5557E+00
     13.122  0.3362E-08  0.5557E+00
     13.249  0.6059E-14  0.5557E+00
     13.377  0.3183E-05  0.5557E+00
     13.505  0.9198E-02  0.5568E+00
     13.633  0.1576E-01  0.5589E+00
     13.761  0.1562E-02  0.5591E+00
     13.888  0.1099E-01  0.5605E+00
     14.016  0.6670E-02  0.5613E+00
     14.144  0.1752E-03  0.5613E+00
     14.272  0.9150E-02  0.5625E+00
     14.400  0.9115E-02  0.5637E+00
     14.527  0.7979E-02  0.5647E+00
     14.655  0.9472E-04  0.5647E+00
     14.783  0.1468E-10  0.5647E+00
     14.911  0.0000E+00  0.5647E+00
     15.039  0.0000E+00  0.5647E+00
     15.166  0.0000E+00  0.5647E+00
     15.294  0.0000E+00  0.5647E+00
     15.422  0.0000E+00  0.5647E+00
     15.550  0.0000E+00  0.5647E+00
     15.678  0.0000E+00  0.5647E+00
     15.805  0.0000E+00  0.5647E+00
     15.933  0.0000E+00  0.5647E+00
     16.061  0.0000E+00  0.5647E+00
     16.189  0.0000E+00  0.5647E+00
