       N       E                     dE             d eps       ncg     rms          rms(c)
DAV:   1     0.214179280804E+03    0.21418E+03   -0.12774E+04   912   0.122E+03
DAV:   2     0.557893416806E+01   -0.20860E+03   -0.19563E+03   968   0.320E+02
DAV:   3    -0.131336142440E+02   -0.18713E+02   -0.18476E+02  1176   0.979E+01
DAV:   4    -0.135728227236E+02   -0.43921E+00   -0.43804E+00  1072   0.157E+01
DAV:   5    -0.135831639646E+02   -0.10341E-01   -0.10340E-01  1176   0.235E+00    0.764E+00
DAV:   6    -0.129086440305E+02    0.67452E+00   -0.18216E+00  1088   0.434E+01    0.638E+00
DAV:   7    -0.128665556589E+02    0.42088E-01   -0.69327E-01  1192   0.931E+00    0.364E+00
DAV:   8    -0.128670548403E+02   -0.49918E-03   -0.62395E-02  1112   0.193E+00    0.739E-01
DAV:   9    -0.128671011491E+02   -0.46309E-04   -0.81283E-03  1128   0.135E+00    0.142E-01
DAV:  10    -0.128671417301E+02   -0.40581E-04   -0.29356E-03  1136   0.267E-01    0.776E-02
DAV:  11    -0.128673310427E+02   -0.18931E-03   -0.59657E-04  1000   0.160E-01    0.589E-02
DAV:  12    -0.128674308968E+02   -0.99854E-04   -0.17062E-04  1016   0.872E-02    0.224E-02
DAV:  13    -0.128674418171E+02   -0.10920E-04   -0.29843E-05  1112   0.452E-02    0.153E-02
DAV:  14    -0.128674442975E+02   -0.24804E-05   -0.76275E-06  1008   0.166E-02    0.656E-03
DAV:  15    -0.128674452424E+02   -0.94495E-06   -0.18856E-06   896   0.875E-03
   1 F= -.12867445E+02 E0= -.12863813E+02  d E =-.726419E-02
 Found     8 degrees of freedom:
 Adding 6 more for cell shape distortion
       N       E                     dE             d eps       ncg     rms          rms(c)
DAV:   1    -0.131163009897E+02   -0.24886E+00   -0.62538E+00  2216   0.307E+01    0.391E+00
DAV:   2    -0.129166044421E+02    0.19970E+00   -0.86969E-01  2240   0.144E+01    0.187E+00
DAV:   3    -0.128718628611E+02    0.44742E-01   -0.59093E-02  2256   0.244E+00    0.846E-01
DAV:   4    -0.128606010462E+02    0.11262E-01   -0.13965E-02  2584   0.134E+00    0.397E-01
DAV:   5    -0.128598904145E+02    0.71063E-03   -0.61215E-03  2432   0.442E-01    0.166E-01
DAV:   6    -0.128596184905E+02    0.27192E-03   -0.52976E-03  2336   0.251E-01    0.601E-02
DAV:   7    -0.128595464809E+02    0.72010E-04   -0.71357E-04  2320   0.106E-01    0.301E-02
DAV:   8    -0.128595504928E+02   -0.40118E-05   -0.41719E-05  2216   0.394E-02    0.271E-02
DAV:   9    -0.128595514394E+02   -0.94666E-06   -0.17133E-06  1784   0.106E-02
   2 F= -.12859551E+02 E0= -.12857752E+02  d E =-.359858E-02
       N       E                     dE             d eps       ncg     rms          rms(c)
DAV:   1    -0.129260014835E+02   -0.66451E-01   -0.30331E+00  2200   0.167E+01    0.201E+00
DAV:   2    -0.128792479999E+02    0.46753E-01   -0.28674E-01  2272   0.911E+00    0.948E-01
DAV:   3    -0.128688642697E+02    0.10384E-01   -0.21652E-02  2360   0.204E+00    0.432E-01
DAV:   4    -0.128661716139E+02    0.26927E-02   -0.55407E-03  2480   0.798E-01    0.231E-01
DAV:   5    -0.128659264221E+02    0.24519E-03   -0.66616E-04  2520   0.256E-01    0.728E-02
DAV:   6    -0.128659146312E+02    0.11791E-04   -0.31600E-04  2392   0.167E-01    0.262E-02
DAV:   7    -0.128659091353E+02    0.54960E-05   -0.65173E-05  2384   0.393E-02    0.170E-02
DAV:   8    -0.128659085240E+02    0.61122E-06   -0.58678E-06  2176   0.378E-02
   3 F= -.12865909E+02 E0= -.12863023E+02  d E =-.577083E-02
       N       E                     dE             d eps       ncg     rms          rms(c)
DAV:   1    -0.131362340201E+02   -0.27032E+00   -0.52811E+00  2280   0.282E+01    0.414E+00
DAV:   2    -0.129243430231E+02    0.21189E+00   -0.92672E-01  2232   0.206E+01    0.197E+00
DAV:   3    -0.128795782535E+02    0.44765E-01   -0.84271E-02  2168   0.463E+00    0.909E-01
DAV:   4    -0.128678458721E+02    0.11732E-01   -0.27765E-02  2392   0.169E+00    0.542E-01
DAV:   5    -0.128668362981E+02    0.10096E-02   -0.26427E-03  2568   0.568E-01    0.241E-01
DAV:   6    -0.128666199507E+02    0.21635E-03   -0.21204E-03  2408   0.363E-01    0.600E-02
DAV:   7    -0.128665653673E+02    0.54583E-04   -0.58864E-04  2352   0.106E-01    0.364E-02
DAV:   8    -0.128665605072E+02    0.48601E-05   -0.50337E-05  2248   0.100E-01    0.173E-02
DAV:   9    -0.128665604296E+02    0.77594E-07   -0.82497E-06  2344   0.318E-02
   4 F= -.12866560E+02 E0= -.12864110E+02  d E =-.489987E-02
       N       E                     dE             d eps       ncg     rms          rms(c)
DAV:   1    -0.129228221323E+02   -0.56262E-01   -0.33846E+00  2224   0.176E+01    0.212E+00
DAV:   2    -0.128754389590E+02    0.47383E-01   -0.32392E-01  2288   0.101E+01    0.101E+00
DAV:   3    -0.128633691109E+02    0.12070E-01   -0.22641E-02  2344   0.221E+00    0.468E-01
DAV:   4    -0.128598602951E+02    0.35088E-02   -0.63622E-03  2528   0.899E-01    0.246E-01
DAV:   5    -0.128596056188E+02    0.25468E-03   -0.72770E-04  2488   0.280E-01    0.903E-02
DAV:   6    -0.128595720460E+02    0.33573E-04   -0.27519E-04  2384   0.186E-01    0.250E-02
DAV:   7    -0.128595701089E+02    0.19371E-05   -0.20625E-05  2264   0.823E-02    0.919E-03
DAV:   8    -0.128595701556E+02   -0.46752E-07   -0.55269E-06  2280   0.136E-02
   5 F= -.12859570E+02 E0= -.12857845E+02  d E =-.344932E-02
       N       E                     dE             d eps       ncg     rms          rms(c)
DAV:   1    -0.136961942451E+02   -0.83662E+00   -0.19816E+01  2256   0.625E+01    0.704E+00
DAV:   2    -0.130187361185E+02    0.67746E+00   -0.28699E+00  2216   0.257E+01    0.319E+00
DAV:   3    -0.128954550613E+02    0.12328E+00   -0.21318E-01  2232   0.362E+00    0.145E+00
DAV:   4    -0.128625633987E+02    0.32892E-01   -0.28569E-02  2608   0.196E+00    0.677E-01
DAV:   5    -0.128590054407E+02    0.35580E-02   -0.71795E-03  2280   0.717E-01    0.173E-01
DAV:   6    -0.128588535546E+02    0.15189E-03   -0.29199E-03  2464   0.263E-01    0.804E-02
DAV:   7    -0.128587423668E+02    0.11119E-03   -0.11481E-03  2368   0.126E-01    0.480E-02
DAV:   8    -0.128587496657E+02   -0.72990E-05   -0.54427E-05  2088   0.447E-02    0.420E-02
DAV:   9    -0.128587503652E+02   -0.69946E-06   -0.35792E-06  1720   0.968E-03
   6 F= -.12858750E+02 E0= -.12856600E+02  d E =-.430092E-02
       N       E                     dE             d eps       ncg     rms          rms(c)
DAV:   1    -0.129271214280E+02   -0.68372E-01   -0.30059E+00  2232   0.167E+01    0.202E+00
DAV:   2    -0.128795458330E+02    0.47576E-01   -0.28952E-01  2240   0.921E+00    0.945E-01
DAV:   3    -0.128689226845E+02    0.10623E-01   -0.22196E-02  2416   0.203E+00    0.432E-01
DAV:   4    -0.128661808993E+02    0.27418E-02   -0.54542E-03  2472   0.795E-01    0.232E-01
DAV:   5    -0.128659658640E+02    0.21504E-03   -0.11368E-03  2584   0.255E-01    0.914E-02
DAV:   6    -0.128659333379E+02    0.32526E-04   -0.10593E-03  2392   0.152E-01    0.304E-02
DAV:   7    -0.128659083752E+02    0.24963E-04   -0.23580E-04  2344   0.685E-02    0.165E-02
DAV:   8    -0.128659080141E+02    0.36111E-06   -0.15498E-05  2568   0.412E-02    0.137E-02
DAV:   9    -0.128659080261E+02   -0.12068E-07   -0.14877E-06  1416   0.124E-02
   7 F= -.12865908E+02 E0= -.12863063E+02  d E =-.568995E-02
       N       E                     dE             d eps       ncg     rms          rms(c)
DAV:   1    -0.131366341807E+02   -0.27073E+00   -0.52738E+00  2280   0.282E+01    0.415E+00
DAV:   2    -0.129243077913E+02    0.21233E+00   -0.92542E-01  2256   0.207E+01    0.197E+00
DAV:   3    -0.128794313759E+02    0.44876E-01   -0.83899E-02  2240   0.462E+00    0.909E-01
DAV:   4    -0.128677418717E+02    0.11690E-01   -0.27432E-02  2456   0.168E+00    0.543E-01
DAV:   5    -0.128666912700E+02    0.10506E-02   -0.29733E-03  2504   0.588E-01    0.231E-01
DAV:   6    -0.128665011934E+02    0.19008E-03   -0.26882E-03  2432   0.357E-01    0.613E-02
DAV:   7    -0.128664194551E+02    0.81738E-04   -0.84022E-04  2320   0.122E-01    0.355E-02
DAV:   8    -0.128664152861E+02    0.41690E-05   -0.64152E-05  2312   0.107E-01    0.224E-02
DAV:   9    -0.128664153863E+02   -0.10015E-06   -0.70894E-06  2328   0.267E-02
   8 F= -.12866415E+02 E0= -.12863781E+02  d E =-.526835E-02
       N       E                     dE             d eps       ncg     rms          rms(c)
DAV:   1    -0.129227362993E+02   -0.56321E-01   -0.33900E+00  2224   0.176E+01    0.214E+00
DAV:   2    -0.128747728363E+02    0.47963E-01   -0.33187E-01  2280   0.103E+01    0.102E+00
DAV:   3    -0.128629106480E+02    0.11862E-01   -0.23134E-02  2360   0.227E+00    0.471E-01
DAV:   4    -0.128594658319E+02    0.34448E-02   -0.63936E-03  2512   0.905E-01    0.245E-01
DAV:   5    -0.128592204205E+02    0.24541E-03   -0.99175E-04  2528   0.283E-01    0.101E-01
DAV:   6    -0.128591973635E+02    0.23057E-04   -0.10384E-03  2416   0.172E-01    0.380E-02
DAV:   7    -0.128591618875E+02    0.35476E-04   -0.33819E-04  2320   0.668E-02    0.172E-02
DAV:   8    -0.128591613466E+02    0.54092E-06   -0.17455E-05  2472   0.483E-02    0.140E-02
DAV:   9    -0.128591614567E+02   -0.11014E-06   -0.14974E-06  1688   0.107E-02
   9 F= -.12859161E+02 E0= -.12857193E+02  d E =-.393791E-02
       N       E                     dE             d eps       ncg     rms          rms(c)
DAV:   1    -0.137389458249E+02   -0.87978E+00   -0.16788E+01  1080   0.621E+01    0.708E+00
DAV:   2    -0.130119190474E+02    0.72703E+00   -0.26452E+00  1064   0.260E+01    0.315E+00
DAV:   3    -0.128841665656E+02    0.12775E+00   -0.20439E-01  1088   0.337E+00    0.146E+00
DAV:   4    -0.128503008630E+02    0.33866E-01   -0.26221E-02  1296   0.155E+00    0.677E-01
DAV:   5    -0.128473737556E+02    0.29271E-02   -0.15006E-02  1248   0.753E-01    0.197E-01
DAV:   6    -0.128467985022E+02    0.57525E-03   -0.86637E-03  1144   0.369E-01    0.643E-02
DAV:   7    -0.128468265235E+02   -0.28021E-04   -0.62149E-04  1008   0.153E-01    0.519E-02
DAV:   8    -0.128468498857E+02   -0.23362E-04   -0.53440E-05  1192   0.387E-02    0.418E-02
DAV:   9    -0.128469291392E+02   -0.79254E-04   -0.13872E-05  1072   0.385E-02    0.167E-02
DAV:  10    -0.128469065235E+02    0.22616E-04   -0.49463E-06  1032   0.300E-02    0.369E-03
DAV:  11    -0.128469105918E+02   -0.40683E-05   -0.22899E-07   568   0.545E-03    0.172E-03
DAV:  12    -0.128469129122E+02   -0.23205E-05   -0.73028E-08   496   0.277E-03    0.973E-04
DAV:  13    -0.128469135480E+02   -0.63580E-06   -0.37864E-08   480   0.296E-03
  10 F= -.12846914E+02 E0= -.12843855E+02  d E =-.611679E-02
       N       E                     dE             d eps       ncg     rms          rms(c)
DAV:   1    -0.129321226765E+02   -0.85210E-01   -0.14503E+00  1096   0.146E+01    0.204E+00
DAV:   2    -0.128776491604E+02    0.54474E-01   -0.24301E-01  1080   0.977E+00    0.943E-01
DAV:   3    -0.128666537090E+02    0.10995E-01   -0.19074E-02  1224   0.184E+00    0.451E-01
DAV:   4    -0.128635274540E+02    0.31263E-02   -0.46936E-03  1256   0.732E-01    0.237E-01
DAV:   5    -0.128633282182E+02    0.19924E-03   -0.13876E-03  1296   0.320E-01    0.619E-02
DAV:   6    -0.128632766438E+02    0.51574E-04   -0.91253E-04  1160   0.162E-01    0.286E-02
DAV:   7    -0.128632641727E+02    0.12471E-04   -0.73068E-05  1112   0.760E-02    0.142E-02
DAV:   8    -0.128632639007E+02    0.27204E-06   -0.10292E-05  1184   0.235E-02    0.984E-03
DAV:   9    -0.128632636468E+02    0.25388E-06   -0.93924E-07   664   0.720E-03
  11 F= -.12863264E+02 E0= -.12860033E+02  d E =-.646053E-02
       N       E                     dE             d eps       ncg     rms          rms(c)
DAV:   1    -0.131552061629E+02   -0.29194E+00   -0.59816E+00  1104   0.295E+01    0.432E+00
DAV:   2    -0.129216865362E+02    0.23352E+00   -0.11169E+00  1080   0.241E+01    0.199E+00
DAV:   3    -0.128748408515E+02    0.46846E-01   -0.10484E-01  1160   0.510E+00    0.966E-01
DAV:   4    -0.128606319993E+02    0.14209E-01   -0.33180E-02  1168   0.173E+00    0.541E-01
DAV:   5    -0.128598228350E+02    0.80916E-03   -0.72769E-03  1280   0.741E-01    0.218E-01
DAV:   6    -0.128595146086E+02    0.30823E-03   -0.65189E-03  1144   0.363E-01    0.910E-02
DAV:   7    -0.128593634666E+02    0.15114E-03   -0.10089E-03  1184   0.308E-01    0.382E-02
DAV:   8    -0.128593601551E+02    0.33114E-05   -0.92302E-05  1104   0.697E-02    0.256E-02
DAV:   9    -0.128593593256E+02    0.82954E-06   -0.66422E-06  1104   0.145E-02
  12 F= -.12859359E+02 E0= -.12855566E+02  d E =-.758614E-02
       N       E                     dE             d eps       ncg     rms          rms(c)
DAV:   1    -0.129161904853E+02   -0.56830E-01   -0.15717E+00  1096   0.156E+01    0.219E+00
DAV:   2    -0.128552483172E+02    0.60942E-01   -0.28633E-01  1104   0.112E+01    0.101E+00
DAV:   3    -0.128429898620E+02    0.12258E-01   -0.23107E-02  1176   0.234E+00    0.488E-01
DAV:   4    -0.128391907783E+02    0.37991E-02   -0.79963E-03  1264   0.896E-01    0.257E-01
DAV:   5    -0.128390470026E+02    0.14378E-03   -0.28756E-03  1272   0.263E-01    0.161E-01
DAV:   6    -0.128388977247E+02    0.14928E-03   -0.15399E-03  1200   0.205E-01    0.397E-02
DAV:   7    -0.128388702431E+02    0.27482E-04   -0.19923E-04  1152   0.173E-01    0.208E-02
DAV:   8    -0.128388689092E+02    0.13339E-05   -0.18326E-05  1192   0.393E-02    0.127E-02
DAV:   9    -0.128388681809E+02    0.72829E-06   -0.27056E-06   848   0.148E-02
  13 F= -.12838868E+02 E0= -.12835314E+02  d E =-.710767E-02
       N       E                     dE             d eps       ncg     rms          rms(c)
DAV:   1    -0.132158052781E+02   -0.37694E+00   -0.87381E+00  3600   0.350E+01    0.452E+00
DAV:   2    -0.129558570047E+02    0.25995E+00   -0.12068E+00  3656   0.174E+01    0.221E+00
DAV:   3    -0.128935095597E+02    0.62347E-01   -0.82280E-02  4072   0.289E+00    0.106E+00
DAV:   4    -0.128748353634E+02    0.18674E-01   -0.20004E-02  4144   0.158E+00    0.419E-01
DAV:   5    -0.128741386029E+02    0.69676E-03   -0.52122E-03  4072   0.589E-01    0.119E-01
DAV:   6    -0.128740882752E+02    0.50328E-04   -0.31759E-03  3896   0.303E-01    0.551E-02
DAV:   7    -0.128740187278E+02    0.69547E-04   -0.64251E-04  3880   0.100E-01    0.259E-02
DAV:   8    -0.128740222344E+02   -0.35066E-05   -0.41722E-05  4016   0.790E-02    0.194E-02
DAV:   9    -0.128740223398E+02   -0.10540E-06   -0.50402E-06  3744   0.232E-02
  14 F= -.12874022E+02 E0= -.12872405E+02  d E =-.323546E-02
       N       E                     dE             d eps       ncg     rms          rms(c)
DAV:   1    -0.128788437716E+02   -0.48215E-02   -0.22343E+00  3352   0.104E+01    0.876E-01
DAV:   2    -0.128741106541E+02    0.47331E-02   -0.64284E-02  3640   0.199E+00    0.503E-01
DAV:   3    -0.128697901114E+02    0.43205E-02   -0.47403E-03  4104   0.733E-01    0.120E-01
DAV:   4    -0.128697698003E+02    0.20311E-04   -0.14051E-03  3592   0.271E-01    0.555E-02
DAV:   5    -0.128697627600E+02    0.70402E-05   -0.14275E-04  3912   0.732E-02    0.323E-02
DAV:   6    -0.128697604101E+02    0.23500E-05   -0.67528E-05  3832   0.347E-02    0.142E-02
DAV:   7    -0.128697598372E+02    0.57287E-06   -0.16091E-05  3848   0.199E-02    0.480E-03
DAV:   8    -0.128697598892E+02   -0.51973E-07   -0.12598E-06  2192   0.115E-02
  15 F= -.12869760E+02 E0= -.12867063E+02  d E =-.539308E-02
       N       E                     dE             d eps       ncg     rms          rms(c)
DAV:   1    -0.129177237149E+02   -0.47964E-01   -0.13336E+00  3376   0.787E+00    0.170E+00
DAV:   2    -0.128866473731E+02    0.31076E-01   -0.59746E-02  3616   0.251E+00    0.987E-01
DAV:   3    -0.128699598011E+02    0.16688E-01   -0.12512E-02  4200   0.122E+00    0.230E-01
DAV:   4    -0.128697847923E+02    0.17501E-03   -0.34825E-03  3384   0.425E-01    0.843E-02
DAV:   5    -0.128697565137E+02    0.28279E-04   -0.23802E-04  3880   0.110E-01    0.305E-02
DAV:   6    -0.128697597543E+02   -0.32406E-05   -0.39368E-05  3720   0.377E-02    0.127E-02
DAV:   7    -0.128697597665E+02   -0.12220E-07   -0.62302E-06  3432   0.131E-02
  16 F= -.12869760E+02 E0= -.12867060E+02  d E =-.539992E-02
       N       E                     dE             d eps       ncg     rms          rms(c)
DAV:   1    -0.128816018266E+02   -0.11842E-01   -0.24793E+00  3376   0.104E+01    0.895E-01
DAV:   2    -0.128788382367E+02    0.27636E-02   -0.68512E-02  3640   0.203E+00    0.511E-01
DAV:   3    -0.128742972055E+02    0.45410E-02   -0.34365E-03  4328   0.663E-01    0.164E-01
DAV:   4    -0.128740272650E+02    0.26994E-03   -0.11342E-03  3728   0.265E-01    0.451E-02
DAV:   5    -0.128740260960E+02    0.11690E-05   -0.20980E-04  3816   0.104E-01    0.239E-02
DAV:   6    -0.128740226752E+02    0.34208E-05   -0.60041E-05  3856   0.309E-02    0.103E-02
DAV:   7    -0.128740228408E+02   -0.16559E-06   -0.81248E-06  3632   0.145E-02
  17 F= -.12874023E+02 E0= -.12872405E+02  d E =-.323613E-02
       N       E                     dE             d eps       ncg     rms          rms(c)
DAV:   1    -0.129774219973E+02   -0.10340E+00   -0.48384E+00  2184   0.155E+01    0.240E+00
DAV:   2    -0.129111777173E+02    0.66244E-01   -0.19372E-01  2280   0.417E+00    0.143E+00
DAV:   3    -0.128644493769E+02    0.46728E-01   -0.45906E-02  2528   0.221E+00    0.221E-01
DAV:   4    -0.128647273595E+02   -0.27798E-03   -0.12788E-02  2216   0.804E-01    0.139E-01
DAV:   5    -0.128645627399E+02    0.16462E-03   -0.17514E-03  2416   0.191E-01    0.842E-02
DAV:   6    -0.128644250359E+02    0.13770E-03   -0.47003E-04  2360   0.119E-01    0.213E-02
DAV:   7    -0.128644187992E+02    0.62367E-05   -0.82299E-05  2344   0.544E-02    0.184E-02
DAV:   8    -0.128644151058E+02    0.36934E-05   -0.69638E-06  2400   0.148E-02    0.118E-02
DAV:   9    -0.128644084518E+02    0.66541E-05   -0.33179E-06  1904   0.949E-03    0.176E-03
DAV:  10    -0.128644076528E+02    0.79900E-06   -0.74254E-07  1264   0.547E-03
  18 F= -.12864408E+02 E0= -.12861108E+02  d E =-.659917E-02
       N       E                     dE             d eps       ncg     rms          rms(c)
DAV:   1    -0.128799860493E+02   -0.15578E-01   -0.21585E+00  2232   0.103E+01    0.910E-01
DAV:   2    -0.128724144861E+02    0.75716E-02   -0.68433E-02  2256   0.214E+00    0.518E-01
DAV:   3    -0.128666561107E+02    0.57584E-02   -0.80049E-03  2680   0.885E-01    0.109E-01
DAV:   4    -0.128667326048E+02   -0.76494E-04   -0.24222E-03  2280   0.347E-01    0.657E-02
DAV:   5    -0.128667044563E+02    0.28148E-04   -0.35314E-04  2400   0.828E-02    0.374E-02
DAV:   6    -0.128667003686E+02    0.40877E-05   -0.45559E-05  2296   0.417E-02    0.155E-02
DAV:   7    -0.128667006962E+02   -0.32767E-06   -0.72537E-06  2384   0.198E-02
  19 F= -.12866701E+02 E0= -.12863158E+02  d E =-.708605E-02
       N       E                     dE             d eps       ncg     rms          rms(c)
DAV:   1    -0.129372142370E+02   -0.70514E-01   -0.16093E+00  2184   0.850E+00    0.182E+00
DAV:   2    -0.128915341370E+02    0.45680E-01   -0.79246E-02  2176   0.294E+00    0.105E+00
DAV:   3    -0.128665535812E+02    0.24981E-01   -0.29606E-02  2464   0.165E+00    0.212E-01
DAV:   4    -0.128668370272E+02   -0.28345E-03   -0.84987E-03  2272   0.620E-01    0.126E-01
DAV:   5    -0.128667293457E+02    0.10768E-03   -0.14003E-03  2400   0.159E-01    0.719E-02
DAV:   6    -0.128666982094E+02    0.31136E-04   -0.19037E-04  2336   0.104E-01    0.205E-02
DAV:   7    -0.128667004027E+02   -0.21934E-05   -0.32248E-05  2344   0.425E-02    0.115E-02
DAV:   8    -0.128667004894E+02   -0.86613E-07   -0.20084E-06  1648   0.101E-02
  20 F= -.12866700E+02 E0= -.12863149E+02  d E =-.710371E-02
       N       E                     dE             d eps       ncg     rms          rms(c)
DAV:   1    -0.128759998386E+02   -0.92994E-02   -0.24493E+00  2224   0.101E+01    0.929E-01
DAV:   2    -0.128706633938E+02    0.53364E-02   -0.72376E-02  2208   0.211E+00    0.531E-01
DAV:   3    -0.128645329066E+02    0.61305E-02   -0.61656E-03  2560   0.775E-01    0.152E-01
DAV:   4    -0.128643995762E+02    0.13333E-03   -0.31103E-03  2360   0.338E-01    0.744E-02
DAV:   5    -0.128643485055E+02    0.51071E-04   -0.84763E-04  2336   0.138E-01    0.370E-02
DAV:   6    -0.128643408159E+02    0.76896E-05   -0.45446E-05  2216   0.549E-02    0.133E-02
DAV:   7    -0.128643412975E+02   -0.48153E-06   -0.82117E-06  2416   0.194E-02
  21 F= -.12864341E+02 E0= -.12860980E+02  d E =-.672247E-02
       N       E                     dE             d eps       ncg     rms          rms(c)
DAV:   1    -0.130011954719E+02   -0.13685E+00   -0.48514E+00  3832   0.149E+01    0.257E+00
DAV:   2    -0.129135616125E+02    0.87634E-01   -0.20168E-01  3512   0.398E+00    0.148E+00
DAV:   3    -0.128641392272E+02    0.49422E-01   -0.60025E-02  3920   0.225E+00    0.307E-01
DAV:   4    -0.128646130483E+02   -0.47382E-03   -0.15906E-02  3600   0.891E-01    0.176E-01
DAV:   5    -0.128644471406E+02    0.16591E-03   -0.28231E-03  3896   0.231E-01    0.106E-01
DAV:   6    -0.128643730548E+02    0.74086E-04   -0.53669E-04  3824   0.138E-01    0.352E-02
DAV:   7    -0.128643761517E+02   -0.30970E-05   -0.91868E-05  3776   0.633E-02    0.184E-02
DAV:   8    -0.128643765222E+02   -0.37044E-06   -0.75561E-06  3848   0.208E-02
  22 F= -.12864377E+02 E0= -.12861031E+02  d E =-.669059E-02
       N       E                     dE             d eps       ncg     rms          rms(c)
DAV:   1    -0.128798827413E+02   -0.15507E-01   -0.22744E+00  3592   0.108E+01    0.912E-01
DAV:   2    -0.128723557881E+02    0.75270E-02   -0.69365E-02  3440   0.219E+00    0.517E-01
DAV:   3    -0.128666645785E+02    0.56912E-02   -0.80281E-03  4360   0.890E-01    0.110E-01
DAV:   4    -0.128667404874E+02   -0.75909E-04   -0.23916E-03  3680   0.346E-01    0.645E-02
DAV:   5    -0.128667151373E+02    0.25350E-04   -0.33099E-04  3880   0.796E-02    0.374E-02
DAV:   6    -0.128667114204E+02    0.37169E-05   -0.45406E-05  3800   0.405E-02    0.156E-02
DAV:   7    -0.128667116878E+02   -0.26745E-06   -0.76274E-06  3760   0.195E-02
  23 F= -.12866712E+02 E0= -.12863165E+02  d E =-.709348E-02
       N       E                     dE             d eps       ncg     rms          rms(c)
DAV:   1    -0.129381549646E+02   -0.71444E-01   -0.15545E+00  3568   0.836E+00    0.182E+00
DAV:   2    -0.128913679071E+02    0.46787E-01   -0.78151E-02  3592   0.287E+00    0.105E+00
DAV:   3    -0.128666289923E+02    0.24739E-01   -0.29646E-02  4048   0.166E+00    0.218E-01
DAV:   4    -0.128668577729E+02   -0.22878E-03   -0.83783E-03  3664   0.595E-01    0.125E-01
DAV:   5    -0.128667371299E+02    0.12064E-03   -0.14880E-03  3880   0.157E-01    0.692E-02
DAV:   6    -0.128667092577E+02    0.27872E-04   -0.18458E-04  3768   0.103E-01    0.192E-02
DAV:   7    -0.128667116461E+02   -0.23884E-05   -0.30482E-05  3776   0.395E-02    0.104E-02
DAV:   8    -0.128667116587E+02   -0.12590E-07   -0.18094E-06  2584   0.846E-03
  24 F= -.12866712E+02 E0= -.12863165E+02  d E =-.709317E-02
       N       E                     dE             d eps       ncg     rms          rms(c)
DAV:   1    -0.128759829102E+02   -0.92713E-02   -0.25702E+00  3560   0.105E+01    0.922E-01
DAV:   2    -0.128706785413E+02    0.53044E-02   -0.74247E-02  3552   0.216E+00    0.531E-01
DAV:   3    -0.128645629867E+02    0.61156E-02   -0.63392E-03  4208   0.789E-01    0.152E-01
DAV:   4    -0.128644335310E+02    0.12946E-03   -0.30613E-03  3792   0.336E-01    0.737E-02
DAV:   5    -0.128643842418E+02    0.49289E-04   -0.82037E-04  3824   0.133E-01    0.371E-02
DAV:   6    -0.128643761271E+02    0.81147E-05   -0.47664E-05  3576   0.543E-02    0.128E-02
DAV:   7    -0.128643766915E+02   -0.56442E-06   -0.81468E-06  3960   0.184E-02
  25 F= -.12864377E+02 E0= -.12861031E+02  d E =-.669131E-02
       N       E                     dE             d eps       ncg     rms          rms(c)
DAV:   1    -0.129293569555E+02   -0.64981E-01   -0.56768E+00  3616   0.146E+01    0.182E+00
DAV:   2    -0.128905185950E+02    0.38838E-01   -0.16898E-01  3520   0.366E+00    0.104E+00
DAV:   3    -0.128668053910E+02    0.23713E-01   -0.34420E-02  4136   0.175E+00    0.211E-01
DAV:   4    -0.128670101343E+02   -0.20474E-03   -0.69456E-03  3496   0.620E-01    0.107E-01
DAV:   5    -0.128669896368E+02    0.20498E-04   -0.51614E-04  4000   0.127E-01    0.561E-02
DAV:   6    -0.128669679242E+02    0.21713E-04   -0.28028E-04  3848   0.733E-02    0.198E-02
DAV:   7    -0.128669684537E+02   -0.52958E-06   -0.40866E-05  3784   0.365E-02    0.121E-02
DAV:   8    -0.128669685688E+02   -0.11508E-06   -0.36388E-06  3520   0.154E-02
  26 F= -.12866969E+02 E0= -.12863338E+02  d E =-.726107E-02
       N       E                     dE             d eps       ncg     rms          rms(c)
DAV:   1    -0.128619485137E+02    0.50199E-02   -0.39775E+00  3136   0.672E+00    0.237E-02
DAV:   2    -0.128672142050E+02   -0.52657E-02   -0.52438E-02  3592   0.869E-01    0.108E-02
DAV:   3    -0.128673275751E+02   -0.11337E-03   -0.11416E-03  3832   0.121E-01    0.856E-03
DAV:   4    -0.128673306035E+02   -0.30284E-05   -0.40527E-05  3312   0.268E-02    0.505E-03
DAV:   5    -0.128673305537E+02    0.49720E-07   -0.32645E-06  3368   0.112E-02
  27 F= -.12867331E+02 E0= -.12863699E+02  d E =-.726395E-02
       N       E                     dE             d eps       ncg     rms          rms(c)
DAV:   1    -0.128647110905E+02    0.26195E-02   -0.19048E+00  3184   0.453E+00    0.489E-02
DAV:   2    -0.128672647531E+02   -0.25537E-02   -0.24986E-02  3648   0.584E-01    0.137E-02
DAV:   3    -0.128673272657E+02   -0.62513E-04   -0.59051E-04  3784   0.865E-02    0.902E-03
DAV:   4    -0.128673300375E+02   -0.27718E-05   -0.22016E-05  3288   0.201E-02    0.446E-03
DAV:   5    -0.128673304237E+02   -0.38626E-06   -0.12399E-06  2776   0.637E-03
  28 F= -.12867330E+02 E0= -.12863699E+02  d E =-.726382E-02
       N       E                     dE             d eps       ncg     rms          rms(c)
DAV:   1    -0.128616716725E+02    0.56584E-02   -0.39796E+00  3136   0.671E+00    0.516E-02
DAV:   2    -0.128668492193E+02   -0.51775E-02   -0.51838E-02  3640   0.857E-01    0.124E-02
DAV:   3    -0.128669652889E+02   -0.11607E-03   -0.11460E-03  3720   0.122E-01    0.140E-02
DAV:   4    -0.128669686673E+02   -0.33784E-05   -0.40156E-05  3312   0.244E-02    0.108E-02
DAV:   5    -0.128669687236E+02   -0.56328E-07   -0.41659E-06  3056   0.164E-02
  29 F= -.12866969E+02 E0= -.12863338E+02  d E =-.726095E-02
       N       E                     dE             d eps       ncg     rms          rms(c)
DAV:   1    -0.128560596704E+02    0.10909E-01   -0.69752E+00   960   0.987E+00    0.154E-01
DAV:   2    -0.128664091578E+02   -0.10349E-01   -0.11556E-01  1136   0.151E+00    0.129E-01
DAV:   3    -0.128661007303E+02    0.30843E-03   -0.73850E-03  1192   0.399E-01    0.396E-02
DAV:   4    -0.128661422646E+02   -0.41534E-04   -0.29041E-04  1072   0.116E-01    0.148E-02
DAV:   5    -0.128661509479E+02   -0.86833E-05   -0.12987E-05  1296   0.220E-02    0.900E-03
DAV:   6    -0.128661625508E+02   -0.11603E-04   -0.39076E-06  1104   0.151E-02    0.594E-03
DAV:   7    -0.128661704050E+02   -0.78542E-05   -0.99005E-07   792   0.805E-03    0.340E-03
DAV:   8    -0.128661713786E+02   -0.97360E-06   -0.39313E-07   568   0.670E-03
  30 F= -.12866171E+02 E0= -.12862531E+02  d E =-.728110E-02
       N       E                     dE             d eps       ncg     rms          rms(c)
DAV:   1    -0.128659775401E+02    0.19286E-03   -0.86451E-01   960   0.340E+00    0.739E-02
DAV:   2    -0.128671946548E+02   -0.12171E-02   -0.15200E-02  1144   0.536E-01    0.659E-02
DAV:   3    -0.128670853717E+02    0.10928E-03   -0.14572E-03  1160   0.156E-01    0.206E-02
DAV:   4    -0.128670907897E+02   -0.54179E-05   -0.57168E-05  1016   0.493E-02    0.635E-03
DAV:   5    -0.128670908675E+02   -0.77891E-07   -0.20183E-06   968   0.839E-03
  31 F= -.12867091E+02 E0= -.12863455E+02  d E =-.727100E-02
       N       E                     dE             d eps       ncg     rms          rms(c)
DAV:   1    -0.128624704568E+02    0.46203E-02   -0.34743E+00   968   0.691E+00    0.149E-01
DAV:   2    -0.128676341897E+02   -0.51637E-02   -0.64202E-02  1136   0.109E+00    0.132E-01
DAV:   3    -0.128672054174E+02    0.42877E-03   -0.59734E-03  1152   0.325E-01    0.423E-02
DAV:   4    -0.128672274658E+02   -0.22048E-04   -0.23493E-04  1016   0.100E-01    0.136E-02
DAV:   5    -0.128672278056E+02   -0.33981E-06   -0.86120E-06  1184   0.181E-02
  32 F= -.12867228E+02 E0= -.12863596E+02  d E =-.726264E-02
       N       E                     dE             d eps       ncg     rms          rms(c)
DAV:   1    -0.128653140132E+02    0.19135E-02   -0.86463E-01   976   0.340E+00    0.747E-02
DAV:   2    -0.128665250037E+02   -0.12110E-02   -0.15151E-02  1120   0.534E-01    0.662E-02
DAV:   3    -0.128664174409E+02    0.10756E-03   -0.14369E-03  1160   0.155E-01    0.230E-02
DAV:   4    -0.128664233460E+02   -0.59051E-05   -0.57630E-05  1024   0.495E-02    0.675E-03
DAV:   5    -0.128664235739E+02   -0.22796E-06   -0.22520E-06   976   0.851E-03
  33 F= -.12866424E+02 E0= -.12862791E+02  d E =-.726591E-02
       N       E                     dE             d eps       ncg     rms          rms(c)
DAV:   1    -0.128583988457E+02    0.80245E-02   -0.79517E+00  3368   0.161E+01    0.261E-01
DAV:   2    -0.128662799476E+02   -0.78811E-02   -0.90575E-02  3744   0.179E+00    0.132E-01
DAV:   3    -0.128659688306E+02    0.31112E-03   -0.76894E-03  3816   0.417E-01    0.585E-02
DAV:   4    -0.128659928269E+02   -0.23996E-04   -0.36370E-04  3528   0.128E-01    0.325E-02
DAV:   5    -0.128659935624E+02   -0.73548E-06   -0.29710E-05  4312   0.346E-02    0.205E-02
DAV:   6    -0.128659946948E+02   -0.11324E-05   -0.93930E-06  4312   0.240E-02    0.669E-03
DAV:   7    -0.128659948262E+02   -0.13137E-06   -0.93520E-07  2032   0.742E-03
  34 F= -.12865995E+02 E0= -.12862373E+02  d E =-.724421E-02
       N       E                     dE             d eps       ncg     rms          rms(c)
DAV:   1    -0.128650684122E+02    0.92628E-03   -0.51718E+00  3096   0.106E+01    0.539E-02
DAV:   2    -0.128670706880E+02   -0.20023E-02   -0.19649E-02  3680   0.827E-01    0.453E-02
DAV:   3    -0.128670928301E+02   -0.22142E-04   -0.23409E-04  3520   0.105E-01    0.337E-02
DAV:   4    -0.128670940860E+02   -0.12559E-05   -0.11284E-05  3816   0.232E-02    0.157E-02
DAV:   5    -0.128670940148E+02    0.71165E-07   -0.29169E-06  3568   0.192E-02
  35 F= -.12867094E+02 E0= -.12863465E+02  d E =-.725881E-02
       N       E                     dE             d eps       ncg     rms          rms(c)
DAV:   1    -0.128660216163E+02    0.10725E-02   -0.24672E+00  3120   0.710E+00    0.142E-01
DAV:   2    -0.128670719328E+02   -0.10503E-02   -0.88765E-03  3608   0.536E-01    0.542E-02
DAV:   3    -0.128670907605E+02   -0.18828E-04   -0.11845E-04  3568   0.852E-02    0.253E-02
DAV:   4    -0.128670936086E+02   -0.28481E-05   -0.12456E-05  3824   0.431E-02    0.548E-03
DAV:   5    -0.128670938420E+02   -0.23343E-06   -0.16293E-06  2880   0.164E-02
  36 F= -.12867094E+02 E0= -.12863464E+02  d E =-.725943E-02
       N       E                     dE             d eps       ncg     rms          rms(c)
DAV:   1    -0.128640093614E+02    0.30842E-02   -0.51746E+00  3104   0.106E+01    0.130E-01
DAV:   2    -0.128659710096E+02   -0.19616E-02   -0.19243E-02  3632   0.803E-01    0.310E-02
DAV:   3    -0.128659935386E+02   -0.22529E-04   -0.23531E-04  3608   0.108E-01    0.211E-02
DAV:   4    -0.128659946836E+02   -0.11450E-05   -0.12544E-05  3808   0.325E-02    0.110E-02
DAV:   5    -0.128659948431E+02   -0.15953E-06   -0.24548E-06  3168   0.186E-02
  37 F= -.12865995E+02 E0= -.12862373E+02  d E =-.724369E-02
       N       E                     dE             d eps       ncg     rms          rms(c)
DAV:   1    -0.128616919833E+02    0.43027E-02   -0.90191E+00   928   0.149E+01    0.357E-01
DAV:   2    -0.128660750739E+02   -0.43831E-02   -0.38491E-02  1072   0.126E+00    0.968E-02
DAV:   3    -0.128660892401E+02   -0.14166E-04   -0.17678E-03  1168   0.286E-01    0.759E-02
DAV:   4    -0.128660650858E+02    0.24154E-04   -0.38534E-04  1088   0.793E-02    0.351E-02
DAV:   5    -0.128660548948E+02    0.10191E-04   -0.10250E-04  1184   0.558E-02    0.197E-02
DAV:   6    -0.128660536532E+02    0.12416E-05   -0.54199E-06  1104   0.222E-02    0.750E-03
DAV:   7    -0.128660533105E+02    0.34274E-06   -0.10967E-06   720   0.107E-02
  38 F= -.12866053E+02 E0= -.12862416E+02  d E =-.727411E-02
       N       E                     dE             d eps       ncg     rms          rms(c)
DAV:   1    -0.128665622048E+02   -0.50855E-03   -0.11191E+00   928   0.517E+00    0.171E-01
DAV:   2    -0.128671568065E+02   -0.59460E-03   -0.47092E-03  1104   0.419E-01    0.322E-02
DAV:   3    -0.128671573199E+02   -0.51335E-06   -0.40510E-04  1192   0.104E-01    0.321E-02
DAV:   4    -0.128671508225E+02    0.64974E-05   -0.80996E-05  1112   0.349E-02    0.129E-02
DAV:   5    -0.128671510839E+02   -0.26140E-06   -0.19217E-05  1112   0.248E-02    0.906E-03
DAV:   6    -0.128671511927E+02   -0.10874E-06   -0.78962E-07   568   0.101E-02
  39 F= -.12867151E+02 E0= -.12863520E+02  d E =-.726237E-02
       N       E                     dE             d eps       ncg     rms          rms(c)
DAV:   1    -0.128643870924E+02    0.27640E-02   -0.44960E+00   920   0.104E+01    0.348E-01
DAV:   2    -0.128669067075E+02   -0.25196E-02   -0.20353E-02  1104   0.886E-01    0.657E-02
DAV:   3    -0.128669090172E+02   -0.23097E-05   -0.16342E-03  1192   0.231E-01    0.618E-02
DAV:   4    -0.128668845025E+02    0.24515E-04   -0.33292E-04  1096   0.712E-02    0.255E-02
DAV:   5    -0.128668853490E+02   -0.84654E-06   -0.76134E-05  1128   0.525E-02    0.177E-02
DAV:   6    -0.128668861674E+02   -0.81837E-06   -0.41203E-06  1072   0.214E-02
  40 F= -.12866886E+02 E0= -.12863246E+02  d E =-.727982E-02
       N       E                     dE             d eps       ncg     rms          rms(c)
DAV:   1    -0.128649066059E+02    0.19787E-02   -0.11190E+00   920   0.517E+00    0.170E-01
DAV:   2    -0.128655123584E+02   -0.60575E-03   -0.46798E-03  1104   0.409E-01    0.314E-02
DAV:   3    -0.128655136501E+02   -0.12917E-05   -0.44246E-04  1192   0.933E-02    0.324E-02
DAV:   4    -0.128655060111E+02    0.76390E-05   -0.89743E-05  1104   0.349E-02    0.131E-02
DAV:   5    -0.128655068244E+02   -0.81328E-06   -0.20184E-05  1096   0.245E-02    0.826E-03
DAV:   6    -0.128655068951E+02   -0.70756E-07   -0.76159E-07   568   0.901E-03
  41 F= -.12865507E+02 E0= -.12861853E+02  d E =-.730753E-02
       N       E                     dE             d eps       ncg     rms          rms(c)
DAV:   1    -0.128595568246E+02    0.59500E-02   -0.52356E+00  3072   0.117E+01    0.457E-01
DAV:   2    -0.128668004127E+02   -0.72436E-02   -0.68677E-02  3632   0.159E+00    0.142E-01
DAV:   3    -0.128667077357E+02    0.92677E-04   -0.21013E-03  3824   0.276E-01    0.119E-01
DAV:   4    -0.128666567955E+02    0.50940E-04   -0.38274E-04  3672   0.854E-02    0.781E-02
DAV:   5    -0.128666324767E+02    0.24319E-04   -0.30399E-04  3800   0.788E-02    0.229E-02
DAV:   6    -0.128666316012E+02    0.87546E-06   -0.37862E-05  3488   0.373E-02    0.143E-02
DAV:   7    -0.128666307942E+02    0.80703E-06   -0.62193E-06  3784   0.122E-02
  42 F= -.12866631E+02 E0= -.12863047E+02  d E =-.716830E-02
       N       E                     dE             d eps       ncg     rms          rms(c)
DAV:   1    -0.128634481437E+02    0.31835E-02   -0.84463E-01  3024   0.334E+00    0.125E-01
DAV:   2    -0.128671429664E+02   -0.36948E-02   -0.38437E-02  3568   0.104E+00    0.663E-02
DAV:   3    -0.128672216212E+02   -0.78655E-04   -0.86877E-04  3688   0.166E-01    0.613E-02
DAV:   4    -0.128672224590E+02   -0.83781E-06   -0.57742E-05  3856   0.404E-02    0.394E-02
DAV:   5    -0.128672199523E+02    0.25067E-05   -0.25814E-05  3680   0.238E-02    0.717E-03
DAV:   6    -0.128672197495E+02    0.20283E-06   -0.38077E-06  3544   0.133E-02
  43 F= -.12867220E+02 E0= -.12863600E+02  d E =-.723865E-02
       N       E                     dE             d eps       ncg     rms          rms(c)
DAV:   1    -0.128655962758E+02    0.16237E-02   -0.40825E-01  3064   0.229E+00    0.219E-01
DAV:   2    -0.128672727293E+02   -0.16765E-02   -0.17928E-02  3536   0.724E-01    0.721E-02
DAV:   3    -0.128672316877E+02    0.41042E-04   -0.35739E-04  3728   0.118E-01    0.432E-02
DAV:   4    -0.128672182576E+02    0.13430E-04   -0.10412E-04  3768   0.571E-02    0.135E-02
DAV:   5    -0.128672195214E+02   -0.12638E-05   -0.29186E-05  3720   0.297E-02    0.124E-02
DAV:   6    -0.128672191075E+02    0.41391E-06   -0.22120E-06  3088   0.950E-03
  44 F= -.12867219E+02 E0= -.12863600E+02  d E =-.723842E-02
       N       E                     dE             d eps       ncg     rms          rms(c)
DAV:   1    -0.128627207452E+02    0.44988E-02   -0.86394E-01  3024   0.338E+00    0.273E-01
DAV:   2    -0.128666516190E+02   -0.39309E-02   -0.40146E-02  3552   0.106E+00    0.913E-02
DAV:   3    -0.128666636152E+02   -0.11996E-04   -0.73201E-04  3648   0.162E-01    0.667E-02
DAV:   4    -0.128666291560E+02    0.34459E-04   -0.11835E-04  3840   0.578E-02    0.225E-02
DAV:   5    -0.128666312942E+02   -0.21381E-05   -0.36601E-05  3696   0.287E-02    0.889E-03
DAV:   6    -0.128666311138E+02    0.18035E-06   -0.10405E-06  2424   0.591E-03
  45 F= -.12866631E+02 E0= -.12863047E+02  d E =-.716868E-02
       N       E                     dE             d eps       ncg     rms          rms(c)
DAV:   1    -0.128563202746E+02    0.10311E-01   -0.14901E+00   912   0.484E+00    0.487E-01
DAV:   2    -0.128638019296E+02   -0.74817E-02   -0.78192E-02  1112   0.161E+00    0.132E-01
DAV:   3    -0.128639062529E+02   -0.10432E-03   -0.19814E-03  1120   0.266E-01    0.911E-02
DAV:   4    -0.128639482009E+02   -0.41948E-04   -0.60932E-04  1168   0.103E-01    0.588E-02
DAV:   5    -0.128640063611E+02   -0.58160E-04   -0.29063E-04  1104   0.667E-02    0.165E-02
DAV:   6    -0.128640359759E+02   -0.29615E-04   -0.39630E-05  1104   0.439E-02    0.125E-02
DAV:   7    -0.128640487626E+02   -0.12787E-04   -0.44045E-06  1096   0.152E-02    0.785E-03
DAV:   8    -0.128640601655E+02   -0.11403E-04   -0.85537E-07   616   0.601E-03    0.233E-03
DAV:   9    -0.128640641197E+02   -0.39542E-05   -0.39679E-07   600   0.488E-03    0.938E-04
DAV:  10    -0.128640648696E+02   -0.74990E-06   -0.15399E-07   552   0.289E-03
  46 F= -.12864065E+02 E0= -.12860136E+02  d E =-.785776E-02
       N       E                     dE             d eps       ncg     rms          rms(c)
DAV:   1    -0.128653889310E+02   -0.13248E-02   -0.18964E-01   912   0.174E+00    0.184E-01
DAV:   2    -0.128663336614E+02   -0.94473E-03   -0.10772E-02  1112   0.619E-01    0.688E-02
DAV:   3    -0.128663228400E+02    0.10821E-04   -0.25809E-04  1040   0.117E-01    0.430E-02
DAV:   4    -0.128663114209E+02    0.11419E-04   -0.35358E-05  1168   0.617E-02    0.192E-02
DAV:   5    -0.128663114523E+02   -0.31385E-07   -0.13410E-05  1184   0.289E-02    0.105E-02
DAV:   6    -0.128663112501E+02    0.20218E-06   -0.19881E-06   600   0.747E-03
  47 F= -.12866311E+02 E0= -.12862505E+02  d E =-.761206E-02
       N       E                     dE             d eps       ncg     rms          rms(c)
DAV:   1    -0.128636772177E+02    0.26342E-02   -0.75933E-01   912   0.347E+00    0.352E-01
DAV:   2    -0.128674463941E+02   -0.37692E-02   -0.42860E-02  1112   0.123E+00    0.139E-01
DAV:   3    -0.128674067807E+02    0.39613E-04   -0.97323E-04  1040   0.216E-01    0.887E-02
DAV:   4    -0.128673623793E+02    0.44401E-04   -0.14153E-04  1128   0.120E-01    0.371E-02
DAV:   5    -0.128673643109E+02   -0.19316E-05   -0.46918E-05  1064   0.542E-02    0.175E-02
DAV:   6    -0.128673634193E+02    0.89166E-06   -0.65409E-06  1176   0.150E-02
  48 F= -.12867363E+02 E0= -.12863927E+02  d E =-.687354E-02
       N       E                     dE             d eps       ncg     rms          rms(c)
DAV:   1    -0.128651685599E+02    0.21958E-02   -0.18982E-01   912   0.173E+00    0.186E-01
DAV:   2    -0.128661138173E+02   -0.94526E-03   -0.10737E-02  1104   0.609E-01    0.666E-02
DAV:   3    -0.128661042165E+02    0.96008E-05   -0.25727E-04  1048   0.100E-01    0.425E-02
DAV:   4    -0.128660953260E+02    0.88905E-05   -0.68351E-05  1168   0.505E-02    0.235E-02
DAV:   5    -0.128660926904E+02    0.26356E-05   -0.37433E-05  1096   0.228E-02    0.724E-03
DAV:   6    -0.128660925725E+02    0.11787E-06   -0.45970E-06   960   0.141E-02
  49 F= -.12866093E+02 E0= -.12862849E+02  d E =-.648677E-02
       N       E                     dE             d eps       ncg     rms          rms(c)
DAV:   1    -0.128577921286E+02    0.83006E-02   -0.14899E+00  3024   0.489E+00    0.537E-01
DAV:   2    -0.128669953888E+02   -0.92033E-02   -0.99919E-02  3752   0.174E+00    0.158E-01
DAV:   3    -0.128668376126E+02    0.15778E-03   -0.18543E-03  3560   0.274E-01    0.104E-01
DAV:   4    -0.128667386890E+02    0.98924E-04   -0.53759E-04  4528   0.137E-01    0.549E-02
DAV:   5    -0.128667291622E+02    0.95268E-05   -0.28895E-04  3712   0.657E-02    0.199E-02
DAV:   6    -0.128667305103E+02   -0.13481E-05   -0.31981E-05  3664   0.390E-02    0.159E-02
DAV:   7    -0.128667309130E+02   -0.40278E-06   -0.22972E-06  2984   0.136E-02
  50 F= -.12866731E+02 E0= -.12863139E+02  d E =-.718453E-02
       N       E                     dE             d eps       ncg     rms          rms(c)
DAV:   1    -0.128635829201E+02    0.31476E-02   -0.84763E-01  3024   0.333E+00    0.135E-01
DAV:   2    -0.128671879979E+02   -0.36051E-02   -0.37489E-02  3576   0.103E+00    0.673E-02
DAV:   3    -0.128672621083E+02   -0.74110E-04   -0.80668E-04  3712   0.159E-01    0.597E-02
DAV:   4    -0.128672630726E+02   -0.96437E-06   -0.56222E-05  3848   0.376E-02    0.339E-02
DAV:   5    -0.128672608230E+02    0.22496E-05   -0.28550E-05  3688   0.224E-02    0.643E-03
DAV:   6    -0.128672606734E+02    0.14967E-06   -0.32671E-06  3488   0.116E-02
  51 F= -.12867261E+02 E0= -.12863639E+02  d E =-.724345E-02
       N       E                     dE             d eps       ncg     rms          rms(c)
DAV:   1    -0.128656665097E+02    0.15943E-02   -0.40959E-01  3056   0.228E+00    0.216E-01
DAV:   2    -0.128673087557E+02   -0.16422E-02   -0.17589E-02  3544   0.716E-01    0.716E-02
DAV:   3    -0.128672706984E+02    0.38057E-04   -0.34616E-04  3768   0.115E-01    0.422E-02
DAV:   4    -0.128672589192E+02    0.11779E-04   -0.93934E-05  3720   0.533E-02    0.131E-02
DAV:   5    -0.128672602859E+02   -0.13667E-05   -0.24223E-05  3680   0.287E-02    0.121E-02
DAV:   6    -0.128672601959E+02    0.89988E-07   -0.22820E-06  3184   0.825E-03
  52 F= -.12867260E+02 E0= -.12863638E+02  d E =-.724352E-02
       N       E                     dE             d eps       ncg     rms          rms(c)
DAV:   1    -0.128628589899E+02    0.44013E-02   -0.86599E-01  3024   0.337E+00    0.273E-01
DAV:   2    -0.128667510893E+02   -0.38921E-02   -0.39769E-02  3600   0.105E+00    0.910E-02
DAV:   3    -0.128667623115E+02   -0.11222E-04   -0.71201E-04  3624   0.160E-01    0.663E-02
DAV:   4    -0.128667295559E+02    0.32756E-04   -0.10499E-04  3976   0.532E-02    0.267E-02
DAV:   5    -0.128667311182E+02   -0.15622E-05   -0.43671E-05  3720   0.278E-02    0.100E-02
DAV:   6    -0.128667308848E+02    0.23331E-06   -0.22498E-06  3456   0.832E-03
  53 F= -.12866731E+02 E0= -.12863138E+02  d E =-.718499E-02
       N       E                     dE             d eps       ncg     rms          rms(c)
DAV:   1    -0.128595392611E+02    0.71919E-02   -0.14888E+00   912   0.483E+00    0.336E-01
DAV:   2    -0.128665996713E+02   -0.70604E-02   -0.78027E-02  1136   0.162E+00    0.153E-01
DAV:   3    -0.128664897526E+02    0.10992E-03   -0.17690E-03  1096   0.274E-01    0.102E-01
DAV:   4    -0.128662568622E+02    0.23289E-03   -0.23438E-04  1152   0.136E-01    0.374E-02
DAV:   5    -0.128662133027E+02    0.43560E-04   -0.10996E-04  1120   0.592E-02    0.158E-02
DAV:   6    -0.128661798445E+02    0.33458E-04   -0.19678E-05  1264   0.291E-02    0.123E-02
DAV:   7    -0.128661671216E+02    0.12723E-04   -0.41183E-06  1048   0.136E-02    0.614E-03
DAV:   8    -0.128661611326E+02    0.59890E-05   -0.91041E-07   616   0.519E-03    0.197E-03
DAV:   9    -0.128661594459E+02    0.16867E-05   -0.29311E-07   544   0.339E-03    0.835E-04
DAV:  10    -0.128661590879E+02    0.35801E-06   -0.84708E-08   528   0.210E-03
  54 F= -.12866159E+02 E0= -.12862911E+02  d E =-.649682E-02
       N       E                     dE             d eps       ncg     rms          rms(c)
DAV:   1    -0.128664675861E+02   -0.30814E-03   -0.18909E-01   912   0.172E+00    0.206E-01
DAV:   2    -0.128674117568E+02   -0.94417E-03   -0.10688E-02  1120   0.606E-01    0.627E-02
DAV:   3    -0.128674045709E+02    0.71860E-05   -0.28776E-04  1064   0.103E-01    0.409E-02
DAV:   4    -0.128673976354E+02    0.69355E-05   -0.86350E-05  1176   0.459E-02    0.262E-02
DAV:   5    -0.128673943445E+02    0.32909E-05   -0.43224E-05  1088   0.249E-02    0.862E-03
DAV:   6    -0.128673946706E+02   -0.32615E-06   -0.55651E-06   968   0.149E-02
  55 F= -.12867395E+02 E0= -.12863956E+02  d E =-.687638E-02
       N       E                     dE             d eps       ncg     rms          rms(c)
DAV:   1    -0.128626297090E+02    0.47646E-02   -0.75626E-01   912   0.344E+00    0.442E-01
DAV:   2    -0.128664401701E+02   -0.38105E-02   -0.43198E-02  1112   0.122E+00    0.128E-01
DAV:   3    -0.128664096085E+02    0.30562E-04   -0.12296E-03  1064   0.219E-01    0.837E-02
DAV:   4    -0.128663826450E+02    0.26963E-04   -0.42128E-04  1168   0.951E-02    0.567E-02
DAV:   5    -0.128663635978E+02    0.19047E-04   -0.20207E-04  1096   0.534E-02    0.200E-02
DAV:   6    -0.128663652197E+02   -0.16220E-05   -0.25619E-05  1048   0.337E-02    0.106E-02
DAV:   7    -0.128663650191E+02    0.20062E-06   -0.14609E-06   744   0.820E-03
  56 F= -.12866365E+02 E0= -.12862562E+02  d E =-.760684E-02
       N       E                     dE             d eps       ncg     rms          rms(c)
DAV:   1    -0.128633213643E+02    0.30439E-02   -0.18977E-01   912   0.173E+00    0.207E-01
DAV:   2    -0.128642763047E+02   -0.95494E-03   -0.10819E-02  1104   0.620E-01    0.665E-02
DAV:   3    -0.128642699372E+02    0.63675E-05   -0.28424E-04  1048   0.118E-01    0.422E-02
DAV:   4    -0.128642637594E+02    0.61779E-05   -0.88903E-05  1160   0.552E-02    0.259E-02
DAV:   5    -0.128642603410E+02    0.34183E-05   -0.51563E-05  1152   0.250E-02    0.941E-03
DAV:   6    -0.128642607873E+02   -0.44627E-06   -0.60457E-06   976   0.166E-02
  57 F= -.12864261E+02 E0= -.12860334E+02  d E =-.785359E-02
