       N       E                     dE             d eps       ncg     rms          rms(c)
DAV:   1     0.514671617707E+04    0.51467E+04   -0.22074E+05   624   0.163E+03
DAV:   2     0.468917914286E+03   -0.46778E+04   -0.45067E+04   633   0.440E+02
DAV:   3    -0.268698102146E+03   -0.73762E+03   -0.72617E+03   693   0.184E+02
DAV:   4    -0.319968981223E+03   -0.51271E+02   -0.50630E+02   672   0.431E+01
DAV:   5    -0.322250876879E+03   -0.22819E+01   -0.22770E+01   852   0.956E+00    0.270E+01
RMM:   6    -0.304406303411E+03    0.17845E+02   -0.30720E+01   638   0.594E+00    0.179E+01
RMM:   7    -0.303264823672E+03    0.11415E+01   -0.36212E+01   634   0.544E+00    0.113E+01
RMM:   8    -0.303093579619E+03    0.17124E+00   -0.28645E+00   738   0.291E+00    0.664E+00
RMM:   9    -0.303036750197E+03    0.56829E-01   -0.25225E+00   629   0.184E+00    0.262E+00
RMM:  10    -0.302808995398E+03    0.22775E+00   -0.23880E-01   690   0.102E+00    0.192E+00
RMM:  11    -0.302770093061E+03    0.38902E-01   -0.14988E-01   744   0.489E-01    0.108E+00
RMM:  12    -0.302770297959E+03   -0.20490E-03   -0.58162E-02   754   0.291E-01    0.696E-01
RMM:  13    -0.302773597573E+03   -0.32996E-02   -0.12348E-02   636   0.153E-01    0.502E-01
RMM:  14    -0.302775794518E+03   -0.21969E-02   -0.11726E-02   637   0.162E-01    0.292E-01
RMM:  15    -0.302776011233E+03   -0.21671E-03   -0.23824E-03   679   0.953E-02    0.196E-01
RMM:  16    -0.302776337170E+03   -0.32594E-03   -0.15551E-03   658   0.631E-02    0.123E-01
RMM:  17    -0.302776251628E+03    0.85542E-04   -0.75302E-04   689   0.439E-02    0.876E-02
RMM:  18    -0.302776260001E+03   -0.83736E-05   -0.16906E-04   790   0.229E-02    0.526E-02
RMM:  19    -0.302776217825E+03    0.42176E-04   -0.48048E-05   577   0.108E-02    0.303E-02
RMM:  20    -0.302776200328E+03    0.17497E-04   -0.33094E-05   542   0.810E-03    0.121E-02
RMM:  21    -0.302776196619E+03    0.37091E-05   -0.11733E-05   625   0.501E-03    0.110E-02
RMM:  22    -0.302776197544E+03   -0.92468E-06   -0.29943E-06   444   0.321E-03
   1 F= -.30277620E+03 E0= -.30281847E+03  d E =-.302776E+03
       N       E                     dE             d eps       ncg     rms          rms(c)
DAV:   1    -0.302776197309E+03   -0.68996E-06   -0.67264E-07   351   0.285E-03    0.280E-03
RMM:   2    -0.302776197322E+03   -0.13009E-07   -0.67009E-07   343   0.156E-03
   2 F= -.30277620E+03 E0= -.30281844E+03  d E =0.221713E-06
       N       E                     dE             d eps       ncg     rms          rms(c)
DAV:   1    -0.302776197105E+03    0.20390E-06   -0.51127E-07   411   0.220E-03    0.209E-03
RMM:   2    -0.302776197091E+03    0.14064E-07   -0.13043E-07   333   0.778E-04
   3 F= -.30277620E+03 E0= -.30281845E+03  d E =0.230975E-06
       N       E                     dE             d eps       ncg     rms          rms(c)
DAV:   1    -0.302776197017E+03    0.88701E-07   -0.20357E-07   420   0.129E-03    0.135E-03
RMM:   2    -0.302776197028E+03   -0.11933E-07   -0.24163E-08   167   0.467E-04
   4 F= -.30277620E+03 E0= -.30281845E+03  d E =0.627042E-07
       N       E                     dE             d eps       ncg     rms          rms(c)
DAV:   1    -0.302776196962E+03    0.54177E-07   -0.12155E-07   411   0.938E-04    0.769E-04
RMM:   2    -0.302776196955E+03    0.75379E-08   -0.14328E-08   119   0.402E-04
   5 F= -.30277620E+03 E0= -.30281845E+03  d E =0.736472E-07
       N       E                     dE             d eps       ncg     rms          rms(c)
DAV:   1    -0.302776196945E+03    0.17266E-07   -0.56376E-08   384   0.530E-04    0.510E-04
RMM:   2    -0.302776196942E+03    0.31068E-08   -0.59132E-09    73   0.308E-04
   6 F= -.30277620E+03 E0= -.30281845E+03  d E =0.128348E-07
       N       E                     dE             d eps       ncg     rms          rms(c)
DAV:   1    -0.302776196930E+03    0.15207E-07   -0.23782E-08   366   0.414E-04    0.272E-04
RMM:   2    -0.302776196926E+03    0.39436E-08    0.38578-220    46   0.227E-04
   7 F= -.30277620E+03 E0= -.30281846E+03  d E =0.160435E-07
       N       E                     dE             d eps       ncg     rms          rms(c)
DAV:   1    -0.302776196925E+03    0.44674E-08   -0.13117E-08   366   0.234E-04    0.257E-04
RMM:   2    -0.302776196922E+03    0.38272E-08    0.21503-220    39   0.165E-04
   8 F= -.30277620E+03 E0= -.30281846E+03  d E =0.435102E-08
       N       E                     dE             d eps       ncg     rms          rms(c)
DAV:   1    -0.302776196920E+03    0.54861E-08   -0.46787E-09   339   0.222E-04    0.129E-04
RMM:   2    -0.302776196918E+03    0.17390E-08    0.11291-287    36   0.991E-05
   9 F= -.30277620E+03 E0= -.30281846E+03  d E =0.339787E-08
       N       E                     dE             d eps       ncg     rms          rms(c)
DAV:   1    -0.302776196918E+03    0.19718E-08   -0.21671E-09   339   0.107E-04    0.108E-04
RMM:   2    -0.302776196917E+03    0.10914E-08    0.69366-288    32   0.693E-05
  10 F= -.30277620E+03 E0= -.30281846E+03  d E =0.132422E-08
       N       E                     dE             d eps       ncg     rms          rms(c)
DAV:   1    -0.302776196916E+03    0.19427E-08   -0.92595E-10   339   0.832E-05    0.697E-05
RMM:   2    -0.302776196916E+03    0.18917E-09    0.45806-288    29   0.466E-05
  11 F= -.30277620E+03 E0= -.30281846E+03  d E =0.104046E-08
       N       E                     dE             d eps       ncg     rms          rms(c)
DAV:   1    -0.302776196916E+03    0.22555E-09   -0.64771E-10   339   0.618E-05    0.338E-05
RMM:   2    -0.302776196915E+03    0.67666E-09    0.23486-288    26   0.392E-05
  12 F= -.30277620E+03 E0= -.30281846E+03  d E =0.713044E-09
       N       E                     dE             d eps       ncg     rms          rms(c)
DAV:   1    -0.302776196915E+03    0.89494E-09   -0.89635E-10   339   0.384E-05    0.489E-05
RMM:   2    -0.302776196914E+03    0.96043E-09    0.00000E+00    21   0.247E-05
  13 F= -.30277620E+03 E0= -.30281846E+03  d E =0.117871E-08
       N       E                     dE             d eps       ncg     rms          rms(c)
DAV:   1    -0.302776196915E+03    0.35652E-09   -0.41301E-11   339   0.379E-05    0.228E-05
RMM:   2    -0.302776196914E+03    0.75670E-09    0.00000E+00    20   0.165E-05
  14 F= -.30277620E+03 E0= -.30281846E+03  d E =0.152795E-09
       N       E                     dE             d eps       ncg     rms          rms(c)
DAV:   1    -0.302776196914E+03    0.67666E-09   -0.33126E-10   339   0.214E-05    0.102E-05
RMM:   2    -0.302776196914E+03    0.72760E-10    0.00000E+00    17   0.137E-05
  15 F= -.30277620E+03 E0= -.30281846E+03  d E =-.727596E-11
       N       E                     dE             d eps       ncg     rms          rms(c)
DAV:   1    -0.302776196914E+03    0.14552E-10    0.23154E-11   339   0.137E-05    0.124E-05
RMM:   2    -0.302776196913E+03    0.36380E-09    0.00000E+00    17   0.843E-06
  16 F= -.30277620E+03 E0= -.30281846E+03  d E =0.305590E-09
       N       E                     dE             d eps       ncg     rms          rms(c)
DAV:   1    -0.302776196915E+03   -0.97498E-09   -0.27656E-10   339   0.117E-05    0.606E-06
RMM:   2    -0.302776196914E+03    0.82946E-09    0.00000E+00    16   0.625E-06
  17 F= -.30277620E+03 E0= -.30281846E+03  d E =-.509317E-09
       N       E                     dE             d eps       ncg     rms          rms(c)
DAV:   1    -0.302776196913E+03    0.13824E-08   -0.62596E-10   339   0.684E-06    0.519E-06
RMM:   2    -0.302776196914E+03   -0.46566E-09    0.00000E+00    14   0.465E-06
  18 F= -.30277620E+03 E0= -.30281846E+03  d E =0.873115E-10
       N       E                     dE             d eps       ncg     rms          rms(c)
DAV:   1    -0.302776196913E+03    0.29831E-09   -0.59465E-10   339   0.554E-06    0.405E-06
RMM:   2    -0.302776196914E+03   -0.67666E-09    0.00000E+00    14   0.355E-06
  19 F= -.30277620E+03 E0= -.30281846E+03  d E =0.873115E-10
       N       E                     dE             d eps       ncg     rms          rms(c)
DAV:   1    -0.302776196912E+03    0.61118E-09    0.28154E-10   321   0.473E-06    0.165E-06
RMM:   2    -0.302776196914E+03   -0.11933E-08    0.00000E+00    13   0.279E-06
  20 F= -.30277620E+03 E0= -.30281846E+03  d E =0.945874E-10
       N       E                     dE             d eps       ncg     rms          rms(c)
DAV:   1    -0.302776196913E+03   -0.83674E-09   -0.17090E-10   312   0.280E-06    0.199E-06
RMM:   2    -0.302776196913E+03   -0.58208E-10    0.00000E+00    13   0.197E-06
  21 F= -.30277620E+03 E0= -.30281846E+03  d E =0.298314E-09
       N       E                     dE             d eps       ncg     rms          rms(c)
DAV:   1    -0.302776196913E+03    0.46566E-09   -0.57022E-10   312   0.254E-06    0.895E-07
RMM:   2    -0.302776196914E+03   -0.75670E-09    0.00000E+00    13   0.133E-06
  22 F= -.30277620E+03 E0= -.30281846E+03  d E =-.232831E-09
       N       E                     dE             d eps       ncg     rms          rms(c)
DAV:   1    -0.302776196913E+03   -0.14552E-09   -0.26390E-10   312   0.138E-06    0.103E-06
RMM:   2    -0.302776196913E+03   -0.21100E-09    0.00000E+00    13   0.104E-06
  23 F= -.30277620E+03 E0= -.30281846E+03  d E =0.400178E-09
       N       E                     dE             d eps       ncg     rms          rms(c)
DAV:   1    -0.302776196912E+03    0.92405E-09   -0.19282E-10   312   0.125E-06    0.584E-07
RMM:   2    -0.302776196913E+03   -0.11787E-08    0.00000E+00    13   0.681E-07
  24 F= -.30277620E+03 E0= -.30281846E+03  d E =-.436557E-10
       N       E                     dE             d eps       ncg     rms          rms(c)
DAV:   1    -0.302776196913E+03   -0.58208E-09   -0.25340E-10   312   0.861E-07    0.260E-07
RMM:   2    -0.302776196914E+03   -0.96043E-09    0.00000E+00    13   0.591E-07
  25 F= -.30277620E+03 E0= -.30281846E+03  d E =-.363798E-09
       N       E                     dE             d eps       ncg     rms          rms(c)
DAV:   1    -0.302776196913E+03   -0.69849E-09   -0.32213E-10   312   0.610E-07    0.380E-07
RMM:   2    -0.302776196913E+03   -0.36380E-10    0.00000E+00    13   0.412E-07
  26 F= -.30277620E+03 E0= -.30281846E+03  d E =0.225555E-09
       N       E                     dE             d eps       ncg     rms          rms(c)
DAV:   1    -0.302776196914E+03   -0.10914E-08   -0.15277E-10   312   0.518E-07    0.169E-07
RMM:   2    -0.302776196913E+03    0.10186E-08    0.00000E+00    13   0.299E-07
  27 F= -.30277620E+03 E0= -.30281846E+03  d E =-.363798E-10
       N       E                     dE             d eps       ncg     rms          rms(c)
DAV:   1    -0.302776196913E+03    0.13461E-08   -0.11755E-10   312   0.321E-07    0.118E-07
RMM:   2    -0.302776196913E+03   -0.36380E-09    0.00000E+00    13   0.235E-07
  28 F= -.30277620E+03 E0= -.30281846E+03  d E =-.363798E-10
       N       E                     dE             d eps       ncg     rms          rms(c)
DAV:   1    -0.302776196913E+03    0.42928E-09   -0.15814E-10   312   0.259E-07    0.111E-07
RMM:   2    -0.302776196914E+03   -0.88039E-09    0.00000E+00    11   0.180E-07
  29 F= -.30277620E+03 E0= -.30281846E+03  d E =-.873115E-10
       N       E                     dE             d eps       ncg     rms          rms(c)
DAV:   1    -0.302776196914E+03   -0.17899E-08   -0.33155E-10   312   0.209E-07    0.538E-08
RMM:   2    -0.302776196913E+03    0.12078E-08    0.00000E+00    11   0.133E-07
  30 F= -.30277620E+03 E0= -.30281846E+03  d E =0.298314E-09
       N       E                     dE             d eps       ncg     rms          rms(c)
DAV:   1    -0.302776196913E+03    0.98953E-09   -0.19240E-10   312   0.140E-07    0.721E-08
RMM:   2    -0.302776196914E+03   -0.29104E-10    0.00000E+00    11   0.106E-07
  31 F= -.30277620E+03 E0= -.30281846E+03  d E =-.247383E-09
       N       E                     dE             d eps       ncg     rms          rms(c)
DAV:   1    -0.302776196913E+03    0.23283E-09   -0.41352E-10   312   0.125E-07    0.430E-08
RMM:   2    -0.302776196913E+03   -0.36380E-10    0.00000E+00    11   0.748E-08
  32 F= -.30277620E+03 E0= -.30281846E+03  d E =0.225555E-09
       N       E                     dE             d eps       ncg     rms          rms(c)
DAV:   1    -0.302776196913E+03   -0.18917E-09   -0.55140E-10   312   0.930E-08    0.202E-08
RMM:   2    -0.302776196913E+03   -0.72760E-11    0.00000E+00    11   0.616E-08
  33 F= -.30277620E+03 E0= -.30281846E+03  d E =-.160071E-09
       N       E                     dE             d eps       ncg     rms          rms(c)
DAV:   1    -0.302776196914E+03   -0.69849E-09    0.13350E-10   312   0.664E-08    0.196E-08
RMM:   2    -0.302776196913E+03    0.71304E-09    0.00000E+00     9   0.466E-08
  34 F= -.30277620E+03 E0= -.30281846E+03  d E =0.218279E-10
       N       E                     dE             d eps       ncg     rms          rms(c)
DAV:   1    -0.302776196913E+03    0.14043E-08   -0.53298E-10   312   0.541E-08    0.941E-09
RMM:   2    -0.302776196913E+03   -0.67666E-09    0.00000E+00    11   0.354E-08
  35 F= -.30277620E+03 E0= -.30281846E+03  d E =0.145519E-10
       N       E                     dE             d eps       ncg     rms          rms(c)
DAV:   1    -0.302776196914E+03   -0.12296E-08    0.40598E-11   312   0.376E-08    0.142E-08
RMM:   2    -0.302776196914E+03    0.37107E-09    0.00000E+00     9   0.291E-08
  36 F= -.30277620E+03 E0= -.30281846E+03  d E =-.181899E-09
       N       E                     dE             d eps       ncg     rms          rms(c)
DAV:   1    -0.302776196913E+03    0.66211E-09   -0.16606E-10   312   0.342E-08    0.874E-09
RMM:   2    -0.302776196914E+03   -0.23283E-09    0.00000E+00     9   0.209E-08
  37 F= -.30277620E+03 E0= -.30281846E+03  d E =0.582077E-10
       N       E                     dE             d eps       ncg     rms          rms(c)
DAV:   1    -0.302776196914E+03   -0.89494E-09   -0.11612E-10   312   0.241E-08    0.485E-09
RMM:   2    -0.302776196914E+03    0.66211E-09    0.00000E+00     8   0.172E-08
  38 F= -.30277620E+03 E0= -.30281846E+03  d E =0.000000E+00
       N       E                     dE             d eps       ncg     rms          rms(c)
DAV:   1    -0.302776196912E+03    0.17608E-08   -0.25179E-10   312   0.187E-08    0.493E-09
RMM:   2    -0.302776196914E+03   -0.10696E-08    0.00000E+00     8   0.135E-08
  39 F= -.30277620E+03 E0= -.30281846E+03  d E =0.291038E-10
       N       E                     dE             d eps       ncg     rms          rms(c)
DAV:   1    -0.302776196913E+03   -0.93860E-09    0.24475E-10   312   0.152E-08    0.282E-09
RMM:   2    -0.302776196914E+03   -0.15280E-09    0.00000E+00     8   0.102E-08
  40 F= -.30277620E+03 E0= -.30281846E+03  d E =-.218279E-10
       N       E                     dE             d eps       ncg     rms          rms(c)
DAV:   1    -0.302776196914E+03   -0.63301E-09   -0.59642E-11   312   0.109E-08    0.324E-09
RMM:   2    -0.302776196914E+03    0.48749E-09    0.00000E+00     8   0.840E-09
  41 F= -.30277620E+03 E0= -.30281846E+03  d E =0.727596E-11
       N       E                     dE             d eps       ncg     rms          rms(c)
DAV:   1    -0.302776196913E+03    0.55297E-09    0.10417E-10   312   0.962E-09    0.235E-09
RMM:   2    -0.302776196913E+03   -0.21828E-10    0.00000E+00     8   0.613E-09
  42 F= -.30277620E+03 E0= -.30281846E+03  d E =0.436557E-10
       N       E                     dE             d eps       ncg     rms          rms(c)
DAV:   1    -0.302776196913E+03    0.43656E-10   -0.60943E-11   312   0.703E-09    0.142E-09
RMM:   2    -0.302776196914E+03   -0.87311E-10    0.00000E+00     7   0.496E-09
  43 F= -.30277620E+03 E0= -.30281846E+03  d E =-.218279E-10
       N       E                     dE             d eps       ncg     rms          rms(c)
DAV:   1    -0.302776196915E+03   -0.12151E-08   -0.30017E-10   312   0.532E-09    0.143E-09
RMM:   2    -0.302776196914E+03    0.10623E-08    0.00000E+00     6   0.395E-09
  44 F= -.30277620E+03 E0= -.30281846E+03  d E =-.654836E-10
       N       E                     dE             d eps       ncg     rms          rms(c)
DAV:   1    -0.302776196913E+03    0.19427E-08   -0.98971E-11   312   0.444E-09    0.965E-10
RMM:   2    -0.302776196914E+03   -0.89494E-09    0.00000E+00     6   0.297E-09
  45 F= -.30277620E+03 E0= -.30281846E+03  d E =-.145519E-10
       N       E                     dE             d eps       ncg     rms          rms(c)
DAV:   1    -0.302776196913E+03    0.10914E-09   -0.13208E-10   312   0.327E-09    0.780E-10
RMM:   2    -0.302776196914E+03   -0.10332E-08    0.00000E+00     6   0.244E-09
  46 F= -.30277620E+03 E0= -.30281846E+03  d E =-.291038E-10
       N       E                     dE             d eps       ncg     rms          rms(c)
DAV:   1    -0.302776196913E+03   -0.72760E-09   -0.42446E-10   312   0.275E-09    0.807E-10
RMM:   2    -0.302776196914E+03   -0.37835E-09    0.00000E+00     6   0.191E-09
  47 F= -.30277620E+03 E0= -.30281846E+03  d E =-.727596E-10
       N       E                     dE             d eps       ncg     rms          rms(c)
DAV:   1    -0.302776196913E+03    0.32742E-09   -0.15124E-10   312   0.220E-09    0.500E-10
RMM:   2    -0.302776196914E+03   -0.62573E-09    0.00000E+00     6   0.145E-09
  48 F= -.30277620E+03 E0= -.30281846E+03  d E =0.800355E-10
       N       E                     dE             d eps       ncg     rms          rms(c)
DAV:   1    -0.302776196913E+03   -0.26921E-09   -0.11684E-10   312   0.162E-09    0.493E-10
RMM:   2    -0.302776196914E+03   -0.37107E-09    0.00000E+00     6   0.119E-09
  49 F= -.30277620E+03 E0= -.30281846E+03  d E =-.145519E-10
       N       E                     dE             d eps       ncg     rms          rms(c)
DAV:   1    -0.302776196913E+03   -0.18917E-09   -0.71205E-11   312   0.140E-09    0.448E-10
RMM:   2    -0.302776196914E+03   -0.20373E-09    0.00000E+00     6   0.967E-10
  50 F= -.30277620E+03 E0= -.30281846E+03  d E =-.218279E-10
       N       E                     dE             d eps       ncg     rms          rms(c)
DAV:   1    -0.302776196913E+03    0.29831E-09    0.30035E-11   312   0.126E-09    0.506E-10
RMM:   2    -0.302776196914E+03   -0.46566E-09    0.00000E+00     5   0.754E-10
  51 F= -.30277620E+03 E0= -.30281846E+03  d E =0.363798E-10
       N       E                     dE             d eps       ncg     rms          rms(c)
DAV:   1    -0.302776196914E+03   -0.85856E-09   -0.14313E-10   312   0.967E-10    0.249E-10
RMM:   2    -0.302776196914E+03    0.36380E-09    0.00000E+00     6   0.575E-10
  52 F= -.30277620E+03 E0= -.30281846E+03  d E =-.291038E-10
       N       E                     dE             d eps       ncg     rms          rms(c)
DAV:   1    -0.302776196914E+03    0.18190E-09   -0.67131E-11   312   0.659E-10    0.266E-10
RMM:   2    -0.302776196914E+03    0.20373E-09    0.00000E+00     5   0.482E-10
  53 F= -.30277620E+03 E0= -.30281846E+03  d E =0.218279E-10
       N       E                     dE             d eps       ncg     rms          rms(c)
DAV:   1    -0.302776196914E+03    0.36380E-10   -0.13118E-10   312   0.576E-10    0.329E-10
RMM:   2    -0.302776196914E+03    0.80036E-10    0.00000E+00     5   0.416E-10
  54 F= -.30277620E+03 E0= -.30281846E+03  d E =-.873115E-10
       N       E                     dE             d eps       ncg     rms          rms(c)
DAV:   1    -0.302776196913E+03    0.44383E-09   -0.29917E-10   312   0.569E-10    0.173E-10
RMM:   2    -0.302776196914E+03   -0.24011E-09    0.00000E+00     4   0.333E-10
  55 F= -.30277620E+03 E0= -.30281846E+03  d E =0.123691E-09
       N       E                     dE             d eps       ncg     rms          rms(c)
DAV:   1    -0.302776196913E+03   -0.87311E-10   -0.29035E-10   312   0.384E-10    0.247E-10
RMM:   2    -0.302776196914E+03   -0.24738E-09    0.00000E+00     5   0.272E-10
  56 F= -.30277620E+03 E0= -.30281846E+03  d E =-.945874E-10
       N       E                     dE             d eps       ncg     rms          rms(c)
DAV:   1    -0.302776196913E+03    0.50204E-09   -0.12423E-10   312   0.358E-10    0.247E-10
RMM:   2    -0.302776196914E+03   -0.71304E-09    0.00000E+00     4   0.227E-10
  57 F= -.30277620E+03 E0= -.30281846E+03  d E =0.363798E-10
       N       E                     dE             d eps       ncg     rms          rms(c)
DAV:   1    -0.302776196913E+03   -0.44383E-09   -0.24003E-10   312   0.271E-10    0.247E-10
RMM:   2    -0.302776196914E+03   -0.20373E-09    0.00000E+00     5   0.193E-10
  58 F= -.30277620E+03 E0= -.30281846E+03  d E =0.654836E-10
       N       E                     dE             d eps       ncg     rms          rms(c)
DAV:   1    -0.302776196914E+03   -0.20373E-09   -0.11596E-10   312   0.233E-10    0.307E-10
RMM:   2    -0.302776196914E+03   -0.80036E-10    0.00000E+00     4   0.183E-10
  59 F= -.30277620E+03 E0= -.30281846E+03  d E =-.800355E-10
       N       E                     dE             d eps       ncg     rms          rms(c)
DAV:   1    -0.302776196913E+03    0.97498E-09    0.31617E-11   312   0.369E-10    0.169E-10
RMM:   2    -0.302776196914E+03   -0.96043E-09    0.00000E+00     4   0.152E-10
  60 F= -.30277620E+03 E0= -.30281846E+03  d E =0.945874E-10
       N       E                     dE             d eps       ncg     rms          rms(c)
DAV:   1    -0.302776196913E+03    0.58208E-10   -0.96388E-11   312   0.212E-10    0.267E-10
RMM:   2    -0.302776196914E+03   -0.11860E-08    0.00000E+00     3   0.141E-10
  61 F= -.30277620E+03 E0= -.30281846E+03  d E =-.167347E-09
       N       E                     dE             d eps       ncg     rms          rms(c)
DAV:   1    -0.302776196915E+03   -0.21610E-08    0.16255E-10   312   0.256E-10    0.257E-10
RMM:   2    -0.302776196914E+03    0.11278E-08    0.00000E+00     4   0.127E-10
  62 F= -.30277620E+03 E0= -.30281846E+03  d E =0.152795E-09
       N       E                     dE             d eps       ncg     rms          rms(c)
DAV:   1    -0.302776196915E+03   -0.10186E-09   -0.21767E-10   312   0.278E-10    0.326E-10
RMM:   2    -0.302776196914E+03    0.11059E-08    0.00000E+00     3   0.124E-10
  63 F= -.30277620E+03 E0= -.30281846E+03  d E =-.123691E-09
       N       E                     dE             d eps       ncg     rms          rms(c)
DAV:   1    -0.302776196913E+03    0.18190E-08    0.14240E-10   312   0.261E-10    0.227E-10
RMM:   2    -0.302776196914E+03   -0.67666E-09    0.00000E+00     3   0.986E-11
  64 F= -.30277620E+03 E0= -.30281846E+03  d E =0.363798E-10
       N       E                     dE             d eps       ncg     rms          rms(c)
DAV:   1    -0.302776196914E+03   -0.92405E-09   -0.65086E-11   312   0.198E-10    0.266E-10
RMM:   2    -0.302776196914E+03    0.22555E-09    0.00000E+00     2   0.953E-11
  65 F= -.30277620E+03 E0= -.30281846E+03  d E =-.218279E-10
       N       E                     dE             d eps       ncg     rms          rms(c)
DAV:   1    -0.302776196913E+03    0.98953E-09    0.77587E-11   312   0.117E-10    0.362E-10
RMM:   2    -0.302776196914E+03   -0.66939E-09    0.00000E+00     3   0.110E-10
  66 F= -.30277620E+03 E0= -.30281846E+03  d E =0.945874E-10
       N       E                     dE             d eps       ncg     rms          rms(c)
DAV:   1    -0.302776196912E+03    0.50204E-09   -0.23010E-10   312   0.236E-10    0.333E-10
RMM:   2    -0.302776196914E+03   -0.12369E-08    0.00000E+00     3   0.112E-10
  67 F= -.30277620E+03 E0= -.30281846E+03  d E =-.654836E-10
       N       E                     dE             d eps       ncg     rms          rms(c)
DAV:   1    -0.302776196913E+03   -0.53842E-09   -0.34693E-10   312   0.318E-10    0.260E-10
RMM:   2    -0.302776196914E+03   -0.69849E-09    0.00000E+00     2   0.106E-10
  68 F= -.30277620E+03 E0= -.30281846E+03  d E =0.000000E+00
       N       E                     dE             d eps       ncg     rms          rms(c)
DAV:   1    -0.302776196913E+03   -0.38563E-09   -0.10256E-10   312   0.315E-10    0.273E-10
RMM:   2    -0.302776196914E+03   -0.26921E-09    0.00000E+00     2   0.114E-10
  69 F= -.30277620E+03 E0= -.30281846E+03  d E =0.436557E-10
       N       E                     dE             d eps       ncg     rms          rms(c)
DAV:   1    -0.302776196914E+03   -0.10623E-08    0.34225E-11   312   0.296E-10    0.325E-10
RMM:   2    -0.302776196914E+03    0.81491E-09    0.00000E+00     2   0.950E-11
  70 F= -.30277620E+03 E0= -.30281846E+03  d E =0.218279E-10
       N       E                     dE             d eps       ncg     rms          rms(c)
DAV:   1    -0.302776196913E+03    0.12442E-08   -0.23433E-10   312   0.214E-10    0.292E-10
RMM:   2    -0.302776196914E+03   -0.49477E-09    0.00000E+00     2   0.947E-11
  71 F= -.30277620E+03 E0= -.30281846E+03  d E =-.654836E-10
       N       E                     dE             d eps       ncg     rms          rms(c)
DAV:   1    -0.302776196913E+03    0.45839E-09   -0.17689E-10   312   0.270E-10    0.284E-10
RMM:   2    -0.302776196914E+03   -0.83674E-09    0.00000E+00     2   0.863E-11
  72 F= -.30277620E+03 E0= -.30281846E+03  d E =0.116415E-09
       N       E                     dE             d eps       ncg     rms          rms(c)
DAV:   1    -0.302776196914E+03   -0.13242E-08   -0.32918E-10   312   0.174E-10    0.356E-10
RMM:   2    -0.302776196914E+03    0.37835E-09    0.00000E+00     2   0.112E-10
  73 F= -.30277620E+03 E0= -.30281846E+03  d E =-.109139E-09
       N       E                     dE             d eps       ncg     rms          rms(c)
DAV:   1    -0.302776196913E+03    0.58208E-09   -0.25865E-10   312   0.296E-10    0.183E-10
RMM:   2    -0.302776196914E+03   -0.10186E-09    0.00000E+00     2   0.877E-11
  74 F= -.30277620E+03 E0= -.30281846E+03  d E =0.101863E-09
       N       E                     dE             d eps       ncg     rms          rms(c)
DAV:   1    -0.302776196914E+03   -0.67666E-09   -0.19358E-10   312   0.158E-10    0.228E-10
RMM:   2    -0.302776196914E+03    0.41473E-09    0.00000E+00     2   0.733E-11
  75 F= -.30277620E+03 E0= -.30281846E+03  d E =-.160071E-09
       N       E                     dE             d eps       ncg     rms          rms(c)
DAV:   1    -0.302776196912E+03    0.18117E-08   -0.14248E-11   312   0.132E-10    0.329E-10
RMM:   2    -0.302776196914E+03   -0.12369E-08    0.00000E+00     2   0.884E-11
  76 F= -.30277620E+03 E0= -.30281846E+03  d E =0.160071E-09
       N       E                     dE             d eps       ncg     rms          rms(c)
DAV:   1    -0.302776196914E+03   -0.13169E-08   -0.41301E-10   312   0.280E-10    0.215E-10
RMM:   2    -0.302776196914E+03    0.58208E-10    0.00000E+00     2   0.833E-11
  77 F= -.30277620E+03 E0= -.30281846E+03  d E =-.218279E-10
       N       E                     dE             d eps       ncg     rms          rms(c)
DAV:   1    -0.302776196914E+03    0.58208E-10   -0.17337E-11   312   0.207E-10    0.203E-10
RMM:   2    -0.302776196914E+03   -0.94587E-10    0.00000E+00     2   0.830E-11
  78 F= -.30277620E+03 E0= -.30281846E+03  d E =-.945874E-10
       N       E                     dE             d eps       ncg     rms          rms(c)
DAV:   1    -0.302776196913E+03    0.32742E-09   -0.19660E-10   312   0.164E-10    0.285E-10
RMM:   2    -0.302776196914E+03   -0.40745E-09    0.00000E+00     2   0.785E-11
  79 F= -.30277620E+03 E0= -.30281846E+03  d E =0.145519E-10
       N       E                     dE             d eps       ncg     rms          rms(c)
DAV:   1    -0.302776196912E+03    0.10914E-08   -0.42278E-10   312   0.168E-10    0.299E-10
RMM:   2    -0.302776196914E+03   -0.14988E-08    0.00000E+00     2   0.940E-11
  80 F= -.30277620E+03 E0= -.30281846E+03  d E =0.000000E+00
       N       E                     dE             d eps       ncg     rms          rms(c)
DAV:   1    -0.302776196913E+03   -0.12733E-08   -0.72117E-11   312   0.264E-10    0.222E-10
RMM:   2    -0.302776196914E+03   -0.21100E-09    0.00000E+00     2   0.903E-11
  81 F= -.30277620E+03 E0= -.30281846E+03  d E =0.145519E-10
       N       E                     dE             d eps       ncg     rms          rms(c)
DAV:   1    -0.302776196912E+03    0.10477E-08   -0.18598E-10   312   0.244E-10    0.224E-10
RMM:   2    -0.302776196914E+03   -0.12733E-08    0.00000E+00     2   0.889E-11
  82 F= -.30277620E+03 E0= -.30281846E+03  d E =-.145519E-10
       N       E                     dE             d eps       ncg     rms          rms(c)
DAV:   1    -0.302776196914E+03   -0.18990E-08   -0.13980E-10   312   0.154E-10    0.379E-10
RMM:   2    -0.302776196914E+03    0.62573E-09    0.00000E+00     2   0.119E-10
  83 F= -.30277620E+03 E0= -.30281846E+03  d E =0.000000E+00
       N       E                     dE             d eps       ncg     rms          rms(c)
DAV:   1    -0.302776196914E+03    0.56752E-09    0.13166E-10   312   0.397E-10    0.234E-10
RMM:   2    -0.302776196914E+03   -0.29104E-10    0.00000E+00     2   0.951E-11
  84 F= -.30277620E+03 E0= -.30281846E+03  d E =-.873115E-10
       N       E                     dE             d eps       ncg     rms          rms(c)
DAV:   1    -0.302776196914E+03   -0.37107E-09   -0.11482E-10   312   0.227E-10    0.212E-10
RMM:   2    -0.302776196914E+03    0.38563E-09    0.00000E+00     2   0.741E-11
  85 F= -.30277620E+03 E0= -.30281846E+03  d E =0.436557E-10
       N       E                     dE             d eps       ncg     rms          rms(c)
DAV:   1    -0.302776196913E+03    0.60390E-09   -0.73879E-11   312   0.139E-10    0.336E-10
RMM:   2    -0.302776196914E+03   -0.10186E-09    0.00000E+00     2   0.906E-11
  86 F= -.30277620E+03 E0= -.30281846E+03  d E =0.116415E-09
       N       E                     dE             d eps       ncg     rms          rms(c)
DAV:   1    -0.302776196912E+03    0.12442E-08   -0.37873E-10   312   0.169E-10    0.320E-10
RMM:   2    -0.302776196914E+03   -0.13315E-08    0.00000E+00     2   0.102E-10
  87 F= -.30277620E+03 E0= -.30281846E+03  d E =0.145519E-10
       N       E                     dE             d eps       ncg     rms          rms(c)
DAV:   1    -0.302776196913E+03   -0.75670E-09    0.88190E-12   312   0.241E-10    0.458E-10
RMM:   2    -0.302776196914E+03   -0.66939E-09    0.00000E+00     2   0.138E-10
  88 F= -.30277620E+03 E0= -.30281846E+03  d E =-.945874E-10
       N       E                     dE             d eps       ncg     rms          rms(c)
DAV:   1    -0.302776196914E+03   -0.59663E-09   -0.34799E-10   312   0.388E-10    0.323E-10
RMM:   2    -0.302776196914E+03   -0.21828E-10    0.00000E+00     2   0.850E-11
  89 F= -.30277620E+03 E0= -.30281846E+03  d E =0.509317E-10
       N       E                     dE             d eps       ncg     rms          rms(c)
DAV:   1    -0.302776196913E+03    0.37835E-09   -0.33111E-11   312   0.168E-10    0.286E-10
RMM:   2    -0.302776196914E+03   -0.47294E-09    0.00000E+00     2   0.846E-11
  90 F= -.30277620E+03 E0= -.30281846E+03  d E =-.727596E-10
       N       E                     dE             d eps       ncg     rms          rms(c)
DAV:   1    -0.302776196914E+03   -0.64028E-09   -0.40114E-11   312   0.236E-10    0.201E-10
RMM:   2    -0.302776196914E+03    0.28376E-09    0.00000E+00     2   0.826E-11
  91 F= -.30277620E+03 E0= -.30281846E+03  d E =0.116415E-09
       N       E                     dE             d eps       ncg     rms          rms(c)
DAV:   1    -0.302776196913E+03    0.13169E-08   -0.68600E-11   312   0.175E-10    0.191E-10
RMM:   2    -0.302776196914E+03   -0.11278E-08    0.00000E+00     2   0.802E-11
  92 F= -.30277620E+03 E0= -.30281846E+03  d E =-.945874E-10
       N       E                     dE             d eps       ncg     rms          rms(c)
DAV:   1    -0.302776196913E+03   -0.74942E-09   -0.17146E-10   312   0.150E-10    0.319E-10
RMM:   2    -0.302776196914E+03   -0.44383E-09    0.00000E+00     2   0.103E-10
  93 F= -.30277620E+03 E0= -.30281846E+03  d E =-.654836E-10
       N       E                     dE             d eps       ncg     rms          rms(c)
DAV:   1    -0.302776196915E+03   -0.16516E-08   -0.30123E-10   312   0.356E-10    0.169E-10
RMM:   2    -0.302776196914E+03    0.13388E-08    0.00000E+00     2   0.699E-11
  94 F= -.30277620E+03 E0= -.30281846E+03  d E =0.130967E-09
       N       E                     dE             d eps       ncg     rms          rms(c)
DAV:   1    -0.302776196914E+03    0.10259E-08   -0.19319E-11   312   0.110E-10    0.316E-10
RMM:   2    -0.302776196914E+03    0.21100E-09    0.00000E+00     2   0.866E-11
  95 F= -.30277620E+03 E0= -.30281846E+03  d E =-.101863E-09
       N       E                     dE             d eps       ncg     rms          rms(c)
DAV:   1    -0.302776196913E+03    0.76398E-09    0.59032E-11   312   0.232E-10    0.243E-10
RMM:   2    -0.302776196914E+03   -0.47294E-09    0.00000E+00     2   0.862E-11
  96 F= -.30277620E+03 E0= -.30281846E+03  d E =0.800355E-10
       N       E                     dE             d eps       ncg     rms          rms(c)
DAV:   1    -0.302776196914E+03   -0.69849E-09   -0.11751E-10   312   0.235E-10    0.268E-10
RMM:   2    -0.302776196914E+03    0.21828E-09    0.00000E+00     2   0.105E-10
  97 F= -.30277620E+03 E0= -.30281846E+03  d E =-.727596E-11
       N       E                     dE             d eps       ncg     rms          rms(c)
DAV:   1    -0.302776196913E+03    0.12442E-08   -0.71707E-11   312   0.246E-10    0.246E-10
RMM:   2    -0.302776196914E+03   -0.10550E-08    0.00000E+00     2   0.795E-11
  98 F= -.30277620E+03 E0= -.30281846E+03  d E =-.291038E-10
       N       E                     dE             d eps       ncg     rms          rms(c)
DAV:   1    -0.302776196915E+03   -0.22264E-08   -0.23877E-10   312   0.167E-10    0.273E-10
RMM:   2    -0.302776196914E+03    0.12660E-08    0.00000E+00     2   0.734E-11
  99 F= -.30277620E+03 E0= -.30281846E+03  d E =0.945874E-10
       N       E                     dE             d eps       ncg     rms          rms(c)
DAV:   1    -0.302776196913E+03    0.13242E-08   -0.11901E-10   312   0.172E-10    0.252E-10
RMM:   2    -0.302776196914E+03   -0.16735E-09    0.00000E+00     2   0.889E-11
 100 F= -.30277620E+03 E0= -.30281846E+03  d E =-.109139E-09
       N       E                     dE             d eps       ncg     rms          rms(c)
DAV:   1    -0.302776196915E+03   -0.12005E-08   -0.78677E-11   312   0.280E-10    0.158E-10
RMM:   2    -0.302776196914E+03    0.10841E-08    0.00000E+00     2   0.803E-11
 101 F= -.30277620E+03 E0= -.30281846E+03  d E =0.509317E-10
       N       E                     dE             d eps       ncg     rms          rms(c)
DAV:   1    -0.302776196914E+03    0.84401E-09   -0.25160E-10   312   0.121E-10    0.305E-10
RMM:   2    -0.302776196914E+03    0.28376E-09    0.00000E+00     2   0.930E-11
 102 F= -.30277620E+03 E0= -.30281846E+03  d E =0.436557E-10
       N       E                     dE             d eps       ncg     rms          rms(c)
DAV:   1    -0.302776196914E+03   -0.18190E-09   -0.21048E-10   312   0.326E-10    0.284E-10
RMM:   2    -0.302776196914E+03    0.37107E-09    0.00000E+00     2   0.922E-11
 103 F= -.30277620E+03 E0= -.30281846E+03  d E =-.945874E-10
       N       E                     dE             d eps       ncg     rms          rms(c)
DAV:   1    -0.302776196914E+03   -0.28376E-09    0.62061E-12   312   0.234E-10    0.439E-10
RMM:   2    -0.302776196914E+03    0.69122E-09    0.00000E+00     2   0.117E-10
 104 F= -.30277620E+03 E0= -.30281846E+03  d E =0.363798E-10
       N       E                     dE             d eps       ncg     rms          rms(c)
DAV:   1    -0.302776196914E+03    0.46566E-09   -0.55403E-11   312   0.390E-10    0.370E-10
RMM:   2    -0.302776196914E+03    0.25466E-09    0.00000E+00     2   0.943E-11
 105 F= -.30277620E+03 E0= -.30281846E+03  d E =0.291038E-10
       N       E                     dE             d eps       ncg     rms          rms(c)
DAV:   1    -0.302776196913E+03    0.69849E-09   -0.31372E-11   312   0.242E-10    0.218E-10
RMM:   2    -0.302776196914E+03   -0.45839E-09    0.00000E+00     2   0.707E-11
 106 F= -.30277620E+03 E0= -.30281846E+03  d E =-.145519E-10
       N       E                     dE             d eps       ncg     rms          rms(c)
DAV:   1    -0.302776196914E+03   -0.82946E-09   -0.22501E-10   312   0.146E-10    0.203E-10
RMM:   2    -0.302776196914E+03    0.43656E-09    0.00000E+00     2   0.682E-11
 107 F= -.30277620E+03 E0= -.30281846E+03  d E =0.654836E-10
       N       E                     dE             d eps       ncg     rms          rms(c)
DAV:   1    -0.302776196914E+03    0.94587E-10   -0.41091E-11   312   0.159E-10    0.304E-10
RMM:   2    -0.302776196914E+03    0.26921E-09    0.00000E+00     2   0.981E-11
 108 F= -.30277620E+03 E0= -.30281846E+03  d E =-.727596E-10
       N       E                     dE             d eps       ncg     rms          rms(c)
DAV:   1    -0.302776196914E+03   -0.25466E-09   -0.14987E-10   312   0.239E-10    0.254E-10
RMM:   2    -0.302776196914E+03    0.45839E-09    0.00000E+00     2   0.776E-11
 109 F= -.30277620E+03 E0= -.30281846E+03  d E =-.654836E-10
       N       E                     dE             d eps       ncg     rms          rms(c)
DAV:   1    -0.302776196914E+03    0.30559E-09   -0.24888E-11   312   0.113E-10    0.324E-10
RMM:   2    -0.302776196914E+03    0.16007E-09    0.00000E+00     2   0.909E-11
 110 F= -.30277620E+03 E0= -.30281846E+03  d E =0.727596E-11
       N       E                     dE             d eps       ncg     rms          rms(c)
DAV:   1    -0.302776196913E+03    0.87311E-09    0.18166E-11   312   0.289E-10    0.229E-10
RMM:   2    -0.302776196914E+03   -0.66939E-09    0.00000E+00     2   0.806E-11
 111 F= -.30277620E+03 E0= -.30281846E+03  d E =0.436557E-10
       N       E                     dE             d eps       ncg     rms          rms(c)
DAV:   1    -0.302776196914E+03   -0.12078E-08    0.16668E-10   312   0.211E-10    0.155E-10
RMM:   2    -0.302776196914E+03    0.55297E-09    0.00000E+00     2   0.619E-11
 112 F= -.30277620E+03 E0= -.30281846E+03  d E =0.145519E-10
       N       E                     dE             d eps       ncg     rms          rms(c)
DAV:   1    -0.302776196912E+03    0.17390E-08   -0.84561E-11   312   0.105E-10    0.214E-10
RMM:   2    -0.302776196914E+03   -0.12005E-08    0.00000E+00     2   0.653E-11
 113 F= -.30277620E+03 E0= -.30281846E+03  d E =-.145519E-10
       N       E                     dE             d eps       ncg     rms          rms(c)
DAV:   1    -0.302776196915E+03   -0.21173E-08    0.73773E-11   312   0.118E-10    0.321E-10
RMM:   2    -0.302776196914E+03    0.89494E-09    0.00000E+00     2   0.825E-11
 114 F= -.30277620E+03 E0= -.30281846E+03  d E =-.218279E-10
       N       E                     dE             d eps       ncg     rms          rms(c)
DAV:   1    -0.302776196914E+03    0.60390E-09    0.47181E-11   312   0.179E-10    0.245E-10
RMM:   2    -0.302776196914E+03    0.39290E-09    0.00000E+00     2   0.842E-11
 115 F= -.30277620E+03 E0= -.30281846E+03  d E =0.101863E-09
       N       E                     dE             d eps       ncg     rms          rms(c)
DAV:   1    -0.302776196914E+03   -0.21100E-09   -0.19350E-11   312   0.200E-10    0.271E-10
RMM:   2    -0.302776196914E+03    0.61118E-09    0.00000E+00     2   0.868E-11
 116 F= -.30277620E+03 E0= -.30281846E+03  d E =0.727596E-11
       N       E                     dE             d eps       ncg     rms          rms(c)
DAV:   1    -0.302776196914E+03    0.58208E-09   -0.52738E-11   312   0.194E-10    0.323E-10
RMM:   2    -0.302776196914E+03   -0.36380E-10    0.00000E+00     2   0.961E-11
 117 F= -.30277620E+03 E0= -.30281846E+03  d E =-.654836E-10
       N       E                     dE             d eps       ncg     rms          rms(c)
DAV:   1    -0.302776196913E+03    0.82946E-09   -0.51416E-11   312   0.249E-10    0.240E-10
RMM:   2    -0.302776196914E+03   -0.87311E-09    0.00000E+00     2   0.725E-11
 118 F= -.30277620E+03 E0= -.30281846E+03  d E =-.727596E-11
       N       E                     dE             d eps       ncg     rms          rms(c)
DAV:   1    -0.302776196914E+03   -0.13533E-08    0.73627E-11   312   0.205E-10    0.238E-10
RMM:   2    -0.302776196914E+03    0.40018E-09    0.00000E+00     2   0.706E-11
 119 F= -.30277620E+03 E0= -.30281846E+03  d E =-.800355E-10
       N       E                     dE             d eps       ncg     rms          rms(c)
DAV:   1    -0.302776196913E+03    0.77125E-09   -0.90835E-11   312   0.170E-10    0.343E-10
RMM:   2    -0.302776196914E+03   -0.26921E-09    0.00000E+00     2   0.945E-11
 120 F= -.30277620E+03 E0= -.30281846E+03  d E =0.101863E-09
       N       E                     dE             d eps       ncg     rms          rms(c)
DAV:   1    -0.302776196915E+03   -0.14261E-08   -0.15050E-10   312   0.306E-10    0.358E-10
RMM:   2    -0.302776196914E+03    0.11423E-08    0.00000E+00     2   0.956E-11
 121 F= -.30277620E+03 E0= -.30281846E+03  d E =-.145519E-10
       N       E                     dE             d eps       ncg     rms          rms(c)
DAV:   1    -0.302776196912E+03    0.25393E-08   -0.99959E-11   312   0.173E-10    0.240E-10
RMM:   2    -0.302776196914E+03   -0.15061E-08    0.00000E+00     2   0.909E-11
 122 F= -.30277620E+03 E0= -.30281846E+03  d E =-.109139E-09
       N       E                     dE             d eps       ncg     rms          rms(c)
DAV:   1    -0.302776196913E+03   -0.89494E-09    0.39107E-12   312   0.211E-10    0.362E-10
RMM:   2    -0.302776196914E+03   -0.43656E-09    0.00000E+00     2   0.116E-10
 123 F= -.30277620E+03 E0= -.30281846E+03  d E =0.174623E-09
       N       E                     dE             d eps       ncg     rms          rms(c)
DAV:   1    -0.302776196914E+03   -0.66211E-09   -0.46863E-11   312   0.315E-10    0.290E-10
RMM:   2    -0.302776196914E+03    0.14552E-09    0.00000E+00     2   0.104E-10
 124 F= -.30277620E+03 E0= -.30281846E+03  d E =-.800355E-10
       N       E                     dE             d eps       ncg     rms          rms(c)
DAV:   1    -0.302776196913E+03    0.90949E-09    0.14700E-10   312   0.273E-10    0.220E-10
RMM:   2    -0.302776196914E+03   -0.66211E-09    0.00000E+00     2   0.685E-11
 125 F= -.30277620E+03 E0= -.30281846E+03  d E =0.101863E-09
       N       E                     dE             d eps       ncg     rms          rms(c)
DAV:   1    -0.302776196913E+03    0.33469E-09   -0.18901E-10   312   0.114E-10    0.255E-10
RMM:   2    -0.302776196914E+03   -0.10550E-08    0.00000E+00     2   0.722E-11
 126 F= -.30277620E+03 E0= -.30281846E+03  d E =-.582077E-10
       N       E                     dE             d eps       ncg     rms          rms(c)
DAV:   1    -0.302776196913E+03   -0.44383E-09   -0.30911E-10   312   0.169E-10    0.306E-10
RMM:   2    -0.302776196914E+03   -0.61846E-09    0.00000E+00     2   0.924E-11
 127 F= -.30277620E+03 E0= -.30281846E+03  d E =-.727596E-11
       N       E                     dE             d eps       ncg     rms          rms(c)
DAV:   1    -0.302776196915E+03   -0.20445E-08    0.46955E-11   312   0.274E-10    0.289E-10
RMM:   2    -0.302776196914E+03    0.13606E-08    0.00000E+00     2   0.885E-11
 128 F= -.30277620E+03 E0= -.30281846E+03  d E =-.654836E-10
       N       E                     dE             d eps       ncg     rms          rms(c)
DAV:   1    -0.302776196913E+03    0.18044E-08   -0.10556E-10   312   0.118E-10    0.233E-10
RMM:   2    -0.302776196914E+03   -0.44383E-09    0.00000E+00     2   0.695E-11
 129 F= -.30277620E+03 E0= -.30281846E+03  d E =0.000000E+00
       N       E                     dE             d eps       ncg     rms          rms(c)
DAV:   1    -0.302776196914E+03   -0.53114E-09   -0.15198E-10   312   0.121E-10    0.186E-10
RMM:   2    -0.302776196914E+03    0.10914E-09    0.00000E+00     2   0.732E-11
 130 F= -.30277620E+03 E0= -.30281846E+03  d E =0.218279E-10
       N       E                     dE             d eps       ncg     rms          rms(c)
DAV:   1    -0.302776196914E+03   -0.42201E-09    0.42076E-11   312   0.122E-10    0.304E-10
RMM:   2    -0.302776196914E+03    0.49477E-09    0.00000E+00     2   0.817E-11
 131 F= -.30277620E+03 E0= -.30281846E+03  d E =-.363798E-10
       N       E                     dE             d eps       ncg     rms          rms(c)
DAV:   1    -0.302776196915E+03   -0.45839E-09   -0.81345E-11   312   0.205E-10    0.272E-10
RMM:   2    -0.302776196914E+03    0.10987E-08    0.00000E+00     2   0.892E-11
 132 F= -.30277620E+03 E0= -.30281846E+03  d E =0.145519E-09
       N       E                     dE             d eps       ncg     rms          rms(c)
DAV:   1    -0.302776196914E+03    0.25466E-09   -0.24131E-10   312   0.191E-10    0.362E-10
RMM:   2    -0.302776196914E+03    0.65484E-09    0.00000E+00     2   0.119E-10
 133 F= -.30277620E+03 E0= -.30281846E+03  d E =-.189175E-09
       N       E                     dE             d eps       ncg     rms          rms(c)
DAV:   1    -0.302776196914E+03    0.34197E-09    0.39910E-11   312   0.422E-10    0.225E-10
RMM:   2    -0.302776196914E+03    0.34197E-09    0.00000E+00     2   0.934E-11
 134 F= -.30277620E+03 E0= -.30281846E+03  d E =0.291038E-10
       N       E                     dE             d eps       ncg     rms          rms(c)
DAV:   1    -0.302776196914E+03    0.10914E-09   -0.58618E-11   312   0.229E-10    0.335E-10
RMM:   2    -0.302776196914E+03    0.37107E-09    0.00000E+00     2   0.109E-10
 135 F= -.30277620E+03 E0= -.30281846E+03  d E =0.138243E-09
       N       E                     dE             d eps       ncg     rms          rms(c)
DAV:   1    -0.302776196913E+03    0.75670E-09   -0.12583E-10   312   0.389E-10    0.268E-10
RMM:   2    -0.302776196914E+03   -0.48021E-09    0.00000E+00     2   0.915E-11
 136 F= -.30277620E+03 E0= -.30281846E+03  d E =-.945874E-10
       N       E                     dE             d eps       ncg     rms          rms(c)
DAV:   1    -0.302776196914E+03   -0.80763E-09   -0.19153E-10   312   0.204E-10    0.258E-10
RMM:   2    -0.302776196914E+03    0.32742E-09    0.00000E+00     2   0.893E-11
 137 F= -.30277620E+03 E0= -.30281846E+03  d E =0.000000E+00
       N       E                     dE             d eps       ncg     rms          rms(c)
DAV:   1    -0.302776196911E+03    0.26339E-08    0.47920E-11   312   0.146E-10    0.248E-10
RMM:   2    -0.302776196914E+03   -0.22119E-08    0.00000E+00     2   0.840E-11
 138 F= -.30277620E+03 E0= -.30281846E+03  d E =0.945874E-10
       N       E                     dE             d eps       ncg     rms          rms(c)
DAV:   1    -0.302776196913E+03   -0.20227E-08   -0.21658E-10   312   0.181E-10    0.236E-10
RMM:   2    -0.302776196914E+03   -0.32742E-09    0.00000E+00     2   0.870E-11
 139 F= -.30277620E+03 E0= -.30281846E+03  d E =-.138243E-09
       N       E                     dE             d eps       ncg     rms          rms(c)
DAV:   1    -0.302776196913E+03   -0.72760E-10    0.16924E-11   312   0.142E-10    0.262E-10
RMM:   2    -0.302776196914E+03   -0.13097E-09    0.00000E+00     2   0.794E-11
 140 F= -.30277620E+03 E0= -.30281846E+03  d E =0.123691E-09
       N       E                     dE             d eps       ncg     rms          rms(c)
DAV:   1    -0.302776196913E+03    0.13824E-09   -0.12807E-10   312   0.115E-10    0.223E-10
RMM:   2    -0.302776196914E+03   -0.33469E-09    0.00000E+00     2   0.730E-11
 141 F= -.30277620E+03 E0= -.30281846E+03  d E =-.654836E-10
       N       E                     dE             d eps       ncg     rms          rms(c)
DAV:   1    -0.302776196913E+03    0.50932E-10    0.22195E-10   312   0.143E-10    0.274E-10
RMM:   2    -0.302776196914E+03   -0.32014E-09    0.00000E+00     2   0.932E-11
 142 F= -.30277620E+03 E0= -.30281846E+03  d E =0.654836E-10
       N       E                     dE             d eps       ncg     rms          rms(c)
DAV:   1    -0.302776196912E+03    0.76398E-09   -0.14400E-10   312   0.213E-10    0.314E-10
RMM:   2    -0.302776196914E+03   -0.11423E-08    0.00000E+00     2   0.862E-11
 143 F= -.30277620E+03 E0= -.30281846E+03  d E =-.582077E-10
       N       E                     dE             d eps       ncg     rms          rms(c)
DAV:   1    -0.302776196914E+03   -0.11132E-08   -0.19564E-10   312   0.186E-10    0.196E-10
RMM:   2    -0.302776196914E+03   -0.43656E-10    0.00000E+00     2   0.847E-11
 144 F= -.30277620E+03 E0= -.30281846E+03  d E =-.145519E-10
       N       E                     dE             d eps       ncg     rms          rms(c)
DAV:   1    -0.302776196914E+03   -0.51659E-09   -0.17855E-10   312   0.137E-10    0.257E-10
RMM:   2    -0.302776196914E+03    0.53842E-09    0.00000E+00     2   0.700E-11
 145 F= -.30277620E+03 E0= -.30281846E+03  d E =0.654836E-10
       N       E                     dE             d eps       ncg     rms          rms(c)
DAV:   1    -0.302776196914E+03   -0.80036E-10   -0.11861E-10   312   0.177E-10    0.283E-10
RMM:   2    -0.302776196914E+03    0.58935E-09    0.00000E+00     2   0.926E-11
 146 F= -.30277620E+03 E0= -.30281846E+03  d E =-.291038E-10
       N       E                     dE             d eps       ncg     rms          rms(c)
DAV:   1    -0.302776196913E+03    0.87311E-09   -0.34786E-10   312   0.272E-10    0.292E-10
RMM:   2    -0.302776196914E+03   -0.39290E-09    0.00000E+00     2   0.976E-11
 147 F= -.30277620E+03 E0= -.30281846E+03  d E =-.109139E-09
       N       E                     dE             d eps       ncg     rms          rms(c)
DAV:   1    -0.302776196912E+03    0.83674E-09   -0.14727E-10   312   0.235E-10    0.282E-10
RMM:   2    -0.302776196914E+03   -0.11423E-08    0.00000E+00     2   0.921E-11
 148 F= -.30277620E+03 E0= -.30281846E+03  d E =0.873115E-10
       N       E                     dE             d eps       ncg     rms          rms(c)
DAV:   1    -0.302776196914E+03   -0.13388E-08    0.69544E-11   312   0.162E-10    0.270E-10
RMM:   2    -0.302776196914E+03    0.17462E-09    0.00000E+00     2   0.840E-11
 149 F= -.30277620E+03 E0= -.30281846E+03  d E =-.218279E-10
       N       E                     dE             d eps       ncg     rms          rms(c)
DAV:   1    -0.302776196913E+03    0.71304E-09   -0.13603E-10   312   0.233E-10    0.359E-10
RMM:   2    -0.302776196914E+03   -0.51659E-09    0.00000E+00     2   0.110E-10
 150 F= -.30277620E+03 E0= -.30281846E+03  d E =0.218279E-10
       N       E                     dE             d eps       ncg     rms          rms(c)
DAV:   1    -0.302776196912E+03    0.12151E-08   -0.11289E-10   312   0.346E-10    0.359E-10
RMM:   2    -0.302776196914E+03   -0.17171E-08    0.00000E+00     2   0.117E-10
 151 F= -.30277620E+03 E0= -.30281846E+03  d E =0.145519E-10
       N       E                     dE             d eps       ncg     rms          rms(c)
DAV:   1    -0.302776196915E+03   -0.30195E-08   -0.19059E-10   312   0.408E-10    0.492E-10
RMM:   2    -0.302776196914E+03    0.12660E-08    0.00000E+00     2   0.115E-10
 152 F= -.30277620E+03 E0= -.30281846E+03  d E =-.363798E-10
       N       E                     dE             d eps       ncg     rms          rms(c)
DAV:   1    -0.302776196914E+03    0.78580E-09   -0.15661E-10   312   0.239E-10    0.281E-10
RMM:   2    -0.302776196914E+03    0.53114E-09    0.00000E+00     2   0.876E-11
 153 F= -.30277620E+03 E0= -.30281846E+03  d E =0.509317E-10
       N       E                     dE             d eps       ncg     rms          rms(c)
DAV:   1    -0.302776196914E+03    0.53114E-09   -0.20888E-10   312   0.266E-10    0.161E-10
RMM:   2    -0.302776196914E+03   -0.13824E-09    0.00000E+00     2   0.716E-11
 154 F= -.30277620E+03 E0= -.30281846E+03  d E =-.138243E-09
       N       E                     dE             d eps       ncg     rms          rms(c)
DAV:   1    -0.302776196912E+03    0.17026E-08    0.65119E-11   312   0.134E-10    0.314E-10
RMM:   2    -0.302776196914E+03   -0.16735E-08    0.00000E+00     2   0.100E-10
 155 F= -.30277620E+03 E0= -.30281846E+03  d E =0.167347E-09
       N       E                     dE             d eps       ncg     rms          rms(c)
DAV:   1    -0.302776196913E+03   -0.11059E-08    0.25470E-12   312   0.316E-10    0.171E-10
RMM:   2    -0.302776196914E+03   -0.74942E-09    0.00000E+00     2   0.775E-11
 156 F= -.30277620E+03 E0= -.30281846E+03  d E =-.181899E-09
       N       E                     dE             d eps       ncg     rms          rms(c)
DAV:   1    -0.302776196915E+03   -0.19500E-08   -0.20355E-10   312   0.105E-10    0.374E-10
RMM:   2    -0.302776196914E+03    0.13606E-08    0.00000E+00     2   0.936E-11
 157 F= -.30277620E+03 E0= -.30281846E+03  d E =0.160071E-09
       N       E                     dE             d eps       ncg     rms          rms(c)
DAV:   1    -0.302776196914E+03    0.13169E-08   -0.42739E-11   312   0.253E-10    0.255E-10
RMM:   2    -0.302776196914E+03    0.72760E-11    0.00000E+00     2   0.108E-10
 158 F= -.30277620E+03 E0= -.30281846E+03  d E =-.363798E-10
       N       E                     dE             d eps       ncg     rms          rms(c)
DAV:   1    -0.302776196912E+03    0.12078E-08   -0.11996E-10   312   0.230E-10    0.306E-10
RMM:   2    -0.302776196914E+03   -0.12296E-08    0.00000E+00     2   0.854E-11
 159 F= -.30277620E+03 E0= -.30281846E+03  d E =-.291038E-10
       N       E                     dE             d eps       ncg     rms          rms(c)
DAV:   1    -0.302776196914E+03   -0.12005E-08   -0.72003E-11   312   0.210E-10    0.238E-10
RMM:   2    -0.302776196914E+03    0.14552E-10    0.00000E+00     2   0.986E-11
 160 F= -.30277620E+03 E0= -.30281846E+03  d E =0.436557E-10
       N       E                     dE             d eps       ncg     rms          rms(c)
DAV:   1    -0.302776196913E+03    0.53842E-09   -0.31738E-10   312   0.210E-10    0.333E-10
RMM:   2    -0.302776196914E+03   -0.54570E-09    0.00000E+00     2   0.971E-11
 161 F= -.30277620E+03 E0= -.30281846E+03  d E =-.218279E-10
       N       E                     dE             d eps       ncg     rms          rms(c)
DAV:   1    -0.302776196913E+03   -0.58208E-10   -0.13089E-10   312   0.320E-10    0.221E-10
RMM:   2    -0.302776196914E+03   -0.53114E-09    0.00000E+00     2   0.933E-11
 162 F= -.30277620E+03 E0= -.30281846E+03  d E =-.436557E-10
       N       E                     dE             d eps       ncg     rms          rms(c)
DAV:   1    -0.302776196914E+03   -0.58208E-09   -0.20220E-10   312   0.213E-10    0.261E-10
RMM:   2    -0.302776196914E+03    0.80036E-10    0.00000E+00     2   0.794E-11
 163 F= -.30277620E+03 E0= -.30281846E+03  d E =0.291038E-10
       N       E                     dE             d eps       ncg     rms          rms(c)
DAV:   1    -0.302776196913E+03    0.22555E-09   -0.88031E-11   312   0.193E-10    0.359E-10
RMM:   2    -0.302776196914E+03   -0.10186E-09    0.00000E+00     2   0.114E-10
 164 F= -.30277620E+03 E0= -.30281846E+03  d E =0.436557E-10
       N       E                     dE             d eps       ncg     rms          rms(c)
DAV:   1    -0.302776196913E+03    0.93132E-09   -0.15072E-10   312   0.401E-10    0.258E-10
RMM:   2    -0.302776196914E+03   -0.11205E-08    0.00000E+00     2   0.104E-10
 165 F= -.30277620E+03 E0= -.30281846E+03  d E =-.873115E-10
       N       E                     dE             d eps       ncg     rms          rms(c)
DAV:   1    -0.302776196914E+03   -0.15352E-08   -0.37626E-11   312   0.265E-10    0.174E-10
RMM:   2    -0.302776196914E+03    0.38563E-09    0.00000E+00     2   0.670E-11
 166 F= -.30277620E+03 E0= -.30281846E+03  d E =-.291038E-10
       N       E                     dE             d eps       ncg     rms          rms(c)
DAV:   1    -0.302776196913E+03    0.11423E-08   -0.19634E-10   312   0.833E-11    0.301E-10
RMM:   2    -0.302776196914E+03   -0.71304E-09    0.00000E+00     2   0.852E-11
 167 F= -.30277620E+03 E0= -.30281846E+03  d E =0.436557E-10
       N       E                     dE             d eps       ncg     rms          rms(c)
DAV:   1    -0.302776196913E+03    0.34925E-09   -0.94265E-11   312   0.207E-10    0.217E-10
RMM:   2    -0.302776196914E+03   -0.11205E-08    0.00000E+00     2   0.775E-11
 168 F= -.30277620E+03 E0= -.30281846E+03  d E =-.582077E-10
       N       E                     dE             d eps       ncg     rms          rms(c)
DAV:   1    -0.302776196914E+03   -0.13824E-08   -0.15821E-11   312   0.189E-10    0.422E-10
RMM:   2    -0.302776196914E+03    0.42201E-09    0.00000E+00     2   0.121E-10
 169 F= -.30277620E+03 E0= -.30281846E+03  d E =0.160071E-09
       N       E                     dE             d eps       ncg     rms          rms(c)
DAV:   1    -0.302776196914E+03    0.45839E-09   -0.15401E-10   312   0.394E-10    0.232E-10
RMM:   2    -0.302776196914E+03   -0.21828E-10    0.00000E+00     2   0.944E-11
 170 F= -.30277620E+03 E0= -.30281846E+03  d E =0.145519E-10
       N       E                     dE             d eps       ncg     rms          rms(c)
DAV:   1    -0.302776196912E+03    0.11132E-08    0.50810E-11   312   0.182E-10    0.288E-10
RMM:   2    -0.302776196914E+03   -0.12005E-08    0.00000E+00     2   0.965E-11
 171 F= -.30277620E+03 E0= -.30281846E+03  d E =-.654836E-10
       N       E                     dE             d eps       ncg     rms          rms(c)
DAV:   1    -0.302776196914E+03   -0.13242E-08   -0.39789E-11   312   0.176E-10    0.418E-10
RMM:   2    -0.302776196914E+03    0.11642E-09    0.00000E+00     2   0.114E-10
 172 F= -.30277620E+03 E0= -.30281846E+03  d E =-.727596E-11
       N       E                     dE             d eps       ncg     rms          rms(c)
DAV:   1    -0.302776196915E+03   -0.94587E-09   -0.42824E-10   312   0.197E-10    0.312E-10
RMM:   2    -0.302776196914E+03    0.10768E-08    0.00000E+00     2   0.100E-10
 173 F= -.30277620E+03 E0= -.30281846E+03  d E =0.145519E-10
       N       E                     dE             d eps       ncg     rms          rms(c)
DAV:   1    -0.302776196915E+03   -0.30559E-09   -0.13587E-10   312   0.305E-10    0.207E-10
RMM:   2    -0.302776196914E+03    0.13388E-08    0.00000E+00     2   0.806E-11
 174 F= -.30277620E+03 E0= -.30281846E+03  d E =-.436557E-10
       N       E                     dE             d eps       ncg     rms          rms(c)
DAV:   1    -0.302776196913E+03    0.19791E-08   -0.73637E-11   312   0.132E-10    0.455E-10
RMM:   2    -0.302776196914E+03   -0.68394E-09    0.00000E+00     2   0.129E-10
 175 F= -.30277620E+03 E0= -.30281846E+03  d E =-.436557E-10
       N       E                     dE             d eps       ncg     rms          rms(c)
DAV:   1    -0.302776196913E+03    0.23283E-09   -0.17863E-10   312   0.407E-10    0.235E-10
RMM:   2    -0.302776196914E+03   -0.88767E-09    0.00000E+00     2   0.916E-11
 176 F= -.30277620E+03 E0= -.30281846E+03  d E =0.291038E-10
       N       E                     dE             d eps       ncg     rms          rms(c)
DAV:   1    -0.302776196913E+03   -0.30559E-09   -0.10182E-10   312   0.162E-10    0.251E-10
RMM:   2    -0.302776196914E+03   -0.43656E-09    0.00000E+00     2   0.887E-11
 177 F= -.30277620E+03 E0= -.30281846E+03  d E =0.145519E-09
       N       E                     dE             d eps       ncg     rms          rms(c)
DAV:   1    -0.302776196915E+03   -0.20082E-08    0.11311E-10   312   0.243E-10    0.223E-10
RMM:   2    -0.302776196914E+03    0.14479E-08    0.00000E+00     2   0.101E-10
 178 F= -.30277620E+03 E0= -.30281846E+03  d E =-.123691E-09
       N       E                     dE             d eps       ncg     rms          rms(c)
DAV:   1    -0.302776196914E+03    0.14843E-08   -0.19241E-11   312   0.256E-10    0.355E-10
RMM:   2    -0.302776196914E+03    0.29104E-10    0.00000E+00     2   0.111E-10
 179 F= -.30277620E+03 E0= -.30281846E+03  d E =0.654836E-10
       N       E                     dE             d eps       ncg     rms          rms(c)
DAV:   1    -0.302776196913E+03    0.75670E-09    0.13340E-10   312   0.360E-10    0.385E-10
RMM:   2    -0.302776196914E+03   -0.71304E-09    0.00000E+00     2   0.120E-10
 180 F= -.30277620E+03 E0= -.30281846E+03  d E =0.145519E-10
       N       E                     dE             d eps       ncg     rms          rms(c)
DAV:   1    -0.302776196912E+03    0.13024E-08   -0.27196E-10   312   0.418E-10    0.397E-10
RMM:   2    -0.302776196914E+03   -0.20445E-08    0.00000E+00     2   0.112E-10
 181 F= -.30277620E+03 E0= -.30281846E+03  d E =-.291038E-10
       N       E                     dE             d eps       ncg     rms          rms(c)
DAV:   1    -0.302776196913E+03   -0.17899E-08   -0.18321E-10   312   0.390E-10    0.230E-10
RMM:   2    -0.302776196914E+03   -0.36380E-09    0.00000E+00     2   0.821E-11
 182 F= -.30277620E+03 E0= -.30281846E+03  d E =-.109139E-09
       N       E                     dE             d eps       ncg     rms          rms(c)
DAV:   1    -0.302776196913E+03    0.50204E-09   -0.90761E-11   312   0.264E-10    0.295E-10
RMM:   2    -0.302776196914E+03   -0.77125E-09    0.00000E+00     2   0.875E-11
 183 F= -.30277620E+03 E0= -.30281846E+03  d E =0.945874E-10
       N       E                     dE             d eps       ncg     rms          rms(c)
DAV:   1    -0.302776196914E+03   -0.80763E-09   -0.15969E-10   312   0.125E-10    0.537E-10
RMM:   2    -0.302776196914E+03   -0.11642E-09    0.00000E+00     2   0.126E-10
 184 F= -.30277620E+03 E0= -.30281846E+03  d E =-.152795E-09
       N       E                     dE             d eps       ncg     rms          rms(c)
DAV:   1    -0.302776196914E+03    0.94587E-10   -0.27745E-11   312   0.407E-10    0.442E-10
RMM:   2    -0.302776196914E+03   -0.29104E-10    0.00000E+00     2   0.106E-10
 185 F= -.30277620E+03 E0= -.30281846E+03  d E =0.181899E-09
       N       E                     dE             d eps       ncg     rms          rms(c)
DAV:   1    -0.302776196913E+03    0.80036E-10   -0.30627E-10   312   0.285E-10    0.337E-10
RMM:   2    -0.302776196914E+03   -0.43656E-10    0.00000E+00     2   0.103E-10
 186 F= -.30277620E+03 E0= -.30281846E+03  d E =0.654836E-10
       N       E                     dE             d eps       ncg     rms          rms(c)
DAV:   1    -0.302776196915E+03   -0.11860E-08   -0.70929E-11   312   0.249E-10    0.455E-10
RMM:   2    -0.302776196914E+03    0.10259E-08    0.00000E+00     2   0.118E-10
 187 F= -.30277620E+03 E0= -.30281846E+03  d E =-.116415E-09
       N       E                     dE             d eps       ncg     rms          rms(c)
DAV:   1    -0.302776196914E+03    0.10114E-08    0.13765E-10   312   0.393E-10    0.236E-10
RMM:   2    -0.302776196914E+03    0.94587E-10    0.00000E+00     2   0.774E-11
 188 F= -.30277620E+03 E0= -.30281846E+03  d E =0.800355E-10
       N       E                     dE             d eps       ncg     rms          rms(c)
DAV:   1    -0.302776196914E+03    0.94587E-10    0.23509E-11   312   0.186E-10    0.195E-10
RMM:   2    -0.302776196914E+03   -0.58208E-10    0.00000E+00     2   0.757E-11
 189 F= -.30277620E+03 E0= -.30281846E+03  d E =-.582077E-10
       N       E                     dE             d eps       ncg     rms          rms(c)
DAV:   1    -0.302776196914E+03   -0.31287E-09   -0.14587E-10   312   0.128E-10    0.431E-10
RMM:   2    -0.302776196914E+03    0.26193E-09    0.00000E+00     2   0.998E-11
 190 F= -.30277620E+03 E0= -.30281846E+03  d E =0.727596E-11
       N       E                     dE             d eps       ncg     rms          rms(c)
DAV:   1    -0.302776196913E+03    0.11714E-08   -0.12855E-10   312   0.280E-10    0.387E-10
RMM:   2    -0.302776196914E+03   -0.93132E-09    0.00000E+00     2   0.109E-10
 191 F= -.30277620E+03 E0= -.30281846E+03  d E =-.218279E-10
       N       E                     dE             d eps       ncg     rms          rms(c)
DAV:   1    -0.302776196914E+03   -0.14115E-08   -0.16911E-11   312   0.299E-10    0.248E-10
RMM:   2    -0.302776196914E+03    0.50932E-09    0.00000E+00     2   0.820E-11
 192 F= -.30277620E+03 E0= -.30281846E+03  d E =0.291038E-10
       N       E                     dE             d eps       ncg     rms          rms(c)
DAV:   1    -0.302776196915E+03   -0.42928E-09    0.51597E-12   312   0.176E-10    0.182E-10
RMM:   2    -0.302776196914E+03    0.83674E-09    0.00000E+00     2   0.724E-11
 193 F= -.30277620E+03 E0= -.30281846E+03  d E =-.101863E-09
       N       E                     dE             d eps       ncg     rms          rms(c)
DAV:   1    -0.302776196914E+03    0.42928E-09   -0.12812E-10   312   0.123E-10    0.313E-10
RMM:   2    -0.302776196914E+03    0.42201E-09    0.00000E+00     2   0.845E-11
 194 F= -.30277620E+03 E0= -.30281846E+03  d E =0.145519E-10
       N       E                     dE             d eps       ncg     rms          rms(c)
DAV:   1    -0.302776196914E+03   -0.28376E-09   -0.64681E-11   312   0.173E-10    0.379E-10
RMM:   2    -0.302776196914E+03    0.77853E-09    0.00000E+00     2   0.100E-10
 195 F= -.30277620E+03 E0= -.30281846E+03  d E =0.727596E-10
       N       E                     dE             d eps       ncg     rms          rms(c)
DAV:   1    -0.302776196913E+03    0.15134E-08   -0.15138E-10   312   0.300E-10    0.234E-10
RMM:   2    -0.302776196914E+03   -0.69849E-09    0.00000E+00     2   0.937E-11
 196 F= -.30277620E+03 E0= -.30281846E+03  d E =0.363798E-10
       N       E                     dE             d eps       ncg     rms          rms(c)
DAV:   1    -0.302776196913E+03   -0.14552E-09    0.41882E-12   312   0.142E-10    0.255E-10
RMM:   2    -0.302776196914E+03   -0.56025E-09    0.00000E+00     2   0.925E-11
 197 F= -.30277620E+03 E0= -.30281846E+03  d E =-.727596E-11
       N       E                     dE             d eps       ncg     rms          rms(c)
DAV:   1    -0.302776196915E+03   -0.21246E-08   -0.30552E-10   312   0.230E-10    0.307E-10
RMM:   2    -0.302776196914E+03    0.14552E-08    0.00000E+00     2   0.930E-11
 198 F= -.30277620E+03 E0= -.30281846E+03  d E =-.109139E-09
       N       E                     dE             d eps       ncg     rms          rms(c)
DAV:   1    -0.302776196914E+03    0.95315E-09    0.71972E-11   312   0.148E-10    0.249E-10
RMM:   2    -0.302776196914E+03    0.53114E-09    0.00000E+00     2   0.885E-11
 199 F= -.30277620E+03 E0= -.30281846E+03  d E =0.291038E-10
       N       E                     dE             d eps       ncg     rms          rms(c)
DAV:   1    -0.302776196913E+03    0.13970E-08   -0.72079E-11   312   0.184E-10    0.241E-10
RMM:   2    -0.302776196914E+03   -0.82946E-09    0.00000E+00     2   0.998E-11
 200 F= -.30277620E+03 E0= -.30281846E+03  d E =0.363798E-10
       N       E                     dE             d eps       ncg     rms          rms(c)
DAV:   1    -0.302776196914E+03   -0.86584E-09   -0.12309E-10   312   0.272E-10    0.348E-10
RMM:   2    -0.302776196914E+03    0.94587E-10    0.00000E+00     2   0.942E-11
 201 F= -.30277620E+03 E0= -.30281846E+03  d E =0.582077E-10
       N       E                     dE             d eps       ncg     rms          rms(c)
DAV:   1    -0.302776196912E+03    0.12587E-08   -0.20839E-10   312   0.236E-10    0.226E-10
RMM:   2    -0.302776196914E+03   -0.12442E-08    0.00000E+00     2   0.845E-11
 202 F= -.30277620E+03 E0= -.30281846E+03  d E =-.800355E-10
       N       E                     dE             d eps       ncg     rms          rms(c)
DAV:   1    -0.302776196915E+03   -0.21901E-08   -0.94540E-11   312   0.167E-10    0.410E-10
RMM:   2    -0.302776196914E+03    0.96043E-09    0.00000E+00     2   0.104E-10
 203 F= -.30277620E+03 E0= -.30281846E+03  d E =0.145519E-10
       N       E                     dE             d eps       ncg     rms          rms(c)
DAV:   1    -0.302776196914E+03    0.96770E-09   -0.29405E-10   312   0.299E-10    0.407E-10
RMM:   2    -0.302776196914E+03    0.72760E-10    0.00000E+00     2   0.994E-11
 204 F= -.30277620E+03 E0= -.30281846E+03  d E =0.800355E-10
       N       E                     dE             d eps       ncg     rms          rms(c)
DAV:   1    -0.302776196913E+03    0.43656E-09   -0.17131E-10   312   0.180E-10    0.396E-10
RMM:   2    -0.302776196914E+03   -0.41473E-09    0.00000E+00     2   0.122E-10
 205 F= -.30277620E+03 E0= -.30281846E+03  d E =-.509317E-10
       N       E                     dE             d eps       ncg     rms          rms(c)
DAV:   1    -0.302776196913E+03    0.21828E-10   -0.12506E-10   312   0.363E-10    0.237E-10
RMM:   2    -0.302776196914E+03   -0.47294E-09    0.00000E+00     2   0.973E-11
 206 F= -.30277620E+03 E0= -.30281846E+03  d E =-.363798E-10
       N       E                     dE             d eps       ncg     rms          rms(c)
DAV:   1    -0.302776196913E+03   -0.29831E-09   -0.18235E-10   312   0.204E-10    0.235E-10
RMM:   2    -0.302776196914E+03   -0.22555E-09    0.00000E+00     2   0.912E-11
 207 F= -.30277620E+03 E0= -.30281846E+03  d E =-.509317E-10
       N       E                     dE             d eps       ncg     rms          rms(c)
DAV:   1    -0.302776196915E+03   -0.14697E-08   -0.11213E-10   312   0.237E-10    0.220E-10
RMM:   2    -0.302776196914E+03    0.12515E-08    0.00000E+00     2   0.742E-11
 208 F= -.30277620E+03 E0= -.30281846E+03  d E =0.727596E-11
       N       E                     dE             d eps       ncg     rms          rms(c)
DAV:   1    -0.302776196913E+03    0.22046E-08   -0.14880E-10   312   0.953E-11    0.321E-10
RMM:   2    -0.302776196914E+03   -0.98953E-09    0.00000E+00     2   0.825E-11
 209 F= -.30277620E+03 E0= -.30281846E+03  d E =-.363798E-10
       N       E                     dE             d eps       ncg     rms          rms(c)
DAV:   1    -0.302776196914E+03   -0.96043E-09   -0.11174E-10   312   0.155E-10    0.314E-10
RMM:   2    -0.302776196914E+03    0.00000E+00    0.00000E+00     2   0.824E-11
 210 F= -.30277620E+03 E0= -.30281846E+03  d E =0.291038E-10
       N       E                     dE             d eps       ncg     rms          rms(c)
DAV:   1    -0.302776196913E+03    0.62573E-09    0.81372E-11   312   0.136E-10    0.259E-10
RMM:   2    -0.302776196914E+03   -0.55297E-09    0.00000E+00     2   0.774E-11
 211 F= -.30277620E+03 E0= -.30281846E+03  d E =0.727596E-10
       N       E                     dE             d eps       ncg     rms          rms(c)
DAV:   1    -0.302776196913E+03    0.36380E-10    0.85508E-11   312   0.194E-10    0.260E-10
RMM:   2    -0.302776196914E+03   -0.72032E-09    0.00000E+00     2   0.846E-11
 212 F= -.30277620E+03 E0= -.30281846E+03  d E =-.130967E-09
       N       E                     dE             d eps       ncg     rms          rms(c)
DAV:   1    -0.302776196912E+03    0.86584E-09    0.16737E-10   312   0.255E-10    0.256E-10
RMM:   2    -0.302776196914E+03   -0.14770E-08    0.00000E+00     2   0.868E-11
 213 F= -.30277620E+03 E0= -.30281846E+03  d E =0.109139E-09
       N       E                     dE             d eps       ncg     rms          rms(c)
DAV:   1    -0.302776196913E+03   -0.60390E-09   -0.97625E-12   312   0.180E-10    0.418E-10
RMM:   2    -0.302776196914E+03   -0.93132E-09    0.00000E+00     2   0.107E-10
 214 F= -.30277620E+03 E0= -.30281846E+03  d E =-.582077E-10
       N       E                     dE             d eps       ncg     rms          rms(c)
DAV:   1    -0.302776196914E+03   -0.11132E-08   -0.19559E-10   312   0.286E-10    0.330E-10
RMM:   2    -0.302776196914E+03    0.26193E-09    0.00000E+00     2   0.111E-10
 215 F= -.30277620E+03 E0= -.30281846E+03  d E =0.800355E-10
       N       E                     dE             d eps       ncg     rms          rms(c)
DAV:   1    -0.302776196913E+03    0.66211E-09   -0.45712E-11   312   0.280E-10    0.228E-10
RMM:   2    -0.302776196914E+03   -0.38563E-09    0.00000E+00     2   0.785E-11
 216 F= -.30277620E+03 E0= -.30281846E+03  d E =0.145519E-10
       N       E                     dE             d eps       ncg     rms          rms(c)
DAV:   1    -0.302776196913E+03    0.48021E-09    0.17635E-10   312   0.150E-10    0.284E-10
RMM:   2    -0.302776196914E+03   -0.82946E-09    0.00000E+00     2   0.843E-11
 217 F= -.30277620E+03 E0= -.30281846E+03  d E =0.363798E-10
       N       E                     dE             d eps       ncg     rms          rms(c)
DAV:   1    -0.302776196914E+03   -0.16516E-08   -0.11715E-10   312   0.127E-10    0.377E-10
RMM:   2    -0.302776196914E+03    0.73487E-09    0.00000E+00     2   0.985E-11
 218 F= -.30277620E+03 E0= -.30281846E+03  d E =-.873115E-10
       N       E                     dE             d eps       ncg     rms          rms(c)
DAV:   1    -0.302776196913E+03    0.15280E-08   -0.13389E-10   312   0.333E-10    0.225E-10
RMM:   2    -0.302776196914E+03   -0.81491E-09    0.00000E+00     2   0.793E-11
 219 F= -.30277620E+03 E0= -.30281846E+03  d E =-.218279E-10
       N       E                     dE             d eps       ncg     rms          rms(c)
DAV:   1    -0.302776196914E+03   -0.75670E-09   -0.28964E-11   312   0.163E-10    0.212E-10
RMM:   2    -0.302776196914E+03   -0.11642E-09    0.00000E+00     2   0.767E-11
 220 F= -.30277620E+03 E0= -.30281846E+03  d E =-.582077E-10
       N       E                     dE             d eps       ncg     rms          rms(c)
DAV:   1    -0.302776196914E+03   -0.88039E-09    0.90513E-11   312   0.194E-10    0.201E-10
RMM:   2    -0.302776196914E+03    0.88039E-09    0.00000E+00     2   0.701E-11
 221 F= -.30277620E+03 E0= -.30281846E+03  d E =0.116415E-09
       N       E                     dE             d eps       ncg     rms          rms(c)
DAV:   1    -0.302776196914E+03    0.66939E-09    0.59231E-11   312   0.134E-10    0.367E-10
RMM:   2    -0.302776196914E+03    0.24738E-09    0.00000E+00     2   0.105E-10
 222 F= -.30277620E+03 E0= -.30281846E+03  d E =0.363798E-10
       N       E                     dE             d eps       ncg     rms          rms(c)
DAV:   1    -0.302776196913E+03    0.50932E-09   -0.72381E-11   312   0.352E-10    0.215E-10
RMM:   2    -0.302776196914E+03   -0.33469E-09    0.00000E+00     2   0.888E-11
 223 F= -.30277620E+03 E0= -.30281846E+03  d E =-.727596E-10
       N       E                     dE             d eps       ncg     rms          rms(c)
DAV:   1    -0.302776196913E+03    0.71304E-09   -0.11032E-10   312   0.191E-10    0.266E-10
RMM:   2    -0.302776196914E+03   -0.10114E-08    0.00000E+00     2   0.955E-11
 224 F= -.30277620E+03 E0= -.30281846E+03  d E =0.363798E-10
       N       E                     dE             d eps       ncg     rms          rms(c)
DAV:   1    -0.302776196914E+03   -0.15498E-08   -0.19574E-11   312   0.195E-10    0.264E-10
RMM:   2    -0.302776196914E+03    0.55297E-09    0.00000E+00     2   0.780E-11
 225 F= -.30277620E+03 E0= -.30281846E+03  d E =0.145519E-10
       N       E                     dE             d eps       ncg     rms          rms(c)
DAV:   1    -0.302776196912E+03    0.18554E-08   -0.11809E-10   312   0.187E-10    0.239E-10
RMM:   2    -0.302776196914E+03   -0.12878E-08    0.00000E+00     2   0.752E-11
 226 F= -.30277620E+03 E0= -.30281846E+03  d E =0.145519E-10
       N       E                     dE             d eps       ncg     rms          rms(c)
DAV:   1    -0.302776196914E+03   -0.14479E-08   -0.18543E-10   312   0.103E-10    0.361E-10
RMM:   2    -0.302776196914E+03    0.80036E-10    0.00000E+00     2   0.867E-11
 227 F= -.30277620E+03 E0= -.30281846E+03  d E =-.800355E-10
       N       E                     dE             d eps       ncg     rms          rms(c)
DAV:   1    -0.302776196913E+03    0.11642E-08    0.12320E-11   312   0.123E-10    0.253E-10
RMM:   2    -0.302776196914E+03   -0.10987E-08    0.00000E+00     2   0.768E-11
 228 F= -.30277620E+03 E0= -.30281846E+03  d E =-.145519E-10
       N       E                     dE             d eps       ncg     rms          rms(c)
DAV:   1    -0.302776196914E+03   -0.95315E-09   -0.17352E-10   312   0.120E-10    0.199E-10
RMM:   2    -0.302776196914E+03   -0.72760E-11    0.00000E+00     2   0.740E-11
 229 F= -.30277620E+03 E0= -.30281846E+03  d E =0.138243E-09
       N       E                     dE             d eps       ncg     rms          rms(c)
DAV:   1    -0.302776196914E+03   -0.35652E-09   -0.31742E-10   312   0.103E-10    0.358E-10
RMM:   2    -0.302776196914E+03    0.25466E-09    0.00000E+00     2   0.101E-10
 230 F= -.30277620E+03 E0= -.30281846E+03  d E =-.945874E-10
       N       E                     dE             d eps       ncg     rms          rms(c)
DAV:   1    -0.302776196912E+03    0.19572E-08    0.85505E-11   312   0.307E-10    0.300E-10
RMM:   2    -0.302776196914E+03   -0.16880E-08    0.00000E+00     2   0.107E-10
 231 F= -.30277620E+03 E0= -.30281846E+03  d E =0.145519E-10
       N       E                     dE             d eps       ncg     rms          rms(c)
DAV:   1    -0.302776196915E+03   -0.30777E-08   -0.10577E-10   312   0.297E-10    0.209E-10
RMM:   2    -0.302776196914E+03    0.13388E-08    0.00000E+00     2   0.769E-11
 232 F= -.30277620E+03 E0= -.30281846E+03  d E =-.509317E-10
       N       E                     dE             d eps       ncg     rms          rms(c)
DAV:   1    -0.302776196914E+03    0.88039E-09   -0.31565E-10   312   0.141E-10    0.335E-10
RMM:   2    -0.302776196914E+03    0.61118E-09    0.00000E+00     2   0.108E-10
 233 F= -.30277620E+03 E0= -.30281846E+03  d E =0.152795E-09
       N       E                     dE             d eps       ncg     rms          rms(c)
DAV:   1    -0.302776196912E+03    0.16298E-08   -0.25738E-10   312   0.308E-10    0.210E-10
RMM:   2    -0.302776196914E+03   -0.11205E-08    0.00000E+00     2   0.950E-11
 234 F= -.30277620E+03 E0= -.30281846E+03  d E =-.101863E-09
       N       E                     dE             d eps       ncg     rms          rms(c)
DAV:   1    -0.302776196914E+03   -0.19791E-08   -0.72524E-11   312   0.219E-10    0.314E-10
RMM:   2    -0.302776196914E+03    0.86584E-09    0.00000E+00     2   0.851E-11
 235 F= -.30277620E+03 E0= -.30281846E+03  d E =0.727596E-11
       N       E                     dE             d eps       ncg     rms          rms(c)
DAV:   1    -0.302776196912E+03    0.20082E-08   -0.27710E-10   312   0.172E-10    0.334E-10
RMM:   2    -0.302776196914E+03   -0.10405E-08    0.00000E+00     2   0.849E-11
 236 F= -.30277620E+03 E0= -.30281846E+03  d E =0.101863E-09
       N       E                     dE             d eps       ncg     rms          rms(c)
DAV:   1    -0.302776196913E+03   -0.84401E-09   -0.27649E-10   312   0.183E-10    0.162E-10
RMM:   2    -0.302776196914E+03   -0.36380E-09    0.00000E+00     2   0.720E-11
 237 F= -.30277620E+03 E0= -.30281846E+03  d E =-.167347E-09
       N       E                     dE             d eps       ncg     rms          rms(c)
DAV:   1    -0.302776196913E+03    0.61846E-09   -0.53025E-11   312   0.131E-10    0.293E-10
RMM:   2    -0.302776196914E+03   -0.10114E-08    0.00000E+00     2   0.925E-11
 238 F= -.30277620E+03 E0= -.30281846E+03  d E =-.291038E-10
       N       E                     dE             d eps       ncg     rms          rms(c)
DAV:   1    -0.302776196913E+03    0.94587E-10   -0.18470E-10   312   0.262E-10    0.241E-10
RMM:   2    -0.302776196914E+03   -0.10623E-08    0.00000E+00     2   0.994E-11
 239 F= -.30277620E+03 E0= -.30281846E+03  d E =0.436557E-10
       N       E                     dE             d eps       ncg     rms          rms(c)
DAV:   1    -0.302776196914E+03   -0.15643E-08   -0.43050E-10   312   0.270E-10    0.342E-10
RMM:   2    -0.302776196914E+03    0.63301E-09    0.00000E+00     2   0.105E-10
[...]
 635 F= -.30277620E+03 E0= -.30281846E+03  d E =0.218279E-10
       N       E                     dE             d eps       ncg     rms          rms(c)
DAV:   1    -0.302776196915E+03   -0.56025E-09    0.38378E-11   312   0.318E-10    0.252E-10
RMM:   2    -0.302776196914E+03    0.11059E-08    0.00000E+00     2   0.758E-11
 636 F= -.30277620E+03 E0= -.30281846E+03  d E =-.218279E-10
       N       E                     dE             d eps       ncg     rms          rms(c)
DAV:   1    -0.302776196915E+03   -0.10186E-09   -0.18363E-10   312   0.119E-10    0.303E-10
RMM:   2    -0.302776196914E+03    0.12369E-08    0.00000E+00     2   0.880E-11
 637 F= -.30277620E+03 E0= -.30281846E+03  d E =0.291038E-10
       N       E                     dE             d eps       ncg     rms          rms(c)
DAV:   1    -0.302776196914E+03    0.84401E-09   -0.12889E-10   312   0.251E-10    0.221E-10
RMM:   2    -0.302776196914E+03    0.40018E-09    0.00000E+00     2   0.870E-11
 638 F= -.30277620E+03 E0= -.30281846E+03  d E =0.727596E-11
       N       E                     dE             d eps       ncg     rms          rms(c)
DAV:   1    -0.302776196915E+03   -0.56025E-09   -0.20077E-10   312   0.196E-10    0.242E-10
RMM:   2    -0.302776196914E+03    0.89494E-09    0.00000E+00     2   0.843E-11
 639 F= -.30277620E+03 E0= -.30281846E+03  d E =-.654836E-10
       N       E                     dE             d eps       ncg     rms          rms(c)
DAV:   1    -0.302776196914E+03    0.92405E-09   -0.44831E-10   312   0.189E-10    0.181E-10
RMM:   2    -0.302776196914E+03   -0.12369E-09    0.00000E+00     2   0.657E-11
 640 F= -.30277620E+03 E0= -.30281846E+03  d E =-.945874E-10
       N       E                     dE             d eps       ncg     rms          rms(c)
DAV:   1    -0.302776196913E+03    0.41473E-09    0.58843E-12   312   0.130E-10    0.281E-10
RMM:   2    -0.302776196914E+03   -0.51659E-09    0.00000E+00     2   0.765E-11
 641 F= -.30277620E+03 E0= -.30281846E+03  d E =0.218279E-10
       N       E                     dE             d eps       ncg     rms          rms(c)
DAV:   1    -0.302776196914E+03   -0.70577E-09    0.16810E-10   312   0.254E-10    0.125E-10
RMM:   2    -0.302776196914E+03    0.33469E-09    0.00000E+00     2   0.623E-11
 642 F= -.30277620E+03 E0= -.30281846E+03  d E =0.145519E-09
       N       E                     dE             d eps       ncg     rms          rms(c)
DAV:   1    -0.302776196913E+03    0.56025E-09    0.57568E-11   312   0.847E-11    0.275E-10
RMM:   2    -0.302776196914E+03   -0.26193E-09    0.00000E+00     2   0.101E-10
 643 F= -.30277620E+03 E0= -.30281846E+03  d E =-.363798E-10
       N       E                     dE             d eps       ncg     rms          rms(c)
DAV:   1    -0.302776196914E+03   -0.56025E-09    0.12611E-10   312   0.259E-10    0.310E-10
RMM:   2    -0.302776196914E+03    0.26193E-09    0.00000E+00     2   0.796E-11
 644 F= -.30277620E+03 E0= -.30281846E+03  d E =-.363798E-10
       N       E                     dE             d eps       ncg     rms          rms(c)
DAV:   1    -0.302776196913E+03    0.49477E-09   -0.32890E-10   312   0.141E-10    0.261E-10
RMM:   2    -0.302776196914E+03   -0.14552E-09    0.00000E+00     2   0.749E-11
 645 F= -.30277620E+03 E0= -.30281846E+03  d E =0.873115E-10
       N       E                     dE             d eps       ncg     rms          rms(c)
DAV:   1    -0.302776196914E+03   -0.46566E-09   -0.20647E-10   312   0.213E-10    0.198E-10
RMM:   2    -0.302776196914E+03    0.14552E-09    0.00000E+00     2   0.880E-11
 646 F= -.30277620E+03 E0= -.30281846E+03  d E =-.174623E-09
       N       E                     dE             d eps       ncg     rms          rms(c)
DAV:   1    -0.302776196913E+03    0.12587E-08    0.25310E-12   312   0.190E-10    0.224E-10
RMM:   2    -0.302776196914E+03   -0.11059E-08    0.00000E+00     2   0.815E-11
 647 F= -.30277620E+03 E0= -.30281846E+03  d E =0.727596E-11
       N       E                     dE             d eps       ncg     rms          rms(c)
DAV:   1    -0.302776196914E+03   -0.13824E-08   -0.98464E-11   312   0.146E-10    0.255E-10
RMM:   2    -0.302776196914E+03    0.32014E-09    0.00000E+00     2   0.763E-11
 648 F= -.30277620E+03 E0= -.30281846E+03  d E =0.436557E-10
       N       E                     dE             d eps       ncg     rms          rms(c)
DAV:   1    -0.302776196914E+03    0.21100E-09   -0.77748E-12   312   0.171E-10    0.275E-10
RMM:   2    -0.302776196914E+03    0.19645E-09    0.00000E+00     2   0.994E-11
 649 F= -.30277620E+03 E0= -.30281846E+03  d E =0.873115E-10
       N       E                     dE             d eps       ncg     rms          rms(c)
DAV:   1    -0.302776196913E+03    0.11350E-08   -0.20749E-11   312   0.237E-10    0.249E-10
RMM:   2    -0.302776196914E+03   -0.88767E-09    0.00000E+00     2   0.988E-11
 650 F= -.30277620E+03 E0= -.30281846E+03  d E =0.509317E-10
       N       E                     dE             d eps       ncg     rms          rms(c)
DAV:   1    -0.302776196915E+03   -0.21537E-08   -0.15589E-10   312   0.260E-10    0.220E-10
RMM:   2    -0.302776196914E+03    0.12442E-08    0.00000E+00     2   0.804E-11
 651 F= -.30277620E+03 E0= -.30281846E+03  d E =-.218279E-10
       N       E                     dE             d eps       ncg     rms          rms(c)
DAV:   1    -0.302776196913E+03    0.13897E-08   -0.19473E-11   312   0.200E-10    0.229E-10
RMM:   2    -0.302776196914E+03   -0.21100E-09    0.00000E+00     2   0.812E-11
 652 F= -.30277620E+03 E0= -.30281846E+03  d E =-.654836E-10
       N       E                     dE             d eps       ncg     rms          rms(c)
DAV:   1    -0.302776196913E+03   -0.50932E-10   -0.44457E-11   312   0.193E-10    0.334E-10
RMM:   2    -0.302776196914E+03   -0.24738E-09    0.00000E+00     2   0.970E-11
 653 F= -.30277620E+03 E0= -.30281846E+03  d E =-.873115E-10
       N       E                     dE             d eps       ncg     rms          rms(c)
DAV:   1    -0.302776196913E+03    0.34197E-09   -0.11602E-10   312   0.317E-10    0.208E-10
RMM:   2    -0.302776196914E+03   -0.59663E-09    0.00000E+00     2   0.857E-11
 654 F= -.30277620E+03 E0= -.30281846E+03  d E =-.727596E-11
       N       E                     dE             d eps       ncg     rms          rms(c)
DAV:   1    -0.302776196914E+03   -0.12515E-08    0.99175E-11   312   0.208E-10    0.230E-10
RMM:   2    -0.302776196914E+03    0.80763E-09    0.00000E+00     2   0.707E-11
 655 F= -.30277620E+03 E0= -.30281846E+03  d E =0.152795E-09
       N       E                     dE             d eps       ncg     rms          rms(c)
DAV:   1    -0.302776196914E+03    0.00000E+00   -0.20779E-10   312   0.108E-10    0.216E-10
RMM:   2    -0.302776196914E+03    0.73487E-09    0.00000E+00     2   0.739E-11
 656 F= -.30277620E+03 E0= -.30281846E+03  d E =-.727596E-10
       N       E                     dE             d eps       ncg     rms          rms(c)
DAV:   1    -0.302776196915E+03   -0.34197E-09   -0.78887E-13   312   0.188E-10    0.226E-10
RMM:   2    -0.302776196914E+03    0.10914E-08    0.00000E+00     2   0.815E-11
 657 F= -.30277620E+03 E0= -.30281846E+03  d E =0.145519E-10
       N       E                     dE             d eps       ncg     rms          rms(c)
DAV:   1    -0.302776196913E+03    0.15498E-08   -0.54856E-11   312   0.189E-10    0.188E-10
RMM:   2    -0.302776196914E+03   -0.56025E-09    0.00000E+00     2   0.717E-11
 658 F= -.30277620E+03 E0= -.30281846E+03  d E =-.101863E-09
       N       E                     dE             d eps       ncg     rms          rms(c)
DAV:   1    -0.302776196914E+03   -0.41473E-09   -0.10962E-10   312   0.171E-10    0.270E-10
RMM:   2    -0.302776196914E+03   -0.16735E-09    0.00000E+00     2   0.781E-11
 659 F= -.30277620E+03 E0= -.30281846E+03  d E =-.218279E-10
       N       E                     dE             d eps       ncg     rms          rms(c)
DAV:   1    -0.302776196914E+03   -0.52387E-09   -0.10179E-10   312   0.167E-10    0.385E-10
RMM:   2    -0.302776196914E+03    0.53842E-09    0.00000E+00     2   0.120E-10
 660 F= -.30277620E+03 E0= -.30281846E+03  d E =0.181899E-09
       N       E                     dE             d eps       ncg     rms          rms(c)
DAV:   1    -0.302776196914E+03    0.45111E-09   -0.19994E-10   312   0.424E-10    0.169E-10
RMM:   2    -0.302776196914E+03    0.29104E-10    0.00000E+00     2   0.809E-11
 661 F= -.30277620E+03 E0= -.30281846E+03  d E =-.582077E-10
       N       E                     dE             d eps       ncg     rms          rms(c)
DAV:   1    -0.302776196914E+03   -0.17462E-09   -0.54656E-11   312   0.141E-10    0.278E-10
RMM:   2    -0.302776196914E+03    0.25466E-09    0.00000E+00     2   0.952E-11
 662 F= -.30277620E+03 E0= -.30281846E+03  d E =0.509317E-10
       N       E                     dE             d eps       ncg     rms          rms(c)
DAV:   1    -0.302776196915E+03   -0.13315E-08   -0.16444E-11   312   0.215E-10    0.357E-10
RMM:   2    -0.302776196914E+03    0.14770E-08    0.00000E+00     2   0.101E-10
 663 F= -.30277620E+03 E0= -.30281846E+03  d E =-.109139E-09
       N       E                     dE             d eps       ncg     rms          rms(c)
DAV:   1    -0.302776196914E+03    0.14479E-08   -0.10582E-10   312   0.240E-10    0.336E-10
RMM:   2    -0.302776196914E+03    0.21828E-10    0.00000E+00     2   0.106E-10
 664 F= -.30277620E+03 E0= -.30281846E+03  d E =-.727596E-11
       N       E                     dE             d eps       ncg     rms          rms(c)
DAV:   1    -0.302776196914E+03   -0.29104E-09   -0.14772E-10   312   0.266E-10    0.264E-10
RMM:   2    -0.302776196914E+03    0.45839E-09    0.00000E+00     2   0.956E-11
 665 F= -.30277620E+03 E0= -.30281846E+03  d E =0.145519E-09
       N       E                     dE             d eps       ncg     rms          rms(c)
DAV:   1    -0.302776196915E+03   -0.69122E-09   -0.92010E-11   312   0.227E-10    0.268E-10
RMM:   2    -0.302776196914E+03    0.11205E-08    0.00000E+00     2   0.938E-11
 666 F= -.30277620E+03 E0= -.30281846E+03  d E =-.291038E-10
       N       E                     dE             d eps       ncg     rms          rms(c)
DAV:   1    -0.302776196913E+03    0.20445E-08   -0.13736E-10   312   0.200E-10    0.262E-10
RMM:   2    -0.302776196914E+03   -0.10186E-08    0.00000E+00     2   0.956E-11
 667 F= -.30277620E+03 E0= -.30281846E+03  d E =-.945874E-10
       N       E                     dE             d eps       ncg     rms          rms(c)
DAV:   1    -0.302776196914E+03   -0.12151E-08    0.23139E-12   312   0.204E-10    0.241E-10
RMM:   2    -0.302776196914E+03    0.23283E-09    0.00000E+00     2   0.759E-11
 668 F= -.30277620E+03 E0= -.30281846E+03  d E =0.363798E-10
       N       E                     dE             d eps       ncg     rms          rms(c)
DAV:   1    -0.302776196914E+03   -0.16735E-09   -0.72346E-11   312   0.184E-10    0.294E-10
RMM:   2    -0.302776196914E+03    0.45111E-09    0.00000E+00     2   0.857E-11
 669 F= -.30277620E+03 E0= -.30281846E+03  d E =0.509317E-10
       N       E                     dE             d eps       ncg     rms          rms(c)
DAV:   1    -0.302776196913E+03    0.66211E-09   -0.19565E-10   312   0.229E-10    0.268E-10
RMM:   2    -0.302776196914E+03   -0.20373E-09    0.00000E+00     2   0.844E-11
 670 F= -.30277620E+03 E0= -.30281846E+03  d E =0.727596E-11
       N       E                     dE             d eps       ncg     rms          rms(c)
DAV:   1    -0.302776196915E+03   -0.13388E-08    0.21591E-11   312   0.245E-10    0.213E-10
RMM:   2    -0.302776196914E+03    0.11350E-08    0.00000E+00     2   0.898E-11
 671 F= -.30277620E+03 E0= -.30281846E+03  d E =0.000000E+00
       N       E                     dE             d eps       ncg     rms          rms(c)
DAV:   1    -0.302776196914E+03    0.10914E-08   -0.46441E-11   312   0.232E-10    0.305E-10
RMM:   2    -0.302776196914E+03    0.14552E-10    0.00000E+00     2   0.871E-11
 672 F= -.30277620E+03 E0= -.30281846E+03  d E =-.291038E-10
       N       E                     dE             d eps       ncg     rms          rms(c)
DAV:   1    -0.302776196913E+03    0.69122E-09    0.16919E-10   312   0.153E-10    0.254E-10
RMM:   2    -0.302776196914E+03   -0.77853E-09    0.00000E+00     2   0.798E-11
 673 F= -.30277620E+03 E0= -.30281846E+03  d E =-.101863E-09
       N       E                     dE             d eps       ncg     rms          rms(c)
DAV:   1    -0.302776196913E+03   -0.39290E-09    0.31353E-11   312   0.147E-10    0.288E-10
RMM:   2    -0.302776196914E+03   -0.34197E-09    0.00000E+00     2   0.104E-10
 674 F= -.30277620E+03 E0= -.30281846E+03  d E =0.436557E-10
       N       E                     dE             d eps       ncg     rms          rms(c)
DAV:   1    -0.302776196914E+03   -0.10914E-08   -0.80657E-11   312   0.307E-10    0.280E-10
RMM:   2    -0.302776196914E+03    0.76398E-09    0.00000E+00     2   0.963E-11
 675 F= -.30277620E+03 E0= -.30281846E+03  d E =0.145519E-10
       N       E                     dE             d eps       ncg     rms          rms(c)
DAV:   1    -0.302776196913E+03    0.10332E-08   -0.18492E-11   312   0.216E-10    0.306E-10
RMM:   2    -0.302776196914E+03   -0.16735E-09    0.00000E+00     2   0.980E-11
 676 F= -.30277620E+03 E0= -.30281846E+03  d E =0.101863E-09
       N       E                     dE             d eps       ncg     rms          rms(c)
DAV:   1    -0.302776196914E+03   -0.10987E-08   -0.50009E-10   312   0.144E-10    0.243E-10
RMM:   2    -0.302776196914E+03    0.76398E-09    0.00000E+00     2   0.888E-11
 677 F= -.30277620E+03 E0= -.30281846E+03  d E =-.167347E-09
       N       E                     dE             d eps       ncg     rms          rms(c)
DAV:   1    -0.302776196914E+03    0.62573E-09   -0.14197E-10   312   0.136E-10    0.249E-10
RMM:   2    -0.302776196914E+03    0.11642E-09    0.00000E+00     2   0.878E-11
 678 F= -.30277620E+03 E0= -.30281846E+03  d E =-.218279E-10
       N       E                     dE             d eps       ncg     rms          rms(c)
DAV:   1    -0.302776196914E+03    0.14552E-09   -0.14123E-11   312   0.203E-10    0.188E-10
RMM:   2    -0.302776196914E+03    0.80036E-10    0.00000E+00     2   0.894E-11
 679 F= -.30277620E+03 E0= -.30281846E+03  d E =0.109139E-09
       N       E                     dE             d eps       ncg     rms          rms(c)
DAV:   1    -0.302776196913E+03    0.29831E-09   -0.46791E-11   312   0.173E-10    0.291E-10
RMM:   2    -0.302776196914E+03   -0.24011E-09    0.00000E+00     2   0.883E-11
 680 F= -.30277620E+03 E0= -.30281846E+03  d E =-.218279E-10
       N       E                     dE             d eps       ncg     rms          rms(c)
DAV:   1    -0.302776196913E+03    0.16007E-09   -0.14939E-10   312   0.221E-10    0.368E-10
RMM:   2    -0.302776196914E+03   -0.39290E-09    0.00000E+00     2   0.912E-11
 681 F= -.30277620E+03 E0= -.30281846E+03  d E =0.727596E-11
       N       E                     dE             d eps       ncg     rms          rms(c)
DAV:   1    -0.302776196915E+03   -0.17608E-08   -0.78312E-11   312   0.231E-10    0.259E-10
RMM:   2    -0.302776196914E+03    0.12806E-08    0.00000E+00     2   0.948E-11
 682 F= -.30277620E+03 E0= -.30281846E+03  d E =-.873115E-10
       N       E                     dE             d eps       ncg     rms          rms(c)
DAV:   1    -0.302776196913E+03    0.22774E-08   -0.10634E-10   312   0.219E-10    0.280E-10
RMM:   2    -0.302776196914E+03   -0.97498E-09    0.00000E+00     2   0.101E-10
 683 F= -.30277620E+03 E0= -.30281846E+03  d E =0.218279E-10
       N       E                     dE             d eps       ncg     rms          rms(c)
DAV:   1    -0.302776196914E+03   -0.16444E-08    0.38398E-11   312   0.265E-10    0.195E-10
RMM:   2    -0.302776196914E+03    0.72032E-09    0.00000E+00     2   0.989E-11
 684 F= -.30277620E+03 E0= -.30281846E+03  d E =0.509317E-10
       N       E                     dE             d eps       ncg     rms          rms(c)
DAV:   1    -0.302776196914E+03    0.32742E-09   -0.12580E-10   312   0.181E-10    0.372E-10
RMM:   2    -0.302776196914E+03    0.32742E-09    0.00000E+00     2   0.102E-10
 685 F= -.30277620E+03 E0= -.30281846E+03  d E =-.654836E-10
       N       E                     dE             d eps       ncg     rms          rms(c)
DAV:   1    -0.302776196913E+03    0.12369E-08   -0.16840E-10   312   0.294E-10    0.206E-10
RMM:   2    -0.302776196914E+03   -0.84401E-09    0.00000E+00     2   0.934E-11
 686 F= -.30277620E+03 E0= -.30281846E+03  d E =0.654836E-10
       N       E                     dE             d eps       ncg     rms          rms(c)
DAV:   1    -0.302776196913E+03   -0.52387E-09   -0.46565E-11   312   0.174E-10    0.240E-10
RMM:   2    -0.302776196914E+03   -0.25466E-09    0.00000E+00     2   0.766E-11
 687 F= -.30277620E+03 E0= -.30281846E+03  d E =0.654836E-10
       N       E                     dE             d eps       ncg     rms          rms(c)
DAV:   1    -0.302776196914E+03   -0.31287E-09   -0.10870E-10   312   0.156E-10    0.264E-10
RMM:   2    -0.302776196914E+03    0.72760E-11    0.00000E+00     2   0.927E-11
 688 F= -.30277620E+03 E0= -.30281846E+03  d E =-.509317E-10
       N       E                     dE             d eps       ncg     rms          rms(c)
DAV:   1    -0.302776196914E+03   -0.84401E-09   -0.17218E-10   312   0.228E-10    0.249E-10
RMM:   2    -0.302776196914E+03    0.86584E-09    0.00000E+00     2   0.792E-11
 689 F= -.30277620E+03 E0= -.30281846E+03  d E =0.145519E-10
       N       E                     dE             d eps       ncg     rms          rms(c)
DAV:   1    -0.302776196914E+03    0.54570E-09    0.78806E-11   312   0.161E-10    0.444E-10
RMM:   2    -0.302776196914E+03    0.37835E-09    0.00000E+00     2   0.129E-10
 690 F= -.30277620E+03 E0= -.30281846E+03  d E =0.582077E-10
       N       E                     dE             d eps       ncg     rms          rms(c)
DAV:   1    -0.302776196912E+03    0.16153E-08   -0.10294E-10   312   0.450E-10    0.290E-10
RMM:   2    -0.302776196914E+03   -0.12296E-08    0.00000E+00     2   0.983E-11
 691 F= -.30277620E+03 E0= -.30281846E+03  d E =0.727596E-11
       N       E                     dE             d eps       ncg     rms          rms(c)
DAV:   1    -0.302776196914E+03   -0.14625E-08   -0.33001E-11   312   0.255E-10    0.246E-10
RMM:   2    -0.302776196914E+03    0.11642E-09    0.00000E+00     2   0.782E-11
 692 F= -.30277620E+03 E0= -.30281846E+03  d E =-.116415E-09
       N       E                     dE             d eps       ncg     rms          rms(c)
DAV:   1    -0.302776196914E+03   -0.72760E-10    0.77408E-11   312   0.197E-10    0.145E-10
RMM:   2    -0.302776196914E+03    0.17462E-09    0.00000E+00     2   0.721E-11
 693 F= -.30277620E+03 E0= -.30281846E+03  d E =-.145519E-10
       N       E                     dE             d eps       ncg     rms          rms(c)
DAV:   1    -0.302776196913E+03    0.56025E-09   -0.61641E-11   312   0.153E-10    0.231E-10
RMM:   2    -0.302776196914E+03   -0.37835E-09    0.00000E+00     2   0.762E-11
 694 F= -.30277620E+03 E0= -.30281846E+03  d E =0.727596E-11
       N       E                     dE             d eps       ncg     rms          rms(c)
DAV:   1    -0.302776196913E+03    0.34197E-09   -0.12075E-10   312   0.161E-10    0.288E-10
RMM:   2    -0.302776196914E+03   -0.73487E-09    0.00000E+00     2   0.928E-11
 695 F= -.30277620E+03 E0= -.30281846E+03  d E =-.145519E-10
       N       E                     dE             d eps       ncg     rms          rms(c)
DAV:   1    -0.302776196914E+03   -0.12878E-08   -0.15284E-10   312   0.269E-10    0.129E-10
RMM:   2    -0.302776196914E+03    0.61118E-09    0.00000E+00     2   0.758E-11
 696 F= -.30277620E+03 E0= -.30281846E+03  d E =0.582077E-10
