   5   5   0   0
  0.1973020E+02  0.4620623E-09  0.4620623E-09  0.4620623E-09  0.5000000E-15
   1.0000000000000000E-004
  CAR 
 unknown system                          
     20.19758384    -21.28198565  301      3.68373283      1.00000000
    -21.282  0.0000E+00  0.0000E+00
    -21.144  0.0000E+00  0.0000E+00
    -21.005  0.0000E+00  0.0000E+00
    -20.867  0.0000E+00  0.0000E+00
    -20.729  0.0000E+00  0.0000E+00
    -20.591  0.0000E+00  0.0000E+00
    -20.452  0.0000E+00  0.0000E+00
    -20.314  0.0000E+00  0.0000E+00
    -20.176  0.0000E+00  0.0000E+00
    -20.038  0.0000E+00  0.0000E+00
    -19.899  0.0000E+00  0.0000E+00
    -19.761  0.0000E+00  0.0000E+00
    -19.623  0.2550E-10  0.3526E-11
    -19.485  0.2456E-02  0.3396E-03
    -19.346  0.3949E+00  0.5495E-01
    -19.208  0.3655E-01  0.6000E-01
    -19.070  0.2699E-07  0.6000E-01
    -18.931  0.0000E+00  0.6000E-01
    -18.793  0.0000E+00  0.6000E-01
    -18.655  0.0000E+00  0.6000E-01
    -18.517  0.0000E+00  0.6000E-01
    -18.378  0.0000E+00  0.6000E-01
    -18.240  0.0000E+00  0.6000E-01
    -18.102  0.0000E+00  0.6000E-01
    -17.964  0.0000E+00  0.6000E-01
    -17.825  0.0000E+00  0.6000E-01
    -17.687  0.0000E+00  0.6000E-01
    -17.549  0.0000E+00  0.6000E-01
    -17.411  0.0000E+00  0.6000E-01
    -17.272  0.0000E+00  0.6000E-01
    -17.134  0.0000E+00  0.6000E-01
    -16.996  0.0000E+00  0.6000E-01
    -16.857  0.0000E+00  0.6000E-01
    -16.719  0.0000E+00  0.6000E-01
    -16.581  0.0000E+00  0.6000E-01
    -16.443  0.0000E+00  0.6000E-01
    -16.304  0.0000E+00  0.6000E-01
    -16.166  0.0000E+00  0.6000E-01
    -16.028  0.0000E+00  0.6000E-01
    -15.890  0.0000E+00  0.6000E-01
    -15.751  0.0000E+00  0.6000E-01
    -15.613  0.0000E+00  0.6000E-01
    -15.475  0.0000E+00  0.6000E-01
    -15.337  0.0000E+00  0.6000E-01
    -15.198  0.0000E+00  0.6000E-01
    -15.060  0.0000E+00  0.6000E-01
    -14.922  0.0000E+00  0.6000E-01
    -14.784  0.0000E+00  0.6000E-01
    -14.645  0.0000E+00  0.6000E-01
    -14.507  0.0000E+00  0.6000E-01
    -14.369  0.0000E+00  0.6000E-01
    -14.230  0.0000E+00  0.6000E-01
    -14.092  0.0000E+00  0.6000E-01
    -13.954  0.0000E+00  0.6000E-01
    -13.816  0.0000E+00  0.6000E-01
    -13.677  0.0000E+00  0.6000E-01
    -13.539  0.0000E+00  0.6000E-01
    -13.401  0.0000E+00  0.6000E-01
    -13.263  0.0000E+00  0.6000E-01
    -13.124  0.0000E+00  0.6000E-01
    -12.986  0.0000E+00  0.6000E-01
    -12.848  0.0000E+00  0.6000E-01
    -12.710  0.0000E+00  0.6000E-01
    -12.571  0.0000E+00  0.6000E-01
    -12.433  0.0000E+00  0.6000E-01
    -12.295  0.0000E+00  0.6000E-01
    -12.156  0.0000E+00  0.6000E-01
    -12.018  0.0000E+00  0.6000E-01
    -11.880  0.0000E+00  0.6000E-01
    -11.742  0.0000E+00  0.6000E-01
    -11.603  0.0000E+00  0.6000E-01
    -11.465  0.0000E+00  0.6000E-01
    -11.327  0.0000E+00  0.6000E-01
    -11.189  0.0000E+00  0.6000E-01
    -11.050  0.4855E-16  0.6000E-01
    -10.912  0.3071E-06  0.6000E-01
    -10.774  0.1370E-02  0.6019E-01
    -10.636  0.9049E-03  0.6031E-01
    -10.497  0.1089E-01  0.6182E-01
    -10.359  0.2764E-02  0.6220E-01
    -10.221  0.2417E-01  0.6554E-01
    -10.083  0.9316E-02  0.6683E-01
     -9.944  0.1735E-01  0.6923E-01
     -9.806  0.2430E-01  0.7259E-01
     -9.668  0.3887E-02  0.7313E-01
     -9.529  0.2124E-01  0.7606E-01
     -9.391  0.5870E-02  0.7688E-01
     -9.253  0.5625E-02  0.7765E-01
     -9.115  0.1148E-02  0.7781E-01
     -8.976  0.9127E-02  0.7907E-01
     -8.838  0.4430E-02  0.7969E-01
     -8.700  0.5197E-02  0.8041E-01
     -8.562  0.8481E-01  0.9213E-01
     -8.423  0.1848E-01  0.9469E-01
     -8.285  0.4669E-05  0.9469E-01
     -8.147  0.1918E-01  0.9734E-01
     -8.009  0.8255E-01  0.1088E+00
     -7.870  0.2649E-01  0.1124E+00
     -7.732  0.2987E-01  0.1165E+00
     -7.594  0.2183E-03  0.1166E+00
     -7.455  0.2088E-01  0.1195E+00
     -7.317  0.3879E-02  0.1200E+00
     -7.179  0.2925E-07  0.1200E+00
     -7.041  0.0000E+00  0.1200E+00
     -6.902  0.0000E+00  0.1200E+00
     -6.764  0.1945E-16  0.1200E+00
     -6.626  0.1924E-06  0.1200E+00
     -6.488  0.1266E-02  0.1202E+00
     -6.349  0.9942E-03  0.1203E+00
     -6.211  0.5500E-07  0.1203E+00
     -6.073  0.0000E+00  0.1203E+00
     -5.935  0.0000E+00  0.1203E+00
     -5.796  0.0000E+00  0.1203E+00
     -5.658  0.2392E-14  0.1203E+00
     -5.520  0.5250E-05  0.1203E+00
     -5.381  0.9602E-02  0.1216E+00
     -5.243  0.3953E-02  0.1222E+00
     -5.105  0.5566E-07  0.1222E+00
     -4.967  0.1420E-10  0.1222E+00
     -4.828  0.3855E-03  0.1222E+00
     -4.690  0.2558E-01  0.1258E+00
     -4.552  0.1160E-02  0.1259E+00
     -4.414  0.6023E-05  0.1259E+00
     -4.275  0.1254E-01  0.1277E+00
     -4.137  0.5530E-02  0.1284E+00
     -3.999  0.4868E-03  0.1285E+00
     -3.861  0.6245E-02  0.1294E+00
     -3.722  0.4869E-04  0.1294E+00
     -3.584  0.1131E-02  0.1295E+00
     -3.446  0.2559E-01  0.1331E+00
     -3.308  0.2085E-02  0.1334E+00
     -3.169  0.2520E-01  0.1368E+00
     -3.031  0.2383E-03  0.1369E+00
     -2.893  0.4439E-11  0.1369E+00
     -2.754  0.0000E+00  0.1369E+00
     -2.616  0.0000E+00  0.1369E+00
     -2.478  0.5029E-15  0.1369E+00
     -2.340  0.2430E-05  0.1369E+00
     -2.201  0.1053E-01  0.1383E+00
     -2.063  0.2011E-01  0.1411E+00
     -1.925  0.2595E-01  0.1447E+00
     -1.787  0.3798E-01  0.1500E+00
     -1.648  0.2544E-01  0.1535E+00
     -1.510  0.5739E-02  0.1543E+00
     -1.372  0.3085E-02  0.1547E+00
     -1.234  0.1941E-06  0.1547E+00
     -1.095  0.0000E+00  0.1547E+00
     -0.957  0.0000E+00  0.1547E+00
     -0.819  0.0000E+00  0.1547E+00
     -0.680  0.1524E-10  0.1547E+00
     -0.542  0.3967E-03  0.1547E+00
     -0.404  0.2665E-01  0.1584E+00
     -0.266  0.3591E-01  0.1634E+00
     -0.127  0.2299E-01  0.1666E+00
      0.011  0.2989E-01  0.1707E+00
      0.149  0.1693E-02  0.1709E+00
      0.287  0.1115E-01  0.1725E+00
      0.426  0.7957E-01  0.1835E+00
      0.564  0.5448E-01  0.1910E+00
      0.702  0.3317E-01  0.1956E+00
      0.840  0.2181E-01  0.1986E+00
      0.979  0.2353E-01  0.2019E+00
      1.117  0.4339E-04  0.2019E+00
      1.255  0.1910E-01  0.2045E+00
      1.394  0.2656E-01  0.2082E+00
      1.532  0.3100E-01  0.2125E+00
      1.670  0.6958E-02  0.2134E+00
      1.808  0.5433E-03  0.2135E+00
      1.947  0.6940E-01  0.2231E+00
      2.085  0.3060E-01  0.2273E+00
      2.223  0.4149E-01  0.2331E+00
      2.361  0.6071E-02  0.2339E+00
      2.500  0.5915E-01  0.2421E+00
      2.638  0.5301E-01  0.2494E+00
      2.776  0.3067E-01  0.2537E+00
      2.914  0.3902E-01  0.2591E+00
      3.053  0.5069E-02  0.2598E+00
      3.191  0.2431E-01  0.2631E+00
      3.329  0.4313E-01  0.2691E+00
      3.467  0.2241E-01  0.2722E+00
      3.606  0.2073E-01  0.2750E+00
      3.744  0.1641E+00  0.2977E+00
      3.882  0.2842E-01  0.3017E+00
      4.021  0.2187E-01  0.3047E+00
      4.159  0.6530E-05  0.3047E+00
      4.297  0.3965E-11  0.3047E+00
      4.435  0.1544E-03  0.3047E+00
      4.574  0.2370E-01  0.3080E+00
      4.712  0.3265E-02  0.3084E+00
      4.850  0.1218E-07  0.3084E+00
      4.988  0.7453E-16  0.3084E+00
      5.127  0.6543E-06  0.3084E+00
      5.265  0.3881E-02  0.3090E+00
      5.403  0.2899E-02  0.3094E+00
      5.541  0.3254E-02  0.3098E+00
      5.680  0.2602E-01  0.3134E+00
      5.818  0.2481E-01  0.3169E+00
      5.956  0.1578E-03  0.3169E+00
      6.095  0.1689E-11  0.3169E+00
      6.233  0.1095E-07  0.3169E+00
      6.371  0.1547E-02  0.3171E+00
      6.509  0.5228E-02  0.3178E+00
      6.648  0.6267E-05  0.3178E+00
      6.786  0.1306E-01  0.3196E+00
      6.924  0.3032E-01  0.3238E+00
      7.062  0.5598E-01  0.3316E+00
      7.201  0.5333E-02  0.3323E+00
      7.339  0.1269E-01  0.3340E+00
      7.477  0.8300E-03  0.3342E+00
      7.615  0.6065E-02  0.3350E+00
      7.754  0.2388E-03  0.3350E+00
      7.892  0.4902E-02  0.3357E+00
      8.030  0.1070E-01  0.3372E+00
      8.169  0.1276E-04  0.3372E+00
      8.307  0.1516E-13  0.3372E+00
      8.445  0.1656E-16  0.3372E+00
      8.583  0.5762E-06  0.3372E+00
      8.722  0.1174E-01  0.3388E+00
      8.860  0.3141E-01  0.3432E+00
      8.998  0.5195E-02  0.3439E+00
      9.136  0.1303E-01  0.3457E+00
      9.275  0.2021E-01  0.3485E+00
      9.413  0.1980E-01  0.3512E+00
      9.551  0.1175E-01  0.3528E+00
      9.689  0.5404E-01  0.3603E+00
      9.828  0.5506E-01  0.3679E+00
      9.966  0.2457E-01  0.3713E+00
     10.104  0.5925E-02  0.3721E+00
     10.242  0.4426E-01  0.3783E+00
     10.381  0.6217E-01  0.3868E+00
     10.519  0.3948E-01  0.3923E+00
     10.657  0.5697E-01  0.4002E+00
     10.796  0.2402E-01  0.4035E+00
     10.934  0.5642E-01  0.4113E+00
     11.072  0.3007E-01  0.4155E+00
     11.210  0.6712E-02  0.4164E+00
     11.349  0.4976E-01  0.4233E+00
     11.487  0.3796E-01  0.4285E+00
     11.625  0.1588E-01  0.4307E+00
     11.763  0.4959E-01  0.4376E+00
     11.902  0.2080E-01  0.4404E+00
     12.040  0.5570E-01  0.4481E+00
     12.178  0.5939E-01  0.4564E+00
     12.316  0.1705E-01  0.4587E+00
     12.455  0.2300E-03  0.4588E+00
     12.593  0.1505E-01  0.4608E+00
     12.731  0.1882E-01  0.4634E+00
     12.870  0.1473E-02  0.4636E+00
     13.008  0.3279E-01  0.4682E+00
     13.146  0.3312E-01  0.4728E+00
     13.284  0.8426E-01  0.4844E+00
     13.423  0.4158E-01  0.4901E+00
     13.561  0.4389E-01  0.4962E+00
     13.699  0.2795E-01  0.5001E+00
     13.837  0.2197E-01  0.5031E+00
     13.976  0.2457E-01  0.5065E+00
     14.114  0.6497E-01  0.5155E+00
     14.252  0.7886E-01  0.5264E+00
     14.390  0.2201E-01  0.5294E+00
     14.529  0.5850E-02  0.5303E+00
     14.667  0.5371E-01  0.5377E+00
     14.805  0.5795E-01  0.5457E+00
     14.944  0.4261E-01  0.5516E+00
     15.082  0.2239E-01  0.5547E+00
     15.220  0.5983E-01  0.5630E+00
     15.358  0.2297E-01  0.5661E+00
     15.497  0.3178E-02  0.5666E+00
     15.635  0.4201E-02  0.5671E+00
     15.773  0.1454E-02  0.5673E+00
     15.911  0.2301E-01  0.5705E+00
     16.050  0.4565E-01  0.5768E+00
     16.188  0.2735E-02  0.5772E+00
     16.326  0.1199E+00  0.5938E+00
     16.464  0.2091E-01  0.5967E+00
     16.603  0.2158E-01  0.5997E+00
     16.741  0.1165E-01  0.6013E+00
     16.879  0.2507E-01  0.6047E+00
     17.017  0.3166E-01  0.6091E+00
     17.156  0.2449E-01  0.6125E+00
     17.294  0.3141E-01  0.6169E+00
     17.432  0.3399E-01  0.6216E+00
     17.571  0.3679E-01  0.6266E+00
     17.709  0.2201E-01  0.6297E+00
     17.847  0.1611E-01  0.6319E+00
     17.985  0.1384E-01  0.6338E+00
     18.124  0.3036E-01  0.6380E+00
     18.262  0.1784E-02  0.6383E+00
     18.400  0.1242E-01  0.6400E+00
     18.538  0.8695E-04  0.6400E+00
     18.677  0.1058E-11  0.6400E+00
     18.815  0.0000E+00  0.6400E+00
     18.953  0.0000E+00  0.6400E+00
     19.091  0.0000E+00  0.6400E+00
     19.230  0.0000E+00  0.6400E+00
     19.368  0.0000E+00  0.6400E+00
     19.506  0.0000E+00  0.6400E+00
     19.645  0.0000E+00  0.6400E+00
     19.783  0.0000E+00  0.6400E+00
     19.921  0.0000E+00  0.6400E+00
     20.059  0.0000E+00  0.6400E+00
     20.198  0.0000E+00  0.6400E+00
