 vasp.6.3.2 27Jun22 (build Jun 14 2024 17:29:11) complex                         
 executed on             LinuxGNU date 2026.03.29  20:10:05
 running on   32 total cores
 distrk:  each k-point on   32 cores,    1 groups
 distr:  one band on NCORE=   1 cores,   32 groups


--------------------------------------------------------------------------------------------------------


 INCAR:
   EDIFF = 1e-05
   EDIFFG = -0.05
   ENCUT = 400.0
   IBRION = 2
   ISIF = 3
   ISMEAR = 0
   LCHARG = False
   LREAL = Auto
   LWAVE = False
   NSW = 100
   SIGMA = 0.05

 POTCAR:    PAW_PBE Na_pv 19Sep2006               
 POTCAR:    PAW_PBE Si 05Jan2001                  
 POTCAR:    PAW_PBE S 06Sep2000                   
 -----------------------------------------------------------------------------
|                                                                             |
|           W    W    AA    RRRRR   N    N  II  N    N   GGGG   !!!           |
|           W    W   A  A   R    R  NN   N  II  NN   N  G    G  !!!           |
|           W    W  A    A  R    R  N N  N  II  N N  N  G       !!!           |
|           W WW W  AAAAAA  RRRRR   N  N N  II  N  N N  G  GGG   !            |
|           WW  WW  A    A  R   R   N   NN  II  N   NN  G    G                |
|           W    W  A    A  R    R  N    N  II  N    N   GGGG   !!!           |
|                                                                             |
|     For optimal performance we recommend to set                             |
|       NCORE = 2 up to number-of-cores-per-socket                            |
|     NCORE specifies how many cores store one orbital (NPAR=cpu/NCORE).      |
|     This setting can greatly improve the performance of VASP for DFT.       |
|     The default, NCORE=1 might be grossly inefficient on modern             |
|     multi-core architectures or massively parallel machines. Do your        |
|     own testing! More info at https://www.vasp.at/wiki/index.php/NCORE      |
|     Unfortunately you need to use the default for GW and RPA                |
|     calculations (for HF NCORE is supported but not extensively tested      |
|     yet).                                                                   |
|                                                                             |
 -----------------------------------------------------------------------------

 POTCAR:    PAW_PBE Na_pv 19Sep2006               
   SHA256 =  6a2f546d9e11350984debacf3dc457d8cffc0868e817d445faca461816a32b94 Na_pv/POTCAR          
   COPYR  = (c) Copyright 19Sep2006 Georg Kresse                                                    
   COPYR  = This file is part of the software VASP. Any use, copying, and all other rights are regul
   COPYR  = If you do not have a valid VASP license, you may not use, copy or distribute this file. 
   VRHFIN =Na: p6s1                                                                                 
   LEXCH  = PE                                                                                      
   EATOM  =   766.0439 eV,   56.3026 Ry                                                             
                                                                                                    
   TITEL  = PAW_PBE Na_pv 19Sep2006                                                                 
   LULTRA =        F    use ultrasoft PP ?                                                          
   IUNSCR =        1    unscreen: 0-lin 1-nonlin 2-no                                               
   RPACOR =    1.800    partial core radius                                                         
   POMASS =   22.990; ZVAL   =    7.000    mass and valenz                                          
   RCORE  =    2.200    outmost cutoff radius                                                       
   RWIGS  =    2.200; RWIGS  =    1.164    wigner-seitz radius (au A)                               
   ENMAX  =  259.561; ENMIN  =  194.671 eV                                                          
   ICORE  =        2    local potential                                                             
   LCOR   =        T    correct aug charges                                                         
   LPAW   =        T    paw PP                                                                      
   EAUG   =  368.056                                                                                
   DEXC   =    0.000                                                                                
   RMAX   =    2.245    core radius for proj-oper                                                   
   RAUG   =    1.300    factor for augmentation sphere                                              
   RDEP   =    2.259    radius for radial grids                                                     
   RDEPT  =    1.738    core radius for aug-charge                                                  
                                                                                                    
   Atomic configuration                                                                             
    5 entries                                                                                       
     n  l   j            E        occ.                                                              
     1  0  0.50     -1033.6933   2.0000                                                             
     2  0  0.50       -56.7526   2.0000                                                             
     2  1  1.50       -28.6721   6.0000                                                             
     3  0  0.50        -2.7440   1.0000                                                             
     3  2  1.50        -1.3606   0.0000                                                             
   Description                                                                                      
     l       E           TYP  RCUT    TYP  RCUT                                                     
     1    -28.6720912     23  2.000                                                                 
     1      6.8029130     23  2.000                                                                 
     0     -2.7439560     23  2.200                                                                 
     0     34.0145650     23  2.200                                                                 
     2     -1.3605826     23  2.200                                                                 
  local pseudopotential read in
  partial core-charges read in
  partial kinetic energy density read in
  atomic valenz-charges read in
  non local Contribution for L=           1  read in
    real space projection operators read in
  non local Contribution for L=           1  read in
    real space projection operators read in
  non local Contribution for L=           0  read in
    real space projection operators read in
  non local Contribution for L=           0  read in
    real space projection operators read in
    PAW grid and wavefunctions read in

   number of l-projection  operators is LMAX  =           4
   number of lm-projection operators is LMMAX =           8

 POTCAR:    PAW_PBE Si 05Jan2001                  
   SHA256 =  79d9987ad8750f624c4d6acb2a16d13abf6a777132adc04dc6c8399be72b42bb Si/POTCAR             
   COPYR  = (c) Copyright 05Jan2001 Georg Kresse                                                    
   COPYR  = This file is part of the software VASP. Any use, copying, and all other rights are regul
   COPYR  = If you do not have a valid VASP license, you may not use, copy or distribute this file. 
   VRHFIN =Si: s2p2                                                                                 
   LEXCH  = PE                                                                                      
   EATOM  =   103.0669 eV,    7.5752 Ry                                                             
                                                                                                    
   TITEL  = PAW_PBE Si 05Jan2001                                                                    
   LULTRA =        F    use ultrasoft PP ?                                                          
   IUNSCR =        1    unscreen: 0-lin 1-nonlin 2-no                                               
   RPACOR =    1.500    partial core radius                                                         
   POMASS =   28.085; ZVAL   =    4.000    mass and valenz                                          
   RCORE  =    1.900    outmost cutoff radius                                                       
   RWIGS  =    2.480; RWIGS  =    1.312    wigner-seitz radius (au A)                               
   ENMAX  =  245.345; ENMIN  =  184.009 eV                                                          
   ICORE  =        2    local potential                                                             
   LCOR   =        T    correct aug charges                                                         
   LPAW   =        T    paw PP                                                                      
   EAUG   =  322.069                                                                                
   DEXC   =    0.000                                                                                
   RMAX   =    1.950    core radius for proj-oper                                                   
   RAUG   =    1.300    factor for augmentation sphere                                              
   RDEP   =    1.993    radius for radial grids                                                     
   RDEPT  =    1.837    core radius for aug-charge                                                  
                                                                                                    
   Atomic configuration                                                                             
    6 entries                                                                                       
     n  l   j            E        occ.                                                              
     1  0  0.50     -1785.8828   2.0000                                                             
     2  0  0.50      -139.4969   2.0000                                                             
     2  1  1.50       -95.5546   6.0000                                                             
     3  0  0.50       -10.8127   2.0000                                                             
     3  1  0.50        -4.0811   2.0000                                                             
     3  2  1.50        -4.0817   0.0000                                                             
   Description                                                                                      
     l       E           TYP  RCUT    TYP  RCUT                                                     
     0    -10.8127223     23  1.900                                                                 
     0     -7.6451159     23  1.900                                                                 
     1     -4.0811372     23  1.900                                                                 
     1      2.4879257     23  1.900                                                                 
     2     -4.0817478      7  1.900                                                                 
  local pseudopotential read in
  partial core-charges read in
  partial kinetic energy density read in
  atomic valenz-charges read in
  non local Contribution for L=           0  read in
    real space projection operators read in
  non local Contribution for L=           0  read in
    real space projection operators read in
  non local Contribution for L=           1  read in
    real space projection operators read in
  non local Contribution for L=           1  read in
    real space projection operators read in
    PAW grid and wavefunctions read in

   number of l-projection  operators is LMAX  =           4
   number of lm-projection operators is LMMAX =           8

 POTCAR:    PAW_PBE S 06Sep2000                   
   SHA256 =  0fc7481fb0695f01bdc6462160264c5c84044ae9ec85a907d398b887a2bc3132 S/POTCAR              
   COPYR  = (c) Copyright 06Sep2000 Georg Kresse                                                    
   COPYR  = This file is part of the software VASP. Any use, copying, and all other rights are regul
   COPYR  = If you do not have a valid VASP license, you may not use, copy or distribute this file. 
   VRHFIN =S : s2p4                                                                                 
   LEXCH  = PE                                                                                      
   EATOM  =   276.8230 eV,   20.3459 Ry                                                             
                                                                                                    
   TITEL  = PAW_PBE S 06Sep2000                                                                     
   LULTRA =        F    use ultrasoft PP ?                                                          
   IUNSCR =        1    unscreen: 0-lin 1-nonlin 2-no                                               
   RPACOR =    1.500    partial core radius                                                         
   POMASS =   32.066; ZVAL   =    6.000    mass and valenz                                          
   RCORE  =    1.900    outmost cutoff radius                                                       
   RWIGS  =    2.200; RWIGS  =    1.164    wigner-seitz radius (au A)                               
   ENMAX  =  258.689; ENMIN  =  194.016 eV                                                          
   ICORE  =        2    local potential                                                             
   LCOR   =        T    correct aug charges                                                         
   LPAW   =        T    paw PP                                                                      
   EAUG   =  335.092                                                                                
   DEXC   =    0.000                                                                                
   RMAX   =    1.942    core radius for proj-oper                                                   
   RAUG   =    1.300    factor for augmentation sphere                                              
   RDEP   =    1.954    radius for radial grids                                                     
   RDEPT  =    1.744    core radius for aug-charge                                                  
                                                                                                    
   Atomic configuration                                                                             
    6 entries                                                                                       
     n  l   j            E        occ.                                                              
     1  0  0.50     -2405.8406   2.0000                                                             
     2  0  0.50      -211.7007   2.0000                                                             
     2  1  1.50      -156.4958   6.0000                                                             
     3  0  0.50       -17.2562   2.0000                                                             
     3  1  0.50        -7.0085   4.0000                                                             
     3  2  1.50        -6.8029   0.0000                                                             
   Description                                                                                      
     l       E           TYP  RCUT    TYP  RCUT                                                     
     0    -17.2561641     23  1.900                                                                 
     0    -15.8743224     23  1.900                                                                 
     1     -7.0085400     23  1.900                                                                 
     1     -2.7779785     23  1.900                                                                 
     2     -6.8029130     23  1.900                                                                 
  local pseudopotential read in
  partial core-charges read in
  partial kinetic energy density read in
  atomic valenz-charges read in
  non local Contribution for L=           0  read in
    real space projection operators read in
  non local Contribution for L=           0  read in
    real space projection operators read in
  non local Contribution for L=           1  read in
    real space projection operators read in
  non local Contribution for L=           1  read in
    real space projection operators read in
    PAW grid and wavefunctions read in

   number of l-projection  operators is LMAX  =           4
   number of lm-projection operators is LMMAX =           8

 -----------------------------------------------------------------------------
|                                                                             |
|               ----> ADVICE to this user running VASP <----                  |
|                                                                             |
|     You have a (more or less) 'small supercell' and for smaller cells       |
|     it is recommended to use the reciprocal-space projection scheme!        |
|     The real-space optimization is not efficient for small cells and it     |
|     is also less accurate ...                                               |
|     Therefore, set LREAL=.FALSE. in the INCAR file.                         |
|                                                                             |
 -----------------------------------------------------------------------------

 Optimization of the real space projectors (new method)

 maximal supplied QI-value         = 17.01
 optimisation between [QCUT,QGAM] = [ 10.20, 20.41] = [ 29.16,116.64] Ry 
 Optimized for a Real-space Cutoff    1.30 Angstroem

   l    n(q)    QCUT    max X(q) W(low)/X(q) W(high)/X(q)  e(spline) 
   1      7    10.205     4.940    0.23E-03    0.84E-03    0.11E-06
   1      7    10.205     6.253    0.40E-03    0.13E-02    0.18E-06
   0      8    10.205    37.438    0.23E-03    0.37E-03    0.42E-07
   0      8    10.205     9.606    0.16E-03    0.26E-03    0.31E-07
 Optimization of the real space projectors (new method)

 maximal supplied QI-value         = 19.84
 optimisation between [QCUT,QGAM] = [ 10.12, 20.44] = [ 28.68,116.96] Ry 
 Optimized for a Real-space Cutoff    1.23 Angstroem

   l    n(q)    QCUT    max X(q) W(low)/X(q) W(high)/X(q)  e(spline) 
   0      7    10.119   159.560    0.56E-04    0.22E-03    0.45E-07
   0      7    10.119   115.863    0.56E-04    0.21E-03    0.45E-07
   1      7    10.119    88.339    0.34E-03    0.49E-03    0.11E-06
   1      7    10.119    48.592    0.33E-03    0.48E-03    0.11E-06
 Optimization of the real space projectors (new method)

 maximal supplied QI-value         = 19.84
 optimisation between [QCUT,QGAM] = [ 10.12, 20.44] = [ 28.68,116.96] Ry 
 Optimized for a Real-space Cutoff    1.23 Angstroem

   l    n(q)    QCUT    max X(q) W(low)/X(q) W(high)/X(q)  e(spline) 
   0      7    10.119   187.594    0.62E-04    0.28E-03    0.52E-07
   0      7    10.119   164.243    0.61E-04    0.28E-03    0.52E-07
   1      7    10.119    67.533    0.45E-03    0.63E-03    0.13E-06
   1      7    10.119    50.729    0.44E-03    0.62E-03    0.12E-06
  PAW_PBE Na_pv 19Sep2006               :
 energy of atom  1       EATOM= -766.0439
 kinetic energy error for atom=    0.0103 (will be added to EATOM!!)
  PAW_PBE Si 05Jan2001                  :
 energy of atom  2       EATOM= -103.0669
 kinetic energy error for atom=    0.0012 (will be added to EATOM!!)
  PAW_PBE S 06Sep2000                   :
 energy of atom  3       EATOM= -276.8230
 kinetic energy error for atom=    0.0046 (will be added to EATOM!!)


 POSCAR: Na1 Si1 S3
  positions in direct lattice
  No initial velocities read in
 exchange correlation table for  LEXCH =        8
   RHO(1)=    0.500       N(1)  =     2000
   RHO(2)=  100.500       N(2)  =     4000



--------------------------------------------------------------------------------------------------------


 ion  position               nearest neighbor table
   1  0.000  0.000  0.000-
   2  0.500  0.500  0.500-   3 2.31   4 2.31   5 2.31   3 2.31   4 2.31   5 2.31
   3  0.500  0.500  0.000-   2 2.31   2 2.31
   4  0.500  0.000  0.500-   2 2.31   2 2.31
   5  0.000  0.500  0.500-   2 2.31   2 2.31

  LATTYP: Found a simple cubic cell.
 ALAT       =     4.6206227553
  
  Lattice vectors:
  
 A1 = (   4.6206227553,   0.0000000000,  -0.0000000000)
 A2 = (   0.0000000000,   4.6206227553,  -0.0000000000)
 A3 = (   0.0000000000,   0.0000000000,   4.6206227553)


Analysis of symmetry for initial positions (statically):
=====================================================================
 Subroutine PRICEL returns:
 Original cell was already a primitive cell.
 

 Routine SETGRP: Setting up the symmetry group for a 
 simple cubic supercell.


 Subroutine GETGRP returns: Found 48 space group operations
 (whereof 48 operations were pure point group operations)
 out of a pool of 48 trial point group operations.


The static configuration has the point symmetry O_h .


Analysis of symmetry for dynamics (positions and initial velocities):
=====================================================================
 Subroutine PRICEL returns:
 Original cell was already a primitive cell.
 

 Routine SETGRP: Setting up the symmetry group for a 
 simple cubic supercell.


 Subroutine GETGRP returns: Found 48 space group operations
 (whereof 48 operations were pure point group operations)
 out of a pool of 48 trial point group operations.


The dynamic configuration has the point symmetry O_h .


 Subroutine INISYM returns: Found 48 space group operations
 (whereof 48 operations are pure point group operations),
 and found     1 'primitive' translations


----------------------------------------------------------------------------------------

                                     Primitive cell                                     

  volume of cell :      98.6510

  direct lattice vectors                    reciprocal lattice vectors
     4.620622755  0.000000000 -0.000000000     0.216421044 -0.000000000  0.000000000
     0.000000000  4.620622755 -0.000000000    -0.000000000  0.216421044  0.000000000
     0.000000000  0.000000000  4.620622755     0.000000000  0.000000000  0.216421044

  length of vectors
     4.620622755  4.620622755  4.620622755     0.216421044  0.216421044  0.216421044

  position of ions in fractional coordinates (direct lattice)
     0.000000000  0.000000000  0.000000000
     0.500000068  0.500000068  0.500000068
     0.500000068  0.500000068  0.000000000
     0.500000068  0.000000000  0.500000068
     0.000000000  0.500000068  0.500000068

  ion indices of the primitive-cell ions
   primitive index   ion index
                 1           1
                 2           2
                 3           3
                 4           4
                 5           5

----------------------------------------------------------------------------------------



 KPOINTS: pymatgen with grid density = 500 / numbe

Automatic generation of k-mesh.
 Grid dimensions read from file:
 generate k-points for:    4    4    4

 Generating k-lattice:

  Cartesian coordinates                     Fractional coordinates (reciprocal lattice)
     0.054105261 -0.000000000  0.000000000     0.250000000  0.000000000  0.000000000
    -0.000000000  0.054105261  0.000000000     0.000000000  0.250000000  0.000000000
     0.000000000  0.000000000  0.054105261     0.000000000  0.000000000  0.250000000

  Length of vectors
     0.054105261  0.054105261  0.054105261

  Shift w.r.t. Gamma in fractional coordinates (k-lattice)
     0.000000000  0.000000000  0.000000000

 
 Subroutine IBZKPT returns following result:
 ===========================================
 
 Found     10 irreducible k-points:
 
 Following reciprocal coordinates:
            Coordinates               Weight
  0.000000  0.000000  0.000000      1.000000
  0.250000  0.000000  0.000000      6.000000
  0.500000  0.000000  0.000000      3.000000
  0.250000  0.250000  0.000000     12.000000
  0.500000  0.250000  0.000000     12.000000
  0.500000  0.500000  0.000000      3.000000
  0.250000  0.250000  0.250000      8.000000
  0.500000  0.250000  0.250000     12.000000
  0.500000  0.500000  0.250000      6.000000
  0.500000  0.500000  0.500000      1.000000
 
 Following cartesian coordinates:
            Coordinates               Weight
  0.000000  0.000000  0.000000      1.000000
  0.054105  0.000000  0.000000      6.000000
  0.108211  0.000000  0.000000      3.000000
  0.054105  0.054105  0.000000     12.000000
  0.108211  0.054105  0.000000     12.000000
  0.108211  0.108211  0.000000      3.000000
  0.054105  0.054105  0.054105      8.000000
  0.108211  0.054105  0.054105     12.000000
  0.108211  0.108211  0.054105      6.000000
  0.108211  0.108211  0.108211      1.000000
 


--------------------------------------------------------------------------------------------------------




 Dimension of arrays:
   k-points           NKPTS =     10   k-points in BZ     NKDIM =     10   number of bands    NBANDS=     32
   number of dos      NEDOS =    301   number of ions     NIONS =      5
   non local maximal  LDIM  =      4   non local SUM 2l+1 LMDIM =      8
   total plane-waves  NPLWV =  13824
   max r-space proj   IRMAX =   1343   max aug-charges    IRDMAX=   4884
   dimension x,y,z NGX =    24 NGY =   24 NGZ =   24
   dimension x,y,z NGXF=    48 NGYF=   48 NGZF=   48
   support grid    NGXF=    48 NGYF=   48 NGZF=   48
   ions per type =               1   1   3
   NGX,Y,Z   is equivalent  to a cutoff of   8.63,  8.63,  8.63 a.u.
   NGXF,Y,Z  is equivalent  to a cutoff of  17.27, 17.27, 17.27 a.u.

 SYSTEM =  unknown system                          
 POSCAR =  Na1 Si1 S3                              

 Startparameter for this run:
   NWRITE =      2    write-flag & timer
   PREC   = normal    normal or accurate (medium, high low for compatibility)
   ISTART =      0    job   : 0-new  1-cont  2-samecut
   ICHARG =      2    charge: 1-file 2-atom 10-const
   ISPIN  =      1    spin polarized calculation?
   LNONCOLLINEAR =      F non collinear calculations
   LSORBIT =      F    spin-orbit coupling
   INIWAV =      1    electr: 0-lowe 1-rand  2-diag
   LASPH  =      F    aspherical Exc in radial PAW
 Electronic Relaxation 1
   ENCUT  =  400.0 eV  29.40 Ry    5.42 a.u.   7.54  7.54  7.54*2*pi/ulx,y,z
   ENINI  =  400.0     initial cutoff
   ENAUG  =  368.1 eV  augmentation charge cutoff
   NELM   =     60;   NELMIN=  2; NELMDL= -5     # of ELM steps 
   EDIFF  = 0.1E-04   stopping-criterion for ELM
   LREAL  =      T    real-space projection
   NLSPLINE    = F    spline interpolate recip. space projectors
   LCOMPAT=      F    compatible to vasp.4.4
   GGA_COMPAT  = T    GGA compatible to vasp.4.4-vasp.4.6
   LMAXPAW     = -100 max onsite density
   LMAXMIX     =    2 max onsite mixed and CHGCAR
   VOSKOWN=      0    Vosko Wilk Nusair interpolation
   ROPT   =   -0.00050  -0.00050  -0.00050
 Ionic relaxation
   EDIFFG = -.5E-01   stopping-criterion for IOM
   NSW    =    100    number of steps for IOM
   NBLOCK =      1;   KBLOCK =    100    inner block; outer block 
   IBRION =      2    ionic relax: 0-MD 1-quasi-New 2-CG
   NFREE  =      1    steps in history (QN), initial steepest desc. (CG)
   ISIF   =      3    stress and relaxation
   IWAVPR =     11    prediction:  0-non 1-charg 2-wave 3-comb
   ISYM   =      2    0-nonsym 1-usesym 2-fastsym
   LCORR  =      T    Harris-Foulkes like correction to forces

   POTIM  = 0.5000    time-step for ionic-motion
   TEIN   =    0.0    initial temperature
   TEBEG  =    0.0;   TEEND  =   0.0 temperature during run
   SMASS  =  -3.00    Nose mass-parameter (am)
   estimated Nose-frequenzy (Omega)   =  0.10E-29 period in steps = 0.13E+47 mass=  -0.488E-27a.u.
   SCALEE = 1.0000    scale energy and forces
   NPACO  =    256;   APACO  = 10.0  distance and # of slots for P.C.
   PSTRESS=    0.0 pullay stress

  Mass of Ions in am
   POMASS =  22.99 28.09 32.07
  Ionic Valenz
   ZVAL   =   7.00  4.00  6.00
  Atomic Wigner-Seitz radii
   RWIGS  =  -1.00 -1.00 -1.00
  virtual crystal weights 
   VCA    =   1.00  1.00  1.00
   NELECT =      29.0000    total number of electrons
   NUPDOWN=      -1.0000    fix difference up-down

 DOS related values:
   EMIN   =  10.00;   EMAX   =-10.00  energy-range for DOS
   EFERMI =   0.00
   ISMEAR =     0;   SIGMA  =   0.05  broadening in eV -4-tet -1-fermi 0-gaus

 Electronic relaxation 2 (details)
   IALGO  =     38    algorithm
   LDIAG  =      T    sub-space diagonalisation (order eigenvalues)
   LSUBROT=      F    optimize rotation matrix (better conditioning)
   TURBO    =      0    0=normal 1=particle mesh
   IRESTART =      0    0=no restart 2=restart with 2 vectors
   NREBOOT  =      0    no. of reboots
   NMIN     =      0    reboot dimension
   EREF     =   0.00    reference energy to select bands
   IMIX   =      4    mixing-type and parameters
     AMIX     =   0.40;   BMIX     =  1.00
     AMIX_MAG =   1.60;   BMIX_MAG =  1.00
     AMIN     =   0.10
     WC   =   100.;   INIMIX=   1;  MIXPRE=   1;  MAXMIX= -45

 Intra band minimization:
   WEIMIN = 0.0010     energy-eigenvalue tresh-hold
   EBREAK =  0.78E-07  absolut break condition
   DEPER  =   0.30     relativ break condition  

   TIME   =   0.40     timestep for ELM

  volume/ion in A,a.u.               =      19.73       133.15
  Fermi-wavevector in a.u.,A,eV,Ry     =   1.088530  2.057023 16.121504  1.184897
  Thomas-Fermi vector in A             =   2.224713

 Write flags
   LWAVE        =      F    write WAVECAR
   LDOWNSAMPLE  =      F    k-point downsampling of WAVECAR
   LCHARG       =      F    write CHGCAR
   LVTOT        =      F    write LOCPOT, total local potential
   LVHAR        =      F    write LOCPOT, Hartree potential only
   LELF         =      F    write electronic localiz. function (ELF)
   LORBIT       =      0    0 simple, 1 ext, 2 COOP (PROOUT), +10 PAW based schemes


 Dipole corrections
   LMONO  =      F    monopole corrections only (constant potential shift)
   LDIPOL =      F    correct potential (dipole corrections)
   IDIPOL =      0    1-x, 2-y, 3-z, 4-all directions 
   EPSILON=  1.0000000 bulk dielectric constant

 Exchange correlation treatment:
   GGA     =    --    GGA type
   LEXCH   =     8    internal setting for exchange type
   LIBXC   =     F    Libxc                    
   VOSKOWN =     0    Vosko Wilk Nusair interpolation
   LHFCALC =     F    Hartree Fock is set to
   LHFONE  =     F    Hartree Fock one center treatment
   AEXX    =    0.0000 exact exchange contribution

 Linear response parameters
   LEPSILON=     F    determine dielectric tensor
   LRPA    =     F    only Hartree local field effects (RPA)
   LNABLA  =     F    use nabla operator in PAW spheres
   LVEL    =     F    velocity operator in full k-point grid
   CSHIFT  =0.1000    complex shift for real part using Kramers Kronig
   OMEGAMAX=  -1.0    maximum frequency
   DEG_THRESHOLD= 0.2000000E-02 threshold for treating states as degnerate
   RTIME   =   -0.100 relaxation time in fs
  (WPLASMAI=    0.000 imaginary part of plasma frequency in eV, 0.658/RTIME)
   DFIELD  = 0.0000000 0.0000000 0.0000000 field for delta impulse in time

  Optional k-point grid parameters
   LKPOINTS_OPT  =     F    use optional k-point grid
   KPOINTS_OPT_MODE=     1    mode for optional k-point grid

 Orbital magnetization related:
   ORBITALMAG=     F  switch on orbital magnetization
   LCHIMAG   =     F  perturbation theory with respect to B field
   DQ        =  0.001000  dq finite difference perturbation B field
   LLRAUG    =     F  two centre corrections for induced B field



--------------------------------------------------------------------------------------------------------


 conjugate gradient relaxation of ions
 charge density and potential will be updated during run
 non-spin polarized calculation
 Variant of blocked Davidson
 Davidson routine will perform the subspace rotation
 perform sub-space diagonalisation
    after iterative eigenvector-optimisation
 modified Broyden-mixing scheme, WC =      100.0
 initial mixing is a Kerker type mixing with AMIX =  0.4000 and BMIX =      1.0000
 Hartree-type preconditioning will be used
 using additional bands           17
 real space projection scheme for non local part
 use partial core corrections
 calculate Harris-corrections to forces   (improved forces if not selfconsistent)
 use gradient corrections 
 use of overlap-Matrix (Vanderbilt PP)
 Gauss-broadening in eV      SIGMA  =   0.05


--------------------------------------------------------------------------------------------------------


  energy-cutoff  :      400.00
  volume of cell :       98.65
      direct lattice vectors                 reciprocal lattice vectors
     4.620622755  0.000000000 -0.000000000     0.216421044 -0.000000000  0.000000000
     0.000000000  4.620622755 -0.000000000    -0.000000000  0.216421044  0.000000000
     0.000000000  0.000000000  4.620622755     0.000000000  0.000000000  0.216421044

  length of vectors
     4.620622755  4.620622755  4.620622755     0.216421044  0.216421044  0.216421044



 k-points in units of 2pi/SCALE and weight: pymatgen with grid density = 500 / numbe
   0.00000000  0.00000000  0.00000000       0.016
   0.05410526  0.00000000  0.00000000       0.094
   0.10821052  0.00000000  0.00000000       0.047
   0.05410526  0.05410526  0.00000000       0.188
   0.10821052  0.05410526  0.00000000       0.188
   0.10821052  0.10821052  0.00000000       0.047
   0.05410526  0.05410526  0.05410526       0.125
   0.10821052  0.05410526  0.05410526       0.188
   0.10821052  0.10821052  0.05410526       0.094
   0.10821052  0.10821052  0.10821052       0.016

 k-points in reciprocal lattice and weights: pymatgen with grid density = 500 / numbe
   0.00000000  0.00000000  0.00000000       0.016
   0.25000000  0.00000000  0.00000000       0.094
   0.50000000  0.00000000  0.00000000       0.047
   0.25000000  0.25000000  0.00000000       0.188
   0.50000000  0.25000000  0.00000000       0.188
   0.50000000  0.50000000  0.00000000       0.047
   0.25000000  0.25000000  0.25000000       0.125
   0.50000000  0.25000000  0.25000000       0.188
   0.50000000  0.50000000  0.25000000       0.094
   0.50000000  0.50000000  0.50000000       0.016

 position of ions in fractional coordinates (direct lattice) 
   0.00000000  0.00000000  0.00000000
   0.50000007  0.50000007  0.50000007
   0.50000007  0.50000007  0.00000000
   0.50000007  0.00000000  0.50000007
   0.00000000  0.50000007  0.50000007

 position of ions in cartesian coordinates  (Angst):
   0.00000000  0.00000000  0.00000000
   2.31031169  2.31031169  2.31031169
   2.31031169  2.31031169  0.00000000
   2.31031169  0.00000000  2.31031169
   0.00000000  2.31031169  2.31031169



--------------------------------------------------------------------------------------------------------


 k-point   1 :   0.0000 0.0000 0.0000  plane waves:    1791
 k-point   2 :   0.2500 0.0000 0.0000  plane waves:    1803
 k-point   3 :   0.5000 0.0000 0.0000  plane waves:    1800
 k-point   4 :   0.2500 0.2500 0.0000  plane waves:    1799
 k-point   5 :   0.5000 0.2500 0.0000  plane waves:    1776
 k-point   6 :   0.5000 0.5000 0.0000  plane waves:    1772
 k-point   7 :   0.2500 0.2500 0.2500  plane waves:    1800
 k-point   8 :   0.5000 0.2500 0.2500  plane waves:    1784
 k-point   9 :   0.5000 0.5000 0.2500  plane waves:    1788
 k-point  10 :   0.5000 0.5000 0.5000  plane waves:    1856

 maximum and minimum number of plane-waves per node :      1856     1772

 maximum number of plane-waves:      1856
 maximum index in each direction: 
   IXMAX=    7   IYMAX=    7   IZMAX=    7
   IXMIN=   -8   IYMIN=   -8   IZMIN=   -8


 serial   3D FFT for wavefunctions
 parallel 3D FFT for charge:
    minimum data exchange during FFTs selected (reduces bandwidth)


 total amount of memory used by VASP MPI-rank0    31882. kBytes
=======================================================================

   base      :      30000. kBytes
   nonlr-proj:        482. kBytes
   fftplans  :        212. kBytes
   grid      :        866. kBytes
   one-center:         15. kBytes
   wavefun   :        307. kBytes

     INWAV:  cpu time      0.0000: real time      0.0000
 Broyden mixing: mesh for mixing (old mesh)
   NGX = 15   NGY = 15   NGZ = 15
  (NGX  = 48   NGY  = 48   NGZ  = 48)
  gives a total of   3375 points

 initial charge density was supplied:
 charge density of overlapping atoms calculated
 number of electron      29.0000000 magnetization 
 keeping initial charge density in first step


--------------------------------------------------------------------------------------------------------


 Maximum index for non-local projection operator         1237
 Maximum index for augmentation-charges          325 (set IRDMAX)


--------------------------------------------------------------------------------------------------------


 First call to EWALD:  gamma=   0.384
 Maximum number of real-space cells 3x 3x 3
 Maximum number of reciprocal cells 3x 3x 3

    FEWALD:  cpu time      0.0006: real time      0.0007


--------------------------------------- Iteration      1(   1)  ---------------------------------------


    POTLOK:  cpu time      0.0072: real time      0.0075
    SETDIJ:  cpu time      0.0015: real time      0.0018
     EDDAV:  cpu time      0.1636: real time      0.1641
       DOS:  cpu time      0.0007: real time      0.0008
    --------------------------------------------
      LOOP:  cpu time      0.1730: real time      0.1742

 eigenvalue-minimisations  :   640
 total energy-change (2. order) : 0.6344202E+02  (-0.1311145E+04)
 number of electron      29.0000000 magnetization 
 augmentation part       29.0000000 magnetization 

 Free energy of the ion-electron system (eV)
  ---------------------------------------------------
  alpha Z        PSCENC =        37.46470590
  Ewald energy   TEWEN  =     -1281.15157493
  -Hartree energ DENC   =      -310.89323648
  -exchange      EXHF   =         0.00000000
  -V(xc)+E(xc)   XCENC  =        52.69665243
  PAW double counting   =      1242.92405422    -1304.33263986
  entropy T*S    EENTRO =        -0.00586858
  eigenvalues    EBANDS =       -72.81460647
  atomic energy  EATOM  =      1699.55453223
  Solvation  Ediel_sol  =         0.00000000
  ---------------------------------------------------
  free energy    TOTEN  =        63.44201847 eV

  energy without entropy =       63.44788705  energy(sigma->0) =       63.44495276


--------------------------------------------------------------------------------------------------------




--------------------------------------- Iteration      1(   2)  ---------------------------------------


     EDDAV:  cpu time      0.3233: real time      0.3238
       DOS:  cpu time      0.0003: real time      0.0004
    --------------------------------------------
      LOOP:  cpu time      0.3236: real time      0.3242

 eigenvalue-minimisations  :   992
 total energy-change (2. order) :-0.8255000E+02  (-0.8222822E+02)
 number of electron      29.0000000 magnetization 
 augmentation part       29.0000000 magnetization 

 Free energy of the ion-electron system (eV)
  ---------------------------------------------------
  alpha Z        PSCENC =        37.46470590
  Ewald energy   TEWEN  =     -1281.15157493
  -Hartree energ DENC   =      -310.89323648
  -exchange      EXHF   =         0.00000000
  -V(xc)+E(xc)   XCENC  =        52.69665243
  PAW double counting   =      1242.92405422    -1304.33263986
  entropy T*S    EENTRO =        -0.01063590
  eigenvalues    EBANDS =      -155.35983434
  atomic energy  EATOM  =      1699.55453223
  Solvation  Ediel_sol  =         0.00000000
  ---------------------------------------------------
  free energy    TOTEN  =       -19.10797672 eV

  energy without entropy =      -19.09734081  energy(sigma->0) =      -19.10265876


--------------------------------------------------------------------------------------------------------




--------------------------------------- Iteration      1(   3)  ---------------------------------------


     EDDAV:  cpu time      0.1543: real time      0.1547
       DOS:  cpu time      0.0003: real time      0.0004
    --------------------------------------------
      LOOP:  cpu time      0.1546: real time      0.1551

 eigenvalue-minimisations  :   640
 total energy-change (2. order) :-0.1296806E+01  (-0.1292883E+01)
 number of electron      29.0000000 magnetization 
 augmentation part       29.0000000 magnetization 

 Free energy of the ion-electron system (eV)
  ---------------------------------------------------
  alpha Z        PSCENC =        37.46470590
  Ewald energy   TEWEN  =     -1281.15157493
  -Hartree energ DENC   =      -310.89323648
  -exchange      EXHF   =         0.00000000
  -V(xc)+E(xc)   XCENC  =        52.69665243
  PAW double counting   =      1242.92405422    -1304.33263986
  entropy T*S    EENTRO =        -0.01881115
  eigenvalues    EBANDS =      -156.64846545
  atomic energy  EATOM  =      1699.55453223
  Solvation  Ediel_sol  =         0.00000000
  ---------------------------------------------------
  free energy    TOTEN  =       -20.40478307 eV

  energy without entropy =      -20.38597193  energy(sigma->0) =      -20.39537750


--------------------------------------------------------------------------------------------------------




--------------------------------------- Iteration      1(   4)  ---------------------------------------


     EDDAV:  cpu time      0.5050: real time      0.5054
       DOS:  cpu time      0.0004: real time      0.0005
    --------------------------------------------
      LOOP:  cpu time      0.5054: real time      0.5059

 eigenvalue-minimisations  :  1248
 total energy-change (2. order) :-0.7214207E-02  (-0.7214085E-02)
 number of electron      29.0000000 magnetization 
 augmentation part       29.0000000 magnetization 

 Free energy of the ion-electron system (eV)
  ---------------------------------------------------
  alpha Z        PSCENC =        37.46470590
  Ewald energy   TEWEN  =     -1281.15157493
  -Hartree energ DENC   =      -310.89323648
  -exchange      EXHF   =         0.00000000
  -V(xc)+E(xc)   XCENC  =        52.69665243
  PAW double counting   =      1242.92405422    -1304.33263986
  entropy T*S    EENTRO =        -0.01883008
  eigenvalues    EBANDS =      -156.65566072
  atomic energy  EATOM  =      1699.55453223
  Solvation  Ediel_sol  =         0.00000000
  ---------------------------------------------------
  free energy    TOTEN  =       -20.41199728 eV

  energy without entropy =      -20.39316720  energy(sigma->0) =      -20.40258224


--------------------------------------------------------------------------------------------------------




--------------------------------------- Iteration      1(   5)  ---------------------------------------


     EDDAV:  cpu time      0.1505: real time      0.1506
       DOS:  cpu time      0.0003: real time      0.0004
    CHARGE:  cpu time      0.0062: real time      0.0063
    MIXING:  cpu time      0.0008: real time      0.0010
    --------------------------------------------
      LOOP:  cpu time      0.1578: real time      0.1583

 eigenvalue-minimisations  :   640
 total energy-change (2. order) :-0.1421487E-05  (-0.1421541E-05)
 number of electron      28.9999827 magnetization 
 augmentation part        1.7116130 magnetization 

 Broyden mixing:
  rms(total) = 0.10807E+01    rms(broyden)= 0.10807E+01
  rms(prec ) = 0.13141E+01
  weight for this iteration     100.00

 Free energy of the ion-electron system (eV)
  ---------------------------------------------------
  alpha Z        PSCENC =        37.46470590
  Ewald energy   TEWEN  =     -1281.15157493
  -Hartree energ DENC   =      -310.89323648
  -exchange      EXHF   =         0.00000000
  -V(xc)+E(xc)   XCENC  =        52.69665243
  PAW double counting   =      1242.92405422    -1304.33263986
  entropy T*S    EENTRO =        -0.01883007
  eigenvalues    EBANDS =      -156.65566216
  atomic energy  EATOM  =      1699.55453223
  Solvation  Ediel_sol  =         0.00000000
  ---------------------------------------------------
  free energy    TOTEN  =       -20.41199870 eV

  energy without entropy =      -20.39316863  energy(sigma->0) =      -20.40258367


--------------------------------------------------------------------------------------------------------




--------------------------------------- Iteration      1(   6)  ---------------------------------------


    POTLOK:  cpu time      0.0056: real time      0.0058
    SETDIJ:  cpu time      0.0011: real time      0.0011
     EDDAV:  cpu time      0.2250: real time      0.2251
       DOS:  cpu time      0.0005: real time      0.0006
    CHARGE:  cpu time      0.0087: real time      0.0087
    MIXING:  cpu time      0.0005: real time      0.0005
    --------------------------------------------
      LOOP:  cpu time      0.2415: real time      0.2418

 eigenvalue-minimisations  :   768
 total energy-change (2. order) : 0.4298326E+00  (-0.1239453E+00)
 number of electron      28.9999827 magnetization 
 augmentation part        1.7456252 magnetization 

 Broyden mixing:
  rms(total) = 0.74303E+00    rms(broyden)= 0.74303E+00
  rms(prec ) = 0.78677E+00
  weight for this iteration     100.00

 eigenvalues of (default mixing * dielectric matrix)
  average eigenvalue GAMMA=   2.7112
  2.7112

 Free energy of the ion-electron system (eV)
  ---------------------------------------------------
  alpha Z        PSCENC =        37.46470590
  Ewald energy   TEWEN  =     -1281.15157493
  -Hartree energ DENC   =      -314.15628818
  -exchange      EXHF   =         0.00000000
  -V(xc)+E(xc)   XCENC  =        53.21060352
  PAW double counting   =      1648.08245362    -1709.42623010
  entropy T*S    EENTRO =        -0.02487157
  eigenvalues    EBANDS =      -153.53549661
  atomic energy  EATOM  =      1699.55453223
  Solvation  Ediel_sol  =         0.00000000
  ---------------------------------------------------
  free energy    TOTEN  =       -19.98216612 eV

  energy without entropy =      -19.95729455  energy(sigma->0) =      -19.96973033


--------------------------------------------------------------------------------------------------------




--------------------------------------- Iteration      1(   7)  ---------------------------------------


    POTLOK:  cpu time      0.0088: real time      0.0090
    SETDIJ:  cpu time      0.0015: real time      0.0015
     EDDAV:  cpu time      0.3971: real time      0.3973
       DOS:  cpu time      0.0003: real time      0.0004
    CHARGE:  cpu time      0.0056: real time      0.0056
    MIXING:  cpu time      0.0003: real time      0.0003
    --------------------------------------------
      LOOP:  cpu time      0.4136: real time      0.4141

 eigenvalue-minimisations  :  1088
 total energy-change (2. order) : 0.1431292E-01  (-0.3210133E-01)
 number of electron      28.9999827 magnetization 
 augmentation part        1.7580380 magnetization 

 Broyden mixing:
  rms(total) = 0.27306E+00    rms(broyden)= 0.27306E+00
  rms(prec ) = 0.32198E+00
  weight for this iteration     100.00

 eigenvalues of (default mixing * dielectric matrix)
  average eigenvalue GAMMA=   1.8986
  1.8986  1.8986

 Free energy of the ion-electron system (eV)
  ---------------------------------------------------
  alpha Z        PSCENC =        37.46470590
  Ewald energy   TEWEN  =     -1281.15157493
  -Hartree energ DENC   =      -315.56809122
  -exchange      EXHF   =         0.00000000
  -V(xc)+E(xc)   XCENC  =        53.58982611
  PAW double counting   =      2255.87254155    -2317.28272716
  entropy T*S    EENTRO =        -0.02351376
  eigenvalues    EBANDS =      -152.42355192
  atomic energy  EATOM  =      1699.55453223
  Solvation  Ediel_sol  =         0.00000000
  ---------------------------------------------------
  free energy    TOTEN  =       -19.96785320 eV

  energy without entropy =      -19.94433944  energy(sigma->0) =      -19.95609632


--------------------------------------------------------------------------------------------------------




--------------------------------------- Iteration      1(   8)  ---------------------------------------


    POTLOK:  cpu time      0.0055: real time      0.0057
    SETDIJ:  cpu time      0.0011: real time      0.0011
     EDDAV:  cpu time      0.2913: real time      0.2916
       DOS:  cpu time      0.0003: real time      0.0004
    CHARGE:  cpu time      0.0055: real time      0.0055
    MIXING:  cpu time      0.0002: real time      0.0002
    --------------------------------------------
      LOOP:  cpu time      0.3041: real time      0.3046

 eigenvalue-minimisations  :   896
 total energy-change (2. order) :-0.2086544E-01  (-0.3724756E-01)
 number of electron      28.9999827 magnetization 
 augmentation part        1.7557577 magnetization 

 Broyden mixing:
  rms(total) = 0.93810E-01    rms(broyden)= 0.93808E-01
  rms(prec ) = 0.26743E+00
  weight for this iteration     100.00

 eigenvalues of (default mixing * dielectric matrix)
  average eigenvalue GAMMA=   1.3932
  2.3086  1.3646  0.5064

 Free energy of the ion-electron system (eV)
  ---------------------------------------------------
  alpha Z        PSCENC =        37.46470590
  Ewald energy   TEWEN  =     -1281.15157493
  -Hartree energ DENC   =      -314.44384263
  -exchange      EXHF   =         0.00000000
  -V(xc)+E(xc)   XCENC  =        53.58671370
  PAW double counting   =      2511.16914035    -2572.71821841
  entropy T*S    EENTRO =        -0.01926036
  eigenvalues    EBANDS =      -153.43091450
  atomic energy  EATOM  =      1699.55453223
  Solvation  Ediel_sol  =         0.00000000
  ---------------------------------------------------
  free energy    TOTEN  =       -19.98871865 eV

  energy without entropy =      -19.96945829  energy(sigma->0) =      -19.97908847


--------------------------------------------------------------------------------------------------------




--------------------------------------- Iteration      1(   9)  ---------------------------------------


    POTLOK:  cpu time      0.0056: real time      0.0057
    SETDIJ:  cpu time      0.0011: real time      0.0011
     EDDAV:  cpu time      0.2549: real time      0.2550
       DOS:  cpu time      0.0003: real time      0.0004
    CHARGE:  cpu time      0.0055: real time      0.0055
    MIXING:  cpu time      0.0002: real time      0.0002
    --------------------------------------------
      LOOP:  cpu time      0.2676: real time      0.2680

 eigenvalue-minimisations  :   832
 total energy-change (2. order) : 0.3449167E-01  (-0.5677688E-02)
 number of electron      28.9999827 magnetization 
 augmentation part        1.7567885 magnetization 

 Broyden mixing:
  rms(total) = 0.35407E-01    rms(broyden)= 0.35407E-01
  rms(prec ) = 0.97792E-01
  weight for this iteration     100.00

 eigenvalues of (default mixing * dielectric matrix)
  average eigenvalue GAMMA=   1.4053
  2.3712  1.5643  0.8428  0.8428

 Free energy of the ion-electron system (eV)
  ---------------------------------------------------
  alpha Z        PSCENC =        37.46470590
  Ewald energy   TEWEN  =     -1281.15157493
  -Hartree energ DENC   =      -314.91561051
  -exchange      EXHF   =         0.00000000
  -V(xc)+E(xc)   XCENC  =        53.65638809
  PAW double counting   =      2545.63343504    -2607.17829416
  entropy T*S    EENTRO =        -0.02594547
  eigenvalues    EBANDS =      -152.99186318
  atomic energy  EATOM  =      1699.55453223
  Solvation  Ediel_sol  =         0.00000000
  ---------------------------------------------------
  free energy    TOTEN  =       -19.95422698 eV

  energy without entropy =      -19.92828151  energy(sigma->0) =      -19.94125424


--------------------------------------------------------------------------------------------------------




--------------------------------------- Iteration      1(  10)  ---------------------------------------


    POTLOK:  cpu time      0.0055: real time      0.0057
    SETDIJ:  cpu time      0.0011: real time      0.0011
     EDDAV:  cpu time      0.2975: real time      0.2976
       DOS:  cpu time      0.0003: real time      0.0004
    CHARGE:  cpu time      0.0056: real time      0.0056
    MIXING:  cpu time      0.0002: real time      0.0002
    --------------------------------------------
      LOOP:  cpu time      0.3102: real time      0.3107

 eigenvalue-minimisations  :   928
 total energy-change (2. order) : 0.2688276E-02  (-0.1452659E-02)
 number of electron      28.9999827 magnetization 
 augmentation part        1.7565452 magnetization 

 Broyden mixing:
  rms(total) = 0.13340E-01    rms(broyden)= 0.13337E-01
  rms(prec ) = 0.29211E-01
  weight for this iteration     100.00

 eigenvalues of (default mixing * dielectric matrix)
  average eigenvalue GAMMA=   1.4240
  2.2251  2.2251  1.1993  0.7352  0.7352

 Free energy of the ion-electron system (eV)
  ---------------------------------------------------
  alpha Z        PSCENC =        37.46470590
  Ewald energy   TEWEN  =     -1281.15157493
  -Hartree energ DENC   =      -315.01347821
  -exchange      EXHF   =         0.00000000
  -V(xc)+E(xc)   XCENC  =        53.69075598
  PAW double counting   =      2550.74476237    -2612.31972728
  entropy T*S    EENTRO =        -0.02714184
  eigenvalues    EBANDS =      -152.89437293
  atomic energy  EATOM  =      1699.55453223
  Solvation  Ediel_sol  =         0.00000000
  ---------------------------------------------------
  free energy    TOTEN  =       -19.95153870 eV

  energy without entropy =      -19.92439686  energy(sigma->0) =      -19.93796778


--------------------------------------------------------------------------------------------------------




--------------------------------------- Iteration      1(  11)  ---------------------------------------


    POTLOK:  cpu time      0.0055: real time      0.0057
    SETDIJ:  cpu time      0.0011: real time      0.0011
     EDDAV:  cpu time      0.1880: real time      0.1880
       DOS:  cpu time      0.0003: real time      0.0004
    CHARGE:  cpu time      0.0056: real time      0.0056
    MIXING:  cpu time      0.0002: real time      0.0002
    --------------------------------------------
      LOOP:  cpu time      0.2007: real time      0.2010

 eigenvalue-minimisations  :   704
 total energy-change (2. order) :-0.2627208E-04  (-0.3839019E-04)
 number of electron      28.9999827 magnetization 
 augmentation part        1.7568752 magnetization 

 Broyden mixing:
  rms(total) = 0.11537E-01    rms(broyden)= 0.11537E-01
  rms(prec ) = 0.27267E-01
  weight for this iteration     100.00

 eigenvalues of (default mixing * dielectric matrix)
  average eigenvalue GAMMA=   1.4316
  2.6566  2.4424  1.2598  0.7629  0.7629  0.7052

 Free energy of the ion-electron system (eV)
  ---------------------------------------------------
  alpha Z        PSCENC =        37.46470590
  Ewald energy   TEWEN  =     -1281.15157493
  -Hartree energ DENC   =      -314.91434285
  -exchange      EXHF   =         0.00000000
  -V(xc)+E(xc)   XCENC  =        53.69223963
  PAW double counting   =      2537.72493731    -2599.32079085
  entropy T*S    EENTRO =        -0.02712607
  eigenvalues    EBANDS =      -152.97414536
  atomic energy  EATOM  =      1699.55453223
  Solvation  Ediel_sol  =         0.00000000
  ---------------------------------------------------
  free energy    TOTEN  =       -19.95156497 eV

  energy without entropy =      -19.92443891  energy(sigma->0) =      -19.93800194


--------------------------------------------------------------------------------------------------------




--------------------------------------- Iteration      1(  12)  ---------------------------------------


    POTLOK:  cpu time      0.0054: real time      0.0056
    SETDIJ:  cpu time      0.0011: real time      0.0011
     EDDAV:  cpu time      0.3437: real time      0.3440
       DOS:  cpu time      0.0003: real time      0.0004
    CHARGE:  cpu time      0.0056: real time      0.0056
    MIXING:  cpu time      0.0003: real time      0.0003
    --------------------------------------------
      LOOP:  cpu time      0.3564: real time      0.3570

 eigenvalue-minimisations  :   992
 total energy-change (2. order) : 0.1784003E-03  (-0.1505825E-04)
 number of electron      28.9999827 magnetization 
 augmentation part        1.7569509 magnetization 

 Broyden mixing:
  rms(total) = 0.55888E-02    rms(broyden)= 0.55888E-02
  rms(prec ) = 0.14918E-01
  weight for this iteration     100.00

 eigenvalues of (default mixing * dielectric matrix)
  average eigenvalue GAMMA=   1.5214
  2.9175  2.5169  1.5673  0.8072  0.8072  1.0168  1.0168

 Free energy of the ion-electron system (eV)
  ---------------------------------------------------
  alpha Z        PSCENC =        37.46470590
  Ewald energy   TEWEN  =     -1281.15157493
  -Hartree energ DENC   =      -314.85404276
  -exchange      EXHF   =         0.00000000
  -V(xc)+E(xc)   XCENC  =        53.69312771
  PAW double counting   =      2537.94128911    -2599.54686155
  entropy T*S    EENTRO =        -0.02724497
  eigenvalues    EBANDS =      -153.02531733
  atomic energy  EATOM  =      1699.55453223
  Solvation  Ediel_sol  =         0.00000000
  ---------------------------------------------------
  free energy    TOTEN  =       -19.95138657 eV

  energy without entropy =      -19.92414161  energy(sigma->0) =      -19.93776409


--------------------------------------------------------------------------------------------------------




--------------------------------------- Iteration      1(  13)  ---------------------------------------


    POTLOK:  cpu time      0.0055: real time      0.0057
    SETDIJ:  cpu time      0.0011: real time      0.0011
     EDDAV:  cpu time      0.3282: real time      0.3283
       DOS:  cpu time      0.0003: real time      0.0004
    CHARGE:  cpu time      0.0055: real time      0.0055
    MIXING:  cpu time      0.0003: real time      0.0003
    --------------------------------------------
      LOOP:  cpu time      0.3409: real time      0.3413

 eigenvalue-minimisations  :   960
 total energy-change (2. order) : 0.7848906E-04  (-0.1593365E-04)
 number of electron      28.9999827 magnetization 
 augmentation part        1.7570114 magnetization 

 Broyden mixing:
  rms(total) = 0.69613E-03    rms(broyden)= 0.69545E-03
  rms(prec ) = 0.14137E-02
  weight for this iteration     100.00

 eigenvalues of (default mixing * dielectric matrix)
  average eigenvalue GAMMA=   1.5028
  3.1497  2.5718  1.7695  0.8006  0.8006  1.1691  0.8807  0.8807

 Free energy of the ion-electron system (eV)
  ---------------------------------------------------
  alpha Z        PSCENC =        37.46470590
  Ewald energy   TEWEN  =     -1281.15157493
  -Hartree energ DENC   =      -314.82660131
  -exchange      EXHF   =         0.00000000
  -V(xc)+E(xc)   XCENC  =        53.68986561
  PAW double counting   =      2535.16076891    -2596.76624641
  entropy T*S    EENTRO =        -0.02732393
  eigenvalues    EBANDS =      -153.04943415
  atomic energy  EATOM  =      1699.55453223
  Solvation  Ediel_sol  =         0.00000000
  ---------------------------------------------------
  free energy    TOTEN  =       -19.95130808 eV

  energy without entropy =      -19.92398415  energy(sigma->0) =      -19.93764612


--------------------------------------------------------------------------------------------------------




--------------------------------------- Iteration      1(  14)  ---------------------------------------


    POTLOK:  cpu time      0.0055: real time      0.0057
    SETDIJ:  cpu time      0.0011: real time      0.0011
     EDDAV:  cpu time      0.1505: real time      0.1507
       DOS:  cpu time      0.0003: real time      0.0004
    --------------------------------------------
      LOOP:  cpu time      0.1574: real time      0.1579

 eigenvalue-minimisations  :   544
 total energy-change (2. order) : 0.2279799E-06  (-0.5774880E-06)
 number of electron      28.9999827 magnetization 
 augmentation part        1.7570114 magnetization 

 Free energy of the ion-electron system (eV)
  ---------------------------------------------------
  alpha Z        PSCENC =        37.46470590
  Ewald energy   TEWEN  =     -1281.15157493
  -Hartree energ DENC   =      -314.82251348
  -exchange      EXHF   =         0.00000000
  -V(xc)+E(xc)   XCENC  =        53.68947072
  PAW double counting   =      2534.37036265    -2595.97629729
  entropy T*S    EENTRO =        -0.02732783
  eigenvalues    EBANDS =      -153.05266583
  atomic energy  EATOM  =      1699.55453223
  Solvation  Ediel_sol  =         0.00000000
  ---------------------------------------------------
  free energy    TOTEN  =       -19.95130786 eV

  energy without entropy =      -19.92398003  energy(sigma->0) =      -19.93764394


--------------------------------------------------------------------------------------------------------




 average (electrostatic) potential at core
  the test charge radii are     0.9254  0.9892  0.9698
  (the norm of the test charge is              1.0000)
       1 -45.1151       2 -86.6046       3 -87.1755       4 -87.1755       5 -87.1755



 E-fermi :   3.7765     XC(G=0):  -9.3005     alpha+bet :-10.4236

 Fermi energy:         3.7764999078

 k-point     1 :       0.0000    0.0000    0.0000
  band No.  band energies     occupation 
      1     -19.2986      2.00000
      2     -19.2986      2.00000
      3     -19.2986      2.00000
      4     -10.7607      2.00000
      5      -7.4382      2.00000
      6      -7.4382      2.00000
      7      -2.1341      2.00000
      8      -2.1341      2.00000
      9      -2.1341      2.00000
     10       0.7810      2.00000
     11       3.1125      2.00000
     12       3.1125      2.00000
     13       3.1125      2.00000
     14       3.3461      2.00000
     15       3.3461      2.00000
     16       3.3461      2.00000
     17       7.9310      0.00000
     18       8.9213      0.00000
     19       8.9213      0.00000
     20       8.9213      0.00000
     21      10.4409      0.00000
     22      10.4409      0.00000
     23      14.7275      0.00000
     24      14.7275      0.00000
     25      14.7275      0.00000
     26      15.3446      0.00000
     27      15.3446      0.00000
     28      15.4605      0.00000
     29      15.4605      0.00000
     30      15.4605      0.00000
     31      15.7587      0.00000
     32      15.7587      0.00000

 k-point     2 :       0.2500    0.0000    0.0000
  band No.  band energies     occupation 
      1     -19.2999      2.00000
      2     -19.2985      2.00000
      3     -19.2985      2.00000
      4     -10.5021      2.00000
      5      -7.9849      2.00000
      6      -7.4175      2.00000
      7      -2.1514      2.00000
      8      -1.9883      2.00000
      9      -1.9883      2.00000
     10       1.5177      2.00000
     11       2.5264      2.00000
     12       2.5264      2.00000
     13       2.7986      2.00000
     14       3.2694      2.00000
     15       3.2694      2.00000
     16       3.3405      2.00000
     17       8.9400      0.00000
     18       9.1116      0.00000
     19      10.0221      0.00000
     20      10.2974      0.00000
     21      10.2974      0.00000
     22      11.5403      0.00000
     23      11.6082      0.00000
     24      13.8471      0.00000
     25      13.8471      0.00000
     26      14.3011      0.00000
     27      14.8781      0.00000
     28      14.8781      0.00000
     29      14.9668      0.00000
     30      15.3675      0.00000
     31      17.6498      0.00000
     32      17.6498      0.00000

 k-point     3 :       0.5000    0.0000    0.0000
  band No.  band energies     occupation 
      1     -19.3012      2.00000
      2     -19.2984      2.00000
      3     -19.2984      2.00000
      4     -10.1049      2.00000
      5      -8.6400      2.00000
      6      -7.3965      2.00000
      7      -2.0767      2.00000
      8      -1.8175      2.00000
      9      -1.8175      2.00000
     10       1.4077      2.00000
     11       1.9487      2.00000
     12       1.9487      2.00000
     13       2.5232      2.00000
     14       3.2835      2.00000
     15       3.2835      2.00000
     16       5.3747      0.00000
     17       6.9937      0.00000
     18       9.3419      0.00000
     19      10.0220      0.00000
     20      11.4181      0.00000
     21      11.9205      0.00000
     22      11.9205      0.00000
     23      13.4122      0.00000
     24      13.4440      0.00000
     25      13.6419      0.00000
     26      13.6419      0.00000
     27      14.4809      0.00000
     28      14.4809      0.00000
     29      15.1871      0.00000
     30      15.3539      0.00000
     31      16.7288      0.00000
     32      17.1260      0.00000

 k-point     4 :       0.2500    0.2500    0.0000
  band No.  band energies     occupation 
      1     -19.2998      2.00000
      2     -19.2996      2.00000
      3     -19.2984      2.00000
      4     -10.2364      2.00000
      5      -8.0795      2.00000
      6      -7.7557      2.00000
      7      -3.1967      2.00000
      8      -1.8377      2.00000
      9      -0.4093      2.00000
     10       0.9361      2.00000
     11       2.1971      2.00000
     12       2.4949      2.00000
     13       2.6605      2.00000
     14       2.8842      2.00000
     15       3.7378      1.72645
     16       3.7653      1.24920
     17       9.5380      0.00000
     18       9.8373      0.00000
     19      10.2240      0.00000
     20      10.4581      0.00000
     21      10.7305      0.00000
     22      11.4776      0.00000
     23      11.8129      0.00000
     24      12.0789      0.00000
     25      12.1513      0.00000
     26      14.2331      0.00000
     27      14.8153      0.00000
     28      15.3008      0.00000
     29      16.3700      0.00000
     30      17.2067      0.00000
     31      17.5544      0.00000
     32      17.7442      0.00000

 k-point     5 :       0.5000    0.2500    0.0000
  band No.  band energies     occupation 
      1     -19.3008      2.00000
      2     -19.2995      2.00000
      3     -19.2982      2.00000
      4      -9.8107      2.00000
      5      -8.5971      2.00000
      6      -7.8314      2.00000
      7      -3.4588      2.00000
      8      -1.6602      2.00000
      9       0.3821      2.00000
     10       0.3886      2.00000
     11       1.9606      2.00000
     12       1.9889      2.00000
     13       2.6170      2.00000
     14       2.8675      2.00000
     15       3.7848      0.81448
     16       5.7001      0.00000
     17       7.1078      0.00000
     18      10.5715      0.00000
     19      10.7153      0.00000
     20      10.7360      0.00000
     21      10.9914      0.00000
     22      11.1605      0.00000
     23      11.7679      0.00000
     24      13.3218      0.00000
     25      13.3433      0.00000
     26      13.6351      0.00000
     27      14.0844      0.00000
     28      16.0446      0.00000
     29      16.3947      0.00000
     30      16.4317      0.00000
     31      17.3986      0.00000
     32      17.9864      0.00000

 k-point     6 :       0.5000    0.5000    0.0000
  band No.  band energies     occupation 
      1     -19.3005      2.00000
      2     -19.3005      2.00000
      3     -19.2981      2.00000
      4      -9.2479      2.00000
      5      -8.5529      2.00000
      6      -8.5529      2.00000
      7      -3.8780      2.00000
      8      -1.4728      2.00000
      9      -0.1730      2.00000
     10       2.0161      2.00000
     11       2.0161      2.00000
     12       2.0303      2.00000
     13       2.0303      2.00000
     14       2.2495      2.00000
     15       4.6179      0.00000
     16       7.0046      0.00000
     17       7.0046      0.00000
     18       7.6647      0.00000
     19       9.9878      0.00000
     20      10.3959      0.00000
     21      12.3764      0.00000
     22      12.3764      0.00000
     23      12.7858      0.00000
     24      13.3584      0.00000
     25      13.3584      0.00000
     26      14.1131      0.00000
     27      14.1131      0.00000
     28      14.7255      0.00000
     29      15.9701      0.00000
     30      16.4498      0.00000
     31      16.8077      0.00000
     32      18.1768      0.00000

 k-point     7 :       0.2500    0.2500    0.2500
  band No.  band energies     occupation 
      1     -19.2997      2.00000
      2     -19.2995      2.00000
      3     -19.2995      2.00000
      4      -9.9674      2.00000
      5      -8.0489      2.00000
      6      -8.0489      2.00000
      7      -4.2483      2.00000
      8      -0.2807      2.00000
      9      -0.2807      2.00000
     10       0.8477      2.00000
     11       1.3097      2.00000
     12       1.3097      2.00000
     13       3.7460      1.61233
     14       3.7460      1.61233
     15       3.7804      0.91149
     16       3.9595      0.00000
     17       9.3162      0.00000
     18       9.7387      0.00000
     19       9.8347      0.00000
     20       9.8347      0.00000
     21      10.9543      0.00000
     22      10.9543      0.00000
     23      12.3006      0.00000
     24      13.1458      0.00000
     25      13.1458      0.00000
     26      14.3324      0.00000
     27      15.0065      0.00000
     28      15.0065      0.00000
     29      16.0861      0.00000
     30      16.0861      0.00000
     31      16.6708      0.00000
     32      17.0164      0.00000

 k-point     8 :       0.5000    0.2500    0.2500
  band No.  band energies     occupation 
      1     -19.3006      2.00000
      2     -19.2993      2.00000
      3     -19.2993      2.00000
      4      -9.5205      2.00000
      5      -8.5581      2.00000
      6      -8.0176      2.00000
      7      -4.7044      2.00000
      8      -0.0597      2.00000
      9       0.3777      2.00000
     10       0.6113      2.00000
     11       0.6212      2.00000
     12       1.5722      2.00000
     13       3.4515      2.00000
     14       3.7770      0.98932
     15       3.9909      0.00000
     16       5.8477      0.00000
     17       7.1113      0.00000
     18       8.8200      0.00000
     19       9.7781      0.00000
     20      10.4432      0.00000
     21      11.4103      0.00000
     22      12.2754      0.00000
     23      12.6822      0.00000
     24      13.2857      0.00000
     25      13.4745      0.00000
     26      14.0973      0.00000
     27      14.3597      0.00000
     28      14.8316      0.00000
     29      16.3835      0.00000
     30      16.4082      0.00000
     31      17.0049      0.00000
     32      18.2126      0.00000

 k-point     9 :       0.5000    0.5000    0.2500
  band No.  band energies     occupation 
      1     -19.3004      2.00000
      2     -19.3004      2.00000
      3     -19.2991      2.00000
      4      -8.9481      2.00000
      5      -8.5181      2.00000
      6      -8.5181      2.00000
      7      -5.3570      2.00000
      8      -0.0753      2.00000
      9       0.4710      2.00000
     10       0.5879      2.00000
     11       0.5879      2.00000
     12       2.2694      2.00000
     13       3.7027      1.96312
     14       3.7027      1.96312
     15       4.6354      0.00000
     16       6.8989      0.00000
     17       6.8989      0.00000
     18       7.3890      0.00000
     19       8.0033      0.00000
     20      11.4085      0.00000
     21      12.0431      0.00000
     22      12.0431      0.00000
     23      13.0399      0.00000
     24      13.6880      0.00000
     25      13.6880      0.00000
     26      14.3381      0.00000
     27      14.7551      0.00000
     28      15.1518      0.00000
     29      15.2640      0.00000
     30      15.2640      0.00000
     31      17.4162      0.00000
     32      18.4478      0.00000

 k-point    10 :       0.5000    0.5000    0.5000
  band No.  band energies     occupation 
      1     -19.3004      2.00000
      2     -19.3004      2.00000
      3     -19.3004      2.00000
      4      -8.4824      2.00000
      5      -8.4824      2.00000
      6      -8.4824      2.00000
      7      -6.4682      2.00000
      8       0.0293      2.00000
      9       0.0293      2.00000
     10       0.0293      2.00000
     11       2.2896      2.00000
     12       2.2896      2.00000
     13       4.6529      0.00000
     14       4.6529      0.00000
     15       4.6529      0.00000
     16       6.5094      0.00000
     17       6.5094      0.00000
     18       6.5094      0.00000
     19       7.1773      0.00000
     20      10.6628      0.00000
     21      13.0813      0.00000
     22      13.0813      0.00000
     23      13.0813      0.00000
     24      14.0959      0.00000
     25      14.0959      0.00000
     26      14.0959      0.00000
     27      14.3712      0.00000
     28      14.3712      0.00000
     29      14.3712      0.00000
     30      16.8356      0.00000
     31      16.8356      0.00000
     32      17.6688      0.00000


--------------------------------------------------------------------------------------------------------


 soft charge-density along one line, spin component           1
         0         1         2         3         4         5         6         7         8         9
 total charge-density along one line

 pseudopotential strength for first ion, spin component:           1
-23.919  -0.000  -0.000   1.869   0.000   0.000  -0.000  -0.000
 -0.000 -23.919  -0.000   0.000   1.869   0.000  -0.000  -0.000
 -0.000  -0.000 -23.919   0.000   0.000   1.869  -0.000  -0.000
  1.869   0.000   0.000   6.817   0.000   0.000   0.000  -0.000
  0.000   1.869   0.000   0.000   6.817   0.000   0.000  -0.000
  0.000   0.000   1.869   0.000   0.000   6.817   0.000  -0.000
 -0.000  -0.000  -0.000   0.000   0.000   0.000   1.435   6.974
 -0.000  -0.000  -0.000  -0.000  -0.000  -0.000   6.974  33.723
 total augmentation occupancy for first ion, spin component:           1
  2.001   0.000  -0.000  -0.004  -0.000   0.000   0.000   0.000
  0.000   2.001   0.000   0.000  -0.004   0.000   0.000   0.000
  0.000   0.000   2.001  -0.000  -0.000  -0.004   0.000   0.000
 -0.004   0.000  -0.000   0.011  -0.000   0.000   0.000   0.000
 -0.000  -0.004  -0.000   0.000   0.011   0.000   0.000   0.000
  0.000   0.000  -0.004  -0.000   0.000   0.011   0.000   0.000
  0.000   0.000   0.000   0.000   0.000   0.000   0.277  -0.001
  0.000   0.000   0.000   0.000   0.000   0.000  -0.001   0.000


------------------------ aborting loop because EDIFF is reached ----------------------------------------


    CHARGE:  cpu time      0.0058: real time      0.0058
    FORLOC:  cpu time      0.0003: real time      0.0004
    FORNL :  cpu time      0.0221: real time      0.0222
    STRESS:  cpu time      0.0663: real time      0.0664
    FORCOR:  cpu time      0.0051: real time      0.0051
    FORHAR:  cpu time      0.0014: real time      0.0015
    MIXING:  cpu time      0.0003: real time      0.0003
    OFIELD:  cpu time      0.0000: real time      0.0000

  FORCE on cell =-STRESS in cart. coord.  units (eV):
  Direction    XX          YY          ZZ          XY          YZ          ZX
  --------------------------------------------------------------------------------------
  Alpha Z    37.46471    37.46471    37.46471
  Ewald    -427.05086  -427.05086  -427.05086     0.00000     0.00000     0.00000
  Hartree   104.94106   104.94106   104.94106    -0.00000    -0.00000    -0.00000
  E(xc)    -113.87603  -113.87603  -113.87603     0.00000     0.00000     0.00000
  Local    -137.88752  -137.88752  -137.88752    -0.00000    -0.00000    -0.00000
  n-local   230.38241   231.91464   233.34638    -0.71798     0.44625    -0.32465
  augment   -16.18445   -16.18445   -16.18445     0.00000    -0.00000     0.00000
  Kinetic   309.73668   321.55520   331.82418    -1.42984     1.42346    -0.26214
  Fock        0.00000     0.00000     0.00000     0.00000     0.00000     0.00000
  -------------------------------------------------------------------------------------
  Total       0.32675     0.32675     0.32675    -0.00000     0.00000    -0.00000
  in kB       5.30662     5.30662     5.30662    -0.00000     0.00000    -0.00000
  external pressure =        5.31 kB  Pullay stress =        0.00 kB


 VOLUME and BASIS-vectors are now :
 -----------------------------------------------------------------------------
  energy-cutoff  :      400.00
  volume of cell :       98.65
      direct lattice vectors                 reciprocal lattice vectors
     4.620622755  0.000000000 -0.000000000     0.216421044 -0.000000000  0.000000000
     0.000000000  4.620622755 -0.000000000    -0.000000000  0.216421044  0.000000000
     0.000000000  0.000000000  4.620622755     0.000000000  0.000000000  0.216421044

  length of vectors
     4.620622755  4.620622755  4.620622755     0.216421044  0.216421044  0.216421044


 FORCES acting on ions
    electron-ion (+dipol)            ewald-force                    non-local-force                 convergence-correction
 -----------------------------------------------------------------------------------------------
   0.485E-05 0.485E-05 0.485E-05   0.382E-04 0.382E-04 0.382E-04   0.210E-22 0.247E-22 0.130E-23   -.476E-06 -.476E-06 -.476E-06
   -.109E-04 -.109E-04 -.109E-04   -.430E-04 -.430E-04 -.430E-04   -.536E-22 0.248E-22 0.508E-22   0.167E-06 0.167E-06 0.167E-06
   -.188E-03 -.188E-03 0.595E-05   -.304E-04 -.304E-04 0.658E-04   -.127E-21 0.113E-23 0.177E-21   0.309E-06 0.309E-06 -.329E-06
   -.188E-03 0.595E-05 -.188E-03   -.304E-04 0.658E-04 -.304E-04   0.314E-21 -.827E-22 -.956E-22   0.309E-06 -.329E-06 0.309E-06
   0.595E-05 -.188E-03 -.188E-03   0.658E-04 -.304E-04 -.304E-04   0.192E-21 0.236E-21 0.237E-21   -.329E-06 0.309E-06 0.309E-06
 -----------------------------------------------------------------------------------------------
   -.377E-03 -.377E-03 -.377E-03   0.124E-15 -.225E-15 0.460E-15   0.346E-21 0.204E-21 0.370E-21   -.208E-07 -.208E-07 -.208E-07


 POSITION                                       TOTAL-FORCE (eV/Angst)
 -----------------------------------------------------------------------------------
      0.00000      0.00000      0.00000        -0.000000     -0.000000     -0.000000
      2.31031      2.31031      2.31031        -0.000000      0.000000     -0.000000
      2.31031      2.31031      0.00000        -0.000000      0.000000     -0.000000
      2.31031      0.00000      2.31031         0.000000     -0.000000      0.000000
      0.00000      2.31031      2.31031        -0.000000     -0.000000      0.000000
 -----------------------------------------------------------------------------------
    total drift:                               -0.000377     -0.000377     -0.000377


--------------------------------------------------------------------------------------------------------



  FREE ENERGIE OF THE ION-ELECTRON SYSTEM (eV)
  ---------------------------------------------------
[...]
      1     -19.3941      2.00000
      2     -19.3941      2.00000
      3     -19.3941      2.00000
      4     -10.7834      2.00000
      5      -7.5157      2.00000
      6      -7.5157      2.00000
      7      -2.1678      2.00000
      8      -2.1678      2.00000
      9      -2.1678      2.00000
     10       0.6654      2.00000
     11       3.0296      2.00000
     12       3.0296      2.00000
     13       3.0296      2.00000
     14       3.2577      2.00000
     15       3.2577      2.00000
     16       3.2577      2.00000
     17       7.8005      0.00000
     18       8.8623      0.00000
     19       8.8623      0.00000
     20       8.8623      0.00000
     21      10.3596      0.00000
     22      10.3596      0.00000
     23      14.5517      0.00000
     24      14.5517      0.00000
     25      14.5517      0.00000
     26      15.2312      0.00000
     27      15.2312      0.00000
     28      15.3547      0.00000
     29      15.3547      0.00000
     30      15.3547      0.00000
     31      15.5804      0.00000
     32      15.5804      0.00000

 k-point     2 :       0.2500    0.0000    0.0000
  band No.  band energies     occupation 
      1     -19.3954      2.00000
      2     -19.3940      2.00000
      3     -19.3940      2.00000
      4     -10.5275      2.00000
      5      -8.0491      2.00000
      6      -7.4957      2.00000
      7      -2.2134      2.00000
      8      -2.0235      2.00000
      9      -2.0235      2.00000
     10       1.4204      2.00000
     11       2.4545      2.00000
     12       2.4545      2.00000
     13       2.7223      2.00000
     14       3.1830      2.00000
     15       3.1830      2.00000
     16       3.2526      2.00000
     17       8.8029      0.00000
     18       9.0515      0.00000
     19       9.9216      0.00000
     20      10.2156      0.00000
     21      10.2156      0.00000
     22      11.4093      0.00000
     23      11.5135      0.00000
     24      13.7302      0.00000
     25      13.7302      0.00000
     26      14.2038      0.00000
     27      14.6896      0.00000
     28      14.6896      0.00000
     29      14.8190      0.00000
     30      15.2545      0.00000
     31      17.5034      0.00000
     32      17.5034      0.00000

 k-point     3 :       0.5000    0.0000    0.0000
  band No.  band energies     occupation 
      1     -19.3966      2.00000
      2     -19.3939      2.00000
      3     -19.3939      2.00000
      4     -10.1348      2.00000
      5      -8.6918      2.00000
      6      -7.4753      2.00000
      7      -2.1591      2.00000
      8      -1.8547      2.00000
      9      -1.8547      2.00000
     10       1.3345      2.00000
     11       1.8858      2.00000
     12       1.8858      2.00000
     13       2.4523      2.00000
     14       3.1970      2.00000
     15       3.1970      2.00000
     16       5.2585      0.00000
     17       6.8965      0.00000
     18       9.2807      0.00000
     19       9.9087      0.00000
     20      11.2533      0.00000
     21      11.8118      0.00000
     22      11.8118      0.00000
     23      13.2956      0.00000
     24      13.3524      0.00000
     25      13.4865      0.00000
     26      13.4865      0.00000
     27      14.3715      0.00000
     28      14.3715      0.00000
     29      15.0806      0.00000
     30      15.2234      0.00000
     31      16.5864      0.00000
     32      16.9706      0.00000

 k-point     4 :       0.2500    0.2500    0.0000
  band No.  band energies     occupation 
      1     -19.3953      2.00000
      2     -19.3951      2.00000
      3     -19.3939      2.00000
      4     -10.2647      2.00000
      5      -8.1422      2.00000
      6      -7.8249      2.00000
      7      -3.2532      2.00000
      8      -1.8745      2.00000
      9      -0.4651      2.00000
     10       0.8739      2.00000
     11       2.1140      2.00000
     12       2.4238      2.00000
     13       2.5859      2.00000
     14       2.8044      2.00000
     15       3.6457      1.71806
     16       3.6700      1.30242
     17       9.4065      0.00000
     18       9.7231      0.00000
     19      10.1407      0.00000
     20      10.3494      0.00000
     21      10.6498      0.00000
     22      11.3729      0.00000
     23      11.6922      0.00000
     24      11.9492      0.00000
     25      12.0555      0.00000
     26      14.1127      0.00000
     27      14.6318      0.00000
     28      15.1637      0.00000
     29      16.2577      0.00000
     30      17.0584      0.00000
     31      17.3885      0.00000
     32      17.5974      0.00000

 k-point     5 :       0.5000    0.2500    0.0000
  band No.  band energies     occupation 
      1     -19.3962      2.00000
      2     -19.3949      2.00000
      3     -19.3938      2.00000
      4      -9.8438      2.00000
      5      -8.6502      2.00000
      6      -7.8993      2.00000
      7      -3.5228      2.00000
      8      -1.6991      2.00000
      9       0.3148      2.00000
     10       0.3401      2.00000
     11       1.8877      2.00000
     12       1.9254      2.00000
     13       2.5435      2.00000
     14       2.7870      2.00000
     15       3.6936      0.78030
     16       5.5830      0.00000
     17       7.0049      0.00000
     18      10.4399      0.00000
     19      10.5777      0.00000
     20      10.6519      0.00000
     21      10.9006      0.00000
     22      11.0317      0.00000
     23      11.6600      0.00000
     24      13.2136      0.00000
     25      13.2210      0.00000
     26      13.4829      0.00000
     27      13.9829      0.00000
     28      15.9080      0.00000
     29      16.2535      0.00000
     30      16.3159      0.00000
     31      17.2443      0.00000
     32      17.8387      0.00000

 k-point     6 :       0.5000    0.5000    0.0000
  band No.  band energies     occupation 
      1     -19.3960      2.00000
      2     -19.3960      2.00000
      3     -19.3936      2.00000
      4      -9.2868      2.00000
      5      -8.6074      2.00000
      6      -8.6074      2.00000
      7      -3.9471      2.00000
      8      -1.5141      2.00000
      9      -0.2127      2.00000
     10       1.9416      2.00000
     11       1.9416      2.00000
     12       1.9663      2.00000
     13       1.9663      2.00000
     14       2.1729      2.00000
     15       4.5127      0.00000
     16       6.8992      0.00000
     17       6.8992      0.00000
     18       7.5222      0.00000
     19       9.8732      0.00000
     20      10.3119      0.00000
     21      12.2414      0.00000
     22      12.2414      0.00000
     23      12.6399      0.00000
     24      13.2471      0.00000
     25      13.2471      0.00000
     26      14.0062      0.00000
     27      14.0062      0.00000
     28      14.6167      0.00000
     29      15.8064      0.00000
     30      16.3371      0.00000
     31      16.6996      0.00000
     32      18.0019      0.00000

 k-point     7 :       0.2500    0.2500    0.2500
  band No.  band energies     occupation 
      1     -19.3951      2.00000
      2     -19.3949      2.00000
      3     -19.3949      2.00000
      4      -9.9989      2.00000
      5      -8.1126      2.00000
      6      -8.1126      2.00000
      7      -4.2933      2.00000
      8      -0.3371      2.00000
      9      -0.3371      2.00000
     10       0.7859      2.00000
     11       1.2529      2.00000
     12       1.2529      2.00000
     13       3.6531      1.61331
     14       3.6531      1.61331
     15       3.6886      0.89037
     16       3.8546      0.00000
     17       9.2050      0.00000
     18       9.6475      0.00000
     19       9.7105      0.00000
     20       9.7105      0.00000
     21      10.8752      0.00000
     22      10.8752      0.00000
     23      12.1447      0.00000
     24      13.0151      0.00000
     25      13.0151      0.00000
     26      14.1740      0.00000
     27      14.8882      0.00000
     28      14.8882      0.00000
     29      15.9614      0.00000
     30      15.9614      0.00000
     31      16.5226      0.00000
     32      16.8968      0.00000

 k-point     8 :       0.5000    0.2500    0.2500
  band No.  band energies     occupation 
      1     -19.3960      2.00000
      2     -19.3948      2.00000
      3     -19.3948      2.00000
      4      -9.5572      2.00000
      5      -8.6124      2.00000
      6      -8.0824      2.00000
      7      -4.7509      2.00000
      8      -0.1184      2.00000
      9       0.3283      2.00000
     10       0.5467      2.00000
     11       0.5730      2.00000
     12       1.5086      2.00000
     13       3.3608      2.00000
     14       3.6841      0.99146
     15       3.8971      0.00000
     16       5.7288      0.00000
     17       7.0026      0.00000
     18       8.7280      0.00000
     19       9.6494      0.00000
     20      10.3439      0.00000
     21      11.2938      0.00000
     22      12.1166      0.00000
     23      12.5902      0.00000
     24      13.1593      0.00000
     25      13.3467      0.00000
     26      13.9904      0.00000
     27      14.2341      0.00000
     28      14.7007      0.00000
     29      16.2525      0.00000
     30      16.2865      0.00000
     31      16.8664      0.00000
     32      18.0555      0.00000

 k-point     9 :       0.5000    0.5000    0.2500
  band No.  band energies     occupation 
      1     -19.3958      2.00000
      2     -19.3958      2.00000
      3     -19.3946      2.00000
      4      -8.9923      2.00000
      5      -8.5736      2.00000
      6      -8.5736      2.00000
      7      -5.4009      2.00000
      8      -0.1163      2.00000
      9       0.4060      2.00000
     10       0.5380      2.00000
     11       0.5380      2.00000
     12       2.1924      2.00000
     13       3.6099      1.96310
     14       3.6099      1.96310
     15       4.5297      0.00000
     16       6.7875      0.00000
     17       6.7875      0.00000
     18       7.2574      0.00000
     19       7.9204      0.00000
     20      11.2445      0.00000
     21      11.9315      0.00000
     22      11.9315      0.00000
     23      12.9138      0.00000
     24      13.5931      0.00000
     25      13.5931      0.00000
     26      14.1972      0.00000
     27      14.6587      0.00000
     28      15.0453      0.00000
     29      15.1135      0.00000
     30      15.1135      0.00000
     31      17.2962      0.00000
     32      18.3121      0.00000

 k-point    10 :       0.5000    0.5000    0.5000
  band No.  band energies     occupation 
      1     -19.3958      2.00000
      2     -19.3958      2.00000
      3     -19.3958      2.00000
      4      -8.5390      2.00000
      5      -8.5390      2.00000
      6      -8.5390      2.00000
      7      -6.4930      2.00000
      8      -0.0131      2.00000
      9      -0.0131      2.00000
     10      -0.0131      2.00000
     11       2.2121      2.00000
     12       2.2121      2.00000
     13       4.5469      0.00000
     14       4.5469      0.00000
     15       4.5469      0.00000
     16       6.3974      0.00000
     17       6.3974      0.00000
     18       6.3974      0.00000
     19       7.1015      0.00000
     20      10.4628      0.00000
     21      12.9746      0.00000
     22      12.9746      0.00000
     23      12.9746      0.00000
     24      14.0048      0.00000
     25      14.0048      0.00000
     26      14.0048      0.00000
     27      14.2329      0.00000
     28      14.2329      0.00000
     29      14.2329      0.00000
     30      16.7193      0.00000
     31      16.7193      0.00000
     32      17.5236      0.00000


--------------------------------------------------------------------------------------------------------


 soft charge-density along one line, spin component           1
         0         1         2         3         4         5         6         7         8         9
 total charge-density along one line

 pseudopotential strength for first ion, spin component:           1
-23.991  -0.000  -0.000   1.903   0.000   0.000  -0.000  -0.000
 -0.000 -23.991  -0.000   0.000   1.903   0.000  -0.000  -0.000
 -0.000  -0.000 -23.991   0.000   0.000   1.903  -0.000  -0.000
  1.903   0.000   0.000   6.805   0.000  -0.000   0.000  -0.000
  0.000   1.903   0.000   0.000   6.805   0.000   0.000  -0.000
  0.000   0.000   1.903  -0.000   0.000   6.805   0.000  -0.000
 -0.000  -0.000  -0.000   0.000   0.000   0.000   1.435   6.976
 -0.000  -0.000  -0.000  -0.000  -0.000  -0.000   6.976  33.738
 total augmentation occupancy for first ion, spin component:           1
  2.000  -0.000  -0.000  -0.004   0.000  -0.000   0.000   0.000
 -0.000   2.000  -0.000   0.000  -0.004  -0.000   0.000   0.000
 -0.000  -0.000   2.000  -0.000  -0.000  -0.004   0.000   0.000
 -0.004   0.000   0.000   0.010  -0.000   0.000   0.000   0.000
 -0.000  -0.004  -0.000  -0.000   0.010   0.000   0.000   0.000
  0.000   0.000  -0.004   0.000   0.000   0.010   0.000   0.000
  0.000   0.000   0.000   0.000   0.000   0.000   0.273  -0.001
  0.000   0.000   0.000   0.000   0.000   0.000  -0.001   0.000


------------------------ aborting loop because EDIFF is reached ----------------------------------------


    CHARGE:  cpu time      0.0056: real time      0.0056
    FORLOC:  cpu time      0.0003: real time      0.0002
    FORNL :  cpu time      0.0217: real time      0.0217
    STRESS:  cpu time      0.0654: real time      0.0654
    FORCOR:  cpu time      0.0049: real time      0.0049
    FORHAR:  cpu time      0.0014: real time      0.0014
    MIXING:  cpu time      0.0002: real time      0.0002
    OFIELD:  cpu time      0.0000: real time      0.0000

  FORCE on cell =-STRESS in cart. coord.  units (eV):
  Direction    XX          YY          ZZ          XY          YZ          ZX
  --------------------------------------------------------------------------------------
  Alpha Z    37.11259    37.11259    37.11259
  Ewald    -425.70876  -425.70876  -425.70876     0.00000     0.00000     0.00000
  Hartree   105.46954   105.46954   105.46954    -0.00000    -0.00000    -0.00000
  E(xc)    -113.78055  -113.78055  -113.78055     0.00000     0.00000     0.00000
  Local    -139.21031  -139.21031  -139.21031    -0.00000    -0.00000    -0.00000
  n-local   230.15250   231.74032   233.26042    -0.68341     0.45508    -0.31893
  augment   -16.20347   -16.20347   -16.20347     0.00000     0.00000    -0.00000
  Kinetic   309.30558   321.07215   331.30522    -1.37879     1.42800    -0.25501
  Fock        0.00000     0.00000     0.00000     0.00000     0.00000     0.00000
  -------------------------------------------------------------------------------------
  Total      -0.04223    -0.04223    -0.04223    -0.00000     0.00000    -0.00000
  in kB      -0.67933    -0.67933    -0.67933    -0.00000     0.00000    -0.00000
  external pressure =       -0.68 kB  Pullay stress =        0.00 kB


 VOLUME and BASIS-vectors are now :
 -----------------------------------------------------------------------------
  energy-cutoff  :      400.00
  volume of cell :       99.59
      direct lattice vectors                 reciprocal lattice vectors
     4.635189781 -0.000000000 -0.000000000     0.215740897  0.000000000 -0.000000000
    -0.000000000  4.635189781 -0.000000000     0.000000000  0.215740897 -0.000000000
     0.000000000  0.000000000  4.635189781     0.000000000  0.000000000  0.215740897

  length of vectors
     4.635189781  4.635189781  4.635189781     0.215740897  0.215740897  0.215740897


 FORCES acting on ions
    electron-ion (+dipol)            ewald-force                    non-local-force                 convergence-correction
 -----------------------------------------------------------------------------------------------
   0.482E-05 0.482E-05 0.482E-05   0.379E-04 0.379E-04 0.379E-04   -.277E-21 -.452E-22 -.323E-21   -.146E-07 -.146E-07 -.146E-07
   -.112E-04 -.112E-04 -.112E-04   -.428E-04 -.428E-04 -.428E-04   -.103E-21 -.140E-21 0.436E-22   0.491E-08 0.491E-08 0.491E-08
   -.189E-03 -.189E-03 0.592E-05   -.303E-04 -.303E-04 0.654E-04   0.470E-21 -.226E-21 0.121E-21   0.884E-08 0.884E-08 -.986E-08
   -.189E-03 0.592E-05 -.189E-03   -.303E-04 0.654E-04 -.303E-04   -.875E-21 0.134E-21 0.192E-21   0.884E-08 -.986E-08 0.884E-08
   0.592E-05 -.189E-03 -.189E-03   0.654E-04 -.303E-04 -.303E-04   0.153E-21 0.305E-21 -.920E-21   -.986E-08 0.884E-08 0.884E-08
 -----------------------------------------------------------------------------------------------
   -.379E-03 -.379E-03 -.379E-03   -.109E-16 0.509E-15 0.530E-15   -.631E-21 0.280E-22 -.886E-21   -.187E-08 -.187E-08 -.187E-08


 POSITION                                       TOTAL-FORCE (eV/Angst)
 -----------------------------------------------------------------------------------
     -0.00000     -0.00000     -0.00000        -0.000000     -0.000000     -0.000000
      2.31760      2.31760      2.31760         0.000000      0.000000      0.000000
      2.31760      2.31760     -0.00000         0.000000      0.000000     -0.000000
      2.31760     -0.00000      2.31760        -0.000000     -0.000000      0.000000
     -0.00000      2.31760      2.31760        -0.000000      0.000000      0.000000
 -----------------------------------------------------------------------------------
    total drift:                               -0.000379     -0.000379     -0.000379


--------------------------------------------------------------------------------------------------------



  FREE ENERGIE OF THE ION-ELECTRON SYSTEM (eV)
  ---------------------------------------------------
  free  energy   TOTEN  =       -19.95264862 eV

  energy  without entropy=      -19.92546180  energy(sigma->0) =      -19.93905521

 d Force = 0.0000000E+00[ 0.000E+00, 0.000E+00]  d Energy = 0.1340769E-02-0.134E-02
 d Force = 0.0000000E+00[ 0.000E+00, 0.000E+00]  d Ewald  =-0.4026279E+01 0.403E+01


--------------------------------------------------------------------------------------------------------


    POTLOK:  cpu time      0.0069: real time      0.0069


--------------------------------------------------------------------------------------------------------


 Steepest descent step on ions:
 trial-energy change:   -0.001341  1 .order   -0.001345   -0.003090    0.000399
  (g-gl).g = 0.309E-02      g.g   = 0.309E-02  gl.gl    = 0.000E+00
 g(Force)  = 0.416E-42   g(Stress)= 0.309E-02 ortho     = 0.000E+00
 gamma     =   0.00000
 trial     =   1.00000
 opt step  =   0.88556  (harmonic =   0.88556) maximal distance =0.00000000
 next E    =   -19.952676   (d E  =  -0.00137)


--------------------------------------------------------------------------------------------------------


  
 reached required accuracy - stopping structural energy minimisation
     LOOP+:  cpu time      1.7653: real time      1.7891
    4ORBIT:  cpu time      0.0000: real time      0.0000

 total amount of memory used by VASP MPI-rank0    31882. kBytes
=======================================================================

   base      :      30000. kBytes
   nonlr-proj:        482. kBytes
   fftplans  :        212. kBytes
   grid      :        866. kBytes
   one-center:         15. kBytes
   wavefun   :        307. kBytes

  
  
 General timing and accounting informations for this job:
 ========================================================
  
                  Total CPU time used (sec):        8.264
                            User time (sec):        6.877
                          System time (sec):        1.388
                         Elapsed time (sec):        8.795
  
                   Maximum memory used (kb):      117620.
                   Average memory used (kb):          N/A
  
                          Minor page faults:        19683
                          Major page faults:          133
                 Voluntary context switches:         1140
