 vasp.6.3.2 27Jun22 (build Mar 25 2024 10:42:18) complex                         
 executed on             LinuxGNU date 2024.03.29  14:03:31
 running on   32 total cores
 distrk:  each k-point on   32 cores,    1 groups
 distr:  one band on NCORE=   1 cores,   32 groups


--------------------------------------------------------------------------------------------------------


 INCAR:
   ISTART = 0
   ICHARG = 2
   PREC = Accurate
   IBRION = -1
   EDIFF = 0.000000001
   EDIFFG = -0.0005
   NSW = 0
   NELM = 100
   ENCUT = 520
   ISMEAR = -5
   SIGMA = 0.05
   ISPIN = 2
   ISYM = 0
   LWAVE = False
   LCHARG = False
   LASPH = True
   LORBIT = 11
   ADDGRID = TRUE

 POTCAR:    PAW_PBE Na_pv 19Sep2006               
 POTCAR:    PAW_PBE S 06Sep2000                   
 -----------------------------------------------------------------------------
|                                                                             |
|           W    W    AA    RRRRR   N    N  II  N    N   GGGG   !!!           |
|           W    W   A  A   R    R  NN   N  II  NN   N  G    G  !!!           |
|           W    W  A    A  R    R  N N  N  II  N N  N  G       !!!           |
|           W WW W  AAAAAA  RRRRR   N  N N  II  N  N N  G  GGG   !            |
|           WW  WW  A    A  R   R   N   NN  II  N   NN  G    G                |
|           W    W  A    A  R    R  N    N  II  N    N   GGGG   !!!           |
|                                                                             |
|     You use a magnetic or noncollinear calculation, but did not specify     |
|     the initial magnetic moment with the MAGMOM tag. Note that a            |
|     default of 1 will be used for all atoms. This ferromagnetic setup       |
|     may break the symmetry of the crystal, in particular it may rule        |
|     out finding an antiferromagnetic solution. Thence, we recommend         |
|     setting the initial magnetic moment manually or verifying carefully     |
|     that this magnetic setup is desired.                                    |
|                                                                             |
 -----------------------------------------------------------------------------

 -----------------------------------------------------------------------------
|                                                                             |
|           W    W    AA    RRRRR   N    N  II  N    N   GGGG   !!!           |
|           W    W   A  A   R    R  NN   N  II  NN   N  G    G  !!!           |
|           W    W  A    A  R    R  N N  N  II  N N  N  G       !!!           |
|           W WW W  AAAAAA  RRRRR   N  N N  II  N  N N  G  GGG   !            |
|           WW  WW  A    A  R   R   N   NN  II  N   NN  G    G                |
|           W    W  A    A  R    R  N    N  II  N    N   GGGG   !!!           |
|                                                                             |
|     For optimal performance we recommend to set                             |
|       NCORE = 2 up to number-of-cores-per-socket                            |
|     NCORE specifies how many cores store one orbital (NPAR=cpu/NCORE).      |
|     This setting can greatly improve the performance of VASP for DFT.       |
|     The default, NCORE=1 might be grossly inefficient on modern             |
|     multi-core architectures or massively parallel machines. Do your        |
|     own testing! More info at https://www.vasp.at/wiki/index.php/NCORE      |
|     Unfortunately you need to use the default for GW and RPA                |
|     calculations (for HF NCORE is supported but not extensively tested      |
|     yet).                                                                   |
|                                                                             |
 -----------------------------------------------------------------------------

 POTCAR:    PAW_PBE Na_pv 19Sep2006               
   SHA256 =  6a2f546d9e11350984debacf3dc457d8cffc0868e817d445faca461816a32b94 Na_pv/POTCAR          
   COPYR  = (c) Copyright 19Sep2006 Georg Kresse                                                    
   COPYR  = This file is part of the software VASP. Any use, copying, and all other rights are regul
   COPYR  = If you do not have a valid VASP license, you may not use, copy or distribute this file. 
   VRHFIN =Na: p6s1                                                                                 
   LEXCH  = PE                                                                                      
   EATOM  =   766.0439 eV,   56.3026 Ry                                                             
                                                                                                    
   TITEL  = PAW_PBE Na_pv 19Sep2006                                                                 
   LULTRA =        F    use ultrasoft PP ?                                                          
   IUNSCR =        1    unscreen: 0-lin 1-nonlin 2-no                                               
   RPACOR =    1.800    partial core radius                                                         
   POMASS =   22.990; ZVAL   =    7.000    mass and valenz                                          
   RCORE  =    2.200    outmost cutoff radius                                                       
   RWIGS  =    2.200; RWIGS  =    1.164    wigner-seitz radius (au A)                               
   ENMAX  =  259.561; ENMIN  =  194.671 eV                                                          
   ICORE  =        2    local potential                                                             
   LCOR   =        T    correct aug charges                                                         
   LPAW   =        T    paw PP                                                                      
   EAUG   =  368.056                                                                                
   DEXC   =    0.000                                                                                
   RMAX   =    2.245    core radius for proj-oper                                                   
   RAUG   =    1.300    factor for augmentation sphere                                              
   RDEP   =    2.259    radius for radial grids                                                     
   RDEPT  =    1.738    core radius for aug-charge                                                  
                                                                                                    
   Atomic configuration                                                                             
    5 entries                                                                                       
     n  l   j            E        occ.                                                              
     1  0  0.50     -1033.6933   2.0000                                                             
     2  0  0.50       -56.7526   2.0000                                                             
     2  1  1.50       -28.6721   6.0000                                                             
     3  0  0.50        -2.7440   1.0000                                                             
     3  2  1.50        -1.3606   0.0000                                                             
   Description                                                                                      
     l       E           TYP  RCUT    TYP  RCUT                                                     
     1    -28.6720912     23  2.000                                                                 
     1      6.8029130     23  2.000                                                                 
     0     -2.7439560     23  2.200                                                                 
     0     34.0145650     23  2.200                                                                 
     2     -1.3605826     23  2.200                                                                 
  local pseudopotential read in
  partial core-charges read in
  partial kinetic energy density read in
  atomic valenz-charges read in
  non local Contribution for L=           1  read in
    real space projection operators read in
  non local Contribution for L=           1  read in
    real space projection operators read in
  non local Contribution for L=           0  read in
    real space projection operators read in
  non local Contribution for L=           0  read in
    real space projection operators read in
    PAW grid and wavefunctions read in

   number of l-projection  operators is LMAX  =           4
   number of lm-projection operators is LMMAX =           8

 POTCAR:    PAW_PBE S 06Sep2000                   
   SHA256 =  0fc7481fb0695f01bdc6462160264c5c84044ae9ec85a907d398b887a2bc3132 S/POTCAR              
   COPYR  = (c) Copyright 06Sep2000 Georg Kresse                                                    
   COPYR  = This file is part of the software VASP. Any use, copying, and all other rights are regul
   COPYR  = If you do not have a valid VASP license, you may not use, copy or distribute this file. 
   VRHFIN =S : s2p4                                                                                 
   LEXCH  = PE                                                                                      
   EATOM  =   276.8230 eV,   20.3459 Ry                                                             
                                                                                                    
   TITEL  = PAW_PBE S 06Sep2000                                                                     
   LULTRA =        F    use ultrasoft PP ?                                                          
   IUNSCR =        1    unscreen: 0-lin 1-nonlin 2-no                                               
   RPACOR =    1.500    partial core radius                                                         
   POMASS =   32.066; ZVAL   =    6.000    mass and valenz                                          
   RCORE  =    1.900    outmost cutoff radius                                                       
   RWIGS  =    2.200; RWIGS  =    1.164    wigner-seitz radius (au A)                               
   ENMAX  =  258.689; ENMIN  =  194.016 eV                                                          
   ICORE  =        2    local potential                                                             
   LCOR   =        T    correct aug charges                                                         
   LPAW   =        T    paw PP                                                                      
   EAUG   =  335.092                                                                                
   DEXC   =    0.000                                                                                
   RMAX   =    1.942    core radius for proj-oper                                                   
   RAUG   =    1.300    factor for augmentation sphere                                              
   RDEP   =    1.954    radius for radial grids                                                     
   RDEPT  =    1.744    core radius for aug-charge                                                  
                                                                                                    
   Atomic configuration                                                                             
    6 entries                                                                                       
     n  l   j            E        occ.                                                              
     1  0  0.50     -2405.8406   2.0000                                                             
     2  0  0.50      -211.7007   2.0000                                                             
     2  1  1.50      -156.4958   6.0000                                                             
     3  0  0.50       -17.2562   2.0000                                                             
     3  1  0.50        -7.0085   4.0000                                                             
     3  2  1.50        -6.8029   0.0000                                                             
   Description                                                                                      
     l       E           TYP  RCUT    TYP  RCUT                                                     
     0    -17.2561641     23  1.900                                                                 
     0    -15.8743224     23  1.900                                                                 
     1     -7.0085400     23  1.900                                                                 
     1     -2.7779785     23  1.900                                                                 
     2     -6.8029130     23  1.900                                                                 
  local pseudopotential read in
  partial core-charges read in
  partial kinetic energy density read in
  atomic valenz-charges read in
  non local Contribution for L=           0  read in
    real space projection operators read in
  non local Contribution for L=           0  read in
    real space projection operators read in
  non local Contribution for L=           1  read in
    real space projection operators read in
  non local Contribution for L=           1  read in
    real space projection operators read in
    PAW grid and wavefunctions read in

   number of l-projection  operators is LMAX  =           4
   number of lm-projection operators is LMMAX =           8

 -----------------------------------------------------------------------------
|                                                                             |
|               ----> ADVICE to this user running VASP <----                  |
|                                                                             |
|     You have a (more or less) 'large supercell' and for larger cells it     |
|     might be more efficient to use real-space projection operators.         |
|     Therefore, try LREAL= Auto in the INCAR file.                           |
|     Mind: For very accurate calculation, you might also keep the            |
|     reciprocal projection scheme (i.e. LREAL=.FALSE.).                      |
|                                                                             |
 -----------------------------------------------------------------------------

  PAW_PBE Na_pv 19Sep2006               :
 energy of atom  1       EATOM= -766.0439
 kinetic energy error for atom=    0.0019 (will be added to EATOM!!)
  PAW_PBE S 06Sep2000                   :
 energy of atom  2       EATOM= -276.8230
 kinetic energy error for atom=    0.0016 (will be added to EATOM!!)


 POSCAR: generated by phonopy
  positions in direct lattice
  No initial velocities read in
 exchange correlation table for  LEXCH =        8
   RHO(1)=    0.500       N(1)  =     2000
   RHO(2)=  100.500       N(2)  =     4000



--------------------------------------------------------------------------------------------------------


 ion  position               nearest neighbor table
   1  0.001  0.000  0.001-
   2  0.333  0.000  0.000-
   3  0.667  0.000  0.000-
   4  0.000  0.333  0.000-
   5  0.333  0.333  0.000-
   6  0.667  0.333  0.000-
   7  0.000  0.667  0.000-
   8  0.333  0.667  0.000-
   9  0.667  0.667  0.000-
  10  0.000  0.000  0.500-
  11  0.333  0.000  0.500-
  12  0.667  0.000  0.500-
  13  0.000  0.333  0.500-
  14  0.333  0.333  0.500-
  15  0.667  0.333  0.500-
  16  0.000  0.667  0.500-
  17  0.333  0.667  0.500-
  18  0.667  0.667  0.500-
  19  0.111  0.222  0.250-
  20  0.444  0.222  0.250-
  21  0.778  0.222  0.250-
  22  0.111  0.556  0.250-
  23  0.444  0.556  0.250-
  24  0.778  0.556  0.250-
  25  0.111  0.889  0.250-
  26  0.444  0.889  0.250-
  27  0.778  0.889  0.250-
  28  0.222  0.111  0.750-
  29  0.556  0.111  0.750-
  30  0.889  0.111  0.750-
  31  0.222  0.444  0.750-
  32  0.556  0.444  0.750-
  33  0.889  0.444  0.750-
  34  0.222  0.778  0.750-
  35  0.556  0.778  0.750-
  36  0.889  0.778  0.750-
  37  0.111  0.222  0.645-  64 2.17
  38  0.444  0.222  0.645-  65 2.17
  39  0.778  0.222  0.645-  66 2.17
  40  0.111  0.556  0.645-  67 2.17
  41  0.444  0.556  0.645-  68 2.17
  42  0.778  0.556  0.645-  69 2.17
  43  0.111  0.889  0.645-  70 2.17
  44  0.444  0.889  0.645-  71 2.17
  45  0.778  0.889  0.645-  72 2.17
  46  0.222  0.111  0.145-  55 2.17
  47  0.556  0.111  0.145-  56 2.17
  48  0.889  0.111  0.145-  57 2.17
  49  0.222  0.444  0.145-  58 2.17
  50  0.556  0.444  0.145-  59 2.17
  51  0.889  0.444  0.145-  60 2.17
  52  0.222  0.778  0.145-  61 2.17
  53  0.556  0.778  0.145-  62 2.17
  54  0.889  0.778  0.145-  63 2.17
  55  0.222  0.111  0.355-  46 2.17
  56  0.556  0.111  0.355-  47 2.17
  57  0.889  0.111  0.355-  48 2.17
  58  0.222  0.444  0.355-  49 2.17
  59  0.556  0.444  0.355-  50 2.17
  60  0.889  0.444  0.355-  51 2.17
  61  0.222  0.778  0.355-  52 2.17
  62  0.556  0.778  0.355-  53 2.17
  63  0.889  0.778  0.355-  54 2.17
  64  0.111  0.222  0.855-  37 2.17
  65  0.444  0.222  0.855-  38 2.17
  66  0.778  0.222  0.855-  39 2.17
  67  0.111  0.556  0.855-  40 2.17
  68  0.444  0.556  0.855-  41 2.17
  69  0.778  0.556  0.855-  42 2.17
  70  0.111  0.889  0.855-  43 2.17
  71  0.444  0.889  0.855-  44 2.17
  72  0.778  0.889  0.855-  45 2.17


IMPORTANT INFORMATION: All symmetrisations will be switched off!
NOSYMM: (Re-)initialisation of all symmetry stuff for point group C_1.


----------------------------------------------------------------------------------------

                                     Primitive cell                                     

  volume of cell :    1632.5578

  direct lattice vectors                    reciprocal lattice vectors
     6.766693413-11.720256790  0.000000000     0.073891334 -0.042661181  0.000000000
     6.766693413 11.720256790  0.000000000     0.073891334  0.042661181 -0.000000000
     0.000000000  0.000000000 10.292596541    -0.000000000  0.000000000  0.097157214

  length of vectors
    13.533386826 13.533386826 10.292596541     0.085322363  0.085322363  0.097157214

  position of ions in fractional coordinates (direct lattice)
     0.000588144  0.000000000  0.000588144
     0.333333333  0.000000000  0.000000000
     0.666666667  0.000000000  0.000000000
     0.000000000  0.333333333  0.000000000
     0.333333333  0.333333333  0.000000000
     0.666666667  0.333333333  0.000000000
     0.000000000  0.666666667  0.000000000
     0.333333333  0.666666667  0.000000000
     0.666666667  0.666666667  0.000000000
     0.000000000  0.000000000  0.500000000
     0.333333333  0.000000000  0.500000000
     0.666666667  0.000000000  0.500000000
     0.000000000  0.333333333  0.500000000
     0.333333333  0.333333333  0.500000000
     0.666666667  0.333333333  0.500000000
     0.000000000  0.666666667  0.500000000
     0.333333333  0.666666667  0.500000000
     0.666666667  0.666666667  0.500000000
     0.111111111  0.222222222  0.250000000
     0.444444444  0.222222222  0.250000000
     0.777777778  0.222222222  0.250000000
     0.111111111  0.555555556  0.250000000
     0.444444444  0.555555556  0.250000000
     0.777777778  0.555555556  0.250000000
     0.111111111  0.888888889  0.250000000
     0.444444444  0.888888889  0.250000000
     0.777777778  0.888888889  0.250000000
     0.222222222  0.111111111  0.750000000
     0.555555556  0.111111111  0.750000000
     0.888888889  0.111111111  0.750000000
     0.222222222  0.444444444  0.750000000
     0.555555556  0.444444444  0.750000000
     0.888888889  0.444444444  0.750000000
     0.222222222  0.777777778  0.750000000
     0.555555556  0.777777778  0.750000000
     0.888888889  0.777777778  0.750000000
     0.111111111  0.222222222  0.644615105
     0.444444444  0.222222222  0.644615105
     0.777777778  0.222222222  0.644615105
     0.111111111  0.555555556  0.644615105
     0.444444444  0.555555556  0.644615105
     0.777777778  0.555555556  0.644615105
     0.111111111  0.888888889  0.644615105
     0.444444444  0.888888889  0.644615105
     0.777777778  0.888888889  0.644615105
     0.222222222  0.111111111  0.144615105
     0.555555556  0.111111111  0.144615105
     0.888888889  0.111111111  0.144615105
     0.222222222  0.444444444  0.144615105
     0.555555556  0.444444444  0.144615105
     0.888888889  0.444444444  0.144615105
     0.222222222  0.777777778  0.144615105
     0.555555556  0.777777778  0.144615105
     0.888888889  0.777777778  0.144615105
     0.222222222  0.111111111  0.355384895
     0.555555556  0.111111111  0.355384895
     0.888888889  0.111111111  0.355384895
     0.222222222  0.444444444  0.355384895
     0.555555556  0.444444444  0.355384895
     0.888888889  0.444444444  0.355384895
     0.222222222  0.777777778  0.355384895
     0.555555556  0.777777778  0.355384895
     0.888888889  0.777777778  0.355384895
     0.111111111  0.222222222  0.855384895
     0.444444444  0.222222222  0.855384895
     0.777777778  0.222222222  0.855384895
     0.111111111  0.555555556  0.855384895
     0.444444444  0.555555556  0.855384895
     0.777777778  0.555555556  0.855384895
     0.111111111  0.888888889  0.855384895
     0.444444444  0.888888889  0.855384895
     0.777777778  0.888888889  0.855384895

  ion indices of the primitive-cell ions
   primitive index   ion index
                 1           1
                 2           2
                 3           3
                 4           4
                 5           5
                 6           6
                 7           7
                 8           8
                 9           9
                10          10
                11          11
                12          12
                13          13
                14          14
                15          15
                16          16
                17          17
                18          18
                19          19
                20          20
                21          21
                22          22
                23          23
                24          24
                25          25
                26          26
                27          27
                28          28
                29          29
                30          30
                31          31
                32          32
                33          33
                34          34
                35          35
                36          36
                37          37
                38          38
                39          39
                40          40
                41          41
                42          42
                43          43
                44          44
                45          45
                46          46
                47          47
                48          48
                49          49
                50          50
                51          51
                52          52
                53          53
                54          54
                55          55
                56          56
                57          57
                58          58
                59          59
                60          60
                61          61
                62          62
                63          63
                64          64
                65          65
                66          66
                67          67
                68          68
                69          69
                70          70
                71          71
                72          72

----------------------------------------------------------------------------------------



 KPOINTS: pymatgen with grid density = 727 / numbe

Automatic generation of k-mesh.
 Grid dimensions read from file:
 generate k-points for:    3    3    2

 Generating k-lattice:

  Cartesian coordinates                     Fractional coordinates (reciprocal lattice)
     0.024630445 -0.014220394  0.000000000     0.333333333  0.000000000  0.000000000
     0.024630445  0.014220394 -0.000000000     0.000000000  0.333333333  0.000000000
    -0.000000000  0.000000000  0.048578607     0.000000000  0.000000000  0.500000000

  Length of vectors
     0.028440788  0.028440788  0.048578607

  Shift w.r.t. Gamma in fractional coordinates (k-lattice)
     0.000000000  0.000000000  0.000000000

 TETIRR: Found     51 inequivalent tetrahedra from      108
 
 Subroutine IBZKPT returns following result:
 ===========================================
 
 Found     10 irreducible k-points:
 
 Following reciprocal coordinates:
            Coordinates               Weight
  0.000000  0.000000  0.000000      1.000000
  0.333333  0.000000  0.000000      2.000000
  0.000000  0.333333  0.000000      2.000000
 -0.333333  0.333333  0.000000      2.000000
  0.333333  0.333333  0.000000      2.000000
  0.000000  0.000000  0.500000      1.000000
  0.333333  0.000000  0.500000      2.000000
  0.000000  0.333333  0.500000      2.000000
 -0.333333  0.333333  0.500000      2.000000
  0.333333  0.333333  0.500000      2.000000
 
 Following cartesian coordinates:
            Coordinates               Weight
  0.000000  0.000000  0.000000      1.000000
  0.024630 -0.014220  0.000000      2.000000
  0.024630  0.014220  0.000000      2.000000
  0.000000  0.028441  0.000000      2.000000
  0.049261  0.000000  0.000000      2.000000
  0.000000  0.000000  0.048579      1.000000
  0.024630 -0.014220  0.048579      2.000000
  0.024630  0.014220  0.048579      2.000000
  0.000000  0.028441  0.048579      2.000000
  0.049261  0.000000  0.048579      2.000000
 


--------------------------------------------------------------------------------------------------------




 Dimension of arrays:
   k-points           NKPTS =     10   k-points in BZ     NKDIM =     10   number of bands    NBANDS=    320
   number of dos      NEDOS =    301   number of ions     NIONS =     72
   non local maximal  LDIM  =      4   non local SUM 2l+1 LMDIM =      8
   total plane-waves  NPLWV = 933120
   max r-space proj   IRMAX =      1   max aug-charges    IRDMAX= 144241
   dimension x,y,z NGX =   108 NGY =  108 NGZ =   80
   dimension x,y,z NGXF=   216 NGYF=  216 NGZF=  160
   support grid    NGXF=   432 NGYF=  432 NGZF=  320
   ions per type =              36  36
   NGX,Y,Z   is equivalent  to a cutoff of  13.27, 13.27, 12.92 a.u.
   NGXF,Y,Z  is equivalent  to a cutoff of  26.53, 26.53, 25.84 a.u.

 SYSTEM =  unknown system                          
 POSCAR =  generated by phonopy                    

 Startparameter for this run:
   NWRITE =      2    write-flag & timer
   PREC   = accura    normal or accurate (medium, high low for compatibility)
   ISTART =      0    job   : 0-new  1-cont  2-samecut
   ICHARG =      2    charge: 1-file 2-atom 10-const
   ISPIN  =      2    spin polarized calculation?
   LNONCOLLINEAR =      F non collinear calculations
   LSORBIT =      F    spin-orbit coupling
   INIWAV =      1    electr: 0-lowe 1-rand  2-diag
   LASPH  =      T    aspherical Exc in radial PAW
 Electronic Relaxation 1
   ENCUT  =  520.0 eV  38.22 Ry    6.18 a.u.  25.16 25.16 19.14*2*pi/ulx,y,z
   ENINI  =  520.0     initial cutoff
   ENAUG  =  368.1 eV  augmentation charge cutoff
   NELM   =    100;   NELMIN=  2; NELMDL= -5     # of ELM steps 
   EDIFF  = 0.1E-08   stopping-criterion for ELM
   LREAL  =      F    real-space projection
   NLSPLINE    = F    spline interpolate recip. space projectors
   LCOMPAT=      F    compatible to vasp.4.4
   GGA_COMPAT  = T    GGA compatible to vasp.4.4-vasp.4.6
   LMAXPAW     = -100 max onsite density
   LMAXMIX     =    2 max onsite mixed and CHGCAR
   VOSKOWN=      0    Vosko Wilk Nusair interpolation
   ROPT   =    0.00000   0.00000
 Ionic relaxation
   EDIFFG = -.5E-03   stopping-criterion for IOM
   NSW    =      0    number of steps for IOM
   NBLOCK =      1;   KBLOCK =      1    inner block; outer block 
   IBRION =     -1    ionic relax: 0-MD 1-quasi-New 2-CG
   NFREE  =      0    steps in history (QN), initial steepest desc. (CG)
   ISIF   =      2    stress and relaxation
   IWAVPR =     10    prediction:  0-non 1-charg 2-wave 3-comb
   ISYM   =      0    0-nonsym 1-usesym 2-fastsym
   LCORR  =      T    Harris-Foulkes like correction to forces

   POTIM  = 0.5000    time-step for ionic-motion
   TEIN   =    0.0    initial temperature
   TEBEG  =    0.0;   TEEND  =   0.0 temperature during run
   SMASS  =  -3.00    Nose mass-parameter (am)
   estimated Nose-frequenzy (Omega)   =  0.10E-29 period in steps = 0.13E+47 mass=  -0.419E-26a.u.
   SCALEE = 1.0000    scale energy and forces
   NPACO  =    256;   APACO  = 10.0  distance and # of slots for P.C.
   PSTRESS=    0.0 pullay stress

  Mass of Ions in am
   POMASS =  22.99 32.07
  Ionic Valenz
   ZVAL   =   7.00  6.00
  Atomic Wigner-Seitz radii
   RWIGS  =  -1.00 -1.00
  virtual crystal weights 
   VCA    =   1.00  1.00
   NELECT =     468.0000    total number of electrons
   NUPDOWN=      -1.0000    fix difference up-down

 DOS related values:
   EMIN   =  10.00;   EMAX   =-10.00  energy-range for DOS
   EFERMI =   0.00
   ISMEAR =    -5;   SIGMA  =   0.05  broadening in eV -4-tet -1-fermi 0-gaus

 Electronic relaxation 2 (details)
   IALGO  =     38    algorithm
   LDIAG  =      T    sub-space diagonalisation (order eigenvalues)
   LSUBROT=      F    optimize rotation matrix (better conditioning)
   TURBO    =      0    0=normal 1=particle mesh
   IRESTART =      0    0=no restart 2=restart with 2 vectors
   NREBOOT  =      0    no. of reboots
   NMIN     =      0    reboot dimension
   EREF     =   0.00    reference energy to select bands
   IMIX   =      4    mixing-type and parameters
     AMIX     =   0.40;   BMIX     =  1.00
     AMIX_MAG =   1.60;   BMIX_MAG =  1.00
     AMIN     =   0.10
     WC   =   100.;   INIMIX=   1;  MIXPRE=   1;  MAXMIX= -45

 Intra band minimization:
   WEIMIN = 0.0000     energy-eigenvalue tresh-hold
   EBREAK =  0.78E-12  absolut break condition
   DEPER  =   0.30     relativ break condition  

   TIME   =   0.40     timestep for ELM

  volume/ion in A,a.u.               =      22.67       153.01
  Fermi-wavevector in a.u.,A,eV,Ry     =   1.079445  2.039856 15.853534  1.165202
  Thomas-Fermi vector in A             =   2.215410

 Write flags
   LWAVE        =      F    write WAVECAR
   LDOWNSAMPLE  =      F    k-point downsampling of WAVECAR
   LCHARG       =      F    write CHGCAR
   LVTOT        =      F    write LOCPOT, total local potential
   LVHAR        =      F    write LOCPOT, Hartree potential only
   LELF         =      F    write electronic localiz. function (ELF)
   LORBIT       =     11    0 simple, 1 ext, 2 COOP (PROOUT), +10 PAW based schemes


 Dipole corrections
   LMONO  =      F    monopole corrections only (constant potential shift)
   LDIPOL =      F    correct potential (dipole corrections)
   IDIPOL =      0    1-x, 2-y, 3-z, 4-all directions 
   EPSILON=  1.0000000 bulk dielectric constant

 Exchange correlation treatment:
   GGA     =    --    GGA type
   LEXCH   =     8    internal setting for exchange type
   LIBXC   =     F    Libxc                    
   VOSKOWN =     0    Vosko Wilk Nusair interpolation
   LHFCALC =     F    Hartree Fock is set to
   LHFONE  =     F    Hartree Fock one center treatment
   AEXX    =    0.0000 exact exchange contribution

 Linear response parameters
   LEPSILON=     F    determine dielectric tensor
   LRPA    =     F    only Hartree local field effects (RPA)
   LNABLA  =     F    use nabla operator in PAW spheres
   LVEL    =     F    velocity operator in full k-point grid
   CSHIFT  =0.1000    complex shift for real part using Kramers Kronig
   OMEGAMAX=  -1.0    maximum frequency
   DEG_THRESHOLD= 0.2000000E-02 threshold for treating states as degnerate
   RTIME   =   -0.100 relaxation time in fs
  (WPLASMAI=    0.000 imaginary part of plasma frequency in eV, 0.658/RTIME)
   DFIELD  = 0.0000000 0.0000000 0.0000000 field for delta impulse in time

  Optional k-point grid parameters
   LKPOINTS_OPT  =     F    use optional k-point grid
   KPOINTS_OPT_MODE=     1    mode for optional k-point grid

 Orbital magnetization related:
   ORBITALMAG=     F  switch on orbital magnetization
   LCHIMAG   =     F  perturbation theory with respect to B field
   DQ        =  0.001000  dq finite difference perturbation B field
   LLRAUG    =     F  two centre corrections for induced B field



--------------------------------------------------------------------------------------------------------


 Static calculation
 charge density and potential will be updated during run
 spin polarized calculation
 Variant of blocked Davidson
 Davidson routine will perform the subspace rotation
 perform sub-space diagonalisation
    after iterative eigenvector-optimisation
 modified Broyden-mixing scheme, WC =      100.0
 initial mixing is a Kerker type mixing with AMIX =  0.4000 and BMIX =      1.0000
 Hartree-type preconditioning will be used
 using additional bands           86
 reciprocal scheme for non local part
 use partial core corrections
 calculate Harris-corrections to forces   (improved forces if not selfconsistent)
 use gradient corrections 
 use of overlap-Matrix (Vanderbilt PP)
 Fermi weights with tetrahedron method with Bloechl corrections


--------------------------------------------------------------------------------------------------------


  energy-cutoff  :      520.00
  volume of cell :     1632.56
      direct lattice vectors                 reciprocal lattice vectors
     6.766693413-11.720256790  0.000000000     0.073891334 -0.042661181  0.000000000
     6.766693413 11.720256790  0.000000000     0.073891334  0.042661181 -0.000000000
     0.000000000  0.000000000 10.292596541    -0.000000000  0.000000000  0.097157214

  length of vectors
    13.533386826 13.533386826 10.292596541     0.085322363  0.085322363  0.097157214



 k-points in units of 2pi/SCALE and weight: pymatgen with grid density = 727 / numbe
   0.00000000 -0.00000000  0.00000000       0.056
   0.02463044 -0.01422039  0.00000000       0.111
   0.02463044  0.01422039  0.00000000       0.111
   0.00000000  0.02844079  0.00000000       0.111
   0.04926089 -0.00000000  0.00000000       0.111
   0.00000000 -0.00000000  0.04857861       0.056
   0.02463044 -0.01422039  0.04857861       0.111
   0.02463044  0.01422039  0.04857861       0.111
   0.00000000  0.02844079  0.04857861       0.111
   0.04926089 -0.00000000  0.04857861       0.111

 k-points in reciprocal lattice and weights: pymatgen with grid density = 727 / numbe
   0.00000000  0.00000000  0.00000000       0.056
   0.33333333  0.00000000  0.00000000       0.111
   0.00000000  0.33333333  0.00000000       0.111
  -0.33333333  0.33333333  0.00000000       0.111
   0.33333333  0.33333333  0.00000000       0.111
   0.00000000  0.00000000  0.50000000       0.056
   0.33333333  0.00000000  0.50000000       0.111
   0.00000000  0.33333333  0.50000000       0.111
  -0.33333333  0.33333333  0.50000000       0.111
   0.33333333  0.33333333  0.50000000       0.111

 position of ions in fractional coordinates (direct lattice) 
   0.00058814  0.00000000  0.00058814
   0.33333333  0.00000000  0.00000000
   0.66666667  0.00000000  0.00000000
   0.00000000  0.33333333  0.00000000
   0.33333333  0.33333333  0.00000000
   0.66666667  0.33333333  0.00000000
   0.00000000  0.66666667  0.00000000
   0.33333333  0.66666667  0.00000000
   0.66666667  0.66666667  0.00000000
   0.00000000  0.00000000  0.50000000
   0.33333333  0.00000000  0.50000000
   0.66666667  0.00000000  0.50000000
   0.00000000  0.33333333  0.50000000
   0.33333333  0.33333333  0.50000000
   0.66666667  0.33333333  0.50000000
   0.00000000  0.66666667  0.50000000
   0.33333333  0.66666667  0.50000000
   0.66666667  0.66666667  0.50000000
   0.11111111  0.22222222  0.25000000
   0.44444444  0.22222222  0.25000000
   0.77777778  0.22222222  0.25000000
   0.11111111  0.55555556  0.25000000
   0.44444444  0.55555556  0.25000000
   0.77777778  0.55555556  0.25000000
   0.11111111  0.88888889  0.25000000
   0.44444444  0.88888889  0.25000000
   0.77777778  0.88888889  0.25000000
   0.22222222  0.11111111  0.75000000
   0.55555556  0.11111111  0.75000000
   0.88888889  0.11111111  0.75000000
   0.22222222  0.44444444  0.75000000
   0.55555556  0.44444444  0.75000000
   0.88888889  0.44444444  0.75000000
   0.22222222  0.77777778  0.75000000
   0.55555556  0.77777778  0.75000000
   0.88888889  0.77777778  0.75000000
   0.11111111  0.22222222  0.64461511
   0.44444444  0.22222222  0.64461511
   0.77777778  0.22222222  0.64461511
   0.11111111  0.55555556  0.64461511
   0.44444444  0.55555556  0.64461511
   0.77777778  0.55555556  0.64461511
   0.11111111  0.88888889  0.64461511
   0.44444444  0.88888889  0.64461511
   0.77777778  0.88888889  0.64461511
   0.22222222  0.11111111  0.14461511
   0.55555556  0.11111111  0.14461511
   0.88888889  0.11111111  0.14461511
   0.22222222  0.44444444  0.14461511
   0.55555556  0.44444444  0.14461511
   0.88888889  0.44444444  0.14461511
   0.22222222  0.77777778  0.14461511
   0.55555556  0.77777778  0.14461511
   0.88888889  0.77777778  0.14461511
   0.22222222  0.11111111  0.35538489
   0.55555556  0.11111111  0.35538489
   0.88888889  0.11111111  0.35538489
   0.22222222  0.44444444  0.35538489
   0.55555556  0.44444444  0.35538489
   0.88888889  0.44444444  0.35538489
   0.22222222  0.77777778  0.35538489
   0.55555556  0.77777778  0.35538489
   0.88888889  0.77777778  0.35538489
   0.11111111  0.22222222  0.85538489
   0.44444444  0.22222222  0.85538489
   0.77777778  0.22222222  0.85538489
   0.11111111  0.55555556  0.85538489
   0.44444444  0.55555556  0.85538489
   0.77777778  0.55555556  0.85538489
   0.11111111  0.88888889  0.85538489
   0.44444444  0.88888889  0.85538489
   0.77777778  0.88888889  0.85538489

 position of ions in cartesian coordinates  (Angst):
   0.00397979 -0.00689319  0.00605352
   2.25556447 -3.90675226  0.00000000
   4.51112894 -7.81350453  0.00000000
   2.25556447  3.90675226  0.00000000
   4.51112894  0.00000000  0.00000000
   6.76669341 -3.90675226  0.00000000
   4.51112894  7.81350453  0.00000000
   6.76669341  3.90675226  0.00000000
   9.02225788 -0.00000000  0.00000000
   0.00000000  0.00000000  5.14629827
   2.25556447 -3.90675226  5.14629827
   4.51112894 -7.81350453  5.14629827
   2.25556447  3.90675226  5.14629827
   4.51112894  0.00000000  5.14629827
   6.76669341 -3.90675226  5.14629827
   4.51112894  7.81350453  5.14629827
   6.76669341  3.90675226  5.14629827
   9.02225788 -0.00000000  5.14629827
   2.25556447  1.30225075  2.57314914
   4.51112894 -2.60450151  2.57314914
   6.76669341 -6.51125377  2.57314914
   4.51112894  5.20900302  2.57314914
   6.76669341  1.30225075  2.57314914
   9.02225788 -2.60450151  2.57314914
   6.76669341  9.11575528  2.57314914
   9.02225788  5.20900302  2.57314914
  11.27782235  1.30225075  2.57314914
   2.25556447 -1.30225075  7.71944741
   4.51112894 -5.20900302  7.71944741
   6.76669341 -9.11575528  7.71944741
   4.51112894  2.60450151  7.71944741
   6.76669341 -1.30225075  7.71944741
   9.02225788 -5.20900302  7.71944741
   6.76669341  6.51125377  7.71944741
   9.02225788  2.60450151  7.71944741
  11.27782235 -1.30225075  7.71944741
   2.25556447  1.30225075  6.63476320
   4.51112894 -2.60450151  6.63476320
   6.76669341 -6.51125377  6.63476320
   4.51112894  5.20900302  6.63476320
   6.76669341  1.30225075  6.63476320
   9.02225788 -2.60450151  6.63476320
   6.76669341  9.11575528  6.63476320
   9.02225788  5.20900302  6.63476320
  11.27782235  1.30225075  6.63476320
   2.25556447 -1.30225075  1.48846493
   4.51112894 -5.20900302  1.48846493
   6.76669341 -9.11575528  1.48846493
   4.51112894  2.60450151  1.48846493
   6.76669341 -1.30225075  1.48846493
   9.02225788 -5.20900302  1.48846493
   6.76669341  6.51125377  1.48846493
   9.02225788  2.60450151  1.48846493
  11.27782235 -1.30225075  1.48846493
   2.25556447 -1.30225075  3.65783334
   4.51112894 -5.20900302  3.65783334
   6.76669341 -9.11575528  3.65783334
   4.51112894  2.60450151  3.65783334
   6.76669341 -1.30225075  3.65783334
   9.02225788 -5.20900302  3.65783334
   6.76669341  6.51125377  3.65783334
   9.02225788  2.60450151  3.65783334
  11.27782235 -1.30225075  3.65783334
   2.25556447  1.30225075  8.80413161
   4.51112894 -2.60450151  8.80413161
   6.76669341 -6.51125377  8.80413161
   4.51112894  5.20900302  8.80413161
   6.76669341  1.30225075  8.80413161
   9.02225788 -2.60450151  8.80413161
   6.76669341  9.11575528  8.80413161
   9.02225788  5.20900302  8.80413161
  11.27782235  1.30225075  8.80413161



--------------------------------------------------------------------------------------------------------


 k-point   1 :   0.0000 0.0000 0.0000  plane waves:   44013
 k-point   2 :   0.3333 0.0000 0.0000  plane waves:   43952
 k-point   3 :   0.0000 0.3333 0.0000  plane waves:   43952
 k-point   4 :  -0.3333 0.3333 0.0000  plane waves:   43952
 k-point   5 :   0.3333 0.3333 0.0000  plane waves:   43929
 k-point   6 :   0.0000 0.0000 0.5000  plane waves:   43946
 k-point   7 :   0.3333 0.0000 0.5000  plane waves:   43984
 k-point   8 :   0.0000 0.3333 0.5000  plane waves:   43984
 k-point   9 :  -0.3333 0.3333 0.5000  plane waves:   43984
 k-point  10 :   0.3333 0.3333 0.5000  plane waves:   43986

 maximum and minimum number of plane-waves per node :     44013    43929

 maximum number of plane-waves:     44013
 maximum index in each direction: 
   IXMAX=   25   IYMAX=   25   IZMAX=   19
   IXMIN=  -25   IYMIN=  -25   IZMIN=  -19


 serial   3D FFT for wavefunctions
 parallel 3D FFT for charge:
    minimum data exchange during FFTs selected (reduces bandwidth)


 total amount of memory used by VASP MPI-rank0   413811. kBytes
=======================================================================

   base      :      30000. kBytes
   nonl-proj :     107085. kBytes
   fftplans  :      38970. kBytes
   grid      :      94569. kBytes
   one-center:        442. kBytes
   wavefun   :     142745. kBytes

     INWAV:  cpu time      0.0000: real time      0.0002
 Broyden mixing: mesh for mixing (old mesh)
   NGX = 51   NGY = 51   NGZ = 39
  (NGX  =216   NGY  =216   NGZ  =160)
  gives a total of 101439 points

 initial charge density was supplied:
 charge density of overlapping atoms calculated
 number of electron     468.0000000 magnetization      72.0000000
 keeping initial charge density in first step


--------------------------------------------------------------------------------------------------------


 Maximum index for augmentation-charges         5093 (set IRDMAX)


--------------------------------------------------------------------------------------------------------


 First call to EWALD:  gamma=   0.151
 Maximum number of real-space cells 3x 3x 3
 Maximum number of reciprocal cells 3x 3x 2

    FEWALD:  cpu time      0.0034: real time      0.0033


--------------------------------------- Iteration      1(   1)  ---------------------------------------


    POTLOK:  cpu time      0.6013: real time      0.6037
    SETDIJ:  cpu time     11.9647: real time     11.9736
     EDDAV:  cpu time    131.0325: real time    131.2695
 BZINTS: Fermi energy:   16.341087;  468.000000 electrons
         Band energy:-0.370553E+03;  BLOECHL correction:   -0.084864
       DOS:  cpu time      0.1384: real time      0.1385
    --------------------------------------------
      LOOP:  cpu time    143.7369: real time    143.9854

 eigenvalue-minimisations  : 12864
 total energy-change (2. order) : 0.4869203E+04  (-0.2166579E+05)
 number of electron     468.0000000 magnetization      72.0000000
 augmentation part      468.0000000 magnetization      72.0000000

 Free energy of the ion-electron system (eV)
  ---------------------------------------------------
  alpha Z        PSCENC =       709.13725613
  Ewald energy   TEWEN  =    -21667.13080091
  -Hartree energ DENC   =     -9609.01736146
  -exchange      EXHF   =         0.00000000
  -V(xc)+E(xc)   XCENC  =      1335.11076146
  PAW double counting   =     25905.63174358   -28977.05906808
  entropy T*S    EENTRO =         0.00000000
  eigenvalues    EBANDS =      -370.55305571
  atomic energy  EATOM  =     37543.08313351
  Solvation  Ediel_sol  =         0.00000000
  ---------------------------------------------------
  free energy    TOTEN  =      4869.20260852 eV

  energy without entropy =     4869.20260852  energy(sigma->0) =     4869.20260852


--------------------------------------------------------------------------------------------------------




--------------------------------------- Iteration      1(   2)  ---------------------------------------


     EDDAV:  cpu time    114.7401: real time    114.9431
 BZINTS: Fermi energy:    5.942393;  468.000000 electrons
         Band energy:-0.474922E+04;  BLOECHL correction:   -0.235788
       DOS:  cpu time      0.1286: real time      0.1287
    --------------------------------------------
      LOOP:  cpu time    114.8687: real time    115.0717

 eigenvalue-minimisations  : 12992
 total energy-change (2. order) :-0.4378668E+04  (-0.4175325E+04)
 number of electron     468.0000000 magnetization      72.0000000
 augmentation part      468.0000000 magnetization      72.0000000

 Free energy of the ion-electron system (eV)
  ---------------------------------------------------
  alpha Z        PSCENC =       709.13725613
  Ewald energy   TEWEN  =    -21667.13080091
  -Hartree energ DENC   =     -9609.01736146
  -exchange      EXHF   =         0.00000000
  -V(xc)+E(xc)   XCENC  =      1335.11076146
  PAW double counting   =     25905.63174358   -28977.05906808
  entropy T*S    EENTRO =         0.00000000
  eigenvalues    EBANDS =     -4749.22090544
  atomic energy  EATOM  =     37543.08313351
  Solvation  Ediel_sol  =         0.00000000
  ---------------------------------------------------
  free energy    TOTEN  =       490.53475878 eV

  energy without entropy =      490.53475878  energy(sigma->0) =      490.53475878


--------------------------------------------------------------------------------------------------------




--------------------------------------- Iteration      1(   3)  ---------------------------------------


     EDDAV:  cpu time    131.4029: real time    131.6158
 BZINTS: Fermi energy:    1.896746;  468.000000 electrons
         Band energy:-0.543926E+04;  BLOECHL correction:    0.000000
       DOS:  cpu time      0.0741: real time      0.0741
    --------------------------------------------
      LOOP:  cpu time    131.4769: real time    131.6899

 eigenvalue-minimisations  : 15872
 total energy-change (2. order) :-0.6900430E+03  (-0.6718686E+03)
 number of electron     468.0000000 magnetization      72.0000000
 augmentation part      468.0000000 magnetization      72.0000000

 Free energy of the ion-electron system (eV)
  ---------------------------------------------------
  alpha Z        PSCENC =       709.13725613
  Ewald energy   TEWEN  =    -21667.13080091
  -Hartree energ DENC   =     -9609.01736146
  -exchange      EXHF   =         0.00000000
  -V(xc)+E(xc)   XCENC  =      1335.11076146
  PAW double counting   =     25905.63174358   -28977.05906808
  entropy T*S    EENTRO =         0.00000000
  eigenvalues    EBANDS =     -5439.26391570
  atomic energy  EATOM  =     37543.08313351
  Solvation  Ediel_sol  =         0.00000000
  ---------------------------------------------------
  free energy    TOTEN  =      -199.50825148 eV

  energy without entropy =     -199.50825148  energy(sigma->0) =     -199.50825148


--------------------------------------------------------------------------------------------------------




--------------------------------------- Iteration      1(   4)  ---------------------------------------


     EDDAV:  cpu time    133.9210: real time    134.1721
 BZINTS: Fermi energy:    1.338853;  468.000000 electrons
         Band energy:-0.548146E+04;  BLOECHL correction:    0.000000
       DOS:  cpu time      0.0723: real time      0.0724
    --------------------------------------------
      LOOP:  cpu time    133.9933: real time    134.2445

 eigenvalue-minimisations  : 15680
 total energy-change (2. order) :-0.4219454E+02  (-0.4176112E+02)
 number of electron     468.0000000 magnetization      72.0000000
 augmentation part      468.0000000 magnetization      72.0000000

 Free energy of the ion-electron system (eV)
  ---------------------------------------------------
  alpha Z        PSCENC =       709.13725613
  Ewald energy   TEWEN  =    -21667.13080091
  -Hartree energ DENC   =     -9609.01736146
  -exchange      EXHF   =         0.00000000
  -V(xc)+E(xc)   XCENC  =      1335.11076146
  PAW double counting   =     25905.63174358   -28977.05906808
  entropy T*S    EENTRO =         0.00000000
  eigenvalues    EBANDS =     -5481.45845499
  atomic energy  EATOM  =     37543.08313351
  Solvation  Ediel_sol  =         0.00000000
  ---------------------------------------------------
  free energy    TOTEN  =      -241.70279076 eV

  energy without entropy =     -241.70279076  energy(sigma->0) =     -241.70279076


--------------------------------------------------------------------------------------------------------




--------------------------------------- Iteration      1(   5)  ---------------------------------------


     EDDAV:  cpu time    137.6095: real time    137.9045
 BZINTS: Fermi energy:    1.334347;  468.000000 electrons
         Band energy:-0.548272E+04;  BLOECHL correction:   -0.000000
       DOS:  cpu time      0.0866: real time      0.0867
    CHARGE:  cpu time      6.5982: real time      6.6259
    MIXING:  cpu time      0.0302: real time      0.0303
    --------------------------------------------
      LOOP:  cpu time    144.3245: real time    144.6474

 eigenvalue-minimisations  : 16448
 total energy-change (2. order) :-0.1258245E+01  (-0.1255657E+01)
 number of electron     468.0000004 magnetization      46.2827372
 augmentation part      130.0366154 magnetization      47.0993422

 Broyden mixing:
  rms(total) = 0.59530E+01    rms(broyden)= 0.59530E+01
  rms(prec ) = 0.61013E+01
  weight for this iteration     100.00

 Free energy of the ion-electron system (eV)
  ---------------------------------------------------
  alpha Z        PSCENC =       709.13725613
  Ewald energy   TEWEN  =    -21667.13080091
  -Hartree energ DENC   =     -9609.01736146
  -exchange      EXHF   =         0.00000000
  -V(xc)+E(xc)   XCENC  =      1335.11076146
  PAW double counting   =     25905.63174358   -28977.05906808
  entropy T*S    EENTRO =         0.00000000
  eigenvalues    EBANDS =     -5482.71670017
  atomic energy  EATOM  =     37543.08313351
  Solvation  Ediel_sol  =         0.00000000
  ---------------------------------------------------
  free energy    TOTEN  =      -242.96103594 eV

  energy without entropy =     -242.96103594  energy(sigma->0) =     -242.96103594


--------------------------------------------------------------------------------------------------------




--------------------------------------- Iteration      1(   6)  ---------------------------------------


    POTLOK:  cpu time      0.5688: real time      0.5960
    SETDIJ:  cpu time      7.8947: real time      8.0106
     EDDAV:  cpu time    122.8101: real time    125.2252
 BZINTS: Fermi energy:    1.670093;  468.000000 electrons
         Band energy:-0.542022E+04;  BLOECHL correction:   -0.000000
       DOS:  cpu time      0.0731: real time      0.1060
    CHARGE:  cpu time     11.4432: real time     11.8518
    MIXING:  cpu time      0.0257: real time      0.0257
    --------------------------------------------
      LOOP:  cpu time    142.8156: real time    145.8152

 eigenvalue-minimisations  : 13984
 total energy-change (2. order) : 0.3026699E+02  (-0.7623627E+01)
 number of electron     468.0000004 magnetization      32.2080314
 augmentation part      131.1043169 magnetization      31.8744922

 Broyden mixing:
  rms(total) = 0.30216E+01    rms(broyden)= 0.30216E+01
  rms(prec ) = 0.31145E+01
  weight for this iteration     100.00

 eigenvalues of (default mixing * dielectric matrix)
  average eigenvalue GAMMA=   0.7582
  0.7582

 Free energy of the ion-electron system (eV)
  ---------------------------------------------------
  alpha Z        PSCENC =       709.13725613
  Ewald energy   TEWEN  =    -21667.13080091
  -Hartree energ DENC   =     -9663.81564820
  -exchange      EXHF   =         0.00000000
  -V(xc)+E(xc)   XCENC  =      1356.49798289
  PAW double counting   =     29099.80204340   -32170.04384698
  entropy T*S    EENTRO =         0.00000000
  eigenvalues    EBANDS =     -5420.22416081
  atomic energy  EATOM  =     37543.08313351
  Solvation  Ediel_sol  =         0.00000000
  ---------------------------------------------------
  free energy    TOTEN  =      -212.69404097 eV

  energy without entropy =     -212.69404097  energy(sigma->0) =     -212.69404097


--------------------------------------------------------------------------------------------------------




--------------------------------------- Iteration      1(   7)  ---------------------------------------


    POTLOK:  cpu time      0.5264: real time      0.5602
    SETDIJ:  cpu time      9.0943: real time      9.3983
     EDDAV:  cpu time    129.8456: real time    131.3927
 BZINTS: Fermi energy:    1.773705;  468.000000 electrons
         Band energy:-0.540917E+04;  BLOECHL correction:    0.000000
       DOS:  cpu time      0.0715: real time      0.0716
    CHARGE:  cpu time     12.0164: real time     12.0307
    MIXING:  cpu time      0.0106: real time      0.0106
    --------------------------------------------
      LOOP:  cpu time    151.5650: real time    153.4642

 eigenvalue-minimisations  : 15168
 total energy-change (2. order) :-0.3430424E+02  (-0.3353404E+01)
 number of electron     468.0000004 magnetization      10.0146649
 augmentation part      131.3316689 magnetization      10.4427039

 Broyden mixing:
  rms(total) = 0.17507E+01    rms(broyden)= 0.17507E+01
  rms(prec ) = 0.17851E+01
  weight for this iteration     100.00

 eigenvalues of (default mixing * dielectric matrix)
  average eigenvalue GAMMA=   1.1539
  1.5819  0.7260

 Free energy of the ion-electron system (eV)
  ---------------------------------------------------
  alpha Z        PSCENC =       709.13725613
  Ewald energy   TEWEN  =    -21667.13080091
  -Hartree energ DENC   =     -9693.94128704
  -exchange      EXHF   =         0.00000000
  -V(xc)+E(xc)   XCENC  =      1348.40516578
  PAW double counting   =     31432.21540005   -34509.59506951
  entropy T*S    EENTRO =         0.00000000
  eigenvalues    EBANDS =     -5409.17207697
  atomic energy  EATOM  =     37543.08313351
  Solvation  Ediel_sol  =         0.00000000
  ---------------------------------------------------
  free energy    TOTEN  =      -246.99827896 eV

  energy without entropy =     -246.99827896  energy(sigma->0) =     -246.99827896


--------------------------------------------------------------------------------------------------------




--------------------------------------- Iteration      1(   8)  ---------------------------------------


    POTLOK:  cpu time      0.5199: real time      0.5211
    SETDIJ:  cpu time      9.5223: real time      9.5506
     EDDAV:  cpu time    126.4789: real time    126.7063
 BZINTS: Fermi energy:    1.883781;  468.000000 electrons
         Band energy:-0.541042E+04;  BLOECHL correction:    0.000000
       DOS:  cpu time      0.0737: real time      0.0738
    CHARGE:  cpu time     14.5155: real time     14.5302
    MIXING:  cpu time      0.0279: real time      0.0279
    --------------------------------------------
      LOOP:  cpu time    151.1382: real time    151.4098

 eigenvalue-minimisations  : 13408
 total energy-change (2. order) :-0.8379814E+01  (-0.1086419E+01)
 number of electron     468.0000004 magnetization       2.3349369
 augmentation part      131.5579134 magnetization       2.4793558

 Broyden mixing:
  rms(total) = 0.65657E+00    rms(broyden)= 0.65657E+00
  rms(prec ) = 0.66629E+00
  weight for this iteration     100.00

 eigenvalues of (default mixing * dielectric matrix)
  average eigenvalue GAMMA=   1.2788
  2.3807  0.7601  0.6957

 Free energy of the ion-electron system (eV)
  ---------------------------------------------------
  alpha Z        PSCENC =       709.13725613
  Ewald energy   TEWEN  =    -21667.13080091
  -Hartree energ DENC   =     -9694.45633997
  -exchange      EXHF   =         0.00000000
  -V(xc)+E(xc)   XCENC  =      1345.77347414
  PAW double counting   =     35494.76053880   -38576.12650392
  entropy T*S    EENTRO =         0.00000000
  eigenvalues    EBANDS =     -5410.41885073
  atomic energy  EATOM  =     37543.08313351
  Solvation  Ediel_sol  =         0.00000000
  ---------------------------------------------------
  free energy    TOTEN  =      -255.37809296 eV

  energy without entropy =     -255.37809296  energy(sigma->0) =     -255.37809296


--------------------------------------------------------------------------------------------------------




--------------------------------------- Iteration      1(   9)  ---------------------------------------


    POTLOK:  cpu time      0.5714: real time      0.5727
    SETDIJ:  cpu time      3.1867: real time      3.1934
     EDDAV:  cpu time    134.8883: real time    135.0123
 BZINTS: Fermi energy:    1.878009;  468.000000 electrons
         Band energy:-0.541616E+04;  BLOECHL correction:    0.000000
       DOS:  cpu time      0.0739: real time      0.0740
    CHARGE:  cpu time     12.4560: real time     12.4661
    MIXING:  cpu time      0.0396: real time      0.0396
    --------------------------------------------
      LOOP:  cpu time    151.2159: real time    151.3581

 eigenvalue-minimisations  : 15072
 total energy-change (2. order) :-0.6366849E+00  (-0.1057904E+00)
 number of electron     468.0000004 magnetization       1.1597404
 augmentation part      131.5611768 magnetization       1.1666123

 Broyden mixing:
  rms(total) = 0.14318E+00    rms(broyden)= 0.14318E+00
  rms(prec ) = 0.15335E+00
  weight for this iteration     100.00

 eigenvalues of (default mixing * dielectric matrix)
  average eigenvalue GAMMA=   1.2621
  2.6015  0.9927  0.7684  0.6858

 Free energy of the ion-electron system (eV)
  ---------------------------------------------------
  alpha Z        PSCENC =       709.13725613
  Ewald energy   TEWEN  =    -21667.13080091
  -Hartree energ DENC   =     -9688.08679639
  -exchange      EXHF   =         0.00000000
  -V(xc)+E(xc)   XCENC  =      1346.21746459
  PAW double counting   =     37026.12914975   -40109.20190693
  entropy T*S    EENTRO =         0.00000000
  eigenvalues    EBANDS =     -5416.16227758
  atomic energy  EATOM  =     37543.08313351
  Solvation  Ediel_sol  =         0.00000000
  ---------------------------------------------------
  free energy    TOTEN  =      -256.01477783 eV

  energy without entropy =     -256.01477783  energy(sigma->0) =     -256.01477783


--------------------------------------------------------------------------------------------------------




--------------------------------------- Iteration      1(  10)  ---------------------------------------


    POTLOK:  cpu time      0.5358: real time      0.5371
    SETDIJ:  cpu time      8.6046: real time      8.6083
     EDDAV:  cpu time    135.6212: real time    135.8900
 BZINTS: Fermi energy:    1.857027;  468.000000 electrons
         Band energy:-0.541896E+04;  BLOECHL correction:    0.000000
       DOS:  cpu time      0.0717: real time      0.0717
    CHARGE:  cpu time     13.7448: real time     13.7656
    MIXING:  cpu time      0.0345: real time      0.0345
    --------------------------------------------
      LOOP:  cpu time    158.6125: real time    158.9072

 eigenvalue-minimisations  : 16160
 total energy-change (2. order) :-0.6054505E-01  (-0.9453889E-02)
 number of electron     468.0000004 magnetization       1.1747635
 augmentation part      131.5310385 magnetization       1.2009191

 Broyden mixing:
  rms(total) = 0.86272E-01    rms(broyden)= 0.86272E-01
  rms(prec ) = 0.90547E-01
  weight for this iteration     100.00

 eigenvalues of (default mixing * dielectric matrix)
  average eigenvalue GAMMA=   1.1602
  2.4996  1.1675  0.7527  0.7527  0.6287

 Free energy of the ion-electron system (eV)
  ---------------------------------------------------
  alpha Z        PSCENC =       709.13725613
  Ewald energy   TEWEN  =    -21667.13080091
  -Hartree energ DENC   =     -9684.64696650
  -exchange      EXHF   =         0.00000000
  -V(xc)+E(xc)   XCENC  =      1346.04236200
  PAW double counting   =     37108.54490805   -40192.14832855
  entropy T*S    EENTRO =         0.00000000
  eigenvalues    EBANDS =     -5418.95688660
  atomic energy  EATOM  =     37543.08313351
  Solvation  Ediel_sol  =         0.00000000
  ---------------------------------------------------
  free energy    TOTEN  =      -256.07532287 eV

  energy without entropy =     -256.07532287  energy(sigma->0) =     -256.07532287


--------------------------------------------------------------------------------------------------------




--------------------------------------- Iteration      1(  11)  ---------------------------------------


    POTLOK:  cpu time      0.5548: real time      0.5559
    SETDIJ:  cpu time      9.4884: real time      9.4957
     EDDAV:  cpu time    129.3142: real time    129.4673
 BZINTS: Fermi energy:    1.850794;  468.000000 electrons
         Band energy:-0.541980E+04;  BLOECHL correction:    0.000000
       DOS:  cpu time      0.0724: real time      0.0725
    CHARGE:  cpu time      6.5591: real time      6.5784
    MIXING:  cpu time      0.0207: real time      0.0207
    --------------------------------------------
      LOOP:  cpu time    146.0096: real time    146.1905

 eigenvalue-minimisations  : 15232
 total energy-change (2. order) :-0.8513581E-02  (-0.1324513E-02)
 number of electron     468.0000004 magnetization       0.7717643
 augmentation part      131.5173620 magnetization       0.7849759

 Broyden mixing:
  rms(total) = 0.52050E-01    rms(broyden)= 0.52050E-01
  rms(prec ) = 0.55015E-01
  weight for this iteration     100.00

 eigenvalues of (default mixing * dielectric matrix)
  average eigenvalue GAMMA=   1.2246
  2.1348  2.1348  0.8648  0.8648  0.7289  0.6196

 Free energy of the ion-electron system (eV)
  ---------------------------------------------------
  alpha Z        PSCENC =       709.13725613
  Ewald energy   TEWEN  =    -21667.13080091
  -Hartree energ DENC   =     -9683.62401680
  -exchange      EXHF   =         0.00000000
  -V(xc)+E(xc)   XCENC  =      1345.91733240
  PAW double counting   =     36951.59740306   -40035.26484248
  entropy T*S    EENTRO =         0.00000000
  eigenvalues    EBANDS =     -5419.79930136
  atomic energy  EATOM  =     37543.08313351
  Solvation  Ediel_sol  =         0.00000000
  ---------------------------------------------------
  free energy    TOTEN  =      -256.08383645 eV

  energy without entropy =     -256.08383645  energy(sigma->0) =     -256.08383645


--------------------------------------------------------------------------------------------------------




--------------------------------------- Iteration      1(  12)  ---------------------------------------


    POTLOK:  cpu time      0.4964: real time      0.4993
    SETDIJ:  cpu time      9.2423: real time      9.2512
     EDDAV:  cpu time    121.2836: real time    121.3568
 BZINTS: Fermi energy:    1.848051;  468.000000 electrons
         Band energy:-0.542045E+04;  BLOECHL correction:   -0.000000
       DOS:  cpu time      0.0799: real time      0.0800
    CHARGE:  cpu time     11.6010: real time     11.6075
    MIXING:  cpu time      0.0179: real time      0.0180
    --------------------------------------------
      LOOP:  cpu time    142.7211: real time    142.8128

 eigenvalue-minimisations  : 14176
 total energy-change (2. order) :-0.1238794E-01  (-0.6786403E-03)
 number of electron     468.0000004 magnetization       0.0587308
 augmentation part      131.5135441 magnetization       0.0645409

 Broyden mixing:
  rms(total) = 0.23750E-01    rms(broyden)= 0.23750E-01
  rms(prec ) = 0.25940E-01
  weight for this iteration     100.00

 eigenvalues of (default mixing * dielectric matrix)
  average eigenvalue GAMMA=   1.3471
  2.5127  2.5127  1.3495  0.8910  0.6343  0.7648  0.7648

 Free energy of the ion-electron system (eV)
  ---------------------------------------------------
  alpha Z        PSCENC =       709.13725613
  Ewald energy   TEWEN  =    -21667.13080091
  -Hartree energ DENC   =     -9682.84155824
  -exchange      EXHF   =         0.00000000
  -V(xc)+E(xc)   XCENC  =      1345.89118571
  PAW double counting   =     36800.95311565   -39884.74244629
  entropy T*S    EENTRO =         0.00000000
  eigenvalues    EBANDS =     -5420.44610995
  atomic energy  EATOM  =     37543.08313351
  Solvation  Ediel_sol  =         0.00000000
  ---------------------------------------------------
  free energy    TOTEN  =      -256.09622439 eV

  energy without entropy =     -256.09622439  energy(sigma->0) =     -256.09622439


--------------------------------------------------------------------------------------------------------




--------------------------------------- Iteration      1(  13)  ---------------------------------------


    POTLOK:  cpu time      0.5414: real time      0.5436
    SETDIJ:  cpu time      9.2265: real time      9.2333
     EDDAV:  cpu time    128.9889: real time    129.4065
 BZINTS: Fermi energy:    1.850070;  468.000000 electrons
         Band energy:-0.542056E+04;  BLOECHL correction:    0.000000
       DOS:  cpu time      0.0743: real time      0.0744
    CHARGE:  cpu time     15.4151: real time     15.4488
    MIXING:  cpu time      0.0314: real time      0.0314
    --------------------------------------------
      LOOP:  cpu time    154.2776: real time    154.7382

 eigenvalue-minimisations  : 14432
 total energy-change (2. order) :-0.6470957E-02  (-0.5640439E-03)
 number of electron     468.0000004 magnetization       0.0053565
 augmentation part      131.5171061 magnetization       0.0080973

 Broyden mixing:
  rms(total) = 0.88582E-02    rms(broyden)= 0.88581E-02
  rms(prec ) = 0.91356E-02
  weight for this iteration     100.00

 eigenvalues of (default mixing * dielectric matrix)
  average eigenvalue GAMMA=   1.3139
  2.6126  2.3811  1.6274  0.8881  0.8881  0.6474  0.7330  0.7330

 Free energy of the ion-electron system (eV)
  ---------------------------------------------------
  alpha Z        PSCENC =       709.13725613
  Ewald energy   TEWEN  =    -21667.13080091
  -Hartree energ DENC   =     -9682.67562709
  -exchange      EXHF   =         0.00000000
  -V(xc)+E(xc)   XCENC  =      1346.00747732
  PAW double counting   =     36781.42043447   -39865.38360292
  entropy T*S    EENTRO =         0.00000000
  eigenvalues    EBANDS =     -5420.56096586
  atomic energy  EATOM  =     37543.08313351
  Solvation  Ediel_sol  =         0.00000000
  ---------------------------------------------------
  free energy    TOTEN  =      -256.10269535 eV

  energy without entropy =     -256.10269535  energy(sigma->0) =     -256.10269535


--------------------------------------------------------------------------------------------------------




--------------------------------------- Iteration      1(  14)  ---------------------------------------


    POTLOK:  cpu time      0.5227: real time      0.5236
    SETDIJ:  cpu time      4.9504: real time      4.9563
     EDDAV:  cpu time    128.2054: real time    128.3513
 BZINTS: Fermi energy:    1.851326;  468.000000 electrons
         Band energy:-0.542041E+04;  BLOECHL correction:    0.000000
       DOS:  cpu time      0.0710: real time      0.0710
    CHARGE:  cpu time     10.9966: real time     11.0161
    MIXING:  cpu time      0.0338: real time      0.0340
    --------------------------------------------
      LOOP:  cpu time    144.7799: real time    144.9523

 eigenvalue-minimisations  : 15968
 total energy-change (2. order) :-0.1959214E-03  (-0.4037235E-04)
 number of electron     468.0000004 magnetization      -0.0062427
 augmentation part      131.5174214 magnetization      -0.0052922

 Broyden mixing:
  rms(total) = 0.62982E-02    rms(broyden)= 0.62981E-02
  rms(prec ) = 0.63825E-02
  weight for this iteration     100.00

 eigenvalues of (default mixing * dielectric matrix)
  average eigenvalue GAMMA=   1.3057
  2.8073  2.0935  2.0935  0.9934  0.7682  0.7682  0.6293  0.8439  0.7541

 Free energy of the ion-electron system (eV)
  ---------------------------------------------------
  alpha Z        PSCENC =       709.13725613
  Ewald energy   TEWEN  =    -21667.13080091
  -Hartree energ DENC   =     -9682.80586958
  -exchange      EXHF   =         0.00000000
  -V(xc)+E(xc)   XCENC  =      1346.03046326
  PAW double counting   =     36775.82861374   -39859.83875624
  entropy T*S    EENTRO =         0.00000000
  eigenvalues    EBANDS =     -5420.40693119
  atomic energy  EATOM  =     37543.08313351
  Solvation  Ediel_sol  =         0.00000000
  ---------------------------------------------------
  free energy    TOTEN  =      -256.10289127 eV

  energy without entropy =     -256.10289127  energy(sigma->0) =     -256.10289127


--------------------------------------------------------------------------------------------------------




--------------------------------------- Iteration      1(  15)  ---------------------------------------


    POTLOK:  cpu time      0.5162: real time      0.5174
    SETDIJ:  cpu time      3.7225: real time      3.7253
     EDDAV:  cpu time    127.3851: real time    127.5619
 BZINTS: Fermi energy:    1.851392;  468.000000 electrons
         Band energy:-0.542031E+04;  BLOECHL correction:    0.000000
       DOS:  cpu time      0.0768: real time      0.0769
    CHARGE:  cpu time      9.7163: real time      9.7233
    MIXING:  cpu time      0.0259: real time      0.0259
    --------------------------------------------
      LOOP:  cpu time    141.4427: real time    141.6306

 eigenvalue-minimisations  : 14304
 total energy-change (2. order) :-0.4321026E-04  (-0.7554811E-05)
 number of electron     468.0000004 magnetization      -0.0032087
 augmentation part      131.5177241 magnetization      -0.0032579

 Broyden mixing:
  rms(total) = 0.30080E-02    rms(broyden)= 0.30079E-02
  rms(prec ) = 0.30643E-02
  weight for this iteration     100.00

 eigenvalues of (default mixing * dielectric matrix)
  average eigenvalue GAMMA=   1.3680
  2.9018  2.4474  2.4474  1.3698  0.8848  0.8848  0.7084  0.7084  0.6176  0.7101

 Free energy of the ion-electron system (eV)
  ---------------------------------------------------
  alpha Z        PSCENC =       709.13725613
  Ewald energy   TEWEN  =    -21667.13080091
  -Hartree energ DENC   =     -9682.88414184
  -exchange      EXHF   =         0.00000000
  -V(xc)+E(xc)   XCENC  =      1346.03881222
  PAW double counting   =     36764.34625412   -39848.38370189
  entropy T*S    EENTRO =         0.00000000
  eigenvalues    EBANDS =     -5420.30974582
  atomic energy  EATOM  =     37543.08313351
  Solvation  Ediel_sol  =         0.00000000
  ---------------------------------------------------
  free energy    TOTEN  =      -256.10293448 eV

  energy without entropy =     -256.10293448  energy(sigma->0) =     -256.10293448


--------------------------------------------------------------------------------------------------------




--------------------------------------- Iteration      1(  16)  ---------------------------------------


    POTLOK:  cpu time      0.4828: real time      0.4899
    SETDIJ:  cpu time     10.5932: real time     10.6088
     EDDAV:  cpu time    123.0162: real time    123.1915
 BZINTS: Fermi energy:    1.851364;  468.000000 electrons
         Band energy:-0.542026E+04;  BLOECHL correction:    0.000000
       DOS:  cpu time      0.0791: real time      0.0792
    CHARGE:  cpu time     12.5731: real time     12.5888
    MIXING:  cpu time      0.0317: real time      0.0318
    --------------------------------------------
      LOOP:  cpu time    146.7761: real time    146.9901

 eigenvalue-minimisations  : 14080
 total energy-change (2. order) :-0.2432720E-04  (-0.2855057E-05)
 number of electron     468.0000004 magnetization      -0.0021340
 augmentation part      131.5175803 magnetization      -0.0024275

 Broyden mixing:
  rms(total) = 0.11041E-02    rms(broyden)= 0.11039E-02
  rms(prec ) = 0.11338E-02
  weight for this iteration     100.00

 eigenvalues of (default mixing * dielectric matrix)
  average eigenvalue GAMMA=   1.3247
  2.9145  2.5800  1.7394  1.7394  1.1729  0.7952  0.7952  0.8121  0.7758  0.6234
  0.6234

 Free energy of the ion-electron system (eV)
  ---------------------------------------------------
  alpha Z        PSCENC =       709.13725613
  Ewald energy   TEWEN  =    -21667.13080091
  -Hartree energ DENC   =     -9682.91838089
  -exchange      EXHF   =         0.00000000
  -V(xc)+E(xc)   XCENC  =      1346.03992808
  PAW double counting   =     36753.65593003   -39837.70844936
  entropy T*S    EENTRO =         0.00000000
  eigenvalues    EBANDS =     -5420.26157540
  atomic energy  EATOM  =     37543.08313351
  Solvation  Ediel_sol  =         0.00000000
  ---------------------------------------------------
  free energy    TOTEN  =      -256.10295881 eV

  energy without entropy =     -256.10295881  energy(sigma->0) =     -256.10295881


--------------------------------------------------------------------------------------------------------




--------------------------------------- Iteration      1(  17)  ---------------------------------------


    POTLOK:  cpu time      0.5399: real time      0.5409
    SETDIJ:  cpu time     13.6354: real time     13.6579
     EDDAV:  cpu time    137.6625: real time    137.8441
 BZINTS: Fermi energy:    1.851244;  468.000000 electrons
         Band energy:-0.542028E+04;  BLOECHL correction:    0.000000
       DOS:  cpu time      0.0717: real time      0.0718
    CHARGE:  cpu time     11.2748: real time     11.2830
    MIXING:  cpu time      0.0224: real time      0.0225
    --------------------------------------------
      LOOP:  cpu time    163.2067: real time    163.4202

 eigenvalue-minimisations  : 16928
 total energy-change (2. order) : 0.1221917E-05  (-0.2882534E-06)
 number of electron     468.0000004 magnetization      -0.0014005
 augmentation part      131.5174058 magnetization      -0.0013939

 Broyden mixing:
  rms(total) = 0.33017E-03    rms(broyden)= 0.32970E-03
  rms(prec ) = 0.35505E-03
  weight for this iteration     100.00

 eigenvalues of (default mixing * dielectric matrix)
  average eigenvalue GAMMA=   1.2975
  2.9184  2.6810  1.8211  1.8211  1.0660  0.9212  0.9212  0.7334  0.7334  0.7293
  0.6215  0.6026

 Free energy of the ion-electron system (eV)
  ---------------------------------------------------
  alpha Z        PSCENC =       709.13725613
  Ewald energy   TEWEN  =    -21667.13080091
  -Hartree energ DENC   =     -9682.90019911
  -exchange      EXHF   =         0.00000000
  -V(xc)+E(xc)   XCENC  =      1346.03782305
  PAW double counting   =     36754.92885608   -39838.97562134
  entropy T*S    EENTRO =         0.00000000
  eigenvalues    EBANDS =     -5420.28340500
  atomic energy  EATOM  =     37543.08313351
  Solvation  Ediel_sol  =         0.00000000
  ---------------------------------------------------
  free energy    TOTEN  =      -256.10295759 eV

  energy without entropy =     -256.10295759  energy(sigma->0) =     -256.10295759


--------------------------------------------------------------------------------------------------------




--------------------------------------- Iteration      1(  18)  ---------------------------------------


    POTLOK:  cpu time      0.5205: real time      0.5252
    SETDIJ:  cpu time      2.8409: real time      2.8442
     EDDAV:  cpu time    126.4744: real time    126.6211
 BZINTS: Fermi energy:    1.851498;  468.000000 electrons
         Band energy:-0.542028E+04;  BLOECHL correction:    0.000000
       DOS:  cpu time      0.0721: real time      0.0722
    CHARGE:  cpu time     13.4995: real time     13.5102
    MIXING:  cpu time      0.0177: real time      0.0178
    --------------------------------------------
      LOOP:  cpu time    143.4251: real time    143.5907

 eigenvalue-minimisations  : 14176
 total energy-change (2. order) :-0.4844624E-06  (-0.6881327E-07)
 number of electron     468.0000004 magnetization      -0.0006637
 augmentation part      131.5174128 magnetization      -0.0006638

 Broyden mixing:
  rms(total) = 0.18354E-03    rms(broyden)= 0.18268E-03
  rms(prec ) = 0.20003E-03
  weight for this iteration     100.00

 eigenvalues of (default mixing * dielectric matrix)
  average eigenvalue GAMMA=   1.3168
  2.9804  2.6595  1.9799  1.9799  1.3672  1.0141  0.8649  0.8649  0.7583  0.7583
  0.6821  0.6285  0.5799

 Free energy of the ion-electron system (eV)
  ---------------------------------------------------
  alpha Z        PSCENC =       709.13725613
  Ewald energy   TEWEN  =    -21667.13080091
  -Hartree energ DENC   =     -9682.90729889
  -exchange      EXHF   =         0.00000000
  -V(xc)+E(xc)   XCENC  =      1346.03835548
  PAW double counting   =     36755.31920111   -39839.36433686
  entropy T*S    EENTRO =         0.00000000
  eigenvalues    EBANDS =     -5420.27846764
  atomic energy  EATOM  =     37543.08313351
  Solvation  Ediel_sol  =         0.00000000
  ---------------------------------------------------
  free energy    TOTEN  =      -256.10295807 eV

  energy without entropy =     -256.10295807  energy(sigma->0) =     -256.10295807


--------------------------------------------------------------------------------------------------------




--------------------------------------- Iteration      1(  19)  ---------------------------------------


    POTLOK:  cpu time      0.5280: real time      0.5293
    SETDIJ:  cpu time      8.4506: real time      8.4617
     EDDAV:  cpu time    119.4031: real time    119.7828
 BZINTS: Fermi energy:    1.851250;  468.000000 electrons
         Band energy:-0.542027E+04;  BLOECHL correction:    0.000000
       DOS:  cpu time      0.0813: real time      0.0817
    CHARGE:  cpu time     13.1507: real time     13.1661
    MIXING:  cpu time      0.0192: real time      0.0192
    --------------------------------------------
      LOOP:  cpu time    141.6329: real time    142.0407

 eigenvalue-minimisations  : 14080
 total energy-change (2. order) :-0.1408334E-06  (-0.2856590E-07)
 number of electron     468.0000004 magnetization      -0.0002382
 augmentation part      131.5174428 magnetization      -0.0002546

 Broyden mixing:
  rms(total) = 0.48111E-04    rms(broyden)= 0.44730E-04
  rms(prec ) = 0.53205E-04
  weight for this iteration     100.00

 eigenvalues of (default mixing * dielectric matrix)
  average eigenvalue GAMMA=   1.3163
  3.0608  2.7094  2.3686  1.6100  1.6100  1.1021  0.8887  0.8887  0.7629  0.7629
  0.7836  0.6686  0.6247  0.5881

 Free energy of the ion-electron system (eV)
  ---------------------------------------------------
  alpha Z        PSCENC =       709.13725613
  Ewald energy   TEWEN  =    -21667.13080091
  -Hartree energ DENC   =     -9682.91622616
  -exchange      EXHF   =         0.00000000
  -V(xc)+E(xc)   XCENC  =      1346.03899713
  PAW double counting   =     36755.57533328   -39839.61893544
  entropy T*S    EENTRO =         0.00000000
[...]
   -.531E-01 -.145E+00 -.595E-01   0.536E-01 0.155E+00 0.625E-01   -.375E-04 -.772E-02 -.221E-02   0.122E-07 -.350E-05 0.232E-07
   0.655E-01 -.194E-01 0.637E+02   -.665E-01 0.211E-01 -.711E+02   0.139E-02 -.199E-02 0.742E+01   0.545E-06 -.772E-06 0.448E-06
   -.159E-01 0.397E-02 0.638E+02   0.170E-01 -.457E-02 -.712E+02   -.123E-02 0.624E-03 0.742E+01   -.606E-07 -.101E-06 0.940E-06
   0.445E-02 0.374E-01 0.637E+02   -.447E-02 -.384E-01 -.711E+02   0.745E-04 0.140E-02 0.742E+01   0.293E-06 0.134E-05 0.908E-06
   0.137E-01 0.115E-01 0.637E+02   -.141E-01 -.119E-01 -.712E+02   0.413E-03 0.543E-03 0.742E+01   -.958E-07 0.901E-06 0.907E-06
   -.168E-01 -.346E-02 0.637E+02   0.173E-01 0.385E-02 -.712E+02   -.674E-03 -.468E-03 0.742E+01   -.690E-06 -.829E-06 0.827E-06
   -.489E-02 -.132E-01 0.637E+02   0.480E-02 0.132E-01 -.712E+02   0.647E-04 -.134E-03 0.742E+01   -.352E-06 -.607E-06 0.103E-05
   0.249E-01 -.415E-01 0.637E+02   -.258E-01 0.410E-01 -.712E+02   0.121E-02 0.837E-03 0.742E+01   0.374E-06 -.486E-06 0.806E-06
   -.180E-01 0.285E-01 0.637E+02   0.183E-01 -.295E-01 -.712E+02   -.508E-03 0.127E-02 0.742E+01   -.174E-06 0.146E-05 0.821E-06
   -.578E-01 0.484E-02 0.636E+02   0.589E-01 -.436E-02 -.710E+02   -.168E-02 -.424E-03 0.742E+01   0.158E-06 -.731E-06 0.618E-06
   -.362E+00 0.113E+00 0.636E+02   0.370E+00 -.114E+00 -.710E+02   -.525E-02 -.808E-03 0.742E+01   0.241E-06 -.916E-06 0.469E-05
   -.272E-01 0.440E-01 0.638E+02   0.277E-01 -.452E-01 -.712E+02   -.714E-03 0.169E-02 0.742E+01   -.936E-07 0.144E-05 0.411E-05
   0.819E-01 0.279E-01 0.640E+02   -.848E-01 -.320E-01 -.714E+02   0.330E-02 0.115E-02 0.742E+01   0.520E-06 -.112E-06 0.437E-05
   -.442E-02 -.210E-01 0.638E+02   0.434E-02 0.212E-01 -.712E+02   0.105E-04 -.399E-03 0.742E+01   -.117E-07 -.302E-06 0.415E-05
   -.259E-01 -.519E-02 0.638E+02   0.265E-01 0.563E-02 -.712E+02   -.912E-03 -.523E-03 0.742E+01   -.521E-06 -.841E-06 0.423E-05
   0.200E-01 0.183E-01 0.638E+02   -.204E-01 -.188E-01 -.712E+02   0.512E-03 0.754E-03 0.742E+01   0.462E-07 0.859E-06 0.417E-05
   0.807E-02 0.703E-01 0.637E+02   -.815E-02 -.718E-01 -.712E+02   0.176E-03 0.196E-02 0.742E+01   0.708E-07 0.111E-05 0.419E-05
   -.398E-01 0.138E-01 0.638E+02   0.411E-01 -.145E-01 -.712E+02   -.146E-02 0.638E-03 0.742E+01   -.527E-06 0.702E-08 0.417E-05
   0.230E+00 -.576E-01 0.638E+02   -.234E+00 0.619E-01 -.712E+02   0.467E-02 -.495E-02 0.742E+01   0.207E-06 -.125E-05 0.429E-05
   -.582E-01 0.471E-02 -.639E+02   0.592E-01 -.422E-02 0.713E+02   -.168E-02 -.434E-03 -.742E+01   0.350E-06 -.837E-06 -.456E-05
   -.180E-01 0.285E-01 -.638E+02   0.184E-01 -.295E-01 0.712E+02   -.510E-03 0.126E-02 -.742E+01   -.364E-07 0.149E-05 -.412E-05
   0.249E-01 -.413E-01 -.638E+02   -.258E-01 0.408E-01 0.712E+02   0.121E-02 0.833E-03 -.742E+01   0.570E-06 -.145E-06 -.419E-05
   -.483E-02 -.132E-01 -.638E+02   0.475E-02 0.132E-01 0.712E+02   0.676E-04 -.139E-03 -.742E+01   -.993E-07 -.381E-06 -.404E-05
   -.169E-01 -.349E-02 -.638E+02   0.174E-01 0.388E-02 0.712E+02   -.676E-03 -.472E-03 -.742E+01   -.585E-06 -.890E-06 -.443E-05
   0.137E-01 0.115E-01 -.638E+02   -.140E-01 -.119E-01 0.712E+02   0.413E-03 0.539E-03 -.742E+01   -.108E-07 0.874E-06 -.418E-05
   0.454E-02 0.375E-01 -.638E+02   -.457E-02 -.386E-01 0.712E+02   0.766E-04 0.140E-02 -.742E+01   0.496E-07 0.109E-05 -.419E-05
   -.160E-01 0.407E-02 -.637E+02   0.170E-01 -.466E-02 0.712E+02   -.123E-02 0.620E-03 -.742E+01   -.516E-06 0.125E-07 -.418E-05
   0.657E-01 -.197E-01 -.638E+02   -.667E-01 0.213E-01 0.712E+02   0.138E-02 -.200E-02 -.742E+01   0.256E-06 -.126E-05 -.447E-05
   0.230E+00 -.562E-01 -.637E+02   -.235E+00 0.605E-01 0.711E+02   0.472E-02 -.491E-02 -.742E+01   0.584E-06 -.808E-06 -.693E-06
   -.398E-01 0.137E-01 -.637E+02   0.410E-01 -.143E-01 0.711E+02   -.146E-02 0.642E-03 -.742E+01   -.408E-07 -.787E-07 -.109E-05
   0.792E-02 0.701E-01 -.638E+02   -.799E-02 -.715E-01 0.712E+02   0.172E-03 0.196E-02 -.742E+01   0.300E-06 0.139E-05 -.997E-06
   0.200E-01 0.183E-01 -.637E+02   -.204E-01 -.188E-01 0.712E+02   0.512E-03 0.757E-03 -.742E+01   -.131E-06 0.888E-06 -.942E-06
   -.258E-01 -.514E-02 -.637E+02   0.264E-01 0.559E-02 0.712E+02   -.909E-03 -.521E-03 -.742E+01   -.635E-06 -.869E-06 -.523E-06
   -.461E-02 -.211E-01 -.637E+02   0.453E-02 0.212E-01 0.712E+02   0.701E-05 -.393E-03 -.742E+01   -.323E-06 -.555E-06 -.943E-06
   0.824E-01 0.259E-01 -.635E+02   -.853E-01 -.300E-01 0.709E+02   0.332E-02 0.110E-02 -.742E+01   0.344E-06 -.481E-06 -.663E-06
   -.271E-01 0.439E-01 -.637E+02   0.276E-01 -.452E-01 0.712E+02   -.711E-03 0.169E-02 -.742E+01   -.210E-06 0.142E-05 -.625E-06
   -.358E+00 0.113E+00 -.639E+02   0.366E+00 -.114E+00 0.713E+02   -.555E-02 -.600E-03 -.742E+01   0.250E-07 -.768E-06 -.549E-06
 -----------------------------------------------------------------------------------------------
   0.247E-01 -.427E-01 0.282E-01   -.148E-12 0.269E-13 0.156E-12   -.247E-01 0.427E-01 -.281E-01   -.306E-07 0.102E-06 0.262E-06


 POSITION                                       TOTAL-FORCE (eV/Angst)
 -----------------------------------------------------------------------------------
      0.00398     -0.00689      0.00605        -0.006500      0.011255     -0.008668
      2.25556     -3.90675      0.00000         0.000215     -0.000914     -0.000462
      4.51113     -7.81350      0.00000         0.000213     -0.000910     -0.000459
      2.25556      3.90675      0.00000        -0.000313     -0.000338     -0.000154
      4.51113      0.00000      0.00000         0.000449      0.000642     -0.000769
      6.76669     -3.90675      0.00000         0.000119     -0.000206     -0.000134
      4.51113      7.81350      0.00000        -0.000313     -0.000337     -0.000155
      6.76669      3.90675      0.00000         0.000119     -0.000206     -0.000135
      9.02226     -0.00000      0.00000         0.000448      0.000641     -0.000767
      0.00000      0.00000      5.14630        -0.000466      0.000808      0.000880
      2.25556     -3.90675      5.14630         0.000109     -0.000507      0.000252
      4.51113     -7.81350      5.14630         0.000109     -0.000506      0.000250
      2.25556      3.90675      5.14630        -0.000226     -0.000154      0.000070
      4.51113      0.00000      5.14630         0.000247      0.000437      0.000432
      6.76669     -3.90675      5.14630         0.000104     -0.000179      0.000098
      4.51113      7.81350      5.14630        -0.000226     -0.000154      0.000070
      6.76669      3.90675      5.14630         0.000103     -0.000179      0.000098
      9.02226     -0.00000      5.14630         0.000246      0.000436      0.000431
      2.25556      1.30225      2.57315         0.000432      0.001637      0.000738
      4.51113     -2.60450      2.57315         0.000694     -0.000488      0.000218
      6.76669     -6.51125      2.57315         0.000079     -0.000266      0.000016
      4.51113      5.20900      2.57315        -0.000153     -0.000077      0.000017
      6.76669      1.30225      2.57315         0.000145      0.000215      0.000007
      9.02226     -2.60450      2.57315        -0.000171     -0.000277      0.000117
      6.76669      9.11576      2.57315        -0.000601     -0.002074      0.001844
      9.02226      5.20900      2.57315         0.000094     -0.000279      0.000012
     11.27782      1.30225      2.57315         0.000029      0.000676     -0.000356
      2.25556     -1.30225      7.71945         0.000023      0.000674     -0.000351
      4.51113     -5.20900      7.71945         0.000093     -0.000285      0.000012
      6.76669     -9.11576      7.71945        -0.000594     -0.002055      0.001818
      4.51113      2.60450      7.71945        -0.000172     -0.000283      0.000117
      6.76669     -1.30225      7.71945         0.000146      0.000209      0.000007
      9.02226     -5.20900      7.71945        -0.000152     -0.000083      0.000018
      6.76669      6.51125      7.71945         0.000078     -0.000270      0.000017
      9.02226      2.60450      7.71945         0.000692     -0.000493      0.000218
     11.27782     -1.30225      7.71945         0.000433      0.001624      0.000739
      2.25556      1.30225      6.63476         0.000358     -0.000388      0.003466
      4.51113     -2.60450      6.63476        -0.000152      0.000033      0.003477
      6.76669     -6.51125      6.63476         0.000048      0.000307      0.003395
      4.51113      5.20900      6.63476         0.000084      0.000148      0.003390
      6.76669      1.30225      6.63476        -0.000169     -0.000075      0.003384
      9.02226     -2.60450      6.63476        -0.000020     -0.000122      0.003436
      6.76669      9.11576      6.63476         0.000259      0.000341      0.004039
      9.02226      5.20900      6.63476        -0.000136      0.000313      0.003387
     11.27782      1.30225      6.63476        -0.000622      0.000064      0.002896
      2.25556     -1.30225      1.48846         0.002213     -0.001772      0.004983
      4.51113     -5.20900      1.48846        -0.000210      0.000458      0.003312
      6.76669     -9.11576      1.48846         0.000432     -0.002921      0.002838
      4.51113      2.60450      1.48846        -0.000073     -0.000270      0.003275
      6.76669     -1.30225      1.48846        -0.000252     -0.000081      0.003318
      9.02226     -5.20900      1.48846         0.000112      0.000224      0.003307
      6.76669      6.51125      1.48846         0.000098      0.000541      0.003289
      9.02226      2.60450      1.48846        -0.000176     -0.000013      0.003261
     11.27782     -1.30225      1.48846         0.000522     -0.000692      0.003882
      2.25556     -1.30225      3.65783        -0.000620      0.000057     -0.003802
      4.51113     -5.20900      3.65783        -0.000136      0.000311     -0.003315
      6.76669     -9.11576      3.65783         0.000257      0.000339     -0.002663
      4.51113      2.60450      3.65783        -0.000020     -0.000126     -0.003266
      6.76669     -1.30225      3.65783        -0.000169     -0.000077     -0.003318
      9.02226     -5.20900      3.65783         0.000084      0.000145     -0.003313
      6.76669      6.51125      3.65783         0.000049      0.000305     -0.003307
      9.02226      2.60450      3.65783        -0.000153      0.000030     -0.003225
     11.27782     -1.30225      3.65783         0.000356     -0.000392     -0.003231
      2.25556      1.30225      8.80413         0.000524     -0.000685     -0.002824
      4.51113     -2.60450      8.80413        -0.000176     -0.000010     -0.003441
      6.76669     -6.51125      8.80413         0.000097      0.000541     -0.003412
      4.51113      5.20900      8.80413         0.000112      0.000226     -0.003396
      6.76669      1.30225      8.80413        -0.000250     -0.000079     -0.003384
      9.02226     -2.60450      8.80413        -0.000073     -0.000266     -0.003426
      6.76669      9.11576      8.80413         0.000425     -0.002930     -0.003878
      9.02226      5.20900      8.80413        -0.000209      0.000459     -0.003390
     11.27782      1.30225      8.80413         0.002050     -0.001680     -0.001825
 -----------------------------------------------------------------------------------
    total drift:                               -0.000009      0.000013      0.000111


--------------------------------------------------------------------------------------------------------



  FREE ENERGIE OF THE ION-ELECTRON SYSTEM (eV)
  ---------------------------------------------------
  free  energy   TOTEN  =      -256.10295823 eV

  energy  without entropy=     -256.10295823  energy(sigma->0) =     -256.10295823



--------------------------------------------------------------------------------------------------------


    POTLOK:  cpu time     14.3678: real time     14.4639


--------------------------------------------------------------------------------------------------------


     LOOP+:  cpu time   3590.1966: real time   3605.2795
    4ORBIT:  cpu time      0.0000: real time      0.0000



 total charge

# of ion       s       p       d       tot
------------------------------------------
    1        0.049   5.976   0.000   6.025
    2        0.049   5.976   0.000   6.025
    3        0.049   5.976   0.000   6.025
    4        0.049   5.976   0.000   6.025
    5        0.049   5.976   0.000   6.025
    6        0.049   5.976   0.000   6.025
    7        0.049   5.976   0.000   6.025
    8        0.049   5.976   0.000   6.025
    9        0.049   5.976   0.000   6.025
   10        0.049   5.976   0.000   6.025
   11        0.049   5.976   0.000   6.025
   12        0.049   5.976   0.000   6.025
   13        0.049   5.976   0.000   6.025
   14        0.049   5.976   0.000   6.025
   15        0.049   5.976   0.000   6.025
   16        0.049   5.976   0.000   6.025
   17        0.049   5.976   0.000   6.025
   18        0.049   5.976   0.000   6.025
   19        0.050   5.989   0.000   6.039
   20        0.050   5.989   0.000   6.039
   21        0.050   5.989   0.000   6.039
   22        0.050   5.989   0.000   6.039
   23        0.050   5.989   0.000   6.039
   24        0.050   5.989   0.000   6.039
   25        0.050   5.989   0.000   6.039
   26        0.050   5.989   0.000   6.039
   27        0.050   5.989   0.000   6.039
   28        0.050   5.989   0.000   6.039
   29        0.050   5.989   0.000   6.039
   30        0.050   5.989   0.000   6.039
   31        0.050   5.989   0.000   6.039
   32        0.050   5.989   0.000   6.039
   33        0.050   5.989   0.000   6.039
   34        0.050   5.989   0.000   6.039
   35        0.050   5.989   0.000   6.039
   36        0.050   5.989   0.000   6.039
   37        1.337   2.353   0.000   3.690
   38        1.337   2.353   0.000   3.690
   39        1.337   2.353   0.000   3.690
   40        1.337   2.353   0.000   3.690
   41        1.337   2.353   0.000   3.690
   42        1.337   2.353   0.000   3.690
   43        1.337   2.353   0.000   3.690
   44        1.337   2.353   0.000   3.690
   45        1.337   2.353   0.000   3.690
   46        1.337   2.353   0.000   3.690
   47        1.337   2.353   0.000   3.690
   48        1.337   2.352   0.000   3.690
   49        1.337   2.353   0.000   3.690
   50        1.337   2.353   0.000   3.690
   51        1.337   2.353   0.000   3.690
   52        1.337   2.353   0.000   3.690
   53        1.337   2.353   0.000   3.690
   54        1.337   2.353   0.000   3.690
   55        1.337   2.353   0.000   3.690
   56        1.337   2.353   0.000   3.690
   57        1.337   2.353   0.000   3.690
   58        1.337   2.353   0.000   3.690
   59        1.337   2.353   0.000   3.690
   60        1.337   2.353   0.000   3.690
   61        1.337   2.353   0.000   3.690
   62        1.337   2.353   0.000   3.690
   63        1.337   2.353   0.000   3.690
   64        1.337   2.353   0.000   3.690
   65        1.337   2.353   0.000   3.690
   66        1.337   2.353   0.000   3.690
   67        1.337   2.353   0.000   3.690
   68        1.337   2.353   0.000   3.690
   69        1.337   2.353   0.000   3.690
   70        1.337   2.353   0.000   3.690
   71        1.337   2.353   0.000   3.690
   72        1.337   2.352   0.000   3.690
--------------------------------------------------
tot         49.917 300.062   0.000 349.979



 magnetization (x)

# of ion       s       p       d       tot
------------------------------------------
    1       -0.000  -0.000   0.000  -0.000
    2       -0.000  -0.000   0.000  -0.000
    3       -0.000   0.000   0.000  -0.000
    4       -0.000  -0.000   0.000  -0.000
    5       -0.000  -0.000   0.000  -0.000
    6       -0.000  -0.000   0.000  -0.000
    7       -0.000  -0.000   0.000  -0.000
    8       -0.000  -0.000   0.000  -0.000
    9       -0.000  -0.000   0.000  -0.000
   10       -0.000  -0.000   0.000  -0.000
   11       -0.000  -0.000   0.000  -0.000
   12       -0.000   0.000   0.000  -0.000
   13       -0.000  -0.000   0.000  -0.000
   14       -0.000  -0.000   0.000  -0.000
   15       -0.000  -0.000   0.000  -0.000
   16       -0.000  -0.000   0.000  -0.000
   17       -0.000  -0.000   0.000  -0.000
   18       -0.000  -0.000   0.000  -0.000
   19       -0.000  -0.000   0.000  -0.000
   20       -0.000  -0.000   0.000  -0.000
   21       -0.000  -0.000   0.000  -0.000
   22       -0.000  -0.000   0.000  -0.000
   23       -0.000  -0.000   0.000  -0.000
   24       -0.000  -0.000   0.000  -0.000
   25       -0.000  -0.000   0.000  -0.000
   26       -0.000  -0.000   0.000  -0.000
   27       -0.000  -0.000   0.000  -0.000
   28       -0.000  -0.000   0.000  -0.000
   29       -0.000  -0.000   0.000  -0.000
   30       -0.000  -0.000   0.000  -0.000
   31       -0.000  -0.000   0.000  -0.000
   32       -0.000  -0.000   0.000  -0.000
   33       -0.000  -0.000   0.000  -0.000
   34       -0.000  -0.000   0.000  -0.000
   35       -0.000   0.000   0.000   0.000
   36       -0.000  -0.000   0.000  -0.000
   37        0.000   0.000   0.000   0.000
   38        0.000   0.000   0.000   0.000
   39        0.000   0.000   0.000   0.000
   40        0.000   0.000   0.000   0.000
   41        0.000   0.000   0.000   0.000
   42        0.000   0.000   0.000   0.000
   43        0.000   0.000   0.000   0.000
   44        0.000   0.000   0.000   0.000
   45        0.000   0.000   0.000   0.000
   46        0.000   0.000   0.000   0.000
   47        0.000   0.000   0.000   0.000
   48        0.000   0.000   0.000   0.000
   49        0.000   0.000   0.000   0.000
   50        0.000   0.000   0.000   0.000
   51        0.000   0.000   0.000   0.000
   52        0.000   0.000   0.000   0.000
   53        0.000   0.000   0.000   0.000
   54        0.000   0.000   0.000   0.000
   55        0.000   0.000   0.000   0.000
   56        0.000   0.000   0.000   0.000
   57        0.000   0.000   0.000   0.000
   58        0.000   0.000   0.000   0.000
   59        0.000   0.000   0.000   0.000
   60        0.000   0.000   0.000   0.000
   61        0.000   0.000   0.000   0.000
   62        0.000   0.000   0.000   0.000
   63        0.000   0.000   0.000   0.000
   64        0.000   0.000   0.000   0.000
   65        0.000   0.000   0.000   0.000
   66        0.000   0.000   0.000   0.000
   67        0.000   0.000   0.000   0.000
   68        0.000   0.000   0.000   0.000
   69        0.000   0.000   0.000   0.000
   70        0.000   0.000   0.000   0.000
   71        0.000   0.000   0.000   0.000
   72        0.000   0.000   0.000   0.000
--------------------------------------------------
tot          0.000   0.000   0.000   0.000

 BZINTS: Fermi energy:    1.851630;  468.000000 electrons
         Band energy:-0.542026E+04;  BLOECHL correction:    0.000000

 total amount of memory used by VASP MPI-rank0   413811. kBytes
=======================================================================

   base      :      30000. kBytes
   nonl-proj :     107085. kBytes
   fftplans  :      38970. kBytes
   grid      :      94569. kBytes
   one-center:        442. kBytes
   wavefun   :     142745. kBytes

  
  
 General timing and accounting informations for this job:
 ========================================================
  
                  Total CPU time used (sec):     3675.724
                            User time (sec):     3673.321
                          System time (sec):        2.403
                         Elapsed time (sec):     3691.719
  
                   Maximum memory used (kb):      733060.
                   Average memory used (kb):          N/A
  
                          Minor page faults:       803810
                          Major page faults:          211
                 Voluntary context switches:         3505
