  55  55   0   0
  0.2301251E+02  0.1218282E-08  0.7661564E-09  0.1373046E-08  0.5000000E-15
   1.0000000000000000E-004
  CAR 
 endpoint_relax_bottleneck               
      9.88969978    -23.58236670  301      1.28973775      1.00000000
    -23.582  0.0000E+00  0.0000E+00
    -23.471  0.0000E+00  0.0000E+00
    -23.359  0.0000E+00  0.0000E+00
    -23.248 -0.1123E-30 -0.1253E-31
    -23.136 -0.8857E-27 -0.9883E-28
    -23.024 -0.3596E-23 -0.4013E-24
    -22.913 -0.7849E-20 -0.8761E-21
    -22.801 -0.9218E-17 -0.1029E-17
    -22.690 -0.5645E-14 -0.6309E-15
    -22.578 -0.1912E-11 -0.2140E-12
    -22.467 -0.3483E-09 -0.3907E-10
    -22.355 -0.3408E-07 -0.3842E-08
    -22.243 -0.1785E-05 -0.2030E-06
    -22.132 -0.4964E-04 -0.5741E-05
    -22.020 -0.7216E-03 -0.8625E-04
    -21.909 -0.5298E-02 -0.6774E-03
    -21.797 -0.1774E-01 -0.2657E-02
    -21.686 -0.1145E-01 -0.3934E-02
    -21.574  0.1097E+00  0.8308E-02
    -21.462  0.4709E+00  0.6085E-01
    -21.351  0.1009E+01  0.1734E+00
    -21.239  0.1243E+01  0.3121E+00
    -21.128  0.9015E+00  0.4127E+00
    -21.016  0.3887E+00  0.4561E+00
    -20.905  0.7494E-01  0.4644E+00
    -20.793 -0.1967E-01  0.4622E+00
    -20.681 -0.1576E-01  0.4605E+00
    -20.570 -0.3741E-02  0.4600E+00
    -20.458 -0.4186E-03  0.4600E+00
    -20.347 -0.2392E-04  0.4600E+00
    -20.235 -0.7167E-06  0.4600E+00
    -20.124 -0.1139E-07  0.4600E+00
    -20.012 -0.9654E-10  0.4600E+00
    -19.900 -0.4376E-12  0.4600E+00
    -19.789 -0.1061E-14  0.4600E+00
    -19.677  0.0000E+00  0.4600E+00
    -19.566  0.0000E+00  0.4600E+00
    -19.454  0.0000E+00  0.4600E+00
    -19.343  0.0000E+00  0.4600E+00
    -19.231  0.0000E+00  0.4600E+00
    -19.119  0.0000E+00  0.4600E+00
    -19.008  0.0000E+00  0.4600E+00
    -18.896  0.0000E+00  0.4600E+00
    -18.785  0.0000E+00  0.4600E+00
    -18.673  0.0000E+00  0.4600E+00
    -18.562  0.0000E+00  0.4600E+00
    -18.450  0.0000E+00  0.4600E+00
    -18.338  0.0000E+00  0.4600E+00
    -18.227  0.0000E+00  0.4600E+00
    -18.115  0.0000E+00  0.4600E+00
    -18.004  0.0000E+00  0.4600E+00
    -17.892  0.0000E+00  0.4600E+00
    -17.781  0.0000E+00  0.4600E+00
    -17.669  0.0000E+00  0.4600E+00
    -17.557  0.0000E+00  0.4600E+00
    -17.446  0.0000E+00  0.4600E+00
    -17.334  0.0000E+00  0.4600E+00
    -17.223  0.0000E+00  0.4600E+00
    -17.111  0.0000E+00  0.4600E+00
    -17.000  0.0000E+00  0.4600E+00
    -16.888  0.0000E+00  0.4600E+00
    -16.776  0.0000E+00  0.4600E+00
    -16.665  0.0000E+00  0.4600E+00
    -16.553  0.0000E+00  0.4600E+00
    -16.442  0.0000E+00  0.4600E+00
    -16.330  0.0000E+00  0.4600E+00
    -16.219  0.0000E+00  0.4600E+00
    -16.107  0.0000E+00  0.4600E+00
    -15.995  0.0000E+00  0.4600E+00
    -15.884  0.0000E+00  0.4600E+00
    -15.772  0.0000E+00  0.4600E+00
    -15.661  0.0000E+00  0.4600E+00
    -15.549  0.0000E+00  0.4600E+00
    -15.437  0.0000E+00  0.4600E+00
    -15.326  0.0000E+00  0.4600E+00
    -15.214  0.0000E+00  0.4600E+00
    -15.103  0.0000E+00  0.4600E+00
    -14.991  0.0000E+00  0.4600E+00
    -14.880  0.0000E+00  0.4600E+00
    -14.768  0.0000E+00  0.4600E+00
    -14.656  0.0000E+00  0.4600E+00
    -14.545  0.0000E+00  0.4600E+00
    -14.433  0.0000E+00  0.4600E+00
    -14.322  0.0000E+00  0.4600E+00
    -14.210  0.0000E+00  0.4600E+00
    -14.099  0.0000E+00  0.4600E+00
    -13.987  0.0000E+00  0.4600E+00
    -13.875  0.0000E+00  0.4600E+00
    -13.764  0.0000E+00  0.4600E+00
    -13.652  0.0000E+00  0.4600E+00
    -13.541  0.0000E+00  0.4600E+00
    -13.429  0.0000E+00  0.4600E+00
    -13.318  0.0000E+00  0.4600E+00
    -13.206  0.0000E+00  0.4600E+00
    -13.094  0.0000E+00  0.4600E+00
    -12.983  0.0000E+00  0.4600E+00
    -12.871  0.0000E+00  0.4600E+00
    -12.760  0.0000E+00  0.4600E+00
    -12.648  0.0000E+00  0.4600E+00
    -12.537 -0.8636E-30  0.4600E+00
    -12.425 -0.5553E-26  0.4600E+00
    -12.313 -0.1905E-22  0.4600E+00
    -12.202 -0.3487E-19  0.4600E+00
    -12.090 -0.3403E-16  0.4600E+00
    -11.979 -0.1709E-13  0.4600E+00
    -11.867 -0.4687E-11  0.4600E+00
    -11.756 -0.6804E-09  0.4600E+00
    -11.644 -0.5212E-07  0.4600E+00
    -11.532 -0.2095E-05  0.4600E+00
    -11.421 -0.4367E-04  0.4600E+00
    -11.309 -0.4600E-03  0.4599E+00
    -11.198 -0.2245E-02  0.4597E+00
    -11.086 -0.2948E-02  0.4594E+00
    -10.975  0.1431E-01  0.4610E+00
    -10.863  0.6211E-01  0.4679E+00
    -10.751  0.9565E-01  0.4786E+00
    -10.640  0.6489E-01  0.4858E+00
    -10.528  0.1422E-01  0.4874E+00
    -10.417 -0.4312E-02  0.4869E+00
    -10.305 -0.4866E-02  0.4864E+00
    -10.194 -0.3515E-02  0.4860E+00
    -10.082  0.1466E-01  0.4876E+00
     -9.970  0.6250E-01  0.4946E+00
     -9.859  0.1112E+00  0.5070E+00
     -9.747  0.1326E+00  0.5218E+00
     -9.636  0.1372E+00  0.5371E+00
     -9.524  0.1571E+00  0.5546E+00
     -9.413  0.2035E+00  0.5773E+00
     -9.301  0.2162E+00  0.6015E+00
     -9.189  0.1412E+00  0.6172E+00
     -9.078  0.3810E-01  0.6215E+00
     -8.966 -0.6050E-02  0.6208E+00
     -8.855 -0.5716E-02  0.6201E+00
     -8.743 -0.1205E-02  0.6200E+00
     -8.632 -0.1132E-03  0.6200E+00
     -8.520 -0.5281E-05  0.6200E+00
     -8.408 -0.1272E-06  0.6200E+00
     -8.297 -0.1608E-08  0.6200E+00
     -8.185 -0.1077E-10  0.6200E+00
     -8.074 -0.3841E-13  0.6200E+00
     -7.962 -0.7960E-16  0.6200E+00
     -7.850  0.0000E+00  0.6200E+00
     -7.739  0.0000E+00  0.6200E+00
     -7.627  0.0000E+00  0.6200E+00
     -7.516  0.0000E+00  0.6200E+00
     -7.404  0.0000E+00  0.6200E+00
     -7.293  0.0000E+00  0.6200E+00
     -7.181  0.0000E+00  0.6200E+00
     -7.069  0.0000E+00  0.6200E+00
     -6.958  0.0000E+00  0.6200E+00
     -6.846  0.0000E+00  0.6200E+00
     -6.735  0.0000E+00  0.6200E+00
     -6.623  0.0000E+00  0.6200E+00
     -6.512  0.0000E+00  0.6200E+00
     -6.400  0.0000E+00  0.6200E+00
     -6.288  0.0000E+00  0.6200E+00
     -6.177  0.0000E+00  0.6200E+00
     -6.065  0.0000E+00  0.6200E+00
     -5.954  0.0000E+00  0.6200E+00
     -5.842  0.0000E+00  0.6200E+00
     -5.731  0.0000E+00  0.6200E+00
     -5.619  0.0000E+00  0.6200E+00
     -5.507  0.0000E+00  0.6200E+00
     -5.396  0.0000E+00  0.6200E+00
     -5.284  0.0000E+00  0.6200E+00
     -5.173  0.0000E+00  0.6200E+00
     -5.061  0.0000E+00  0.6200E+00
     -4.950  0.0000E+00  0.6200E+00
     -4.838 -0.2144E-30  0.6200E+00
     -4.726 -0.1538E-26  0.6200E+00
     -4.615 -0.5901E-23  0.6200E+00
     -4.503 -0.1211E-19  0.6200E+00
     -4.392 -0.1329E-16  0.6200E+00
     -4.280 -0.7538E-14  0.6200E+00
     -4.169 -0.2339E-11  0.6200E+00
     -4.057 -0.3851E-09  0.6200E+00
     -3.945 -0.3351E-07  0.6200E+00
     -3.834 -0.1528E-05  0.6200E+00
     -3.722 -0.3599E-04  0.6200E+00
     -3.611 -0.4241E-03  0.6199E+00
     -3.499 -0.2303E-02  0.6197E+00
     -3.388 -0.3933E-02  0.6193E+00
     -3.276  0.1038E-01  0.6204E+00
     -3.164  0.5721E-01  0.6268E+00
     -3.053  0.1211E+00  0.6403E+00
     -2.941  0.1561E+00  0.6577E+00
     -2.830  0.1141E+00  0.6705E+00
     -2.718  0.3478E-01  0.6743E+00
     -2.607 -0.3287E-02  0.6740E+00
     -2.495 -0.4552E-02  0.6735E+00
     -2.383 -0.1077E-02  0.6733E+00
     -2.272 -0.3118E-03  0.6733E+00
     -2.160 -0.1434E-02  0.6732E+00
     -2.049 -0.3995E-02  0.6727E+00
     -1.937  0.2954E-02  0.6730E+00
     -1.826  0.4129E-01  0.6776E+00
     -1.714  0.9483E-01  0.6882E+00
     -1.602  0.1138E+00  0.7009E+00
     -1.491  0.1091E+00  0.7131E+00
     -1.379  0.1136E+00  0.7258E+00
     -1.268  0.1068E+00  0.7377E+00
     -1.156  0.8092E-01  0.7467E+00
     -1.045  0.7055E-01  0.7546E+00
     -0.933  0.8683E-01  0.7643E+00
     -0.821  0.9659E-01  0.7750E+00
     -0.710  0.7309E-01  0.7832E+00
     -0.598  0.6020E-01  0.7899E+00
     -0.487  0.1143E+00  0.8027E+00
     -0.375  0.1956E+00  0.8245E+00
     -0.263  0.2253E+00  0.8496E+00
     -0.152  0.1878E+00  0.8706E+00
     -0.040  0.1325E+00  0.8854E+00
      0.071  0.1174E+00  0.8985E+00
      0.183  0.1399E+00  0.9141E+00
      0.294  0.1404E+00  0.9298E+00
      0.406  0.1155E+00  0.9426E+00
      0.518  0.1214E+00  0.9562E+00
      0.629  0.1800E+00  0.9763E+00
      0.741  0.2410E+00  0.1003E+01
      0.852  0.2478E+00  0.1031E+01
      0.964  0.2101E+00  0.1054E+01
      1.075  0.1633E+00  0.1072E+01
      1.187  0.1305E+00  0.1087E+01
      1.299  0.9144E-01  0.1097E+01
      1.410  0.3202E-01  0.1101E+01
      1.522 -0.1873E-02  0.1101E+01
      1.633 -0.4190E-02  0.1100E+01
      1.745 -0.1039E-02  0.1100E+01
      1.856 -0.1101E-03  0.1100E+01
      1.968 -0.5743E-05  0.1100E+01
      2.080 -0.1543E-06  0.1100E+01
      2.191 -0.2178E-08  0.1100E+01
      2.303 -0.1629E-10  0.1100E+01
      2.414 -0.6484E-13  0.1100E+01
      2.526 -0.1327E-15  0.1100E+01
      2.637 -0.6920E-28  0.1100E+01
      2.749 -0.3266E-24  0.1100E+01
      2.861 -0.8223E-21  0.1100E+01
      2.972 -0.1104E-17  0.1100E+01
      3.084 -0.7649E-15  0.1100E+01
      3.195 -0.2878E-12  0.1100E+01
      3.307 -0.5727E-10  0.1100E+01
      3.418 -0.5986E-08  0.1100E+01
      3.530 -0.3254E-06  0.1100E+01
      3.642 -0.9038E-05  0.1100E+01
      3.753 -0.1236E-03  0.1100E+01
      3.865 -0.7529E-03  0.1100E+01
      3.976 -0.1232E-02  0.1100E+01
      4.088  0.5076E-02  0.1100E+01
      4.199  0.2108E-01  0.1103E+01
      4.311  0.2593E-01  0.1106E+01
      4.423  0.1127E-01  0.1107E+01
      4.534 -0.2229E-05  0.1107E+01
      4.646 -0.1173E-02  0.1107E+01
      4.757 -0.3020E-03  0.1107E+01
      4.869 -0.1786E-03  0.1107E+01
      4.980 -0.1162E-02  0.1107E+01
      5.092 -0.3731E-02  0.1106E+01
      5.204  0.1049E-02  0.1106E+01
      5.315  0.3608E-01  0.1110E+01
      5.427  0.8998E-01  0.1120E+01
      5.538  0.1023E+00  0.1132E+01
      5.650  0.7274E-01  0.1140E+01
      5.761  0.6278E-01  0.1147E+01
      5.873  0.7344E-01  0.1155E+01
      5.985  0.7074E-01  0.1163E+01
      6.096  0.8080E-01  0.1172E+01
      6.208  0.1109E+00  0.1184E+01
      6.319  0.1098E+00  0.1197E+01
      6.431  0.9780E-01  0.1207E+01
      6.542  0.1090E+00  0.1220E+01
      6.654  0.1133E+00  0.1232E+01
      6.766  0.1106E+00  0.1245E+01
      6.877  0.1269E+00  0.1259E+01
      6.989  0.1552E+00  0.1276E+01
      7.100  0.1600E+00  0.1294E+01
      7.212  0.1217E+00  0.1308E+01
      7.324  0.7513E-01  0.1316E+01
      7.435  0.6542E-01  0.1323E+01
      7.547  0.1087E+00  0.1335E+01
      7.658  0.1608E+00  0.1353E+01
      7.770  0.1603E+00  0.1371E+01
      7.881  0.1032E+00  0.1383E+01
      7.993  0.3801E-01  0.1387E+01
      8.105  0.3299E-02  0.1387E+01
      8.216 -0.3526E-02  0.1387E+01
      8.328 -0.1545E-02  0.1387E+01
      8.439 -0.2657E-03  0.1387E+01
      8.551 -0.2205E-04  0.1387E+01
      8.662 -0.9282E-06  0.1387E+01
      8.774 -0.2022E-07  0.1387E+01
      8.886 -0.2303E-09  0.1387E+01
      8.997 -0.1381E-11  0.1387E+01
      9.109 -0.4378E-14  0.1387E+01
      9.220 -0.1327E-16  0.1387E+01
      9.332  0.0000E+00  0.1387E+01
      9.443  0.0000E+00  0.1387E+01
      9.555  0.0000E+00  0.1387E+01
      9.667  0.0000E+00  0.1387E+01
      9.778  0.0000E+00  0.1387E+01
      9.890  0.0000E+00  0.1387E+01
