       N       E                     dE             d eps       ncg     rms          rms(c)
DAV:   1    -0.433820730621E+04   -0.43382E+04   -0.84846E+04   672   0.827E+02    0.541E+02
RMM:   2    -0.624631795964E+03    0.37136E+04   -0.55613E+03   701   0.213E+02    0.354E+02
RMM:   3     0.327584558078E+03    0.95222E+03   -0.36584E+03   619   0.170E+02    0.326E+02
RMM:   4     0.391743430108E+03    0.64159E+02   -0.90214E+02   649   0.955E+01    0.326E+02
RMM:   5     0.481038435995E+03    0.89295E+02   -0.13664E+02   700   0.668E+01    0.253E+02
RMM:   6     0.109588596252E+04    0.61485E+03   -0.20536E+02   727   0.917E+01    0.151E+02
RMM:   7     0.116368848278E+04    0.67803E+02    0.97581E+01   746   0.739E+01    0.936E+01
RMM:   8     0.121321373120E+04    0.49525E+02    0.19874E+02   748   0.654E+01    0.648E+01
RMM:   9     0.124057661705E+04    0.27363E+02    0.14312E+02   748   0.611E+01    0.547E+01
RMM:  10     0.125430505853E+04    0.13728E+02    0.91451E+01   746   0.572E+01    0.693E+01
RMM:  11     0.126093307762E+04    0.66280E+01    0.64321E+00   750   0.548E+01    0.561E+01
RMM:  12     0.126799381196E+04    0.70607E+01   -0.13760E+01   750   0.527E+01    0.545E+01
RMM:  13     0.124461949849E+04   -0.23374E+02   -0.23518E+02   747   0.537E+01    0.845E+01
RMM:  14     0.131561626839E+04    0.70997E+02    0.19929E+02   736   0.563E+01    0.489E+01
RMM:  15     0.122333455851E+04   -0.92282E+02   -0.14060E+02   740   0.831E+01    0.160E+02
RMM:  16     0.124394319787E+04    0.20609E+02    0.27664E+02   748   0.825E+01    0.157E+02
RMM:  17     0.136549114730E+04    0.12155E+03    0.17844E+02   748   0.694E+01    0.113E+02
RMM:  18     0.154227230482E+04    0.17678E+03    0.24455E+02   731   0.135E+02    0.934E+01
RMM:  19     0.143909467563E+04   -0.10318E+03   -0.12804E+01   748   0.643E+01    0.961E+01
RMM:  20     0.146280232924E+04    0.23708E+02    0.61049E+01   746   0.627E+01    0.808E+01
RMM:  21     0.149600858023E+04    0.33206E+02    0.62224E+01   746   0.628E+01    0.657E+01
RMM:  22     0.153827871048E+04    0.42270E+02   -0.31513E+01   741   0.684E+01    0.327E+01
RMM:  23     0.153550308405E+04   -0.27756E+01   -0.37034E+01   746   0.652E+01    0.344E+01
RMM:  24     0.153043965530E+04   -0.50634E+01   -0.60881E+01   746   0.630E+01    0.353E+01
RMM:  25     0.153114804538E+04    0.70839E+00   -0.36069E-01   746   0.628E+01    0.396E+01
RMM:  26     0.152091678156E+04   -0.10231E+02   -0.36644E+01   744   0.635E+01    0.422E+01
RMM:  27     0.151697959184E+04   -0.39372E+01   -0.67747E+00   746   0.612E+01    0.459E+01
RMM:  28     0.152234553021E+04    0.53659E+01   -0.39157E+01   746   0.596E+01    0.464E+01
RMM:  29     0.151658501963E+04   -0.57605E+01   -0.56260E+01   746   0.588E+01    0.496E+01
RMM:  30     0.150779717645E+04   -0.87878E+01   -0.91438E+01   746   0.574E+01    0.542E+01
RMM:  31     0.150050310905E+04   -0.72941E+01   -0.76806E+01   746   0.565E+01    0.576E+01
RMM:  32     0.149443445911E+04   -0.60686E+01   -0.71362E+01   746   0.556E+01    0.603E+01
RMM:  33     0.149064334905E+04   -0.37911E+01   -0.39930E+01   746   0.557E+01    0.615E+01
RMM:  34     0.147039724330E+04   -0.20246E+02   -0.14554E+02   744   0.579E+01    0.591E+01
RMM:  35     0.145151866069E+04   -0.18879E+02   -0.15308E+02   746   0.572E+01    0.620E+01
RMM:  36     0.144309673505E+04   -0.84219E+01   -0.93327E+01   746   0.561E+01    0.649E+01
RMM:  37     0.143722468512E+04   -0.58720E+01   -0.61165E+01   746   0.552E+01    0.679E+01
RMM:  38     0.143231594301E+04   -0.49087E+01   -0.52410E+01   746   0.547E+01    0.696E+01
RMM:  39     0.142742430248E+04   -0.48916E+01   -0.44801E+01   746   0.543E+01    0.722E+01
RMM:  40     0.142150716767E+04   -0.59171E+01   -0.57072E+01   746   0.536E+01    0.746E+01
RMM:  41     0.141679235340E+04   -0.47148E+01   -0.42008E+01   746   0.541E+01    0.778E+01
RMM:  42     0.141225311373E+04   -0.45392E+01   -0.49038E+01   746   0.530E+01    0.805E+01
RMM:  43     0.140908334586E+04   -0.31698E+01   -0.32939E+01   746   0.525E+01    0.832E+01
RMM:  44     0.140233198959E+04   -0.67514E+01   -0.55500E+01   746   0.518E+01    0.867E+01
RMM:  45     0.139689899871E+04   -0.54330E+01   -0.43058E+01   746   0.518E+01    0.904E+01
RMM:  46     0.139464467258E+04   -0.22543E+01   -0.27179E+01   746   0.510E+01    0.929E+01
RMM:  47     0.139184383345E+04   -0.28008E+01   -0.41886E+01   746   0.504E+01    0.964E+01
RMM:  48     0.139008540386E+04   -0.17584E+01   -0.24033E+01   746   0.501E+01    0.994E+01
RMM:  49     0.139187989331E+04    0.17945E+01   -0.96080E+00   746   0.494E+01    0.103E+02
RMM:  50     0.139155973111E+04   -0.32016E+00   -0.55550E+00   746   0.496E+01    0.107E+02
RMM:  51     0.138966010246E+04   -0.18996E+01   -0.14000E+01   746   0.489E+01    0.110E+02
RMM:  52     0.138745691113E+04   -0.22032E+01   -0.26401E+01   746   0.485E+01    0.114E+02
RMM:  53     0.138057923623E+04   -0.68777E+01   -0.81413E+01   746   0.489E+01    0.106E+02
RMM:  54     0.138067228795E+04    0.93052E-01    0.57189E+00   746   0.477E+01    0.107E+02
RMM:  55     0.137866103583E+04   -0.20113E+01   -0.14327E+01   746   0.476E+01    0.107E+02
RMM:  56     0.137779043119E+04   -0.87060E+00   -0.11338E+01   746   0.472E+01    0.109E+02
RMM:  57     0.137547421320E+04   -0.23162E+01   -0.14703E+01   746   0.472E+01    0.112E+02
RMM:  58     0.137355139467E+04   -0.19228E+01   -0.21166E+01   746   0.467E+01    0.115E+02
RMM:  59     0.137189992274E+04   -0.16515E+01   -0.20192E+01   746   0.464E+01    0.118E+02
RMM:  60     0.137034195022E+04   -0.15580E+01   -0.18192E+01   746   0.464E+01
   1 F= 0.13703420E+04 E0= 0.13703659E+04  d E =0.137034E+04
       N       E                     dE             d eps       ncg     rms          rms(c)
