       N       E                     dE             d eps       ncg     rms          rms(c)
DAV:   1     0.313194678552E+04    0.31319E+04   -0.14707E+05   416   0.151E+03
DAV:   2     0.224334268553E+03   -0.29076E+04   -0.27609E+04   448   0.393E+02
DAV:   3    -0.208536419269E+03   -0.43287E+03   -0.42717E+03   496   0.163E+02
DAV:   4    -0.233117945073E+03   -0.24582E+02   -0.24408E+02   480   0.370E+01
DAV:   5    -0.234177153357E+03   -0.10592E+01   -0.10576E+01   624   0.795E+00    0.242E+01
RMM:   6    -0.222813087199E+03    0.11364E+02   -0.19154E+01   439   0.559E+00    0.165E+01
RMM:   7    -0.222211272685E+03    0.60181E+00   -0.23223E+01   423   0.536E+00    0.897E+00
RMM:   8    -0.222037514528E+03    0.17376E+00   -0.17240E+00   489   0.277E+00    0.475E+00
RMM:   9    -0.221956271161E+03    0.81243E-01   -0.10839E+00   461   0.181E+00    0.273E+00
RMM:  10    -0.221849720314E+03    0.10655E+00   -0.15249E-01   496   0.100E+00    0.158E+00
RMM:  11    -0.221831523641E+03    0.18197E-01   -0.12891E-01   552   0.496E-01    0.865E-01
RMM:  12    -0.221846915041E+03   -0.15391E-01   -0.40190E-02   455   0.291E-01    0.882E-01
RMM:  13    -0.221826415673E+03    0.20499E-01   -0.13616E-02   482   0.202E-01    0.270E-01
RMM:  14    -0.221826208298E+03    0.20738E-03   -0.38424E-03   523   0.120E-01    0.170E-01
RMM:  15    -0.221826085844E+03    0.12245E-03   -0.73885E-04   563   0.556E-02    0.171E-01
RMM:  16    -0.221825971987E+03    0.11386E-03   -0.24029E-04   478   0.259E-02    0.117E-01
RMM:  17    -0.221825905780E+03    0.66207E-04   -0.33014E-04   444   0.272E-02    0.435E-02
RMM:  18    -0.221825893127E+03    0.12653E-04   -0.61224E-05   492   0.147E-02    0.194E-02
RMM:  19    -0.221825895178E+03   -0.20515E-05   -0.17055E-05   368   0.881E-03    0.992E-03
RMM:  20    -0.221825894938E+03    0.24013E-06   -0.83266E-06   420   0.538E-03
   1 F= -.22182589E+03 E0= -.22182636E+03  d E =-.221826E+03
       N       E                     dE             d eps       ncg     rms          rms(c)
DAV:   1    -0.221876747824E+03   -0.50853E-01   -0.51651E+00   480   0.383E+00    0.149E+00
RMM:   2    -0.221894507147E+03   -0.17759E-01   -0.20748E-01   492   0.100E+00    0.279E-01
RMM:   3    -0.221899285833E+03   -0.47787E-02   -0.56203E-02   536   0.514E-01    0.534E-01
RMM:   4    -0.221898970416E+03    0.31542E-03   -0.57507E-03   525   0.175E-01    0.418E-01
RMM:   5    -0.221898651666E+03    0.31875E-03   -0.83452E-04   512   0.565E-02    0.364E-01
RMM:   6    -0.221898385443E+03    0.26622E-03   -0.21542E-04   426   0.273E-02    0.308E-01
RMM:   7    -0.221898107910E+03    0.27753E-03   -0.23380E-03   555   0.523E-02    0.127E-01
RMM:   8    -0.221898053112E+03    0.54797E-04   -0.65408E-04   532   0.342E-02    0.682E-02
RMM:   9    -0.221898001398E+03    0.51715E-04   -0.61169E-05   420   0.146E-02    0.533E-02
RMM:  10    -0.221897957808E+03    0.43590E-04   -0.27123E-04   473   0.184E-02    0.176E-02
RMM:  11    -0.221897956520E+03    0.12879E-05   -0.10890E-05   413   0.847E-03    0.138E-02
RMM:  12    -0.221897956600E+03   -0.80214E-07   -0.52597E-06   360   0.457E-03
   2 F= -.22189796E+03 E0= -.22190076E+03  d E =-.720617E-01
       N       E                     dE             d eps       ncg     rms          rms(c)
DAV:   1    -0.221901743523E+03   -0.37870E-02   -0.49182E+00   448   0.366E+00    0.145E+00
RMM:   2    -0.221918177477E+03   -0.16434E-01   -0.19293E-01   491   0.980E-01    0.279E-01
RMM:   3    -0.221922754330E+03   -0.45769E-02   -0.53828E-02   541   0.504E-01    0.525E-01
RMM:   4    -0.221922391967E+03    0.36236E-03   -0.47961E-03   514   0.164E-01    0.413E-01
RMM:   5    -0.221922118460E+03    0.27351E-03   -0.77755E-04   506   0.554E-02    0.362E-01
RMM:   6    -0.221921873484E+03    0.24498E-03   -0.18763E-04   431   0.260E-02    0.308E-01
RMM:   7    -0.221921572249E+03    0.30123E-03   -0.30237E-03   563   0.587E-02    0.949E-02
RMM:   8    -0.221921577335E+03   -0.50860E-05   -0.40458E-04   538   0.310E-02    0.788E-02
RMM:   9    -0.221921539621E+03    0.37714E-04   -0.32209E-05   405   0.114E-02    0.661E-02
RMM:  10    -0.221921483555E+03    0.56066E-04   -0.50184E-04   513   0.231E-02    0.278E-02
RMM:  11    -0.221921476604E+03    0.69512E-05   -0.24883E-05   370   0.959E-03    0.203E-02
RMM:  12    -0.221921477687E+03   -0.10831E-05   -0.21493E-05   420   0.603E-03    0.645E-03
RMM:  13    -0.221921477056E+03    0.63106E-06   -0.68429E-06   373   0.411E-03
   3 F= -.22192148E+03 E0= -.22192613E+03  d E =-.955821E-01
       N       E                     dE             d eps       ncg     rms          rms(c)
DAV:   1    -0.221950522937E+03   -0.29045E-01   -0.85976E+00   448   0.463E+00    0.128E+00
RMM:   2    -0.221974158545E+03   -0.23636E-01   -0.26882E-01   496   0.119E+00    0.189E-01
RMM:   3    -0.221981643381E+03   -0.74848E-02   -0.81337E-02   544   0.607E-01    0.581E-01
RMM:   4    -0.221981689774E+03   -0.46392E-04   -0.66629E-03   518   0.196E-01    0.464E-01
RMM:   5    -0.221981128858E+03    0.56092E-03   -0.84575E-04   492   0.609E-02    0.368E-01
RMM:   6    -0.221980495177E+03    0.63368E-03   -0.18736E-03   418   0.553E-02    0.172E-01
RMM:   7    -0.221980677099E+03   -0.18192E-03   -0.26670E-03   496   0.613E-02    0.908E-02
RMM:   8    -0.221980618326E+03    0.58773E-04   -0.16548E-04   474   0.288E-02    0.844E-02
RMM:   9    -0.221980478659E+03    0.13967E-03   -0.46347E-04   440   0.256E-02    0.217E-02
RMM:  10    -0.221980483944E+03   -0.52849E-05   -0.90330E-05   471   0.153E-02    0.143E-02
RMM:  11    -0.221980480595E+03    0.33485E-05   -0.67737E-06   369   0.564E-03    0.119E-02
RMM:  12    -0.221980480971E+03   -0.37547E-06   -0.14779E-05   349   0.494E-03    0.729E-03
RMM:  13    -0.221980480626E+03    0.34446E-06   -0.33202E-06   338   0.339E-03
   4 F= -.22198048E+03 E0= -.22198545E+03  d E =-.590036E-01
       N       E                     dE             d eps       ncg     rms          rms(c)
DAV:   1    -0.221900517092E+03    0.79964E-01   -0.39506E+01   416   0.100E+01    0.298E+00
RMM:   2    -0.222014383192E+03   -0.11387E+00   -0.12926E+00   499   0.258E+00    0.401E-01
RMM:   3    -0.222048855971E+03   -0.34473E-01   -0.37964E-01   545   0.133E+00    0.125E+00
RMM:   4    -0.222049238687E+03   -0.38272E-03   -0.30820E-02   519   0.426E-01    0.103E+00
RMM:   5    -0.222046850743E+03    0.23879E-02   -0.41361E-03   491   0.137E-01    0.851E-01
RMM:   6    -0.222044499842E+03    0.23509E-02   -0.42348E-03   418   0.955E-02    0.547E-01
RMM:   7    -0.222044370215E+03    0.12963E-03   -0.14196E-02   544   0.136E-01    0.147E-01
RMM:   8    -0.222044096201E+03    0.27401E-03   -0.59549E-04   461   0.645E-02    0.124E-01
RMM:   9    -0.222043904504E+03    0.19170E-03   -0.51686E-04   452   0.385E-02    0.710E-02
RMM:  10    -0.222043896335E+03    0.81683E-05   -0.65225E-04   483   0.337E-02    0.351E-02
RMM:  11    -0.222043877909E+03    0.18426E-04   -0.90474E-05   380   0.179E-02    0.300E-02
RMM:  12    -0.222043885234E+03   -0.73242E-05   -0.52283E-05   378   0.103E-02    0.257E-02
RMM:  13    -0.222043879310E+03    0.59239E-05   -0.13399E-05   417   0.730E-03    0.783E-03
RMM:  14    -0.222043882171E+03   -0.28616E-05   -0.25907E-05   442   0.619E-03    0.156E-02
RMM:  15    -0.222043879269E+03    0.29018E-05   -0.54437E-06   333   0.378E-03    0.335E-03
RMM:  16    -0.222043879271E+03   -0.13461E-08   -0.23738E-06   289   0.219E-03
   5 F= -.22204388E+03 E0= -.22204944E+03  d E =-.122402E+00
       N       E                     dE             d eps       ncg     rms          rms(c)
DAV:   1    -0.222038459630E+03    0.54196E-02   -0.22419E+00   464   0.239E+00    0.638E-01
RMM:   2    -0.222044590663E+03   -0.61310E-02   -0.69747E-02   498   0.602E-01    0.920E-02
RMM:   3    -0.222046489379E+03   -0.18987E-02   -0.20700E-02   545   0.306E-01    0.292E-01
RMM:   4    -0.222046512716E+03   -0.23337E-04   -0.16670E-03   519   0.983E-02    0.231E-01
RMM:   5    -0.222046378296E+03    0.13442E-03   -0.21191E-04   466   0.304E-02    0.187E-01
RMM:   6    -0.222046205252E+03    0.17304E-03   -0.46394E-04   384   0.276E-02    0.953E-02
RMM:   7    -0.222046247630E+03   -0.42379E-04   -0.73840E-04   475   0.318E-02    0.406E-02
RMM:   8    -0.222046225282E+03    0.22348E-04   -0.40781E-05   394   0.148E-02    0.344E-02
RMM:   9    -0.222046202770E+03    0.22512E-04   -0.64970E-05   385   0.105E-02    0.148E-02
RMM:  10    -0.222046203400E+03   -0.62980E-06   -0.34473E-05   456   0.795E-03    0.825E-03
RMM:  11    -0.222046202658E+03    0.74242E-06   -0.23258E-06   310   0.329E-03
   6 F= -.22204620E+03 E0= -.22205188E+03  d E =-.124726E+00
       N       E                     dE             d eps       ncg     rms          rms(c)
DAV:   1    -0.222034177013E+03    0.12026E-01   -0.15006E+01   416   0.663E+00    0.187E+00
RMM:   2    -0.222075753579E+03   -0.41577E-01   -0.47108E-01   500   0.162E+00    0.295E-01
RMM:   3    -0.222087139762E+03   -0.11386E-01   -0.12837E-01   531   0.828E-01    0.712E-01
RMM:   4    -0.222087238862E+03   -0.99100E-04   -0.12918E-02   528   0.293E-01    0.561E-01
RMM:   5    -0.222086362484E+03    0.87638E-03   -0.14960E-03   487   0.838E-02    0.446E-01
RMM:   6    -0.222085730781E+03    0.63170E-03   -0.11988E-03   426   0.550E-02    0.292E-01
RMM:   7    -0.222085656570E+03    0.74211E-04   -0.40251E-03   534   0.756E-02    0.918E-02
RMM:   8    -0.222085590808E+03    0.65762E-04   -0.32421E-04   559   0.365E-02    0.846E-02
RMM:   9    -0.222085472912E+03    0.11790E-03   -0.17693E-04   384   0.202E-02    0.373E-02
RMM:  10    -0.222085485747E+03   -0.12835E-04   -0.29847E-04   420   0.220E-02    0.265E-02
RMM:  11    -0.222085472844E+03    0.12903E-04   -0.28622E-05   358   0.113E-02    0.163E-02
RMM:  12    -0.222085473135E+03   -0.29098E-06   -0.51771E-05   409   0.871E-03    0.150E-02
RMM:  13    -0.222085471297E+03    0.18380E-05   -0.50269E-06   373   0.468E-03    0.551E-03
RMM:  14    -0.222085471572E+03   -0.27515E-06   -0.34542E-06   361   0.268E-03
   7 F= -.22208547E+03 E0= -.22209058E+03  d E =-.392689E-01
       N       E                     dE             d eps       ncg     rms          rms(c)
DAV:   1    -0.222081207878E+03    0.42634E-02   -0.23500E+00   448   0.262E+00    0.715E-01
RMM:   2    -0.222087643310E+03   -0.64354E-02   -0.72682E-02   500   0.635E-01    0.108E-01
RMM:   3    -0.222089328934E+03   -0.16856E-02   -0.19101E-02   526   0.316E-01    0.277E-01
RMM:   4    -0.222089337113E+03   -0.81795E-05   -0.18373E-03   533   0.111E-01    0.216E-01
RMM:   5    -0.222089218609E+03    0.11850E-03   -0.21546E-04   489   0.307E-02    0.179E-01
RMM:   6    -0.222089113054E+03    0.10556E-03   -0.14270E-04   387   0.192E-02    0.126E-01
RMM:   7    -0.222089084348E+03    0.28706E-04   -0.87303E-04   541   0.335E-02    0.346E-02
RMM:   8    -0.222089072120E+03    0.12228E-04   -0.29158E-05   410   0.140E-02    0.279E-02
RMM:   9    -0.222089059950E+03    0.12170E-04   -0.21420E-05   392   0.801E-03    0.166E-02
RMM:  10    -0.222089061441E+03   -0.14908E-05   -0.68115E-05   472   0.952E-03    0.136E-02
RMM:  11    -0.222089058004E+03    0.34367E-05   -0.15401E-05   359   0.549E-03    0.826E-03
RMM:  12    -0.222089058983E+03   -0.97846E-06   -0.67480E-06   427   0.334E-03
   8 F= -.22208906E+03 E0= -.22209388E+03  d E =-.428563E-01
       N       E                     dE             d eps       ncg     rms          rms(c)
DAV:   1    -0.222078604933E+03    0.10453E-01   -0.14284E+01   416   0.695E+00    0.143E+00
RMM:   2    -0.222114348059E+03   -0.35743E-01   -0.39660E-01   520   0.160E+00    0.237E-01
RMM:   3    -0.222122149308E+03   -0.78012E-02   -0.87553E-02   502   0.750E-01    0.499E-01
RMM:   4    -0.222122673488E+03   -0.52418E-03   -0.12440E-02   561   0.306E-01    0.399E-01
RMM:   5    -0.222122092753E+03    0.58073E-03   -0.10796E-03   472   0.720E-02    0.324E-01
RMM:   6    -0.222121658041E+03    0.43471E-03   -0.81399E-04   423   0.502E-02    0.226E-01
RMM:   7    -0.222121606813E+03    0.51228E-04   -0.24489E-03   517   0.639E-02    0.543E-02
RMM:   8    -0.222121578345E+03    0.28468E-04   -0.12228E-04   496   0.295E-02    0.366E-02
RMM:   9    -0.222121547173E+03    0.31172E-04   -0.11264E-04   410   0.177E-02    0.227E-02
RMM:  10    -0.222121552126E+03   -0.49533E-05   -0.65674E-05   476   0.126E-02    0.201E-02
RMM:  11    -0.222121550082E+03    0.20446E-05   -0.47469E-06   343   0.512E-03    0.158E-02
RMM:  12    -0.222121549755E+03    0.32660E-06   -0.10850E-05   344   0.451E-03    0.743E-03
RMM:  13    -0.222121549676E+03    0.79552E-07   -0.13099E-06   256   0.274E-03
   9 F= -.22212155E+03 E0= -.22212491E+03  d E =-.324907E-01
       N       E                     dE             d eps       ncg     rms          rms(c)
DAV:   1    -0.222081654841E+03    0.39895E-01   -0.17262E+01   448   0.766E+00    0.157E+00
RMM:   2    -0.222125046314E+03   -0.43391E-01   -0.48161E-01   521   0.177E+00    0.263E-01
RMM:   3    -0.222134575391E+03   -0.95291E-02   -0.10695E-01   501   0.819E-01    0.547E-01
RMM:   4    -0.222135141383E+03   -0.56599E-03   -0.14309E-02   562   0.330E-01    0.438E-01
RMM:   5    -0.222134481282E+03    0.66010E-03   -0.13095E-03   474   0.792E-02    0.363E-01
RMM:   6    -0.222133953310E+03    0.52797E-03   -0.88714E-04   424   0.535E-02    0.262E-01
RMM:   7    -0.222133859545E+03    0.93764E-04   -0.32142E-03   528   0.722E-02    0.650E-02
RMM:   8    -0.222133830298E+03    0.29248E-04   -0.14364E-04   503   0.325E-02    0.427E-02
RMM:   9    -0.222133784753E+03    0.45545E-04   -0.14244E-04   420   0.199E-02    0.262E-02
RMM:  10    -0.222133791422E+03   -0.66695E-05   -0.94284E-05   482   0.147E-02    0.239E-02
RMM:  11    -0.222133787334E+03    0.40885E-05   -0.17166E-05   348   0.700E-03    0.133E-02
RMM:  12    -0.222133789006E+03   -0.16720E-05   -0.10835E-05   345   0.533E-03    0.567E-03
RMM:  13    -0.222133788099E+03    0.90686E-06   -0.14284E-06   252   0.288E-03
  10 F= -.22213379E+03 E0= -.22213557E+03  d E =-.447291E-01
       N       E                     dE             d eps       ncg     rms          rms(c)
DAV:   1    -0.222112498365E+03    0.21291E-01   -0.16905E+01   448   0.771E+00    0.144E+00
RMM:   2    -0.222150602019E+03   -0.38104E-01   -0.42545E-01   533   0.169E+00    0.303E-01
RMM:   3    -0.222158366235E+03   -0.77642E-02   -0.87154E-02   489   0.778E-01    0.451E-01
RMM:   4    -0.222159125698E+03   -0.75946E-03   -0.14887E-02   575   0.337E-01    0.353E-01
RMM:   5    -0.222158620870E+03    0.50483E-03   -0.12597E-03   469   0.783E-02    0.276E-01
RMM:   6    -0.222158224424E+03    0.39645E-03   -0.18175E-03   418   0.685E-02    0.127E-01
RMM:   7    -0.222158363740E+03   -0.13932E-03   -0.12816E-03   474   0.562E-02    0.563E-02
RMM:   8    -0.222158278196E+03    0.85544E-04   -0.20200E-04   443   0.298E-02    0.321E-02
RMM:   9    -0.222158278360E+03   -0.16379E-06   -0.26767E-04   423   0.232E-02    0.197E-02
RMM:  10    -0.222158270819E+03    0.75410E-05   -0.21465E-05   421   0.138E-02    0.156E-02
RMM:  11    -0.222158266817E+03    0.40020E-05   -0.25829E-05   353   0.829E-03    0.749E-03
RMM:  12    -0.222158267348E+03   -0.53132E-06   -0.51087E-06   431   0.466E-03
  11 F= -.22215827E+03 E0= -.22215913E+03  d E =-.244792E-01
       N       E                     dE             d eps       ncg     rms          rms(c)
DAV:   1    -0.222150286389E+03    0.79804E-02   -0.41204E+00   448   0.384E+00    0.691E-01
RMM:   2    -0.222159489741E+03   -0.92034E-02   -0.10241E-01   534   0.833E-01    0.152E-01
RMM:   3    -0.222161263429E+03   -0.17737E-02   -0.19821E-02   488   0.377E-01    0.219E-01
RMM:   4    -0.222161447376E+03   -0.18395E-03   -0.36912E-03   577   0.166E-01    0.169E-01
RMM:   5    -0.222161331088E+03    0.11629E-03   -0.29364E-04   469   0.373E-02    0.133E-01
RMM:   6    -0.222161239255E+03    0.91834E-04   -0.37767E-04   421   0.317E-02    0.667E-02
RMM:   7    -0.222161269340E+03   -0.30085E-04   -0.31509E-04   465   0.273E-02    0.263E-02
RMM:   8    -0.222161249935E+03    0.19405E-04   -0.53256E-05   393   0.146E-02    0.128E-02
RMM:   9    -0.222161251011E+03   -0.10762E-05   -0.37508E-05   394   0.964E-03    0.954E-03
RMM:  10    -0.222161250684E+03    0.32688E-06   -0.62719E-06   437   0.606E-03
  12 F= -.22216125E+03 E0= -.22216167E+03  d E =-.274626E-01
       N       E                     dE             d eps       ncg     rms          rms(c)
DAV:   1    -0.222159948876E+03    0.13021E-02   -0.44904E+00   464   0.403E+00    0.621E-01
RMM:   2    -0.222168691126E+03   -0.87422E-02   -0.94221E-02   540   0.826E-01    0.152E-01
RMM:   3    -0.222170253589E+03   -0.15625E-02   -0.17396E-02   486   0.372E-01    0.178E-01
RMM:   4    -0.222170439063E+03   -0.18547E-03   -0.43217E-03   588   0.176E-01    0.147E-01
RMM:   5    -0.222170334947E+03    0.10412E-03   -0.24318E-04   465   0.364E-02    0.127E-01
RMM:   6    -0.222170269174E+03    0.65773E-04   -0.16091E-04   425   0.240E-02    0.915E-02
RMM:   7    -0.222170236198E+03    0.32976E-04   -0.32144E-04   491   0.262E-02    0.365E-02
RMM:   8    -0.222170240351E+03   -0.41528E-05   -0.62016E-05   550   0.157E-02    0.193E-02
RMM:   9    -0.222170232919E+03    0.74325E-05   -0.43453E-05   354   0.940E-03    0.877E-03
RMM:  10    -0.222170233271E+03   -0.35273E-06   -0.67847E-06   443   0.575E-03
  13 F= -.22217023E+03 E0= -.22217010E+03  d E =-.898259E-02
       N       E                     dE             d eps       ncg     rms          rms(c)
DAV:   1    -0.222163651695E+03    0.65812E-02   -0.45226E+00   464   0.404E+00    0.623E-01
RMM:   2    -0.222172450283E+03   -0.87986E-02   -0.94864E-02   540   0.829E-01    0.153E-01
RMM:   3    -0.222174021595E+03   -0.15713E-02   -0.17495E-02   486   0.374E-01    0.179E-01
RMM:   4    -0.222174212264E+03   -0.19067E-03   -0.43750E-03   589   0.177E-01    0.148E-01
RMM:   5    -0.222174108712E+03    0.10355E-03   -0.24056E-04   464   0.364E-02    0.129E-01
RMM:   6    -0.222174045817E+03    0.62895E-04   -0.14407E-04   428   0.232E-02    0.963E-02
RMM:   7    -0.222174006445E+03    0.39372E-04   -0.35313E-04   497   0.271E-02    0.358E-02
RMM:   8    -0.222174011903E+03   -0.54581E-05   -0.62435E-05   552   0.161E-02    0.194E-02
RMM:   9    -0.222174004194E+03    0.77093E-05   -0.43612E-05   355   0.946E-03    0.880E-03
RMM:  10    -0.222174004550E+03   -0.35670E-06   -0.64706E-06   438   0.575E-03
  14 F= -.22217400E+03 E0= -.22217333E+03  d E =-.127539E-01
       N       E                     dE             d eps       ncg     rms          rms(c)
DAV:   1    -0.222175694145E+03   -0.16900E-02   -0.26065E+00   464   0.304E+00    0.386E-01
RMM:   2    -0.222180433193E+03   -0.47390E-02   -0.51082E-02   553   0.599E-01    0.130E-01
RMM:   3    -0.222181212804E+03   -0.77961E-03   -0.85553E-03   495   0.258E-01    0.101E-01
RMM:   4    -0.222181367711E+03   -0.15491E-03   -0.21316E-03   595   0.124E-01    0.917E-02
RMM:   5    -0.222181301399E+03    0.66312E-04   -0.12395E-04   442   0.268E-02    0.680E-02
RMM:   6    -0.222181283555E+03    0.17844E-04   -0.20450E-04   421   0.242E-02    0.274E-02
RMM:   7    -0.222181291028E+03   -0.74727E-05   -0.64081E-05   532   0.161E-02    0.193E-02
RMM:   8    -0.222181286552E+03    0.44751E-05   -0.61519E-06   373   0.611E-03    0.119E-02
RMM:   9    -0.222181287520E+03   -0.96780E-06   -0.37707E-05   435   0.759E-03    0.696E-03
RMM:  10    -0.222181285152E+03    0.23687E-05   -0.48783E-06   350   0.421E-03    0.243E-03
RMM:  11    -0.222181285310E+03   -0.15889E-06   -0.33367E-06   357   0.252E-03
  15 F= -.22218129E+03 E0= -.22218073E+03  d E =-.728076E-02
       N       E                     dE             d eps       ncg     rms          rms(c)
DAV:   1    -0.222155041697E+03    0.26243E-01   -0.15960E+01   448   0.753E+00    0.964E-01
RMM:   2    -0.222184674476E+03   -0.29633E-01   -0.32065E-01   553   0.150E+00    0.328E-01
RMM:   3    -0.222189672026E+03   -0.49976E-02   -0.55827E-02   498   0.665E-01    0.252E-01
RMM:   4    -0.222190789725E+03   -0.11177E-02   -0.14783E-02   588   0.320E-01    0.231E-01
RMM:   5    -0.222190420187E+03    0.36954E-03   -0.78704E-04   454   0.677E-02    0.180E-01
RMM:   6    -0.222190268495E+03    0.15169E-03   -0.90553E-04   424   0.571E-02    0.884E-02
RMM:   7    -0.222190319514E+03   -0.51019E-04   -0.50114E-04   523   0.412E-02    0.517E-02
RMM:   8    -0.222190298166E+03    0.21348E-04   -0.50390E-05   473   0.175E-02    0.316E-02
RMM:   9    -0.222190289392E+03    0.87736E-05   -0.16521E-04   480   0.176E-02    0.141E-02
RMM:  10    -0.222190283921E+03    0.54715E-05   -0.12943E-05   395   0.997E-03    0.714E-03
RMM:  11    -0.222190283011E+03    0.90945E-06   -0.75805E-06   384   0.538E-03
  16 F= -.22219028E+03 E0= -.22219000E+03  d E =-.162785E-01
       N       E                     dE             d eps       ncg     rms          rms(c)
DAV:   1    -0.222189021013E+03    0.12629E-02   -0.70623E-01   464   0.157E+00    0.202E-01
RMM:   2    -0.222190297871E+03   -0.12769E-02   -0.13834E-02   552   0.310E-01    0.652E-02
RMM:   3    -0.222190505804E+03   -0.20793E-03   -0.22556E-03   498   0.134E-01    0.521E-02
RMM:   4    -0.222190557632E+03   -0.51828E-04   -0.67024E-04   584   0.660E-02    0.471E-02
RMM:   5    -0.222190540148E+03    0.17484E-04   -0.32102E-05   440   0.136E-02    0.351E-02
RMM:   6    -0.222190535331E+03    0.48176E-05   -0.45628E-05   398   0.118E-02    0.159E-02
RMM:   7    -0.222190537262E+03   -0.19311E-05   -0.18735E-05   481   0.831E-03    0.103E-02
RMM:   8    -0.222190536192E+03    0.10702E-05   -0.18905E-06   271   0.347E-03    0.581E-03
RMM:   9    -0.222190535867E+03    0.32439E-06   -0.56702E-06   359   0.345E-03
  17 F= -.22219054E+03 E0= -.22219030E+03  d E =-.165313E-01
       N       E                     dE             d eps       ncg     rms          rms(c)
DAV:   1    -0.222182764524E+03    0.77717E-02   -0.62446E+00   464   0.462E+00    0.616E-01
RMM:   2    -0.222194220837E+03   -0.11456E-01   -0.12239E-01   543   0.928E-01    0.172E-01
RMM:   3    -0.222196342425E+03   -0.21216E-02   -0.23087E-02   517   0.419E-01    0.166E-01
RMM:   4    -0.222196709209E+03   -0.36678E-03   -0.52539E-03   570   0.190E-01    0.146E-01
RMM:   5    -0.222196578069E+03    0.13114E-03   -0.29616E-04   453   0.421E-02    0.114E-01
RMM:   6    -0.222196519747E+03    0.58323E-04   -0.36717E-04   428   0.342E-02    0.602E-02
RMM:   7    -0.222196533169E+03   -0.13423E-04   -0.21666E-04   512   0.258E-02    0.333E-02
RMM:   8    -0.222196525022E+03    0.81469E-05   -0.17127E-05   415   0.110E-02    0.194E-02
RMM:   9    -0.222196524265E+03    0.75755E-06   -0.61296E-05   424   0.106E-02    0.876E-03
RMM:  10    -0.222196521487E+03    0.27775E-05   -0.55489E-06   353   0.562E-03    0.445E-03
RMM:  11    -0.222196521592E+03   -0.10476E-06   -0.64741E-06   363   0.386E-03
  18 F= -.22219652E+03 E0= -.22219623E+03  d E =-.598572E-02
       N       E                     dE             d eps       ncg     rms          rms(c)
DAV:   1    -0.222181618623E+03    0.14903E-01   -0.78557E+00   464   0.519E+00    0.692E-01
RMM:   2    -0.222196070300E+03   -0.14452E-01   -0.15453E-01   542   0.104E+00    0.194E-01
RMM:   3    -0.222198749284E+03   -0.26790E-02   -0.29231E-02   516   0.472E-01    0.187E-01
RMM:   4    -0.222199218731E+03   -0.46945E-03   -0.67016E-03   569   0.213E-01    0.163E-01
RMM:   5    -0.222199056114E+03    0.16262E-03   -0.36937E-04   454   0.468E-02    0.128E-01
RMM:   6    -0.222198982398E+03    0.73717E-04   -0.43879E-04   430   0.376E-02    0.693E-02
RMM:   7    -0.222198999316E+03   -0.16918E-04   -0.27928E-04   513   0.291E-02    0.376E-02
RMM:   8    -0.222198989754E+03    0.95610E-05   -0.22961E-05   435   0.128E-02    0.219E-02
RMM:   9    -0.222198987513E+03    0.22419E-05   -0.69746E-05   420   0.116E-02    0.928E-03
RMM:  10    -0.222198984944E+03    0.25684E-05   -0.59494E-06   366   0.638E-03    0.507E-03
RMM:  11    -0.222198984791E+03    0.15338E-06   -0.53250E-06   351   0.404E-03
  19 F= -.22219898E+03 E0= -.22219865E+03  d E =-.844892E-02
       N       E                     dE             d eps       ncg     rms          rms(c)
DAV:   1    -0.222196296667E+03    0.26883E-02   -0.33558E+00   464   0.338E+00    0.465E-01
RMM:   2    -0.222202369257E+03   -0.60726E-02   -0.65851E-02   542   0.681E-01    0.120E-01
RMM:   3    -0.222203498044E+03   -0.11288E-02   -0.12314E-02   493   0.307E-01    0.129E-01
RMM:   4    -0.222203720327E+03   -0.22228E-03   -0.30931E-03   589   0.144E-01    0.114E-01
RMM:   5    -0.222203634172E+03    0.86155E-04   -0.16726E-04   449   0.308E-02    0.850E-02
RMM:   6    -0.222203598415E+03    0.35757E-04   -0.30724E-04   416   0.291E-02    0.313E-02
RMM:   7    -0.222203612173E+03   -0.13758E-04   -0.11485E-04   520   0.202E-02    0.191E-02
RMM:   8    -0.222203604368E+03    0.78047E-05   -0.13907E-05   387   0.850E-03    0.127E-02
RMM:   9    -0.222203604178E+03    0.19032E-06   -0.41619E-05   412   0.834E-03    0.769E-03
RMM:  10    -0.222203603329E+03    0.84910E-06   -0.35381E-06   404   0.454E-03
  20 F= -.22220360E+03 E0= -.22220343E+03  d E =-.461854E-02
       N       E                     dE             d eps       ncg     rms          rms(c)
DAV:   1    -0.222199408777E+03    0.41954E-02   -0.26219E+00   464   0.299E+00    0.410E-01
RMM:   2    -0.222204127157E+03   -0.47184E-02   -0.51153E-02   542   0.599E-01    0.105E-01
RMM:   3    -0.222205005020E+03   -0.87786E-03   -0.95543E-03   494   0.269E-01    0.113E-01
RMM:   4    -0.222205176221E+03   -0.17120E-03   -0.23825E-03   589   0.126E-01    0.998E-02
RMM:   5    -0.222205110208E+03    0.66013E-04   -0.12979E-04   450   0.268E-02    0.745E-02
RMM:   6    -0.222205083232E+03    0.26976E-04   -0.23837E-04   412   0.253E-02    0.269E-02
RMM:   7    -0.222205093771E+03   -0.10539E-04   -0.87615E-05   514   0.175E-02    0.166E-02
RMM:   8    -0.222205086914E+03    0.68572E-05   -0.12918E-05   372   0.749E-03    0.984E-03
RMM:   9    -0.222205088353E+03   -0.14390E-05   -0.34836E-05   408   0.771E-03    0.750E-03
RMM:  10    -0.222205086999E+03    0.13538E-05   -0.25210E-06   343   0.408E-03    0.503E-03
RMM:  11    -0.222205086210E+03    0.78876E-06   -0.35946E-06   352   0.293E-03
  21 F= -.22220509E+03 E0= -.22220508E+03  d E =-.610142E-02
       N       E                     dE             d eps       ncg     rms          rms(c)
DAV:   1    -0.222199893251E+03    0.51937E-02   -0.42085E+00   464   0.384E+00    0.535E-01
RMM:   2    -0.222207756596E+03   -0.78633E-02   -0.84792E-02   536   0.788E-01    0.116E-01
RMM:   3    -0.222209293207E+03   -0.15366E-02   -0.16746E-02   492   0.359E-01    0.158E-01
RMM:   4    -0.222209560013E+03   -0.26681E-03   -0.39764E-03   576   0.166E-01    0.125E-01
RMM:   5    -0.222209501105E+03    0.58908E-04   -0.17335E-04   474   0.319E-02    0.107E-01
RMM:   6    -0.222209447195E+03    0.53910E-04   -0.12272E-04   426   0.224E-02    0.751E-02
RMM:   7    -0.222209443994E+03    0.32010E-05   -0.31165E-04   493   0.257E-02    0.286E-02
RMM:   8    -0.222209443503E+03    0.49013E-06   -0.31767E-05   522   0.131E-02    0.222E-02
RMM:   9    -0.222209432768E+03    0.10736E-04   -0.15042E-05   366   0.716E-03    0.990E-03
RMM:  10    -0.222209436166E+03   -0.33982E-05   -0.42940E-05   469   0.908E-03    0.123E-02
RMM:  11    -0.222209432940E+03    0.32259E-05   -0.56012E-06   350   0.505E-03    0.596E-03
RMM:  12    -0.222209433001E+03   -0.61362E-07   -0.79869E-06   386   0.382E-03
  22 F= -.22220943E+03 E0= -.22220985E+03  d E =-.434679E-02
       N       E                     dE             d eps       ncg     rms          rms(c)
DAV:   1    -0.222197532115E+03    0.11901E-01   -0.57124E+00   464   0.447E+00    0.625E-01
RMM:   2    -0.222208280275E+03   -0.10748E-01   -0.11581E-01   537   0.920E-01    0.140E-01
RMM:   3    -0.222210343608E+03   -0.20633E-02   -0.22609E-02   491   0.421E-01    0.183E-01
RMM:   4    -0.222210712335E+03   -0.36873E-03   -0.55041E-03   577   0.196E-01    0.145E-01
RMM:   5    -0.222210633060E+03    0.79275E-04   -0.23742E-04   474   0.374E-02    0.124E-01
RMM:   6    -0.222210563799E+03    0.69261E-04   -0.16571E-04   429   0.261E-02    0.868E-02
RMM:   7    -0.222210557045E+03    0.67546E-05   -0.39612E-04   488   0.295E-02    0.314E-02
RMM:   8    -0.222210556957E+03    0.87468E-07   -0.42240E-05   524   0.155E-02    0.242E-02
RMM:   9    -0.222210544217E+03    0.12740E-04   -0.17150E-05   377   0.816E-03    0.111E-02
RMM:  10    -0.222210548443E+03   -0.42260E-05   -0.52470E-05   479   0.102E-02    0.139E-02
RMM:  11    -0.222210544212E+03    0.42314E-05   -0.94309E-06   351   0.625E-03    0.578E-03
RMM:  12    -0.222210544475E+03   -0.26257E-06   -0.78235E-06   406   0.410E-03
  23 F= -.22221054E+03 E0= -.22221142E+03  d E =-.545826E-02
       N       E                     dE             d eps       ncg     rms          rms(c)
DAV:   1    -0.222200836791E+03    0.97074E-02   -0.56841E+00   464   0.440E+00    0.537E-01
RMM:   2    -0.222210815724E+03   -0.99789E-02   -0.10689E-01   538   0.879E-01    0.142E-01
RMM:   3    -0.222212871324E+03   -0.20556E-02   -0.21878E-02   514   0.407E-01    0.163E-01
RMM:   4    -0.222213240291E+03   -0.36897E-03   -0.49822E-03   560   0.183E-01    0.142E-01
RMM:   5    -0.222213127065E+03    0.11323E-03   -0.23583E-04   458   0.382E-02    0.115E-01
RMM:   6    -0.222213044943E+03    0.82122E-04   -0.36331E-04   414   0.335E-02    0.545E-02
RMM:   7    -0.222213068692E+03   -0.23749E-04   -0.26047E-04   463   0.274E-02    0.229E-02
RMM:   8    -0.222213053693E+03    0.14999E-04   -0.55690E-05   421   0.152E-02    0.952E-03
RMM:   9    -0.222213057296E+03   -0.36023E-05   -0.28522E-05   448   0.942E-03    0.101E-02
RMM:  10    -0.222213055151E+03    0.21446E-05   -0.30388E-06   333   0.460E-03    0.675E-03
RMM:  11    -0.222213054632E+03    0.51853E-06   -0.19518E-06   282   0.271E-03
  24 F= -.22221305E+03 E0= -.22221417E+03  d E =-.251016E-02
       N       E                     dE             d eps       ncg     rms          rms(c)
DAV:   1    -0.222209525462E+03    0.35297E-02   -0.17855E+00   464   0.247E+00    0.300E-01
RMM:   2    -0.222212637032E+03   -0.31116E-02   -0.33382E-02   538   0.487E-01    0.824E-02
RMM:   3    -0.222213256736E+03   -0.61970E-03   -0.65579E-03   518   0.222E-01    0.877E-02
RMM:   4    -0.222213368159E+03   -0.11142E-03   -0.15110E-03   560   0.101E-01    0.766E-02
RMM:   5    -0.222213329974E+03    0.38185E-04   -0.74671E-05   443   0.213E-02    0.593E-02
RMM:   6    -0.222213310129E+03    0.19844E-04   -0.12409E-04   416   0.189E-02    0.256E-02
RMM:   7    -0.222213316871E+03   -0.67413E-05   -0.59964E-05   477   0.140E-02    0.119E-02
RMM:   8    -0.222213313358E+03    0.35131E-05   -0.22744E-05   371   0.822E-03    0.575E-03
RMM:   9    -0.222213313876E+03   -0.51861E-06   -0.54269E-06   423   0.483E-03
  25 F= -.22221331E+03 E0= -.22221456E+03  d E =-.276940E-02
       N       E                     dE             d eps       ncg     rms          rms(c)
DAV:   1    -0.222209521465E+03    0.37919E-02   -0.32026E+00   448   0.328E+00    0.471E-01
RMM:   2    -0.222215539269E+03   -0.60178E-02   -0.65180E-02   536   0.674E-01    0.117E-01
RMM:   3    -0.222216747049E+03   -0.12078E-02   -0.13084E-02   492   0.306E-01    0.146E-01
RMM:   4    -0.222216912226E+03   -0.16518E-03   -0.26789E-03   581   0.139E-01    0.123E-01
RMM:   5    -0.222216835170E+03    0.77056E-04   -0.15873E-04   455   0.298E-02    0.991E-02
RMM:   6    -0.222216786011E+03    0.49159E-04   -0.19503E-04   418   0.240E-02    0.577E-02
RMM:   7    -0.222216786015E+03   -0.47585E-08   -0.17523E-04   467   0.211E-02    0.263E-02
RMM:   8    -0.222216786205E+03   -0.18936E-06   -0.26697E-05   481   0.120E-02    0.171E-02
RMM:   9    -0.222216779527E+03    0.66775E-05   -0.36020E-05   371   0.825E-03    0.564E-03
RMM:  10    -0.222216779685E+03   -0.15822E-06   -0.47292E-06   420   0.503E-03
  26 F= -.22221678E+03 E0= -.22221829E+03  d E =-.346581E-02
       N       E                     dE             d eps       ncg     rms          rms(c)
DAV:   1    -0.222214715796E+03    0.20637E-02   -0.13178E+00   464   0.210E+00    0.304E-01
RMM:   2    -0.222217182466E+03   -0.24667E-02   -0.26686E-02   536   0.431E-01    0.740E-02
RMM:   3    -0.222217675517E+03   -0.49305E-03   -0.53207E-03   492   0.195E-01    0.929E-02
RMM:   4    -0.222217740014E+03   -0.64497E-04   -0.10662E-03   582   0.878E-02    0.782E-02
RMM:   5    -0.222217708394E+03    0.31620E-04   -0.65519E-05   454   0.190E-02    0.633E-02
RMM:   6    -0.222217688707E+03    0.19687E-04   -0.80004E-05   408   0.151E-02    0.368E-02
RMM:   7    -0.222217688641E+03    0.65480E-07   -0.72431E-05   450   0.134E-02    0.165E-02
RMM:   8    -0.222217688630E+03    0.11180E-07   -0.10721E-05   453   0.758E-03    0.108E-02
RMM:   9    -0.222217685959E+03    0.26711E-05   -0.14004E-05   360   0.522E-03    0.363E-03
RMM:  10    -0.222217686055E+03   -0.95621E-07   -0.19198E-06   288   0.316E-03
  27 F= -.22221769E+03 E0= -.22221938E+03  d E =-.437218E-02
       N       E                     dE             d eps       ncg     rms          rms(c)
DAV:   1    -0.222213297397E+03    0.43886E-02   -0.31991E+00   448   0.326E+00    0.515E-01
RMM:   2    -0.222219424754E+03   -0.61274E-02   -0.66777E-02   535   0.674E-01    0.122E-01
RMM:   3    -0.222220666176E+03   -0.12414E-02   -0.13523E-02   496   0.307E-01    0.147E-01
RMM:   4    -0.222220813607E+03   -0.14743E-03   -0.24587E-03   576   0.135E-01    0.121E-01
RMM:   5    -0.222220716964E+03    0.96643E-04   -0.18924E-04   441   0.320E-02    0.851E-02
RMM:   6    -0.222220693931E+03    0.23034E-04   -0.31607E-04   434   0.292E-02    0.377E-02
RMM:   7    -0.222220703962E+03   -0.10031E-04   -0.13915E-04   534   0.211E-02    0.242E-02
RMM:   8    -0.222220695413E+03    0.85487E-05   -0.11646E-05   376   0.805E-03    0.173E-02
RMM:   9    -0.222220691510E+03    0.39031E-05   -0.70893E-05   452   0.101E-02    0.698E-03
RMM:  10    -0.222220690021E+03    0.14898E-05   -0.34850E-06   363   0.502E-03    0.491E-03
RMM:  11    -0.222220689653E+03    0.36796E-06   -0.45132E-06   350   0.314E-03
  28 F= -.22222069E+03 E0= -.22222235E+03  d E =-.300360E-02
       N       E                     dE             d eps       ncg     rms          rms(c)
DAV:   1    -0.222220348946E+03    0.34107E-03   -0.19377E-01   480   0.799E-01    0.126E-01
RMM:   2    -0.222220721977E+03   -0.37303E-03   -0.40747E-03   540   0.165E-01    0.328E-02
RMM:   3    -0.222220792424E+03   -0.70447E-04   -0.76317E-04   495   0.731E-02    0.341E-02
RMM:   4    -0.222220801417E+03   -0.89931E-05   -0.14869E-04   579   0.330E-02    0.285E-02
RMM:   5    -0.222220795632E+03    0.57850E-05   -0.11915E-05   396   0.790E-03    0.195E-02
RMM:   6    -0.222220794803E+03    0.82892E-06   -0.16666E-05   370   0.675E-03    0.908E-03
RMM:   7    -0.222220795237E+03   -0.43352E-06   -0.67567E-06   433   0.473E-03
  29 F= -.22222080E+03 E0= -.22222244E+03  d E =-.310918E-02
       N       E                     dE             d eps       ncg     rms          rms(c)
DAV:   1    -0.222215108256E+03    0.56865E-02   -0.35329E+00   448   0.336E+00    0.460E-01
RMM:   2    -0.222221674534E+03   -0.65663E-02   -0.70654E-02   536   0.691E-01    0.126E-01
RMM:   3    -0.222223000463E+03   -0.13259E-02   -0.14205E-02   505   0.312E-01    0.139E-01
RMM:   4    -0.222223153235E+03   -0.15277E-03   -0.25690E-03   568   0.136E-01    0.109E-01
RMM:   5    -0.222223092971E+03    0.60264E-04   -0.16773E-04   462   0.300E-02    0.832E-02
RMM:   6    -0.222223064484E+03    0.28487E-04   -0.13314E-04   421   0.215E-02    0.494E-02
RMM:   7    -0.222223072415E+03   -0.79309E-05   -0.10326E-04   485   0.175E-02    0.228E-02
RMM:   8    -0.222223070563E+03    0.18517E-05   -0.15168E-05   454   0.913E-03    0.142E-02
RMM:   9    -0.222223066457E+03    0.41062E-05   -0.16537E-05   356   0.634E-03    0.551E-03
RMM:  10    -0.222223067207E+03   -0.74990E-06   -0.66265E-06   434   0.474E-03
  30 F= -.22222307E+03 E0= -.22222465E+03  d E =-.227197E-02
       N       E                     dE             d eps       ncg     rms          rms(c)
DAV:   1    -0.222218794538E+03    0.42719E-02   -0.22418E+00   464   0.267E+00    0.366E-01
RMM:   2    -0.222222882568E+03   -0.40880E-02   -0.43866E-02   531   0.549E-01    0.853E-02
RMM:   3    -0.222223769422E+03   -0.88685E-03   -0.94005E-03   503   0.252E-01    0.117E-01
RMM:   4    -0.222223869770E+03   -0.10035E-03   -0.16175E-03   567   0.109E-01    0.915E-02
RMM:   5    -0.222223830652E+03    0.39118E-04   -0.99420E-05   462   0.234E-02    0.729E-02
RMM:   6    -0.222223803566E+03    0.27086E-04   -0.97366E-05   415   0.176E-02    0.434E-02
RMM:   7    -0.222223809144E+03   -0.55789E-05   -0.99674E-05   432   0.161E-02    0.175E-02
RMM:   8    -0.222223809172E+03   -0.28002E-07   -0.18725E-05   484   0.964E-03    0.135E-02
RMM:   9    -0.222223803927E+03    0.52459E-05   -0.13154E-05   348   0.556E-03    0.473E-03
RMM:  10    -0.222223804927E+03   -0.10007E-05   -0.96531E-06   395   0.487E-03    0.562E-03
RMM:  11    -0.222223804375E+03    0.55242E-06   -0.11232E-06   247   0.245E-03
  31 F= -.22222380E+03 E0= -.22222533E+03  d E =-.300914E-02
       N       E                     dE             d eps       ncg     rms          rms(c)
DAV:   1    -0.222220352937E+03    0.34520E-02   -0.27255E+00   448   0.291E+00    0.427E-01
RMM:   2    -0.222225258517E+03   -0.49056E-02   -0.53154E-02   533   0.594E-01    0.100E-01
RMM:   3    -0.222226296896E+03   -0.10384E-02   -0.11128E-02   500   0.272E-01    0.128E-01
RMM:   4    -0.222226421952E+03   -0.12506E-03   -0.19475E-03   569   0.118E-01    0.101E-01
RMM:   5    -0.222226372065E+03    0.49887E-04   -0.13081E-04   460   0.263E-02    0.786E-02
RMM:   6    -0.222226341358E+03    0.30707E-04   -0.13604E-04   418   0.205E-02    0.421E-02
RMM:   7    -0.222226351868E+03   -0.10511E-04   -0.11689E-04   471   0.177E-02    0.174E-02
RMM:   8    -0.222226349355E+03    0.25131E-05   -0.13598E-05   450   0.935E-03    0.137E-02
RMM:   9    -0.222226344766E+03    0.45887E-05   -0.34061E-05   398   0.780E-03    0.588E-03
RMM:  10    -0.222226344537E+03    0.22919E-06   -0.27082E-06   341   0.439E-03
  32 F= -.22222634E+03 E0= -.22222763E+03  d E =-.254016E-02
       N       E                     dE             d eps       ncg     rms          rms(c)
DAV:   1    -0.222225128614E+03    0.12162E-02   -0.77062E-01   464   0.154E+00    0.228E-01
RMM:   2    -0.222226506456E+03   -0.13778E-02   -0.14865E-02   532   0.315E-01    0.505E-02
RMM:   3    -0.222226800082E+03   -0.29363E-03   -0.31287E-03   501   0.144E-01    0.686E-02
RMM:   4    -0.222226834138E+03   -0.34056E-04   -0.53508E-04   568   0.621E-02    0.548E-02
RMM:   5    -0.222226819827E+03    0.14310E-04   -0.36636E-05   447   0.139E-02    0.432E-02
RMM:   6    -0.222226810323E+03    0.95046E-05   -0.40818E-05   382   0.108E-02    0.229E-02
RMM:   7    -0.222226813469E+03   -0.31466E-05   -0.35256E-05   413   0.956E-03    0.938E-03
RMM:   8    -0.222226812833E+03    0.63628E-06   -0.46804E-06   426   0.552E-03
  33 F= -.22222681E+03 E0= -.22222798E+03  d E =-.300846E-02
       N       E                     dE             d eps       ncg     rms          rms(c)
DAV:   1    -0.222225267005E+03    0.15465E-02   -0.16294E+00   448   0.225E+00    0.309E-01
RMM:   2    -0.222228183383E+03   -0.29164E-02   -0.31189E-02   536   0.456E-01    0.869E-02
RMM:   3    -0.222228777018E+03   -0.59364E-03   -0.63031E-03   500   0.206E-01    0.965E-02
RMM:   4    -0.222228846408E+03   -0.69391E-04   -0.11976E-03   579   0.915E-02    0.822E-02
RMM:   5    -0.222228807997E+03    0.38411E-04   -0.75390E-05   438   0.206E-02    0.643E-02
RMM:   6    -0.222228788703E+03    0.19294E-04   -0.12834E-04   410   0.181E-02    0.320E-02
RMM:   7    -0.222228792907E+03   -0.42036E-05   -0.69082E-05   476   0.139E-02    0.168E-02
RMM:   8    -0.222228789771E+03    0.31358E-05   -0.59707E-06   374   0.638E-03    0.103E-02
RMM:   9    -0.222228789700E+03    0.71039E-07   -0.17038E-05   385   0.566E-03    0.397E-03
RMM:  10    -0.222228789106E+03    0.59461E-06   -0.15426E-06   284   0.303E-03
  34 F= -.22222879E+03 E0= -.22222986E+03  d E =-.197627E-02
       N       E                     dE             d eps       ncg     rms          rms(c)
DAV:   1    -0.222217200201E+03    0.11589E-01   -0.60138E+00   448   0.431E+00    0.592E-01
RMM:   2    -0.222228021546E+03   -0.10821E-01   -0.11616E-01   536   0.877E-01    0.169E-01
RMM:   3    -0.222230255144E+03   -0.22336E-02   -0.23963E-02   502   0.402E-01    0.181E-01
RMM:   4    -0.222230539696E+03   -0.28455E-03   -0.46453E-03   576   0.179E-01    0.154E-01
RMM:   5    -0.222230404213E+03    0.13548E-03   -0.28706E-04   446   0.400E-02    0.121E-01
RMM:   6    -0.222230334555E+03    0.69658E-04   -0.45166E-04   417   0.349E-02    0.597E-02
RMM:   7    -0.222230351107E+03   -0.16552E-04   -0.23749E-04   498   0.264E-02    0.325E-02
RMM:   8    -0.222230341376E+03    0.97305E-05   -0.18830E-05   421   0.117E-02    0.202E-02
RMM:   9    -0.222230339597E+03    0.17792E-05   -0.64103E-05   412   0.107E-02    0.745E-03
RMM:  10    -0.222230337422E+03    0.21750E-05   -0.53306E-06   357   0.558E-03    0.435E-03
RMM:  11    -0.222230337338E+03    0.83863E-07   -0.39657E-06   346   0.317E-03
  35 F= -.22223034E+03 E0= -.22223126E+03  d E =-.352450E-02
       N       E                     dE             d eps       ncg     rms          rms(c)
DAV:   1    -0.222225788008E+03    0.45494E-02   -0.31103E+00   464   0.307E+00    0.381E-01
RMM:   2    -0.222231091019E+03   -0.53030E-02   -0.56760E-02   541   0.610E-01    0.116E-01
RMM:   3    -0.222232174957E+03   -0.10839E-02   -0.11519E-02   513   0.275E-01    0.108E-01
RMM:   4    -0.222232314287E+03   -0.13933E-03   -0.21127E-03   574   0.121E-01    0.863E-02
RMM:   5    -0.222232281762E+03    0.32525E-04   -0.12829E-04   462   0.263E-02    0.697E-02
RMM:   6    -0.222232262061E+03    0.19701E-04   -0.80282E-05   420   0.176E-02    0.434E-02
RMM:   7    -0.222232266899E+03   -0.48384E-05   -0.78978E-05   478   0.154E-02    0.173E-02
RMM:   8    -0.222232266367E+03    0.53173E-06   -0.12773E-05   459   0.843E-03    0.122E-02
RMM:   9    -0.222232263057E+03    0.33101E-05   -0.10435E-05   353   0.530E-03    0.517E-03
RMM:  10    -0.222232263677E+03   -0.61930E-06   -0.52635E-06   403   0.408E-03
  36 F= -.22223226E+03 E0= -.22223310E+03  d E =-.192634E-02
       N       E                     dE             d eps       ncg     rms          rms(c)
DAV:   1    -0.222224145572E+03    0.81175E-02   -0.43500E+00   448   0.362E+00    0.451E-01
RMM:   2    -0.222231555991E+03   -0.74104E-02   -0.79233E-02   538   0.720E-01    0.130E-01
RMM:   3    -0.222233117456E+03   -0.15615E-02   -0.16612E-02   516   0.330E-01    0.132E-01
RMM:   4    -0.222233321131E+03   -0.20368E-03   -0.30184E-03   570   0.144E-01    0.105E-01
RMM:   5    -0.222233273004E+03    0.48128E-04   -0.17830E-04   464   0.312E-02    0.859E-02
RMM:   6    -0.222233241121E+03    0.31883E-04   -0.12130E-04   425   0.212E-02    0.535E-02
RMM:   7    -0.222233247254E+03   -0.61334E-05   -0.12496E-04   452   0.192E-02    0.198E-02
RMM:   8    -0.222233247824E+03   -0.56939E-06   -0.25099E-05   500   0.113E-02    0.152E-02
RMM:   9    -0.222233241735E+03    0.60885E-05   -0.13274E-05   355   0.598E-03    0.634E-03
RMM:  10    -0.222233242730E+03   -0.99533E-06   -0.10522E-05   400   0.536E-03    0.597E-03
RMM:  11    -0.222233242196E+03    0.53445E-06   -0.12416E-06   251   0.267E-03
  37 F= -.22223324E+03 E0= -.22223399E+03  d E =-.290486E-02
       N       E                     dE             d eps       ncg     rms          rms(c)
DAV:   1    -0.222227701852E+03    0.55409E-02   -0.38479E+00   464   0.340E+00    0.428E-01
RMM:   2    -0.222234288395E+03   -0.65865E-02   -0.70559E-02   539   0.676E-01    0.131E-01
RMM:   3    -0.222235641937E+03   -0.13535E-02   -0.14404E-02   520   0.305E-01    0.122E-01
RMM:   4    -0.222235812314E+03   -0.17038E-03   -0.25770E-03   563   0.133E-01    0.999E-02
RMM:   5    -0.222235763332E+03    0.48981E-04   -0.16017E-04   467   0.293E-02    0.800E-02
RMM:   6    -0.222235736761E+03    0.26571E-04   -0.11504E-04   419   0.206E-02    0.480E-02
RMM:   7    -0.222235743116E+03   -0.63548E-05   -0.93373E-05   487   0.170E-02    0.230E-02
RMM:   8    -0.222235741528E+03    0.15878E-05   -0.15348E-05   458   0.917E-03    0.137E-02
RMM:   9    -0.222235738638E+03    0.28902E-05   -0.18715E-05   359   0.674E-03    0.587E-03
RMM:  10    -0.222235738861E+03   -0.22300E-06   -0.35009E-06   376   0.424E-03
  38 F= -.22223574E+03 E0= -.22223651E+03  d E =-.249666E-02
       N       E                     dE             d eps       ncg     rms          rms(c)
DAV:   1    -0.222226857763E+03    0.88809E-02   -0.49718E+00   448   0.386E+00    0.487E-01
RMM:   2    -0.222235370774E+03   -0.85130E-02   -0.91033E-02   537   0.771E-01    0.141E-01
RMM:   3    -0.222237170132E+03   -0.17994E-02   -0.19153E-02   519   0.351E-01    0.144E-01
RMM:   4    -0.222237399940E+03   -0.22981E-03   -0.34009E-03   563   0.152E-01    0.118E-01
RMM:   5    -0.222237335007E+03    0.64933E-04   -0.20467E-04   466   0.332E-02    0.952E-02
RMM:   6    -0.222237293446E+03    0.41561E-04   -0.16051E-04   416   0.239E-02    0.570E-02
RMM:   7    -0.222237301444E+03   -0.79975E-05   -0.14251E-04   472   0.205E-02    0.261E-02
RMM:   8    -0.222237300170E+03    0.12733E-05   -0.26331E-05   490   0.116E-02    0.162E-02
RMM:   9    -0.222237295022E+03    0.51487E-05   -0.31170E-05   367   0.847E-03    0.710E-03
RMM:  10    -0.222237295439E+03   -0.41725E-06   -0.58207E-06   440   0.542E-03
  39 F= -.22223730E+03 E0= -.22223809E+03  d E =-.405324E-02
       N       E                     dE             d eps       ncg     rms          rms(c)
DAV:   1    -0.222192349960E+03    0.44945E-01   -0.19942E+01   448   0.776E+00    0.987E-01
RMM:   2    -0.222228095446E+03   -0.35745E-01   -0.38294E-01   538   0.156E+00    0.299E-01
RMM:   3    -0.222235675325E+03   -0.75799E-02   -0.82277E-02   521   0.731E-01    0.284E-01
RMM:   4    -0.222236752765E+03   -0.10774E-02   -0.15183E-02   562   0.318E-01    0.237E-01
RMM:   5    -0.222236512310E+03    0.24045E-03   -0.90097E-04   471   0.692E-02    0.197E-01
RMM:   6    -0.222236342149E+03    0.17016E-03   -0.53442E-04   427   0.461E-02    0.130E-01
RMM:   7    -0.222236351059E+03   -0.89105E-05   -0.60381E-04   467   0.418E-02    0.573E-02
RMM:   8    -0.222236352880E+03   -0.18207E-05   -0.14450E-04   553   0.246E-02    0.346E-02
RMM:   9    -0.222236329324E+03    0.23556E-04   -0.79058E-05   388   0.142E-02    0.146E-02
RMM:  10    -0.222236333345E+03   -0.40214E-05   -0.37226E-05   472   0.115E-02    0.118E-02
RMM:  11    -0.222236330964E+03    0.23811E-05   -0.40425E-06   349   0.479E-03    0.786E-03
RMM:  12    -0.222236331237E+03   -0.27267E-06   -0.13755E-05   386   0.546E-03    0.409E-03
RMM:  13    -0.222236330628E+03    0.60807E-06   -0.16335E-06   270   0.271E-03
  40 F= -.22223633E+03 E0= -.22223720E+03  d E =-.308843E-02
       N       E                     dE             d eps       ncg     rms          rms(c)
DAV:   1    -0.222216290637E+03    0.20041E-01   -0.99384E+00   448   0.546E+00    0.691E-01
RMM:   2    -0.222233740648E+03   -0.17450E-01   -0.18689E-01   540   0.109E+00    0.220E-01
RMM:   3    -0.222237299054E+03   -0.35584E-02   -0.38391E-02   520   0.497E-01    0.195E-01
RMM:   4    -0.222237770721E+03   -0.47167E-03   -0.69370E-03   564   0.216E-01    0.163E-01
RMM:   5    -0.222237646606E+03    0.12411E-03   -0.42301E-04   467   0.474E-02    0.134E-01
RMM:   6    -0.222237571725E+03    0.74882E-04   -0.29001E-04   426   0.330E-02    0.839E-02
RMM:   7    -0.222237584314E+03   -0.12590E-04   -0.26343E-04   488   0.281E-02    0.402E-02
RMM:   8    -0.222237581139E+03    0.31755E-05   -0.45339E-05   499   0.152E-02    0.237E-02
RMM:   9    -0.222237573281E+03    0.78577E-05   -0.41656E-05   371   0.104E-02    0.955E-03
RMM:  10    -0.222237574171E+03   -0.89018E-06   -0.99241E-06   469   0.692E-03
  41 F= -.22223757E+03 E0= -.22223839E+03  d E =-.433198E-02
       N       E                     dE             d eps       ncg     rms          rms(c)
DAV:   1    -0.222234134448E+03    0.34388E-02   -0.25171E+00   464   0.273E+00    0.323E-01
RMM:   2    -0.222238359629E+03   -0.42252E-02   -0.45141E-02   540   0.538E-01    0.108E-01
RMM:   3    -0.222239244073E+03   -0.88444E-03   -0.92563E-03   531   0.243E-01    0.938E-02
RMM:   4    -0.222239358004E+03   -0.11393E-03   -0.16112E-03   557   0.105E-01    0.813E-02
RMM:   5    -0.222239319630E+03    0.38374E-04   -0.10947E-04   463   0.243E-02    0.633E-02
RMM:   6    -0.222239303126E+03    0.16503E-04   -0.99033E-05   422   0.181E-02    0.343E-02
RMM:   7    -0.222239310400E+03   -0.72732E-05   -0.65765E-05   504   0.144E-02    0.172E-02
RMM:   8    -0.222239308427E+03    0.19727E-05   -0.63122E-06   389   0.688E-03    0.114E-02
RMM:   9    -0.222239306332E+03    0.20947E-05   -0.14739E-05   369   0.573E-03    0.453E-03
RMM:  10    -0.222239306519E+03   -0.18686E-06   -0.24202E-06   325   0.349E-03
  42 F= -.22223931E+03 E0= -.22224026E+03  d E =-.173235E-02
       N       E                     dE             d eps       ncg     rms          rms(c)
DAV:   1    -0.222214692569E+03    0.24614E-01   -0.12346E+01   448   0.605E+00    0.718E-01
RMM:   2    -0.222236109404E+03   -0.21417E-01   -0.22864E-01   541   0.120E+00    0.243E-01
RMM:   3    -0.222240632630E+03   -0.45232E-02   -0.48282E-02   527   0.553E-01    0.207E-01
RMM:   4    -0.222241280134E+03   -0.64750E-03   -0.87780E-03   565   0.241E-01    0.184E-01
RMM:   5    -0.222241099854E+03    0.18028E-03   -0.47449E-04   459   0.525E-02    0.149E-01
RMM:   6    -0.222240994847E+03    0.10501E-03   -0.47051E-04   424   0.408E-02    0.855E-02
RMM:   7    -0.222241025915E+03   -0.31068E-04   -0.38915E-04   479   0.341E-02    0.389E-02
RMM:   8    -0.222241020164E+03    0.57509E-05   -0.52056E-05   517   0.179E-02    0.275E-02
RMM:   9    -0.222241007205E+03    0.12960E-04   -0.84517E-05   400   0.137E-02    0.109E-02
RMM:  10    -0.222241007867E+03   -0.66229E-06   -0.13788E-05   482   0.843E-03    0.859E-03
RMM:  11    -0.222241006293E+03    0.15743E-05   -0.26062E-06   307   0.337E-03    0.496E-03
RMM:  12    -0.222241006777E+03   -0.48405E-06   -0.61570E-06   363   0.419E-03
  43 F= -.22224101E+03 E0= -.22224226E+03  d E =-.343261E-02
       N       E                     dE             d eps       ncg     rms          rms(c)
DAV:   1    -0.222240031183E+03    0.97511E-03   -0.10846E+00   464   0.178E+00    0.234E-01
RMM:   2    -0.222241933215E+03   -0.19020E-02   -0.20293E-02   535   0.358E-01    0.662E-02
RMM:   3    -0.222242324730E+03   -0.39152E-03   -0.41191E-03   533   0.162E-01    0.672E-02
RMM:   4    -0.222242361336E+03   -0.36606E-04   -0.69749E-04   544   0.686E-02    0.508E-02
RMM:   5    -0.222242347858E+03    0.13477E-04   -0.57754E-05   450   0.168E-02    0.352E-02
RMM:   6    -0.222242346382E+03    0.14764E-05   -0.47640E-05   432   0.121E-02    0.189E-02
RMM:   7    -0.222242347741E+03   -0.13595E-05   -0.13915E-05   476   0.763E-03    0.933E-03
RMM:   8    -0.222242346488E+03    0.12536E-05   -0.69071E-06   352   0.447E-03    0.331E-03
RMM:   9    -0.222242346754E+03   -0.26651E-06   -0.22666E-06   296   0.285E-03
  44 F= -.22224235E+03 E0= -.22224357E+03  d E =-.133998E-02
       N       E                     dE             d eps       ncg     rms          rms(c)
DAV:   1    -0.222232708490E+03    0.96380E-02   -0.52824E+00   448   0.392E+00    0.517E-01
RMM:   2    -0.222242058604E+03   -0.93501E-02   -0.99820E-02   534   0.793E-01    0.144E-01
RMM:   3    -0.222244081323E+03   -0.20227E-02   -0.21476E-02   535   0.364E-01    0.151E-01
RMM:   4    -0.222244242740E+03   -0.16142E-03   -0.31510E-03   543   0.149E-01    0.116E-01
RMM:   5    -0.222244173025E+03    0.69714E-04   -0.28701E-04   457   0.376E-02    0.813E-02
RMM:   6    -0.222244161622E+03    0.11403E-04   -0.24370E-04   456   0.267E-02    0.434E-02
RMM:   7    -0.222244168339E+03   -0.67167E-05   -0.80098E-05   547   0.178E-02    0.214E-02
RMM:   8    -0.222244161600E+03    0.67389E-05   -0.31533E-05   357   0.969E-03    0.105E-02
RMM:   9    -0.222244162923E+03   -0.13230E-05   -0.18336E-05   409   0.726E-03    0.815E-03
RMM:  10    -0.222244161900E+03    0.10232E-05   -0.21768E-06   283   0.376E-03    0.582E-03
RMM:  11    -0.222244161553E+03    0.34652E-06   -0.89879E-07   251   0.235E-03
  45 F= -.22224416E+03 E0= -.22224534E+03  d E =-.315478E-02
       N       E                     dE             d eps       ncg     rms          rms(c)
DAV:   1    -0.222199728789E+03    0.44433E-01   -0.21249E+01   464   0.790E+00    0.105E+00
RMM:   2    -0.222235104612E+03   -0.35376E-01   -0.38045E-01   534   0.153E+00    0.289E-01
RMM:   3    -0.222242829933E+03   -0.77253E-02   -0.83026E-02   537   0.703E-01    0.304E-01
RMM:   4    -0.222243393354E+03   -0.56342E-03   -0.11596E-02   546   0.284E-01    0.235E-01
RMM:   5    -0.222243114545E+03    0.27881E-03   -0.10760E-03   463   0.738E-02    0.168E-01
RMM:   6    -0.222243054653E+03    0.59892E-04   -0.90748E-04   456   0.519E-02    0.934E-02
RMM:   7    -0.222243081603E+03   -0.26949E-04   -0.34871E-04   575   0.350E-02    0.441E-02
RMM:   8    -0.222243058644E+03    0.22959E-04   -0.90602E-05   391   0.171E-02    0.273E-02
RMM:   9    -0.222243060792E+03   -0.21477E-05   -0.10051E-04   401   0.155E-02    0.173E-02
RMM:  10    -0.222243056822E+03    0.39702E-05   -0.96692E-06   405   0.904E-03    0.127E-02
RMM:  11    -0.222243054761E+03    0.20606E-05   -0.37810E-06   343   0.461E-03    0.962E-03
RMM:  12    -0.222243053902E+03    0.85919E-06   -0.96578E-06   396   0.502E-03
  46 F= -.22224305E+03 E0= -.22224414E+03  d E =-.204713E-02
       N       E                     dE             d eps       ncg     rms          rms(c)
DAV:   1    -0.222223975411E+03    0.19079E-01   -0.92378E+00   448   0.519E+00    0.686E-01
RMM:   2    -0.222240635051E+03   -0.16660E-01   -0.17845E-01   534   0.105E+00    0.192E-01
RMM:   3    -0.222244334616E+03   -0.36996E-02   -0.39504E-02   532   0.489E-01    0.202E-01
RMM:   4    -0.222244651118E+03   -0.31650E-03   -0.57596E-03   550   0.200E-01    0.157E-01
RMM:   5    -0.222244525660E+03    0.12546E-03   -0.48680E-04   456   0.495E-02    0.113E-01
RMM:   6    -0.222244494687E+03    0.30973E-04   -0.43123E-04   450   0.354E-02    0.601E-02
RMM:   7    -0.222244508054E+03   -0.13367E-04   -0.16709E-04   562   0.247E-02    0.291E-02
RMM:   8    -0.222244494546E+03    0.13508E-04   -0.58570E-05   371   0.134E-02    0.147E-02
RMM:   9    -0.222244496957E+03   -0.24103E-05   -0.36952E-05   418   0.102E-02    0.111E-02
RMM:  10    -0.222244494820E+03    0.21370E-05   -0.40338E-06   374   0.539E-03    0.770E-03
RMM:  11    -0.222244494088E+03    0.73120E-06   -0.22567E-06   293   0.305E-03
  47 F= -.22224449E+03 E0= -.22224563E+03  d E =-.348731E-02
       N       E                     dE             d eps       ncg     rms          rms(c)
DAV:   1    -0.222244117361E+03    0.37746E-03   -0.61750E-01   464   0.133E+00    0.169E-01
RMM:   2    -0.222245181166E+03   -0.10638E-02   -0.11304E-02   530   0.267E-01    0.448E-02
RMM:   3    -0.222245416576E+03   -0.23541E-03   -0.24434E-03   536   0.123E-01    0.541E-02
RMM:   4    -0.222245440665E+03   -0.24089E-04   -0.37461E-04   547   0.502E-02    0.453E-02
RMM:   5    -0.222245428830E+03    0.11835E-04   -0.27446E-05   435   0.121E-02    0.344E-02
RMM:   6    -0.222245423192E+03    0.56379E-05   -0.39674E-05   377   0.100E-02    0.155E-02
RMM:   7    -0.222245425548E+03   -0.23560E-05   -0.18869E-05   436   0.742E-03    0.783E-03
RMM:   8    -0.222245424805E+03    0.74322E-06   -0.14960E-06   266   0.344E-03
  48 F= -.22224542E+03 E0= -.22224655E+03  d E =-.930716E-03
       N       E                     dE             d eps       ncg     rms          rms(c)
DAV:   1    -0.222235536401E+03    0.98891E-02   -0.55619E+00   448   0.400E+00    0.512E-01
RMM:   2    -0.222245274419E+03   -0.97380E-02   -0.10365E-01   531   0.805E-01    0.136E-01
RMM:   3    -0.222247501972E+03   -0.22276E-02   -0.23405E-02   537   0.378E-01    0.163E-01
RMM:   4    -0.222247703626E+03   -0.20165E-03   -0.32217E-03   545   0.150E-01    0.137E-01
RMM:   5    -0.222247606904E+03    0.96722E-04   -0.26113E-04   468   0.372E-02    0.108E-01
RMM:   6    -0.222247546851E+03    0.60053E-04   -0.29769E-04   419   0.287E-02    0.543E-02
RMM:   7    -0.222247568234E+03   -0.21383E-04   -0.22221E-04   480   0.243E-02    0.236E-02
RMM:   8    -0.222247562185E+03    0.60489E-05   -0.16819E-05   438   0.121E-02    0.181E-02
RMM:   9    -0.222247558847E+03    0.33385E-05   -0.81814E-05   434   0.121E-02    0.105E-02
RMM:  10    -0.222247555396E+03    0.34510E-05   -0.65380E-06   349   0.578E-03    0.540E-03
RMM:  11    -0.222247555071E+03    0.32487E-06   -0.35661E-06   349   0.300E-03
  49 F= -.22224756E+03 E0= -.22224863E+03  d E =-.306098E-02
       N       E                     dE             d eps       ncg     rms          rms(c)
DAV:   1    -0.222203537284E+03    0.44018E-01   -0.22369E+01   464   0.804E+00    0.104E+00
RMM:   2    -0.222240554764E+03   -0.37017E-01   -0.39688E-01   533   0.155E+00    0.301E-01
RMM:   3    -0.222248700985E+03   -0.81462E-02   -0.87052E-02   539   0.704E-01    0.310E-01
RMM:   4    -0.222249403021E+03   -0.70204E-03   -0.11702E-02   550   0.281E-01    0.267E-01
RMM:   5    -0.222249026424E+03    0.37660E-03   -0.83229E-04   475   0.687E-02    0.213E-01
RMM:   6    -0.222248811043E+03    0.21538E-03   -0.90418E-04   421   0.529E-02    0.119E-01
RMM:   7    -0.222248870760E+03   -0.59717E-04   -0.79908E-04   467   0.456E-02    0.450E-02
RMM:   8    -0.222248855145E+03    0.15615E-04   -0.71086E-05   493   0.243E-02    0.336E-02
RMM:   9    -0.222248839970E+03    0.15174E-04   -0.15552E-04   423   0.190E-02    0.163E-02
RMM:  10    -0.222248836358E+03    0.36124E-05   -0.11026E-05   403   0.940E-03    0.994E-03
RMM:  11    -0.222248835104E+03    0.12538E-05   -0.42459E-06   359   0.473E-03    0.594E-03
RMM:  12    -0.222248835476E+03   -0.37188E-06   -0.48241E-06   366   0.385E-03
  50 F= -.22224884E+03 E0= -.22224982E+03  d E =-.434139E-02
       N       E                     dE             d eps       ncg     rms          rms(c)
DAV:   1    -0.222241184658E+03    0.76504E-02   -0.45383E+00   464   0.356E+00    0.444E-01
RMM:   2    -0.222249054173E+03   -0.78695E-02   -0.83695E-02   536   0.713E-01    0.134E-01
RMM:   3    -0.222250769645E+03   -0.17155E-02   -0.18032E-02   539   0.328E-01    0.134E-01
RMM:   4    -0.222250926419E+03   -0.15677E-03   -0.25160E-03   545   0.131E-01    0.114E-01
RMM:   5    -0.222250861947E+03    0.64472E-04   -0.20462E-04   470   0.328E-02    0.926E-02
RMM:   6    -0.222250818541E+03    0.43406E-04   -0.19950E-04   417   0.244E-02    0.502E-02
RMM:   7    -0.222250832791E+03   -0.14250E-04   -0.16372E-04   479   0.210E-02    0.201E-02
RMM:   8    -0.222250827866E+03    0.49252E-05   -0.12945E-05   407   0.104E-02    0.140E-02
RMM:   9    -0.222250826084E+03    0.17814E-05   -0.34079E-05   385   0.861E-03    0.767E-03
RMM:  10    -0.222250825221E+03    0.86351E-06   -0.25291E-06   339   0.447E-03
  51 F= -.22225083E+03 E0= -.22225182E+03  d E =-.198974E-02
       N       E                     dE             d eps       ncg     rms          rms(c)
DAV:   1    -0.222222541191E+03    0.28285E-01   -0.15741E+01   464   0.669E+00    0.834E-01
RMM:   2    -0.222247516483E+03   -0.24975E-01   -0.26736E-01   537   0.127E+00    0.249E-01
RMM:   3    -0.222252962401E+03   -0.54459E-02   -0.57863E-02   545   0.573E-01    0.248E-01
RMM:   4    -0.222253381677E+03   -0.41928E-03   -0.74546E-03   546   0.223E-01    0.213E-01
RMM:   5    -0.222253163872E+03    0.21781E-03   -0.63058E-04   481   0.576E-02    0.175E-01
RMM:   6    -0.222253014574E+03    0.14930E-03   -0.58781E-04   420   0.423E-02    0.994E-02
RMM:   7    -0.222253054647E+03   -0.40073E-04   -0.56269E-04   474   0.377E-02    0.371E-02
RMM:   8    -0.222253044329E+03    0.10318E-04   -0.48986E-05   472   0.196E-02    0.266E-02
RMM:   9    -0.222253032811E+03    0.11517E-04   -0.84159E-05   394   0.142E-02    0.127E-02
RMM:  10    -0.222253032668E+03    0.14307E-06   -0.96080E-06   447   0.761E-03
  52 F= -.22225303E+03 E0= -.22225404E+03  d E =-.419719E-02
       N       E                     dE             d eps       ncg     rms          rms(c)
DAV:   1    -0.222245516074E+03    0.75167E-02   -0.37126E+00   464   0.322E+00    0.402E-01
RMM:   2    -0.222251943454E+03   -0.64274E-02   -0.68283E-02   536   0.644E-01    0.119E-01
RMM:   3    -0.222253364699E+03   -0.14212E-02   -0.14925E-02   538   0.294E-01    0.121E-01
RMM:   4    -0.222253487556E+03   -0.12286E-03   -0.20116E-03   546   0.117E-01    0.103E-01
RMM:   5    -0.222253436637E+03    0.50919E-04   -0.16872E-04   475   0.297E-02    0.848E-02
RMM:   6    -0.222253399330E+03    0.37307E-04   -0.15782E-04   413   0.215E-02    0.458E-02
RMM:   7    -0.222253410867E+03   -0.11537E-04   -0.13745E-04   457   0.191E-02    0.182E-02
RMM:   8    -0.222253407613E+03    0.32546E-05   -0.10934E-05   424   0.983E-03    0.133E-02
RMM:   9    -0.222253404984E+03    0.26281E-05   -0.27845E-05   385   0.791E-03    0.676E-03
RMM:  10    -0.222253404516E+03    0.46815E-06   -0.20862E-06   320   0.414E-03
  53 F= -.22225340E+03 E0= -.22225442E+03  d E =-.456904E-02
       N       E                     dE             d eps       ncg     rms          rms(c)
DAV:   1    -0.222242564360E+03    0.10841E-01   -0.65468E+00   448   0.426E+00    0.552E-01
RMM:   2    -0.222253970207E+03   -0.11406E-01   -0.12187E-01   529   0.859E-01    0.144E-01
RMM:   3    -0.222256657366E+03   -0.26872E-02   -0.28371E-02   548   0.404E-01    0.173E-01
RMM:   4    -0.222256848344E+03   -0.19098E-03   -0.35540E-03   532   0.155E-01    0.138E-01
RMM:   5    -0.222256759042E+03    0.89303E-04   -0.35928E-04   472   0.421E-02    0.107E-01
RMM:   6    -0.222256710164E+03    0.48878E-04   -0.29082E-04   436   0.290E-02    0.575E-02
RMM:   7    -0.222256729811E+03   -0.19647E-04   -0.20785E-04   517   0.240E-02    0.290E-02
RMM:   8    -0.222256722949E+03    0.68618E-05   -0.16985E-05   428   0.108E-02    0.198E-02
RMM:   9    -0.222256718537E+03    0.44120E-05   -0.68218E-05   431   0.115E-02    0.917E-03
RMM:  10    -0.222256716733E+03    0.18036E-05   -0.44912E-06   363   0.543E-03    0.613E-03
RMM:  11    -0.222256716354E+03    0.37897E-06   -0.25478E-06   316   0.294E-03
  54 F= -.22225672E+03 E0= -.22225783E+03  d E =-.331184E-02
       N       E                     dE             d eps       ncg     rms          rms(c)
DAV:   1    -0.222184964269E+03    0.71752E-01   -0.32007E+01   448   0.946E+00    0.125E+00
RMM:   2    -0.222245172168E+03   -0.60208E-01   -0.64431E-01   530   0.193E+00    0.330E-01
RMM:   3    -0.222259577925E+03   -0.14406E-01   -0.15516E-01   548   0.946E-01    0.387E-01
RMM:   4    -0.222260787463E+03   -0.12095E-02   -0.20090E-02   532   0.364E-01    0.314E-01
RMM:   5    -0.222260391324E+03    0.39614E-03   -0.18369E-03   475   0.953E-02    0.251E-01
RMM:   6    -0.222260148189E+03    0.24313E-03   -0.10357E-03   448   0.587E-02    0.161E-01
RMM:   7    -0.222260176245E+03   -0.28056E-04   -0.92482E-04   492   0.509E-02    0.689E-02
RMM:   8    -0.222260174201E+03    0.20444E-05   -0.15018E-04   529   0.270E-02    0.440E-02
RMM:   9    -0.222260138140E+03    0.36060E-04   -0.86620E-05   407   0.179E-02    0.160E-02
RMM:  10    -0.222260142620E+03   -0.44799E-05   -0.55721E-05   466   0.128E-02    0.138E-02
RMM:  11    -0.222260140062E+03    0.25588E-05   -0.77931E-06   363   0.624E-03    0.839E-03
RMM:  12    -0.222260141757E+03   -0.16952E-05   -0.13582E-05   361   0.581E-03    0.600E-03
RMM:  13    -0.222260140354E+03    0.14026E-05   -0.27754E-06   312   0.331E-03    0.161E-03
RMM:  14    -0.222260140401E+03   -0.47072E-07   -0.16181E-06   267   0.216E-03
  55 F= -.22226014E+03 E0= -.22226147E+03  d E =-.673588E-02
       N       E                     dE             d eps       ncg     rms          rms(c)
DAV:   1    -0.222247454152E+03    0.12686E-01   -0.72326E+00   464   0.445E+00    0.576E-01
RMM:   2    -0.222260108458E+03   -0.12654E-01   -0.13531E-01   530   0.898E-01    0.148E-01
RMM:   3    -0.222263052529E+03   -0.29441E-02   -0.31134E-02   547   0.425E-01    0.186E-01
RMM:   4    -0.222263309999E+03   -0.25747E-03   -0.45064E-03   530   0.169E-01    0.144E-01
RMM:   5    -0.222263199009E+03    0.11099E-03   -0.39701E-04   456   0.437E-02    0.104E-01
RMM:   6    -0.222263170527E+03    0.28482E-04   -0.35174E-04   452   0.312E-02    0.563E-02
RMM:   7    -0.222263183737E+03   -0.13210E-04   -0.17200E-04   538   0.230E-02    0.278E-02
RMM:   8    -0.222263174303E+03    0.94337E-05   -0.19839E-05   388   0.977E-03    0.189E-02
RMM:   9    -0.222263172051E+03    0.22519E-05   -0.53662E-05   406   0.103E-02    0.915E-03
RMM:  10    -0.222263171102E+03    0.94888E-06   -0.41824E-06   392   0.558E-03
  56 F= -.22226317E+03 E0= -.22226460E+03  d E =-.303070E-02
       N       E                     dE             d eps       ncg     rms          rms(c)
DAV:   1    -0.222248300460E+03    0.14872E-01   -0.77306E+00   464   0.460E+00    0.598E-01
RMM:   2    -0.222261828630E+03   -0.13528E-01   -0.14476E-01   529   0.928E-01    0.149E-01
RMM:   3    -0.222265035387E+03   -0.32068E-02   -0.33897E-02   548   0.442E-01    0.194E-01
RMM:   4    -0.222265314701E+03   -0.27931E-03   -0.48476E-03   529   0.176E-01    0.150E-01
RMM:   5    -0.222265196294E+03    0.11841E-03   -0.40731E-04   458   0.444E-02    0.110E-01
RMM:   6    -0.222265159349E+03    0.36945E-04   -0.36961E-04   452   0.321E-02    0.597E-02
RMM:   7    -0.222265174576E+03   -0.15227E-04   -0.19941E-04   527   0.244E-02    0.286E-02
RMM:   8    -0.222265165533E+03    0.90426E-05   -0.19469E-05   399   0.106E-02    0.199E-02
RMM:   9    -0.222265161106E+03    0.44269E-05   -0.50103E-05   394   0.103E-02    0.865E-03
RMM:  10    -0.222265161050E+03    0.55952E-07   -0.60348E-06   445   0.585E-03
  57 F= -.22226516E+03 E0= -.22226669E+03  d E =-.502065E-02
       N       E                     dE             d eps       ncg     rms          rms(c)
DAV:   1    -0.222192773166E+03    0.72388E-01   -0.31113E+01   448   0.934E+00    0.124E+00
RMM:   2    -0.222251058006E+03   -0.58285E-01   -0.62341E-01   528   0.189E+00    0.311E-01
RMM:   3    -0.222264792028E+03   -0.13734E-01   -0.14801E-01   548   0.931E-01    0.394E-01
RMM:   4    -0.222266272171E+03   -0.14801E-02   -0.22755E-02   532   0.370E-01    0.316E-01
RMM:   5    -0.222265821966E+03    0.45020E-03   -0.14741E-03   462   0.881E-02    0.245E-01
RMM:   6    -0.222265625581E+03    0.19639E-03   -0.11317E-03   458   0.595E-02    0.155E-01
RMM:   7    -0.222265637548E+03   -0.11967E-04   -0.89068E-04   492   0.489E-02    0.612E-02
RMM:   8    -0.222265635865E+03    0.16837E-05   -0.11365E-04   515   0.259E-02    0.397E-02
RMM:   9    -0.222265605945E+03    0.29920E-04   -0.54395E-05   400   0.144E-02    0.182E-02
RMM:  10    -0.222265608404E+03   -0.24589E-05   -0.61006E-05   443   0.129E-02    0.142E-02
RMM:  11    -0.222265605837E+03    0.25670E-05   -0.76098E-06   369   0.631E-03    0.892E-03
RMM:  12    -0.222265606603E+03   -0.76623E-06   -0.86465E-06   359   0.501E-03
  58 F= -.22226561E+03 E0= -.22226732E+03  d E =-.546620E-02
       N       E                     dE             d eps       ncg     rms          rms(c)
DAV:   1    -0.222258189612E+03    0.74162E-02   -0.49917E+00   480   0.370E+00    0.474E-01
RMM:   2    -0.222264655701E+03   -0.64661E-02   -0.70304E-02   529   0.695E-01    0.119E-01
RMM:   3    -0.222265979879E+03   -0.13242E-02   -0.14275E-02   551   0.310E-01    0.152E-01
RMM:   4    -0.222266081837E+03   -0.10196E-03   -0.23967E-03   529   0.125E-01    0.112E-01
RMM:   5    -0.222266007960E+03    0.73877E-04   -0.24120E-04   449   0.335E-02    0.755E-02
RMM:   6    -0.222265998653E+03    0.93063E-05   -0.26597E-04   452   0.262E-02    0.357E-02
RMM:   7    -0.222266006792E+03   -0.81387E-05   -0.68184E-05   544   0.165E-02    0.213E-02
RMM:   8    -0.222266000965E+03    0.58267E-05   -0.92202E-06   367   0.609E-03    0.152E-02
RMM:   9    -0.222266002479E+03   -0.15134E-05   -0.68419E-05   478   0.102E-02    0.988E-03
RMM:  10    -0.222265998972E+03    0.35069E-05   -0.50585E-06   348   0.446E-03    0.634E-03
RMM:  11    -0.222265998332E+03    0.64035E-06   -0.44560E-06   373   0.292E-03
  59 F= -.22226600E+03 E0= -.22226764E+03  d E =-.585793E-02
       N       E                     dE             d eps       ncg     rms          rms(c)
DAV:   1    -0.222256241116E+03    0.97579E-02   -0.57205E+00   448   0.392E+00    0.486E-01
RMM:   2    -0.222265994216E+03   -0.97531E-02   -0.10381E-01   528   0.783E-01    0.128E-01
RMM:   3    -0.222268277225E+03   -0.22830E-02   -0.23919E-02   556   0.369E-01    0.156E-01
RMM:   4    -0.222268495171E+03   -0.21795E-03   -0.34602E-03   522   0.145E-01    0.129E-01
RMM:   5    -0.222268411666E+03    0.83505E-04   -0.22724E-04   470   0.352E-02    0.102E-01
RMM:   6    -0.222268360744E+03    0.50922E-04   -0.25319E-04   427   0.273E-02    0.547E-02
RMM:   7    -0.222268379943E+03   -0.19199E-04   -0.21945E-04   505   0.235E-02    0.247E-02
RMM:   8    -0.222268374141E+03    0.58019E-05   -0.15720E-05   414   0.108E-02    0.182E-02
RMM:   9    -0.222268371974E+03    0.21669E-05   -0.84206E-05   462   0.122E-02    0.109E-02
RMM:  10    -0.222268368139E+03    0.38350E-05   -0.66524E-06   352   0.570E-03    0.582E-03
RMM:  11    -0.222268367712E+03    0.42699E-06   -0.37356E-06   367   0.299E-03
  60 F= -.22226837E+03 E0= -.22227008E+03  d E =-.236938E-02
       N       E                     dE             d eps       ncg     rms          rms(c)
DAV:   1    -0.222145540943E+03    0.12283E+00   -0.52140E+01   448   0.121E+01    0.157E+00
RMM:   2    -0.222247700959E+03   -0.10216E+00   -0.10861E+00   529   0.245E+00    0.417E-01
RMM:   3    -0.222271556999E+03   -0.23856E-01   -0.25718E-01   554   0.122E+00    0.478E-01
RMM:   4    -0.222274089436E+03   -0.25324E-02   -0.37056E-02   524   0.472E-01    0.408E-01
RMM:   5    -0.222273483440E+03    0.60600E-03   -0.22498E-03   482   0.112E-01    0.346E-01
RMM:   6    -0.222273035621E+03    0.44782E-03   -0.12066E-03   444   0.684E-02    0.243E-01
RMM:   7    -0.222272987359E+03    0.48262E-04   -0.19201E-03   472   0.688E-02    0.855E-02
RMM:   8    -0.222273020971E+03   -0.33612E-04   -0.36520E-04   592   0.392E-02    0.560E-02
RMM:   9    -0.222272957947E+03    0.63023E-04   -0.10968E-04   406   0.206E-02    0.225E-02
RMM:  10    -0.222272962354E+03   -0.44067E-05   -0.13984E-04   435   0.197E-02    0.206E-02
RMM:  11    -0.222272957392E+03    0.49619E-05   -0.15041E-05   392   0.986E-03    0.112E-02
RMM:  12    -0.222272958981E+03   -0.15892E-05   -0.19855E-05   378   0.739E-03    0.793E-03
RMM:  13    -0.222272957625E+03    0.13563E-05   -0.27228E-06   292   0.406E-03    0.225E-03
RMM:  14    -0.222272957531E+03    0.93500E-07   -0.20841E-06   301   0.262E-03
  61 F= -.22227296E+03 E0= -.22227491E+03  d E =-.695920E-02
       N       E                     dE             d eps       ncg     rms          rms(c)
DAV:   1    -0.221635295522E+03    0.63766E+00   -0.21967E+02   448   0.259E+01    0.379E+00
RMM:   2    -0.222151979126E+03   -0.51668E+00   -0.54243E+00   530   0.529E+00    0.834E-01
RMM:   3    -0.222259975599E+03   -0.10800E+00   -0.11589E+00   549   0.278E+00    0.105E+00
RMM:   4    -0.222273417803E+03   -0.13442E-01   -0.18232E-01   525   0.104E+00    0.959E-01
RMM:   5    -0.222271354651E+03    0.20632E-02   -0.11247E-02   489   0.249E-01    0.871E-01
RMM:   6    -0.222270228549E+03    0.11261E-02   -0.29211E-03   523   0.124E-01    0.740E-01
RMM:   7    -0.222269356065E+03    0.87248E-03   -0.28207E-03   452   0.924E-02    0.380E-01
RMM:   8    -0.222269523647E+03   -0.16758E-03   -0.60840E-03   530   0.109E-01    0.158E-01
RMM:   9    -0.222269518447E+03    0.52006E-05   -0.55986E-04   572   0.523E-02    0.148E-01
RMM:  10    -0.222269239111E+03    0.27934E-03   -0.24392E-03   557   0.766E-02    0.187E-01
RMM:  11    -0.222269189286E+03    0.49825E-04   -0.10264E-04   431   0.255E-02    0.792E-02
RMM:  12    -0.222269172334E+03    0.16953E-04   -0.84418E-05   419   0.160E-02    0.191E-02
RMM:  13    -0.222269182397E+03   -0.10063E-04   -0.74697E-05   484   0.138E-02    0.294E-02
RMM:  14    -0.222269175004E+03    0.73926E-05   -0.31086E-05   366   0.945E-03    0.410E-03
RMM:  15    -0.222269175199E+03   -0.19478E-06   -0.46416E-06   401   0.459E-03
  62 F= -.22226918E+03 E0= -.22227162E+03  d E =-.317687E-02
       N       E                     dE             d eps       ncg     rms          rms(c)
DAV:   1    -0.221949622280E+03    0.31955E+00   -0.11928E+02   448   0.188E+01    0.257E+00
RMM:   2    -0.222211918164E+03   -0.26230E+00   -0.27704E+00   530   0.387E+00    0.650E-01
RMM:   3    -0.222269617428E+03   -0.57699E-01   -0.62522E-01   543   0.197E+00    0.749E-01
RMM:   4    -0.222276367008E+03   -0.67496E-02   -0.93271E-02   531   0.757E-01    0.654E-01
RMM:   5    -0.222275020730E+03    0.13463E-02   -0.57959E-03   478   0.182E-01    0.564E-01
RMM:   6    -0.222273992914E+03    0.10278E-02   -0.25398E-03   437   0.103E-01    0.409E-01
RMM:   7    -0.222273794782E+03    0.19813E-03   -0.41442E-03   476   0.103E-01    0.150E-01
RMM:   8    -0.222273886910E+03   -0.92128E-04   -0.97659E-04   594   0.613E-02    0.893E-02
RMM:   9    -0.222273749055E+03    0.13785E-03   -0.25941E-04   419   0.335E-02    0.354E-02
RMM:  10    -0.222273760513E+03   -0.11458E-04   -0.33036E-04   456   0.311E-02    0.348E-02
RMM:  11    -0.222273746469E+03    0.14044E-04   -0.42151E-05   409   0.156E-02    0.148E-02
RMM:  12    -0.222273752002E+03   -0.55329E-05   -0.50076E-05   399   0.114E-02    0.138E-02
RMM:  13    -0.222273747592E+03    0.44100E-05   -0.65213E-06   391   0.646E-03    0.368E-03
RMM:  14    -0.222273747489E+03    0.10311E-06   -0.82829E-06   360   0.410E-03
  63 F= -.22227375E+03 E0= -.22227582E+03  d E =-.774916E-02
       N       E                     dE             d eps       ncg     rms          rms(c)
DAV:   1    -0.222236923748E+03    0.36824E-01   -0.18651E+01   448   0.716E+00    0.934E-01
RMM:   2    -0.222270830138E+03   -0.33906E-01   -0.36159E-01   530   0.144E+00    0.272E-01
RMM:   3    -0.222278702059E+03   -0.78719E-02   -0.84653E-02   547   0.694E-01    0.276E-01
RMM:   4    -0.222279297898E+03   -0.59584E-03   -0.10329E-02   530   0.265E-01    0.227E-01
RMM:   5    -0.222279037039E+03    0.26086E-03   -0.81024E-04   464   0.659E-02    0.174E-01
RMM:   6    -0.222278923945E+03    0.11309E-03   -0.87673E-04   443   0.497E-02    0.876E-02
RMM:   7    -0.222278967924E+03   -0.43978E-04   -0.44033E-04   546   0.369E-02    0.450E-02
RMM:   8    -0.222278951012E+03    0.16911E-04   -0.38081E-05   418   0.152E-02    0.339E-02
RMM:   9    -0.222278953300E+03   -0.22882E-05   -0.19853E-04   481   0.193E-02    0.195E-02
RMM:  10    -0.222278942387E+03    0.10913E-04   -0.18937E-05   358   0.879E-03    0.106E-02
RMM:  11    -0.222278941113E+03    0.12745E-05   -0.25920E-05   405   0.654E-03    0.568E-03
RMM:  12    -0.222278941024E+03    0.88843E-07   -0.21613E-06   312   0.371E-03
  64 F= -.22227894E+03 E0= -.22228092E+03  d E =-.519354E-02
       N       E                     dE             d eps       ncg     rms          rms(c)
DAV:   1    -0.222150740599E+03    0.12820E+00   -0.52810E+01   448   0.121E+01    0.164E+00
RMM:   2    -0.222256961039E+03   -0.10622E+00   -0.11279E+00   532   0.248E+00    0.462E-01
RMM:   3    -0.222280585316E+03   -0.23624E-01   -0.25616E-01   539   0.124E+00    0.470E-01
RMM:   4    -0.222283439695E+03   -0.28544E-02   -0.40542E-02   538   0.498E-01    0.395E-01
RMM:   5    -0.222282792268E+03    0.64743E-03   -0.21885E-03   470   0.111E-01    0.320E-01
RMM:   6    -0.222282416181E+03    0.37609E-03   -0.16582E-03   453   0.756E-02    0.195E-01
RMM:   7    -0.222282464604E+03   -0.48424E-04   -0.14133E-03   489   0.616E-02    0.794E-02
RMM:   8    -0.222282463511E+03    0.10934E-05   -0.20164E-04   538   0.330E-02    0.556E-02
RMM:   9    -0.222282415232E+03    0.48279E-04   -0.12835E-04   413   0.206E-02    0.232E-02
RMM:  10    -0.222282423955E+03   -0.87227E-05   -0.84118E-05   495   0.163E-02    0.189E-02
RMM:  11    -0.222282417105E+03    0.68498E-05   -0.24666E-05   362   0.854E-03    0.932E-03
RMM:  12    -0.222282418906E+03   -0.18010E-05   -0.14662E-05   382   0.682E-03    0.568E-03
RMM:  13    -0.222282417755E+03    0.11510E-05   -0.26752E-06   322   0.386E-03    0.259E-03
RMM:  14    -0.222282417747E+03    0.74906E-08   -0.13810E-06   263   0.228E-03
  65 F= -.22228242E+03 E0= -.22228424E+03  d E =-.867026E-02
       N       E                     dE             d eps       ncg     rms          rms(c)
DAV:   1    -0.222218747919E+03    0.63670E-01   -0.29882E+01   464   0.895E+00    0.113E+00
RMM:   2    -0.222275021710E+03   -0.56274E-01   -0.59665E-01   534   0.182E+00    0.334E-01
RMM:   3    -0.222288271515E+03   -0.13250E-01   -0.14180E-01   541   0.882E-01    0.344E-01
RMM:   4    -0.222289546834E+03   -0.12753E-02   -0.18630E-02   541   0.345E-01    0.293E-01
RMM:   5    -0.222289204513E+03    0.34232E-03   -0.13560E-03   482   0.859E-02    0.244E-01
RMM:   6    -0.222288916275E+03    0.28824E-03   -0.97829E-04   423   0.566E-02    0.146E-01
RMM:   7    -0.222288961706E+03   -0.45432E-04   -0.10287E-03   470   0.508E-02    0.618E-02
RMM:   8    -0.222288959744E+03    0.19619E-05   -0.12736E-04   523   0.269E-02    0.434E-02
RMM:   9    -0.222288930919E+03    0.28825E-04   -0.21153E-04   421   0.224E-02    0.165E-02
RMM:  10    -0.222288928955E+03    0.19636E-05   -0.18511E-05   433   0.115E-02    0.106E-02
RMM:  11    -0.222288927052E+03    0.19036E-05   -0.71729E-06   359   0.575E-03    0.463E-03
RMM:  12    -0.222288927689E+03   -0.63716E-06   -0.40321E-06   361   0.396E-03
  66 F= -.22228893E+03 E0= -.22229042E+03  d E =-.650994E-02
       N       E                     dE             d eps       ncg     rms          rms(c)
DAV:   1    -0.221771149047E+03    0.51778E+00   -0.18011E+02   448   0.226E+01    0.303E+00
RMM:   2    -0.222200255084E+03   -0.42911E+00   -0.44850E+00   536   0.470E+00    0.877E-01
RMM:   3    -0.222288783721E+03   -0.88529E-01   -0.94535E-01   532   0.231E+00    0.837E-01
RMM:   4    -0.222297772621E+03   -0.89889E-02   -0.12573E-01   552   0.874E-01    0.751E-01
RMM:   5    -0.222296212509E+03    0.15601E-02   -0.84072E-03   478   0.214E-01    0.651E-01
RMM:   6    -0.222295046414E+03    0.11661E-02   -0.29635E-03   457   0.116E-01    0.478E-01
RMM:   7    -0.222294726301E+03    0.32011E-03   -0.47594E-03   450   0.110E-01    0.179E-01
RMM:   8    -0.222294912560E+03   -0.18626E-03   -0.16444E-03   590   0.729E-02    0.104E-01
RMM:   9    -0.222294738203E+03    0.17436E-03   -0.28210E-04   415   0.326E-02    0.493E-02
RMM:  10    -0.222294747822E+03   -0.96191E-05   -0.63172E-04   456   0.398E-02    0.510E-02
RMM:  11    -0.222294718147E+03    0.29675E-04   -0.10866E-04   388   0.206E-02    0.144E-02
RMM:  12    -0.222294727745E+03   -0.95980E-05   -0.66545E-05   431   0.135E-02    0.173E-02
RMM:  13    -0.222294719534E+03    0.82107E-05   -0.14884E-05   393   0.856E-03    0.408E-03
RMM:  14    -0.222294719337E+03    0.19698E-06   -0.88631E-06   384   0.476E-03
  67 F= -.22229472E+03 E0= -.22229554E+03  d E =-.123016E-01
[...]
RMM:   4    -0.222763308326E+03   -0.47765E-03   -0.75415E-03   558   0.220E-01    0.137E-01
RMM:   5    -0.222763215703E+03    0.92623E-04   -0.51340E-04   471   0.531E-02    0.978E-02
RMM:   6    -0.222763206695E+03    0.90075E-05   -0.37534E-04   441   0.356E-02    0.350E-02
RMM:   7    -0.222763215186E+03   -0.84912E-05   -0.81270E-05   578   0.211E-02    0.215E-02
RMM:   8    -0.222763209027E+03    0.61590E-05   -0.14652E-05   383   0.810E-03    0.104E-02
RMM:   9    -0.222763210009E+03   -0.98168E-06   -0.14553E-05   429   0.701E-03    0.685E-03
RMM:  10    -0.222763209202E+03    0.80703E-06   -0.25431E-06   294   0.373E-03
  98 F= -.22276321E+03 E0= -.22276626E+03  d E =-.579954E-02
       N       E                     dE             d eps       ncg     rms          rms(c)
DAV:   1    -0.222756322006E+03    0.68880E-02   -0.37456E+00   464   0.351E+00    0.437E-01
RMM:   2    -0.222762879681E+03   -0.65577E-02   -0.70353E-02   547   0.693E-01    0.146E-01
RMM:   3    -0.222764072524E+03   -0.11928E-02   -0.12771E-02   524   0.308E-01    0.109E-01
RMM:   4    -0.222764276958E+03   -0.20443E-03   -0.31994E-03   556   0.142E-01    0.851E-02
RMM:   5    -0.222764242634E+03    0.34324E-04   -0.19493E-04   472   0.327E-02    0.606E-02
RMM:   6    -0.222764240179E+03    0.24551E-05   -0.13820E-04   447   0.224E-02    0.220E-02
RMM:   7    -0.222764243684E+03   -0.35048E-05   -0.32549E-05   550   0.133E-02    0.136E-02
RMM:   8    -0.222764241224E+03    0.24604E-05   -0.65138E-06   362   0.530E-03    0.643E-03
RMM:   9    -0.222764241669E+03   -0.44531E-06   -0.55517E-06   396   0.435E-03
  99 F= -.22276424E+03 E0= -.22276731E+03  d E =-.683201E-02
       N       E                     dE             d eps       ncg     rms          rms(c)
DAV:   1    -0.222746561370E+03    0.17680E-01   -0.99977E+00   448   0.579E+00    0.818E-01
RMM:   2    -0.222765012312E+03   -0.18451E-01   -0.19833E-01   541   0.117E+00    0.226E-01
RMM:   3    -0.222768521736E+03   -0.35094E-02   -0.38553E-02   520   0.533E-01    0.199E-01
RMM:   4    -0.222768990035E+03   -0.46830E-03   -0.82174E-03   559   0.236E-01    0.150E-01
RMM:   5    -0.222768876500E+03    0.11353E-03   -0.58424E-04   468   0.566E-02    0.103E-01
RMM:   6    -0.222768868160E+03    0.83400E-05   -0.39298E-04   456   0.375E-02    0.379E-02
RMM:   7    -0.222768876052E+03   -0.78913E-05   -0.92185E-05   590   0.223E-02    0.236E-02
RMM:   8    -0.222768869081E+03    0.69710E-05   -0.24941E-05   370   0.945E-03    0.963E-03
RMM:   9    -0.222768870321E+03   -0.12399E-05   -0.11729E-05   439   0.696E-03    0.638E-03
RMM:  10    -0.222768869701E+03    0.61985E-06   -0.23872E-06   288   0.332E-03
 100 F= -.22276887E+03 E0= -.22277191E+03  d E =-.462803E-02
       N       E                     dE             d eps       ncg     rms          rms(c)
DAV:   1    -0.222768858351E+03    0.11970E-04   -0.64342E-03   512   0.146E-01    0.202E-02
RMM:   2    -0.222768869613E+03   -0.11262E-04   -0.12416E-04   542   0.287E-02    0.539E-03
RMM:   3    -0.222768871606E+03   -0.19932E-05   -0.20978E-05   458   0.127E-02    0.407E-03
RMM:   4    -0.222768872038E+03   -0.43220E-06   -0.62919E-06   308   0.635E-03
 101 F= -.22276887E+03 E0= -.22277192E+03  d E =-.463037E-02
       N       E                     dE             d eps       ncg     rms          rms(c)
DAV:   1    -0.222756592065E+03    0.12280E-01   -0.68441E+00   448   0.482E+00    0.704E-01
RMM:   2    -0.222769794306E+03   -0.13202E-01   -0.14207E-01   534   0.995E-01    0.184E-01
RMM:   3    -0.222772248298E+03   -0.24540E-02   -0.26995E-02   506   0.454E-01    0.198E-01
RMM:   4    -0.222772617276E+03   -0.36898E-03   -0.62185E-03   579   0.207E-01    0.148E-01
RMM:   5    -0.222772484074E+03    0.13320E-03   -0.37084E-04   445   0.457E-02    0.996E-02
RMM:   6    -0.222772474269E+03    0.98050E-05   -0.54606E-04   438   0.390E-02    0.311E-02
RMM:   7    -0.222772481666E+03   -0.73977E-05   -0.10305E-04   561   0.232E-02    0.235E-02
RMM:   8    -0.222772471662E+03    0.10004E-04   -0.73589E-05   385   0.129E-02    0.123E-02
RMM:   9    -0.222772472731E+03   -0.10687E-05   -0.14121E-05   488   0.872E-03    0.881E-03
RMM:  10    -0.222772470480E+03    0.22508E-05   -0.78011E-06   349   0.455E-03    0.345E-03
RMM:  11    -0.222772470959E+03   -0.47926E-06   -0.33715E-06   365   0.326E-03
 102 F= -.22277247E+03 E0= -.22277538E+03  d E =-.359892E-02
       N       E                     dE             d eps       ncg     rms          rms(c)
DAV:   1    -0.222772289037E+03    0.18144E-03   -0.95945E-02   480   0.573E-01    0.837E-02
RMM:   2    -0.222772474146E+03   -0.18511E-03   -0.19895E-03   535   0.117E-01    0.219E-02
RMM:   3    -0.222772507543E+03   -0.33398E-04   -0.36265E-04   505   0.524E-02    0.234E-02
RMM:   4    -0.222772511914E+03   -0.43707E-05   -0.81295E-05   578   0.239E-02    0.168E-02
RMM:   5    -0.222772510291E+03    0.16234E-05   -0.54316E-06   361   0.537E-03    0.110E-02
RMM:   6    -0.222772510276E+03    0.14894E-07   -0.59268E-06   371   0.420E-03
 103 F= -.22277251E+03 E0= -.22277540E+03  d E =-.363824E-02
       N       E                     dE             d eps       ncg     rms          rms(c)
DAV:   1    -0.222766323318E+03    0.61870E-02   -0.40223E+00   448   0.367E+00    0.490E-01
RMM:   2    -0.222773695204E+03   -0.73719E-02   -0.79276E-02   537   0.740E-01    0.135E-01
RMM:   3    -0.222775149314E+03   -0.14541E-02   -0.15628E-02   519   0.336E-01    0.137E-01
RMM:   4    -0.222775292648E+03   -0.14333E-03   -0.28397E-03   560   0.144E-01    0.102E-01
RMM:   5    -0.222775234205E+03    0.58443E-04   -0.24637E-04   451   0.362E-02    0.648E-02
RMM:   6    -0.222775238673E+03   -0.44673E-05   -0.22884E-04   458   0.262E-02    0.257E-02
RMM:   7    -0.222775240488E+03   -0.18150E-05   -0.37362E-05   536   0.149E-02    0.170E-02
RMM:   8    -0.222775239133E+03    0.13541E-05   -0.52644E-05   365   0.103E-02    0.847E-03
RMM:   9    -0.222775236419E+03    0.27145E-05   -0.62981E-06   355   0.600E-03    0.420E-03
RMM:  10    -0.222775236450E+03   -0.30708E-07   -0.34393E-06   330   0.323E-03
 104 F= -.22277524E+03 E0= -.22277796E+03  d E =-.272617E-02
       N       E                     dE             d eps       ncg     rms          rms(c)
DAV:   1    -0.222772104122E+03    0.31323E-02   -0.15620E+00   464   0.229E+00    0.305E-01
RMM:   2    -0.222774934482E+03   -0.28304E-02   -0.30381E-02   535   0.461E-01    0.777E-02
RMM:   3    -0.222775496404E+03   -0.56192E-03   -0.59843E-03   518   0.210E-01    0.889E-02
RMM:   4    -0.222775563546E+03   -0.67141E-04   -0.11928E-03   560   0.920E-02    0.657E-02
RMM:   5    -0.222775538402E+03    0.25144E-04   -0.91505E-05   445   0.218E-02    0.422E-02
RMM:   6    -0.222775539291E+03   -0.88909E-06   -0.10288E-04   447   0.171E-02    0.152E-02
RMM:   7    -0.222775540611E+03   -0.13197E-05   -0.18591E-05   515   0.100E-02    0.105E-02
RMM:   8    -0.222775539107E+03    0.15037E-05   -0.24465E-05   349   0.684E-03    0.573E-03
RMM:   9    -0.222775538348E+03    0.75849E-06   -0.24079E-06   311   0.410E-03
 105 F= -.22277554E+03 E0= -.22277816E+03  d E =-.302807E-02
       N       E                     dE             d eps       ncg     rms          rms(c)
DAV:   1    -0.222771988532E+03    0.35506E-02   -0.24641E+00   448   0.288E+00    0.379E-01
RMM:   2    -0.222776362553E+03   -0.43740E-02   -0.46797E-02   539   0.573E-01    0.105E-01
RMM:   3    -0.222777200264E+03   -0.83771E-03   -0.89982E-03   518   0.258E-01    0.102E-01
RMM:   4    -0.222777309453E+03   -0.10919E-03   -0.19089E-03   562   0.115E-01    0.763E-02
RMM:   5    -0.222777280001E+03    0.29453E-04   -0.11796E-04   467   0.255E-02    0.541E-02
RMM:   6    -0.222777276036E+03    0.39646E-05   -0.12777E-04   439   0.197E-02    0.164E-02
RMM:   7    -0.222777278162E+03   -0.21261E-05   -0.23655E-05   519   0.115E-02    0.109E-02
RMM:   8    -0.222777276335E+03    0.18268E-05   -0.54274E-06   370   0.483E-03    0.574E-03
RMM:   9    -0.222777276843E+03   -0.50805E-06   -0.40163E-06   372   0.376E-03
 106 F= -.22277728E+03 E0= -.22277996E+03  d E =-.173849E-02
       N       E                     dE             d eps       ncg     rms          rms(c)
DAV:   1    -0.222776047766E+03    0.12286E-02   -0.75925E-01   464   0.159E+00    0.210E-01
RMM:   2    -0.222777389673E+03   -0.13419E-02   -0.14357E-02   539   0.317E-01    0.575E-02
RMM:   3    -0.222777648742E+03   -0.25907E-03   -0.27656E-03   517   0.142E-01    0.562E-02
RMM:   4    -0.222777679377E+03   -0.30635E-04   -0.55828E-04   563   0.630E-02    0.415E-02
RMM:   5    -0.222777670766E+03    0.86111E-05   -0.36637E-05   461   0.141E-02    0.291E-02
RMM:   6    -0.222777670005E+03    0.76033E-06   -0.37458E-05   412   0.107E-02    0.877E-03
RMM:   7    -0.222777670576E+03   -0.57119E-06   -0.69422E-06   437   0.620E-03
 107 F= -.22277767E+03 E0= -.22278039E+03  d E =-.213223E-02
       N       E                     dE             d eps       ncg     rms          rms(c)
DAV:   1    -0.222777331779E+03    0.33823E-03   -0.17671E-01   464   0.767E-01    0.102E-01
RMM:   2    -0.222777648604E+03   -0.31682E-03   -0.33865E-03   538   0.153E-01    0.289E-02
RMM:   3    -0.222777708738E+03   -0.60134E-04   -0.64302E-04   516   0.687E-02    0.287E-02
RMM:   4    -0.222777715912E+03   -0.71740E-05   -0.13491E-04   556   0.308E-02    0.206E-02
RMM:   5    -0.222777713989E+03    0.19224E-05   -0.93745E-06   397   0.708E-03    0.142E-02
RMM:   6    -0.222777713935E+03    0.54439E-07   -0.78124E-06   380   0.507E-03
 108 F= -.22277771E+03 E0= -.22278046E+03  d E =-.217559E-02
       N       E                     dE             d eps       ncg     rms          rms(c)
DAV:   1    -0.222777153183E+03    0.56081E-03   -0.90964E-01   448   0.172E+00    0.244E-01
RMM:   2    -0.222778836277E+03   -0.16831E-02   -0.18110E-02   545   0.351E-01    0.690E-02
RMM:   3    -0.222779133701E+03   -0.29742E-03   -0.32752E-03   493   0.153E-01    0.619E-02
RMM:   4    -0.222779171558E+03   -0.37857E-04   -0.71764E-04   580   0.711E-02    0.442E-02
RMM:   5    -0.222779160774E+03    0.10784E-04   -0.48455E-05   442   0.162E-02    0.275E-02
RMM:   6    -0.222779161543E+03   -0.76866E-06   -0.40207E-05   433   0.118E-02    0.832E-03
RMM:   7    -0.222779161406E+03    0.13611E-06   -0.55537E-06   415   0.654E-03
 109 F= -.22277916E+03 E0= -.22278194E+03  d E =-.144747E-02
       N       E                     dE             d eps       ncg     rms          rms(c)
DAV:   1    -0.222777521762E+03    0.16398E-02   -0.10306E+00   448   0.184E+00    0.261E-01
RMM:   2    -0.222779427686E+03   -0.19059E-02   -0.20437E-02   542   0.377E-01    0.684E-02
RMM:   3    -0.222779769806E+03   -0.34212E-03   -0.37704E-03   493   0.166E-01    0.683E-02
RMM:   4    -0.222779816847E+03   -0.47040E-04   -0.85575E-04   579   0.774E-02    0.485E-02
RMM:   5    -0.222779803165E+03    0.13682E-04   -0.51725E-05   444   0.170E-02    0.309E-02
RMM:   6    -0.222779803227E+03   -0.61540E-07   -0.52309E-05   422   0.131E-02    0.899E-03
RMM:   7    -0.222779803523E+03   -0.29658E-06   -0.88802E-06   472   0.763E-03
 110 F= -.22277980E+03 E0= -.22278263E+03  d E =-.208959E-02
       N       E                     dE             d eps       ncg     rms          rms(c)
DAV:   1    -0.222778646832E+03    0.11564E-02   -0.10769E+00   448   0.186E+00    0.284E-01
RMM:   2    -0.222780656243E+03   -0.20094E-02   -0.21666E-02   530   0.382E-01    0.603E-02
RMM:   3    -0.222781068042E+03   -0.41180E-03   -0.44996E-03   495   0.174E-01    0.837E-02
RMM:   4    -0.222781107368E+03   -0.39326E-04   -0.78788E-04   574   0.748E-02    0.601E-02
RMM:   5    -0.222781087633E+03    0.19734E-04   -0.54373E-05   443   0.169E-02    0.409E-02
RMM:   6    -0.222781083956E+03    0.36775E-05   -0.75753E-05   406   0.143E-02    0.127E-02
RMM:   7    -0.222781085942E+03   -0.19856E-05   -0.20961E-05   492   0.921E-03    0.884E-03
RMM:   8    -0.222781083553E+03    0.23881E-05   -0.10461E-05   347   0.491E-03    0.394E-03
RMM:   9    -0.222781084127E+03   -0.57365E-06   -0.41916E-06   361   0.352E-03
 111 F= -.22278108E+03 E0= -.22278395E+03  d E =-.128060E-02
       N       E                     dE             d eps       ncg     rms          rms(c)
DAV:   1    -0.222780673045E+03    0.41051E-03   -0.28095E-01   464   0.941E-01    0.145E-01
RMM:   2    -0.222781189919E+03   -0.51687E-03   -0.55857E-03   530   0.194E-01    0.298E-02
RMM:   3    -0.222781296549E+03   -0.10663E-03   -0.11621E-03   495   0.880E-02    0.415E-02
RMM:   4    -0.222781306461E+03   -0.99120E-05   -0.20117E-04   572   0.377E-02    0.294E-02
RMM:   5    -0.222781301569E+03    0.48920E-05   -0.14240E-05   416   0.864E-03    0.196E-02
RMM:   6    -0.222781300877E+03    0.69182E-06   -0.18730E-05   372   0.712E-03    0.594E-03
RMM:   7    -0.222781301315E+03   -0.43825E-06   -0.49540E-06   392   0.451E-03
 112 F= -.22278130E+03 E0= -.22278418E+03  d E =-.149779E-02
       N       E                     dE             d eps       ncg     rms          rms(c)
DAV:   1    -0.222779690731E+03    0.16101E-02   -0.11902E+00   448   0.191E+00    0.274E-01
RMM:   2    -0.222781861495E+03   -0.21708E-02   -0.23280E-02   540   0.391E-01    0.777E-02
RMM:   3    -0.222782268133E+03   -0.40664E-03   -0.44403E-03   489   0.171E-01    0.747E-02
RMM:   4    -0.222782308779E+03   -0.40646E-04   -0.81021E-04   585   0.753E-02    0.548E-02
RMM:   5    -0.222782293044E+03    0.15735E-04   -0.56628E-05   431   0.175E-02    0.361E-02
RMM:   6    -0.222782292243E+03    0.80114E-06   -0.65500E-05   404   0.138E-02    0.985E-03
RMM:   7    -0.222782292271E+03   -0.28340E-07   -0.89964E-06   439   0.795E-03
 113 F= -.22278229E+03 E0= -.22278531E+03  d E =-.990956E-03
       N       E                     dE             d eps       ncg     rms          rms(c)
DAV:   1    -0.222781365178E+03    0.92706E-03   -0.49552E-01   464   0.124E+00    0.178E-01
RMM:   2    -0.222782270615E+03   -0.90544E-03   -0.96846E-03   538   0.251E-01    0.482E-02
RMM:   3    -0.222782440245E+03   -0.16963E-03   -0.18549E-03   489   0.111E-01    0.499E-02
RMM:   4    -0.222782458684E+03   -0.18438E-04   -0.35286E-04   585   0.492E-02    0.370E-02
RMM:   5    -0.222782451272E+03    0.74120E-05   -0.22856E-05   413   0.111E-02    0.247E-02
RMM:   6    -0.222782450693E+03    0.57806E-06   -0.32334E-05   379   0.939E-03    0.635E-03
RMM:   7    -0.222782450659E+03    0.34172E-07   -0.42936E-06   385   0.544E-03
 114 F= -.22278245E+03 E0= -.22278556E+03  d E =-.114934E-02
       N       E                     dE             d eps       ncg     rms          rms(c)
DAV:   1    -0.222780060139E+03    0.23906E-02   -0.15219E+00   448   0.209E+00    0.270E-01
RMM:   2    -0.222782587571E+03   -0.25274E-02   -0.26857E-02   541   0.412E-01    0.821E-02
RMM:   3    -0.222783110196E+03   -0.52263E-03   -0.55295E-03   515   0.184E-01    0.700E-02
RMM:   4    -0.222783157387E+03   -0.47191E-04   -0.86910E-04   561   0.772E-02    0.521E-02
RMM:   5    -0.222783145441E+03    0.11946E-04   -0.70848E-05   444   0.195E-02    0.350E-02
RMM:   6    -0.222783145692E+03   -0.25092E-06   -0.52072E-05   419   0.134E-02    0.104E-02
RMM:   7    -0.222783146009E+03   -0.31719E-06   -0.80467E-06   457   0.770E-03
 115 F= -.22278315E+03 E0= -.22278623E+03  d E =-.695350E-03
       N       E                     dE             d eps       ncg     rms          rms(c)
DAV:   1    -0.222782892478E+03    0.25321E-03   -0.14714E-01   480   0.650E-01    0.850E-02
RMM:   2    -0.222783138994E+03   -0.24652E-03   -0.26134E-03   542   0.128E-01    0.263E-02
RMM:   3    -0.222783188388E+03   -0.49394E-04   -0.52002E-04   512   0.568E-02    0.216E-02
RMM:   4    -0.222783193162E+03   -0.47735E-05   -0.87173E-05   560   0.243E-02    0.162E-02
RMM:   5    -0.222783192206E+03    0.95534E-06   -0.71469E-06   376   0.611E-03
 116 F= -.22278319E+03 E0= -.22278626E+03  d E =-.741547E-03
       N       E                     dE             d eps       ncg     rms          rms(c)
DAV:   1    -0.222781003668E+03    0.21895E-02   -0.14891E+00   448   0.201E+00    0.260E-01
RMM:   2    -0.222783449359E+03   -0.24457E-02   -0.26005E-02   538   0.399E-01    0.713E-02
RMM:   3    -0.222783975923E+03   -0.52656E-03   -0.55526E-03   524   0.181E-01    0.690E-02
RMM:   4    -0.222784025539E+03   -0.49615E-04   -0.85862E-04   562   0.749E-02    0.518E-02
RMM:   5    -0.222784012206E+03    0.13333E-04   -0.68693E-05   447   0.186E-02    0.357E-02
RMM:   6    -0.222784010619E+03    0.15872E-05   -0.46243E-05   409   0.125E-02    0.152E-02
RMM:   7    -0.222784011953E+03   -0.13335E-05   -0.13625E-05   507   0.802E-03    0.850E-03
RMM:   8    -0.222784011388E+03    0.56436E-06   -0.77397E-06   349   0.448E-03
 117 F= -.22278401E+03 E0= -.22278704E+03  d E =-.819182E-03
       N       E                     dE             d eps       ncg     rms          rms(c)
DAV:   1    -0.222783850018E+03    0.16193E-03   -0.13155E-01   464   0.597E-01    0.793E-02
RMM:   2    -0.222784064085E+03   -0.21407E-03   -0.22614E-03   533   0.118E-01    0.188E-02
RMM:   3    -0.222784110553E+03   -0.46468E-04   -0.48839E-04   520   0.537E-02    0.210E-02
RMM:   4    -0.222784115165E+03   -0.46125E-05   -0.77840E-05   556   0.224E-02    0.157E-02
RMM:   5    -0.222784113931E+03    0.12344E-05   -0.57097E-06   353   0.539E-03    0.111E-02
RMM:   6    -0.222784113676E+03    0.25499E-06   -0.38114E-06   343   0.369E-03
 118 F= -.22278411E+03 E0= -.22278714E+03  d E =-.921470E-03
       N       E                     dE             d eps       ncg     rms          rms(c)
DAV:   1    -0.222783062938E+03    0.10510E-02   -0.52565E-01   448   0.119E+00    0.155E-01
RMM:   2    -0.222783930022E+03   -0.86708E-03   -0.92210E-03   542   0.236E-01    0.458E-02
RMM:   3    -0.222784107341E+03   -0.17732E-03   -0.18701E-03   520   0.104E-01    0.391E-02
RMM:   4    -0.222784125906E+03   -0.18566E-04   -0.31481E-04   568   0.447E-02    0.300E-02
RMM:   5    -0.222784121715E+03    0.41911E-05   -0.23212E-05   425   0.107E-02    0.211E-02
RMM:   6    -0.222784121241E+03    0.47473E-06   -0.13359E-05   386   0.706E-03    0.977E-03
RMM:   7    -0.222784121740E+03   -0.49939E-06   -0.47469E-06   415   0.462E-03
 119 F= -.22278412E+03 E0= -.22278711E+03  d E =-.929533E-03
       N       E                     dE             d eps       ncg     rms          rms(c)
DAV:   1    -0.222783925898E+03    0.19534E-03   -0.11334E-01   464   0.552E-01    0.717E-02
RMM:   2    -0.222784109882E+03   -0.18398E-03   -0.19630E-03   541   0.109E-01    0.201E-02
RMM:   3    -0.222784148799E+03   -0.38918E-04   -0.41018E-04   521   0.483E-02    0.173E-02
RMM:   4    -0.222784151945E+03   -0.31459E-05   -0.58692E-05   553   0.197E-02    0.131E-02
RMM:   5    -0.222784151020E+03    0.92568E-06   -0.52215E-06   355   0.512E-03
 120 F= -.22278415E+03 E0= -.22278716E+03  d E =-.958813E-03
       N       E                     dE             d eps       ncg     rms          rms(c)
DAV:   1    -0.222781660387E+03    0.24916E-02   -0.15755E+00   448   0.201E+00    0.258E-01
RMM:   2    -0.222784180503E+03   -0.25201E-02   -0.26782E-02   536   0.397E-01    0.695E-02
RMM:   3    -0.222784740865E+03   -0.56036E-03   -0.58874E-03   528   0.180E-01    0.677E-02
RMM:   4    -0.222784791189E+03   -0.50324E-04   -0.84130E-04   555   0.732E-02    0.530E-02
RMM:   5    -0.222784777390E+03    0.13799E-04   -0.65585E-05   447   0.180E-02    0.388E-02
RMM:   6    -0.222784773730E+03    0.36599E-05   -0.66814E-05   414   0.138E-02    0.121E-02
RMM:   7    -0.222784775163E+03   -0.14330E-05   -0.13878E-05   498   0.828E-03    0.769E-03
RMM:   8    -0.222784774130E+03    0.10330E-05   -0.22557E-06   284   0.316E-03    0.472E-03
RMM:   9    -0.222784774522E+03   -0.39234E-06   -0.39012E-06   339   0.308E-03
 121 F= -.22278477E+03 E0= -.22278780E+03  d E =-.623503E-03
