
3810 atoms
5162 bonds
10303 angles
24762 dihedrals
0 impropers

6 atom types
5162 bond types
10303 angle types
24762 dihedral types

 -1.260000  152.8540000 xlo xhi
 -1.160000  51.8410000 ylo yhi
-27.1700000  3.8300000 zlo zhi
  

Masses

1  12.0100000
2  12.0100000
3  16.0000000
4  16.0000000
5   1.0080000
6  16.0000000

Bond Coeffs

1 harmonic    3.22550000e+02    1.39800000e+00
2 harmonic    3.22550000e+02    1.39800000e+00
3 harmonic    3.22550000e+02    1.39800000e+00
4 harmonic    3.22550000e+02    1.39800000e+00
5 harmonic    3.22550000e+02    1.39800000e+00
6 harmonic    3.22550000e+02    1.39800000e+00
7 harmonic    3.22550000e+02    1.39800000e+00
8 harmonic    3.22550000e+02    1.39800000e+00
9 harmonic    3.22550000e+02    1.39800000e+00
10 harmonic    3.22550000e+02    1.39800000e+00
11 harmonic    3.22550000e+02    1.39800000e+00
12 harmonic    3.22550000e+02    1.39800000e+00
13 harmonic    3.22550000e+02    1.39800000e+00
14 harmonic    3.22550000e+02    1.39800000e+00
15 harmonic    3.22550000e+02    1.39800000e+00
16 harmonic    3.22550000e+02    1.39800000e+00
17 harmonic    3.22550000e+02    1.39800000e+00
18 harmonic    3.22550000e+02    1.39800000e+00
19 harmonic    3.22550000e+02    1.39800000e+00
20 harmonic    3.22550000e+02    1.39800000e+00
21 harmonic    3.22550000e+02    1.39800000e+00
22 harmonic    3.22550000e+02    1.39800000e+00
23 harmonic    3.22550000e+02    1.39800000e+00
24 harmonic    3.22550000e+02    1.39800000e+00
25 harmonic    3.22550000e+02    1.39800000e+00
26 harmonic    3.22550000e+02    1.39800000e+00
27 harmonic    3.22550000e+02    1.39800000e+00
28 harmonic    3.22550000e+02    1.39800000e+00
29 harmonic    3.22550000e+02    1.39800000e+00
30 harmonic    3.22550000e+02    1.39800000e+00
31 harmonic    3.22550000e+02    1.39800000e+00
32 harmonic    3.22550000e+02    1.39800000e+00
33 harmonic    3.22550000e+02    1.39800000e+00
34 harmonic    3.22550000e+02    1.39800000e+00
35 harmonic    3.22550000e+02    1.39800000e+00
36 harmonic    3.22550000e+02    1.39800000e+00
37 harmonic    3.22550000e+02    1.39800000e+00
38 harmonic    3.22550000e+02    1.39800000e+00
39 harmonic    3.22550000e+02    1.39800000e+00
40 harmonic    3.22550000e+02    1.39800000e+00
41 harmonic    3.22550000e+02    1.39800000e+00
42 harmonic    3.22550000e+02    1.39800000e+00
43 harmonic    3.22550000e+02    1.39800000e+00
44 harmonic    3.22550000e+02    1.39800000e+00
45 harmonic    3.22550000e+02    1.39800000e+00
46 harmonic    3.22550000e+02    1.39800000e+00
47 harmonic    3.22550000e+02    1.39800000e+00
48 harmonic    3.22550000e+02    1.39800000e+00
49 harmonic    3.22550000e+02    1.39800000e+00
50 harmonic    3.22550000e+02    1.39800000e+00
51 harmonic    3.22550000e+02    1.39800000e+00
52 harmonic    3.22550000e+02    1.39800000e+00
53 harmonic    3.22550000e+02    1.39800000e+00
54 harmonic    3.22550000e+02    1.39800000e+00
55 harmonic    3.22550000e+02    1.39800000e+00
56 harmonic    3.22550000e+02    1.39800000e+00
57 harmonic    3.22550000e+02    1.39800000e+00
58 harmonic    3.22550000e+02    1.39800000e+00
59 harmonic    3.22550000e+02    1.39800000e+00
60 harmonic    3.22550000e+02    1.39800000e+00
61 harmonic    3.22550000e+02    1.39800000e+00
62 harmonic    3.22550000e+02    1.39800000e+00
63 harmonic    3.22550000e+02    1.39800000e+00
64 harmonic    3.22550000e+02    1.39800000e+00
65 harmonic    3.22550000e+02    1.39800000e+00
66 harmonic    3.22550000e+02    1.39800000e+00
67 harmonic    3.22550000e+02    1.39800000e+00
68 harmonic    3.22550000e+02    1.39800000e+00
69 harmonic    3.22550000e+02    1.39800000e+00
70 harmonic    3.22550000e+02    1.39800000e+00
71 harmonic    3.22550000e+02    1.39800000e+00
72 harmonic    3.22550000e+02    1.39800000e+00
73 harmonic    3.22550000e+02    1.39800000e+00
74 harmonic    3.22550000e+02    1.39800000e+00
75 harmonic    3.22550000e+02    1.39800000e+00
76 harmonic    3.22550000e+02    1.39800000e+00
77 harmonic    3.22550000e+02    1.39800000e+00
78 harmonic    3.22550000e+02    1.39800000e+00
79 harmonic    3.22550000e+02    1.39800000e+00
80 harmonic    3.22550000e+02    1.39800000e+00
81 harmonic    3.22550000e+02    1.39800000e+00
82 harmonic    3.22550000e+02    1.39800000e+00
83 harmonic    3.22550000e+02    1.39800000e+00
84 harmonic    3.22550000e+02    1.39800000e+00
85 harmonic    3.22550000e+02    1.39800000e+00
86 harmonic    3.22550000e+02    1.39800000e+00
87 harmonic    3.22550000e+02    1.39800000e+00
88 harmonic    3.22550000e+02    1.39800000e+00
89 harmonic    3.22550000e+02    1.39800000e+00
90 harmonic    3.22550000e+02    1.39800000e+00
91 harmonic    3.22550000e+02    1.39800000e+00
92 harmonic    3.22550000e+02    1.39800000e+00
93 harmonic    3.22550000e+02    1.39800000e+00
94 harmonic    3.22550000e+02    1.39800000e+00
95 harmonic    3.22550000e+02    1.39800000e+00
96 harmonic    3.22550000e+02    1.39800000e+00
97 harmonic    3.22550000e+02    1.39800000e+00
98 harmonic    3.22550000e+02    1.39800000e+00
99 harmonic    3.22550000e+02    1.39800000e+00
100 harmonic    3.22550000e+02    1.39800000e+00
101 harmonic    3.22550000e+02    1.39800000e+00
102 harmonic    3.22550000e+02    1.39800000e+00
103 harmonic    3.22550000e+02    1.39800000e+00
104 harmonic    3.22550000e+02    1.39800000e+00
105 harmonic    3.22550000e+02    1.39800000e+00
106 harmonic    3.22550000e+02    1.39800000e+00
107 harmonic    3.22550000e+02    1.39800000e+00
108 harmonic    3.22550000e+02    1.39800000e+00
109 harmonic    3.22550000e+02    1.39800000e+00
110 harmonic    3.22550000e+02    1.39800000e+00
111 harmonic    3.22550000e+02    1.39800000e+00
112 harmonic    3.22550000e+02    1.39800000e+00
113 harmonic    3.22550000e+02    1.39800000e+00
114 harmonic    3.22550000e+02    1.39800000e+00
115 harmonic    3.22550000e+02    1.39800000e+00
116 harmonic    3.22550000e+02    1.39800000e+00
117 harmonic    3.22550000e+02    1.39800000e+00
118 harmonic    3.22550000e+02    1.39800000e+00
119 harmonic    3.22550000e+02    1.39800000e+00
120 harmonic    3.22550000e+02    1.39800000e+00
121 harmonic    3.22550000e+02    1.39800000e+00
122 harmonic    3.22550000e+02    1.39800000e+00
123 harmonic    3.22550000e+02    1.39800000e+00
124 harmonic    3.22550000e+02    1.39800000e+00
125 harmonic    3.22550000e+02    1.39800000e+00
126 harmonic    3.22550000e+02    1.39800000e+00
127 harmonic    3.22550000e+02    1.39800000e+00
128 harmonic    3.22550000e+02    1.39800000e+00
129 harmonic    3.22550000e+02    1.39800000e+00
130 harmonic    3.22550000e+02    1.39800000e+00
131 harmonic    3.22550000e+02    1.39800000e+00
132 harmonic    3.22550000e+02    1.39800000e+00
133 harmonic    3.22550000e+02    1.39800000e+00
134 harmonic    3.22550000e+02    1.39800000e+00
135 harmonic    3.22550000e+02    1.39800000e+00
136 harmonic    3.22550000e+02    1.39800000e+00
137 harmonic    3.22550000e+02    1.39800000e+00
138 harmonic    3.22550000e+02    1.39800000e+00
139 harmonic    3.22550000e+02    1.39800000e+00
140 harmonic    3.22550000e+02    1.39800000e+00
141 harmonic    3.22550000e+02    1.39800000e+00
142 harmonic    3.22550000e+02    1.39800000e+00
143 harmonic    3.22550000e+02    1.39800000e+00
144 harmonic    3.22550000e+02    1.39800000e+00
145 harmonic    3.22550000e+02    1.39800000e+00
146 harmonic    3.22550000e+02    1.39800000e+00
147 harmonic    3.22550000e+02    1.39800000e+00
148 harmonic    3.22550000e+02    1.39800000e+00
149 harmonic    3.22550000e+02    1.39800000e+00
150 harmonic    3.22550000e+02    1.39800000e+00
151 harmonic    3.22550000e+02    1.39800000e+00
152 harmonic    3.22550000e+02    1.39800000e+00
153 harmonic    3.22550000e+02    1.39800000e+00
154 harmonic    3.22550000e+02    1.39800000e+00
155 harmonic    3.22550000e+02    1.39800000e+00
156 harmonic    3.22550000e+02    1.39800000e+00
157 harmonic    3.22550000e+02    1.39800000e+00
158 harmonic    3.22550000e+02    1.39800000e+00
159 harmonic    3.22550000e+02    1.39800000e+00
160 harmonic    3.22550000e+02    1.39800000e+00
161 harmonic    3.22550000e+02    1.39800000e+00
162 harmonic    3.22550000e+02    1.39800000e+00
163 harmonic    3.22550000e+02    1.39800000e+00
164 harmonic    3.22550000e+02    1.39800000e+00
165 harmonic    3.22550000e+02    1.39800000e+00
166 harmonic    3.22550000e+02    1.39800000e+00
167 harmonic    3.22550000e+02    1.39800000e+00
168 harmonic    3.22550000e+02    1.39800000e+00
169 harmonic    3.22550000e+02    1.39800000e+00
170 harmonic    3.22550000e+02    1.39800000e+00
171 harmonic    3.22550000e+02    1.39800000e+00
172 harmonic    3.22550000e+02    1.39800000e+00
173 harmonic    3.22550000e+02    1.39800000e+00
174 harmonic    3.22550000e+02    1.39800000e+00
175 harmonic    3.22550000e+02    1.39800000e+00
176 harmonic    3.22550000e+02    1.39800000e+00
177 harmonic    3.22550000e+02    1.39800000e+00
178 harmonic    3.22550000e+02    1.39800000e+00
179 harmonic    3.22550000e+02    1.39800000e+00
180 harmonic    3.22550000e+02    1.39800000e+00
181 harmonic    3.22550000e+02    1.39800000e+00
182 harmonic    3.22550000e+02    1.39800000e+00
183 harmonic    3.22550000e+02    1.39800000e+00
184 harmonic    3.22550000e+02    1.39800000e+00
185 harmonic    3.22550000e+02    1.39800000e+00
186 harmonic    3.22550000e+02    1.39800000e+00
187 harmonic    3.22550000e+02    1.39800000e+00
188 harmonic    3.22550000e+02    1.39800000e+00
189 harmonic    3.22550000e+02    1.39800000e+00
190 harmonic    3.22550000e+02    1.39800000e+00
191 harmonic    3.22550000e+02    1.39800000e+00
192 harmonic    3.22550000e+02    1.39800000e+00
193 harmonic    3.22550000e+02    1.39800000e+00
194 harmonic    3.22550000e+02    1.39800000e+00
195 harmonic    3.22550000e+02    1.39800000e+00
196 harmonic    3.22550000e+02    1.39800000e+00
197 harmonic    3.22550000e+02    1.39800000e+00
198 harmonic    3.22550000e+02    1.39800000e+00
199 harmonic    3.22550000e+02    1.39800000e+00
200 harmonic    3.22550000e+02    1.39800000e+00
201 harmonic    3.22550000e+02    1.39800000e+00
202 harmonic    3.22550000e+02    1.39800000e+00
203 harmonic    3.22550000e+02    1.39800000e+00
204 harmonic    3.22550000e+02    1.39800000e+00
205 harmonic    3.22550000e+02    1.39800000e+00
206 harmonic    3.22550000e+02    1.39800000e+00
207 harmonic    3.22550000e+02    1.39800000e+00
208 harmonic    3.22550000e+02    1.39800000e+00
209 harmonic    3.22550000e+02    1.39800000e+00
210 harmonic    3.22550000e+02    1.39800000e+00
211 harmonic    3.22550000e+02    1.39800000e+00
212 harmonic    3.22550000e+02    1.39800000e+00
213 harmonic    3.22550000e+02    1.39800000e+00
214 harmonic    3.22550000e+02    1.39800000e+00
215 harmonic    3.22550000e+02    1.39800000e+00
216 harmonic    3.22550000e+02    1.39800000e+00
217 harmonic    3.22550000e+02    1.39800000e+00
218 harmonic    3.22550000e+02    1.39800000e+00
219 harmonic    3.22550000e+02    1.39800000e+00
220 harmonic    3.22550000e+02    1.39800000e+00
221 harmonic    3.22550000e+02    1.39800000e+00
222 harmonic    3.22550000e+02    1.39800000e+00
223 harmonic    3.22550000e+02    1.39800000e+00
224 harmonic    3.22550000e+02    1.39800000e+00
225 harmonic    3.22550000e+02    1.39800000e+00
226 harmonic    3.22550000e+02    1.39800000e+00
227 harmonic    3.22550000e+02    1.39800000e+00
228 harmonic    3.22550000e+02    1.39800000e+00
229 harmonic    3.22550000e+02    1.39800000e+00
230 harmonic    3.22550000e+02    1.39800000e+00
231 harmonic    3.22550000e+02    1.39800000e+00
232 harmonic    3.22550000e+02    1.39800000e+00
233 harmonic    3.22550000e+02    1.39800000e+00
234 harmonic    3.22550000e+02    1.39800000e+00
235 harmonic    3.22550000e+02    1.39800000e+00
236 harmonic    3.22550000e+02    1.39800000e+00
237 harmonic    3.22550000e+02    1.39800000e+00
238 harmonic    3.22550000e+02    1.39800000e+00
239 harmonic    3.22550000e+02    1.39800000e+00
240 harmonic    3.22550000e+02    1.39800000e+00
241 harmonic    3.22550000e+02    1.39800000e+00
242 harmonic    3.22550000e+02    1.39800000e+00
243 harmonic    3.22550000e+02    1.39800000e+00
244 harmonic    3.22550000e+02    1.39800000e+00
245 harmonic    3.22550000e+02    1.39800000e+00
246 harmonic    3.22550000e+02    1.39800000e+00
247 harmonic    3.22550000e+02    1.39800000e+00
248 harmonic    3.22550000e+02    1.39800000e+00
249 harmonic    3.22550000e+02    1.39800000e+00
250 harmonic    3.22550000e+02    1.39800000e+00
251 harmonic    3.22550000e+02    1.39800000e+00
252 harmonic    3.22550000e+02    1.39800000e+00
253 harmonic    3.22550000e+02    1.39800000e+00
254 harmonic    3.22550000e+02    1.39800000e+00
255 harmonic    3.22550000e+02    1.39800000e+00
256 harmonic    3.22550000e+02    1.39800000e+00
257 harmonic    3.22550000e+02    1.39800000e+00
258 harmonic    3.22550000e+02    1.39800000e+00
259 harmonic    3.22550000e+02    1.39800000e+00
260 harmonic    3.22550000e+02    1.39800000e+00
261 harmonic    3.22550000e+02    1.39800000e+00
262 harmonic    3.22550000e+02    1.39800000e+00
263 harmonic    3.22550000e+02    1.39800000e+00
264 harmonic    3.22550000e+02    1.39800000e+00
265 harmonic    3.22550000e+02    1.39800000e+00
266 harmonic    3.22550000e+02    1.39800000e+00
267 harmonic    3.22550000e+02    1.39800000e+00
268 harmonic    3.22550000e+02    1.39800000e+00
269 harmonic    3.22550000e+02    1.39800000e+00
270 harmonic    3.22550000e+02    1.39800000e+00
271 harmonic    3.22550000e+02    1.39800000e+00
272 harmonic    3.22550000e+02    1.39800000e+00
273 harmonic    3.22550000e+02    1.39800000e+00
274 harmonic    3.22550000e+02    1.39800000e+00
275 harmonic    3.22550000e+02    1.39800000e+00
276 harmonic    3.22550000e+02    1.39800000e+00
277 harmonic    3.22550000e+02    1.39800000e+00
278 harmonic    3.22550000e+02    1.39800000e+00
279 harmonic    3.22550000e+02    1.39800000e+00
280 harmonic    3.22550000e+02    1.39800000e+00
281 harmonic    3.22550000e+02    1.39800000e+00
282 harmonic    3.22550000e+02    1.39800000e+00
283 harmonic    3.22550000e+02    1.39800000e+00
284 harmonic    3.22550000e+02    1.39800000e+00
285 harmonic    3.22550000e+02    1.39800000e+00
286 harmonic    3.22550000e+02    1.39800000e+00
287 harmonic    3.22550000e+02    1.39800000e+00
288 harmonic    3.22550000e+02    1.39800000e+00
289 harmonic    3.22550000e+02    1.39800000e+00
290 harmonic    3.22550000e+02    1.39800000e+00
291 harmonic    3.22550000e+02    1.39800000e+00
292 harmonic    3.22550000e+02    1.39800000e+00
293 harmonic    3.22550000e+02    1.39800000e+00
294 harmonic    3.22550000e+02    1.39800000e+00
295 harmonic    3.22550000e+02    1.39800000e+00
296 harmonic    3.22550000e+02    1.39800000e+00
297 harmonic    3.22550000e+02    1.39800000e+00
298 harmonic    3.22550000e+02    1.39800000e+00
299 harmonic    3.22550000e+02    1.39800000e+00
300 harmonic    3.22550000e+02    1.39800000e+00
301 harmonic    3.22550000e+02    1.39800000e+00
302 harmonic    3.22550000e+02    1.39800000e+00
303 harmonic    3.22550000e+02    1.39800000e+00
304 harmonic    3.22550000e+02    1.39800000e+00
305 harmonic    3.22550000e+02    1.39800000e+00
306 harmonic    3.22550000e+02    1.39800000e+00
307 harmonic    3.22550000e+02    1.39800000e+00
308 harmonic    3.22550000e+02    1.39800000e+00
309 harmonic    3.22550000e+02    1.39800000e+00
310 harmonic    3.22550000e+02    1.39800000e+00
311 harmonic    3.22550000e+02    1.39800000e+00
312 harmonic    3.22550000e+02    1.39800000e+00
313 harmonic    3.22550000e+02    1.39800000e+00
314 harmonic    3.22550000e+02    1.39800000e+00
315 harmonic    3.22550000e+02    1.39800000e+00
316 harmonic    3.22550000e+02    1.39800000e+00
317 harmonic    3.22550000e+02    1.39800000e+00
318 harmonic    3.22550000e+02    1.39800000e+00
319 harmonic    3.22550000e+02    1.39800000e+00
320 harmonic    3.22550000e+02    1.39800000e+00
321 harmonic    3.22550000e+02    1.39800000e+00
322 harmonic    3.22550000e+02    1.39800000e+00
323 harmonic    3.22550000e+02    1.39800000e+00
324 harmonic    3.22550000e+02    1.39800000e+00
325 harmonic    3.22550000e+02    1.39800000e+00
326 harmonic    3.22550000e+02    1.39800000e+00
327 harmonic    3.22550000e+02    1.39800000e+00
328 harmonic    3.22550000e+02    1.39800000e+00
329 harmonic    3.22550000e+02    1.39800000e+00
330 harmonic    3.22550000e+02    1.39800000e+00
331 harmonic    3.22550000e+02    1.39800000e+00
332 harmonic    3.22550000e+02    1.39800000e+00
333 harmonic    3.22550000e+02    1.39800000e+00
334 harmonic    3.22550000e+02    1.39800000e+00
335 harmonic    3.22550000e+02    1.39800000e+00
336 harmonic    3.22550000e+02    1.39800000e+00
337 harmonic    3.22550000e+02    1.39800000e+00
338 harmonic    3.22550000e+02    1.39800000e+00
339 harmonic    3.22550000e+02    1.39800000e+00
340 harmonic    3.22550000e+02    1.39800000e+00
341 harmonic    3.22550000e+02    1.39800000e+00
342 harmonic    3.22550000e+02    1.39800000e+00
343 harmonic    3.22550000e+02    1.39800000e+00
344 harmonic    3.22550000e+02    1.39800000e+00
345 harmonic    3.22550000e+02    1.39800000e+00
346 harmonic    3.22550000e+02    1.39800000e+00
347 harmonic    3.22550000e+02    1.39800000e+00
348 harmonic    3.22550000e+02    1.39800000e+00
349 harmonic    3.22550000e+02    1.39800000e+00
350 harmonic    3.22550000e+02    1.39800000e+00
351 harmonic    3.22550000e+02    1.39800000e+00
352 harmonic    3.22550000e+02    1.39800000e+00
353 harmonic    3.22550000e+02    1.39800000e+00
354 harmonic    3.22550000e+02    1.39800000e+00
355 harmonic    3.22550000e+02    1.39800000e+00
356 harmonic    3.22550000e+02    1.39800000e+00
357 harmonic    3.22550000e+02    1.39800000e+00
358 harmonic    3.22550000e+02    1.39800000e+00
359 harmonic    3.22550000e+02    1.39800000e+00
360 harmonic    3.22550000e+02    1.39800000e+00
361 harmonic    3.22550000e+02    1.39800000e+00
362 harmonic    3.22550000e+02    1.39800000e+00
363 harmonic    3.22550000e+02    1.39800000e+00
364 harmonic    3.22550000e+02    1.39800000e+00
365 harmonic    3.22550000e+02    1.39800000e+00
366 harmonic    3.22550000e+02    1.39800000e+00
367 harmonic    3.22550000e+02    1.39800000e+00
368 harmonic    3.22550000e+02    1.39800000e+00
369 harmonic    3.22550000e+02    1.39800000e+00
370 harmonic    3.22550000e+02    1.39800000e+00
371 harmonic    3.22550000e+02    1.39800000e+00
372 harmonic    3.22550000e+02    1.39800000e+00
373 harmonic    3.22550000e+02    1.39800000e+00
374 harmonic    3.22550000e+02    1.39800000e+00
375 harmonic    3.22550000e+02    1.39800000e+00
376 harmonic    3.22550000e+02    1.39800000e+00
377 harmonic    3.22550000e+02    1.39800000e+00
378 harmonic    3.22550000e+02    1.39800000e+00
379 harmonic    3.22550000e+02    1.39800000e+00
380 harmonic    3.22550000e+02    1.39800000e+00
381 harmonic    3.22550000e+02    1.39800000e+00
382 harmonic    3.22550000e+02    1.39800000e+00
383 harmonic    3.22550000e+02    1.39800000e+00
384 harmonic    3.22550000e+02    1.39800000e+00
385 harmonic    3.22550000e+02    1.39800000e+00
386 harmonic    3.22550000e+02    1.39800000e+00
387 harmonic    3.22550000e+02    1.39800000e+00
388 harmonic    3.22550000e+02    1.39800000e+00
389 harmonic    3.22550000e+02    1.39800000e+00
390 harmonic    3.22550000e+02    1.39800000e+00
391 harmonic    3.22550000e+02    1.39800000e+00
392 harmonic    3.22550000e+02    1.39800000e+00
393 harmonic    3.22550000e+02    1.39800000e+00
394 harmonic    3.22550000e+02    1.39800000e+00
395 harmonic    3.22550000e+02    1.39800000e+00
396 harmonic    3.22550000e+02    1.39800000e+00
397 harmonic    3.22550000e+02    1.39800000e+00
398 harmonic    3.22550000e+02    1.39800000e+00
399 harmonic    3.22550000e+02    1.39800000e+00
400 harmonic    3.22550000e+02    1.39800000e+00
401 harmonic    3.22550000e+02    1.39800000e+00
402 harmonic    3.22550000e+02    1.39800000e+00
403 harmonic    3.22550000e+02    1.39800000e+00
404 harmonic    3.22550000e+02    1.39800000e+00
405 harmonic    3.22550000e+02    1.39800000e+00
406 harmonic    3.22550000e+02    1.39800000e+00
407 harmonic    3.22550000e+02    1.39800000e+00
408 harmonic    3.22550000e+02    1.39800000e+00
409 harmonic    3.22550000e+02    1.39800000e+00
410 harmonic    3.22550000e+02    1.39800000e+00
411 harmonic    3.22550000e+02    1.39800000e+00
412 harmonic    3.22550000e+02    1.39800000e+00
413 harmonic    3.22550000e+02    1.39800000e+00
414 harmonic    3.22550000e+02    1.39800000e+00
415 harmonic    3.22550000e+02    1.39800000e+00
416 harmonic    3.22550000e+02    1.39800000e+00
417 harmonic    3.22550000e+02    1.39800000e+00
418 harmonic    3.22550000e+02    1.39800000e+00
419 harmonic    3.22550000e+02    1.39800000e+00
420 harmonic    3.22550000e+02    1.39800000e+00
421 harmonic    3.22550000e+02    1.39800000e+00
422 harmonic    3.22550000e+02    1.39800000e+00
423 harmonic    3.22550000e+02    1.39800000e+00
424 harmonic    3.22550000e+02    1.39800000e+00
425 harmonic    3.22550000e+02    1.39800000e+00
426 harmonic    3.22550000e+02    1.39800000e+00
427 harmonic    3.22550000e+02    1.39800000e+00
428 harmonic    3.22550000e+02    1.39800000e+00
429 harmonic    3.22550000e+02    1.39800000e+00
430 harmonic    3.22550000e+02    1.39800000e+00
431 harmonic    3.22550000e+02    1.39800000e+00
432 harmonic    3.22550000e+02    1.39800000e+00
433 harmonic    3.22550000e+02    1.39800000e+00
434 harmonic    3.22550000e+02    1.39800000e+00
435 harmonic    3.22550000e+02    1.39800000e+00
436 harmonic    3.22550000e+02    1.39800000e+00
437 harmonic    3.22550000e+02    1.39800000e+00
438 harmonic    3.22550000e+02    1.39800000e+00
439 harmonic    3.22550000e+02    1.39800000e+00
440 harmonic    3.22550000e+02    1.39800000e+00
441 harmonic    3.22550000e+02    1.39800000e+00
442 harmonic    3.22550000e+02    1.39800000e+00
443 harmonic    3.22550000e+02    1.39800000e+00
444 harmonic    3.22550000e+02    1.39800000e+00
445 harmonic    3.22550000e+02    1.39800000e+00
446 harmonic    3.22550000e+02    1.39800000e+00
447 harmonic    3.22550000e+02    1.39800000e+00
448 harmonic    3.22550000e+02    1.39800000e+00
449 harmonic    3.22550000e+02    1.39800000e+00
450 harmonic    3.22550000e+02    1.39800000e+00
451 harmonic    3.22550000e+02    1.39800000e+00
452 harmonic    3.22550000e+02    1.39800000e+00
453 harmonic    3.22550000e+02    1.39800000e+00
454 harmonic    3.22550000e+02    1.39800000e+00
455 harmonic    3.22550000e+02    1.39800000e+00
456 harmonic    3.22550000e+02    1.39800000e+00
457 harmonic    3.22550000e+02    1.39800000e+00
458 harmonic    3.22550000e+02    1.39800000e+00
459 harmonic    3.22550000e+02    1.39800000e+00
460 harmonic    3.22550000e+02    1.39800000e+00
461 harmonic    3.22550000e+02    1.39800000e+00
462 harmonic    3.22550000e+02    1.39800000e+00
463 harmonic    3.22550000e+02    1.39800000e+00
464 harmonic    3.22550000e+02    1.39800000e+00
465 harmonic    3.22550000e+02    1.39800000e+00
466 harmonic    3.22550000e+02    1.39800000e+00
467 harmonic    3.22550000e+02    1.39800000e+00
468 harmonic    3.22550000e+02    1.39800000e+00
469 harmonic    3.22550000e+02    1.39800000e+00
470 harmonic    3.22550000e+02    1.39800000e+00
471 harmonic    3.22550000e+02    1.39800000e+00
472 harmonic    3.22550000e+02    1.39800000e+00
473 harmonic    3.22550000e+02    1.39800000e+00
474 harmonic    3.22550000e+02    1.39800000e+00
475 harmonic    3.22550000e+02    1.39800000e+00
476 harmonic    3.22550000e+02    1.39800000e+00
477 harmonic    3.22550000e+02    1.39800000e+00
478 harmonic    3.22550000e+02    1.39800000e+00
479 harmonic    3.22550000e+02    1.39800000e+00
480 harmonic    3.22550000e+02    1.39800000e+00
481 harmonic    3.22550000e+02    1.39800000e+00
482 harmonic    3.22550000e+02    1.39800000e+00
483 harmonic    3.22550000e+02    1.39800000e+00
484 harmonic    3.22550000e+02    1.39800000e+00
485 harmonic    3.22550000e+02    1.39800000e+00
486 harmonic    3.22550000e+02    1.39800000e+00
487 harmonic    3.22550000e+02    1.39800000e+00
488 harmonic    3.22550000e+02    1.39800000e+00
489 harmonic    3.22550000e+02    1.39800000e+00
490 harmonic    3.22550000e+02    1.39800000e+00
491 harmonic    3.22550000e+02    1.39800000e+00
492 harmonic    3.22550000e+02    1.39800000e+00
493 harmonic    3.22550000e+02    1.39800000e+00
494 harmonic    3.22550000e+02    1.39800000e+00
495 harmonic    3.22550000e+02    1.39800000e+00
496 harmonic    3.22550000e+02    1.39800000e+00
497 harmonic    3.22550000e+02    1.39800000e+00
498 harmonic    3.22550000e+02    1.39800000e+00
499 harmonic    3.22550000e+02    1.39800000e+00
500 harmonic    3.22550000e+02    1.39800000e+00
501 harmonic    3.22550000e+02    1.39800000e+00
502 harmonic    3.22550000e+02    1.39800000e+00
503 harmonic    3.22550000e+02    1.39800000e+00
504 harmonic    3.22550000e+02    1.39800000e+00
505 harmonic    3.22550000e+02    1.39800000e+00
506 harmonic    3.22550000e+02    1.39800000e+00
507 harmonic    3.22550000e+02    1.39800000e+00
508 harmonic    3.22550000e+02    1.39800000e+00
509 harmonic    3.22550000e+02    1.39800000e+00
510 harmonic    3.22550000e+02    1.39800000e+00
511 harmonic    3.22550000e+02    1.39800000e+00
512 harmonic    3.22550000e+02    1.39800000e+00
513 harmonic    3.22550000e+02    1.39800000e+00
514 harmonic    3.22550000e+02    1.39800000e+00
515 harmonic    3.22550000e+02    1.39800000e+00
516 harmonic    3.22550000e+02    1.39800000e+00
517 harmonic    3.22550000e+02    1.39800000e+00
518 harmonic    3.22550000e+02    1.39800000e+00
519 harmonic    3.22550000e+02    1.39800000e+00
520 harmonic    3.22550000e+02    1.39800000e+00
521 harmonic    3.22550000e+02    1.39800000e+00
522 harmonic    3.22550000e+02    1.39800000e+00
523 harmonic    3.22550000e+02    1.39800000e+00
524 harmonic    3.22550000e+02    1.39800000e+00
525 harmonic    3.22550000e+02    1.39800000e+00
526 harmonic    3.22550000e+02    1.39800000e+00
527 harmonic    3.22550000e+02    1.39800000e+00
528 harmonic    3.22550000e+02    1.39800000e+00
529 harmonic    3.22550000e+02    1.39800000e+00
530 harmonic    3.22550000e+02    1.39800000e+00
531 harmonic    3.22550000e+02    1.39800000e+00
532 harmonic    3.22550000e+02    1.39800000e+00
533 harmonic    3.22550000e+02    1.39800000e+00
534 harmonic    3.22550000e+02    1.39800000e+00
535 harmonic    3.22550000e+02    1.39800000e+00
536 harmonic    3.22550000e+02    1.39800000e+00
537 harmonic    3.22550000e+02    1.39800000e+00
538 harmonic    3.22550000e+02    1.39800000e+00
539 harmonic    3.22550000e+02    1.39800000e+00
540 harmonic    3.22550000e+02    1.39800000e+00
541 harmonic    3.22550000e+02    1.39800000e+00
542 harmonic    3.22550000e+02    1.39800000e+00
543 harmonic    3.22550000e+02    1.39800000e+00
544 harmonic    3.22550000e+02    1.39800000e+00
545 harmonic    3.22550000e+02    1.39800000e+00
546 harmonic    3.22550000e+02    1.39800000e+00
547 harmonic    3.22550000e+02    1.39800000e+00
548 harmonic    3.22550000e+02    1.39800000e+00
549 harmonic    3.22550000e+02    1.39800000e+00
550 harmonic    3.22550000e+02    1.39800000e+00
551 harmonic    3.22550000e+02    1.39800000e+00
552 harmonic    3.22550000e+02    1.39800000e+00
553 harmonic    3.22550000e+02    1.39800000e+00
554 harmonic    3.22550000e+02    1.39800000e+00
555 harmonic    3.22550000e+02    1.39800000e+00
556 harmonic    3.22550000e+02    1.39800000e+00
557 harmonic    3.22550000e+02    1.39800000e+00
558 harmonic    3.22550000e+02    1.39800000e+00
559 harmonic    3.22550000e+02    1.39800000e+00
560 harmonic    3.22550000e+02    1.39800000e+00
561 harmonic    3.22550000e+02    1.39800000e+00
562 harmonic    3.22550000e+02    1.39800000e+00
563 harmonic    3.22550000e+02    1.39800000e+00
564 harmonic    3.22550000e+02    1.39800000e+00
565 harmonic    3.22550000e+02    1.39800000e+00
566 harmonic    3.22550000e+02    1.39800000e+00
567 harmonic    3.22550000e+02    1.39800000e+00
568 harmonic    3.22550000e+02    1.39800000e+00
569 harmonic    3.22550000e+02    1.39800000e+00
570 harmonic    3.22550000e+02    1.39800000e+00
571 harmonic    3.22550000e+02    1.39800000e+00
572 harmonic    3.22550000e+02    1.39800000e+00
573 harmonic    3.22550000e+02    1.39800000e+00
574 harmonic    3.22550000e+02    1.39800000e+00
575 harmonic    3.22550000e+02    1.39800000e+00
576 harmonic    3.22550000e+02    1.39800000e+00
577 harmonic    3.22550000e+02    1.39800000e+00
578 harmonic    3.22550000e+02    1.39800000e+00
579 harmonic    3.22550000e+02    1.39800000e+00
580 harmonic    3.22550000e+02    1.39800000e+00
581 harmonic    3.22550000e+02    1.39800000e+00
582 harmonic    3.22550000e+02    1.39800000e+00
583 harmonic    3.22550000e+02    1.39800000e+00
584 harmonic    3.22550000e+02    1.39800000e+00
585 harmonic    3.22550000e+02    1.39800000e+00
586 harmonic    3.22550000e+02    1.39800000e+00
587 harmonic    3.22550000e+02    1.39800000e+00
588 harmonic    3.22550000e+02    1.39800000e+00
589 harmonic    3.22550000e+02    1.39800000e+00
590 harmonic    3.22550000e+02    1.39800000e+00
591 harmonic    3.22550000e+02    1.39800000e+00
592 harmonic    3.22550000e+02    1.39800000e+00
593 harmonic    3.22550000e+02    1.39800000e+00
594 harmonic    3.22550000e+02    1.39800000e+00
595 harmonic    3.22550000e+02    1.39800000e+00
596 harmonic    3.22550000e+02    1.39800000e+00
597 harmonic    3.22550000e+02    1.39800000e+00
598 harmonic    3.22550000e+02    1.39800000e+00
599 harmonic    3.22550000e+02    1.39800000e+00
600 harmonic    3.22550000e+02    1.39800000e+00
601 harmonic    3.22550000e+02    1.39800000e+00
602 harmonic    3.22550000e+02    1.39800000e+00
603 harmonic    3.22550000e+02    1.39800000e+00
604 harmonic    3.22550000e+02    1.39800000e+00
605 harmonic    3.22550000e+02    1.39800000e+00
606 harmonic    3.22550000e+02    1.39800000e+00
607 harmonic    3.22550000e+02    1.39800000e+00