  40  40   0   0
  0.2259919E+02  0.6755634E-09  0.7164936E-09  0.1867560E-08  0.5000000E-15
   1.0000000000000000E-004
  CAR 
 unknown system                          
      9.66495518    -23.27756041  301      1.11362718      1.00000000
    -23.278  0.0000E+00  0.0000E+00
    -23.168  0.0000E+00  0.0000E+00
    -23.058  0.0000E+00  0.0000E+00
    -22.948  0.0000E+00  0.0000E+00
    -22.838  0.0000E+00  0.0000E+00
    -22.729  0.0000E+00  0.0000E+00
    -22.619  0.0000E+00  0.0000E+00
    -22.509  0.0000E+00  0.0000E+00
    -22.399  0.0000E+00  0.0000E+00
    -22.289  0.0000E+00  0.0000E+00
    -22.179  0.0000E+00  0.0000E+00
    -22.070  0.9212E-16  0.1012E-16
    -21.960  0.2057E-06  0.2259E-07
    -21.850  0.4591E-01  0.5041E-02
    -21.740  0.4410E+01  0.4893E+00
    -21.630  0.4238E+01  0.9547E+00
    -21.521  0.4831E-01  0.9600E+00
    -21.411  0.3475E-06  0.9600E+00
    -21.301  0.2876E-15  0.9600E+00
    -21.191  0.0000E+00  0.9600E+00
    -21.081  0.0000E+00  0.9600E+00
    -20.972  0.0000E+00  0.9600E+00
    -20.862  0.0000E+00  0.9600E+00
    -20.752  0.0000E+00  0.9600E+00
    -20.642  0.0000E+00  0.9600E+00
    -20.532  0.0000E+00  0.9600E+00
    -20.423  0.0000E+00  0.9600E+00
    -20.313  0.0000E+00  0.9600E+00
    -20.203  0.0000E+00  0.9600E+00
    -20.093  0.0000E+00  0.9600E+00
    -19.983  0.0000E+00  0.9600E+00
    -19.874  0.0000E+00  0.9600E+00
    -19.764  0.0000E+00  0.9600E+00
    -19.654  0.0000E+00  0.9600E+00
    -19.544  0.0000E+00  0.9600E+00
    -19.434  0.0000E+00  0.9600E+00
    -19.324  0.0000E+00  0.9600E+00
    -19.215  0.0000E+00  0.9600E+00
    -19.105  0.0000E+00  0.9600E+00
    -18.995  0.0000E+00  0.9600E+00
    -18.885  0.0000E+00  0.9600E+00
    -18.775  0.0000E+00  0.9600E+00
    -18.666  0.0000E+00  0.9600E+00
    -18.556  0.0000E+00  0.9600E+00
    -18.446  0.0000E+00  0.9600E+00
    -18.336  0.0000E+00  0.9600E+00
    -18.226  0.0000E+00  0.9600E+00
    -18.117  0.0000E+00  0.9600E+00
    -18.007  0.0000E+00  0.9600E+00
    -17.897  0.0000E+00  0.9600E+00
    -17.787  0.0000E+00  0.9600E+00
    -17.677  0.0000E+00  0.9600E+00
    -17.568  0.0000E+00  0.9600E+00
    -17.458  0.0000E+00  0.9600E+00
    -17.348  0.0000E+00  0.9600E+00
    -17.238  0.0000E+00  0.9600E+00
    -17.128  0.0000E+00  0.9600E+00
    -17.018  0.0000E+00  0.9600E+00
    -16.909  0.0000E+00  0.9600E+00
    -16.799  0.0000E+00  0.9600E+00
    -16.689  0.0000E+00  0.9600E+00
    -16.579  0.0000E+00  0.9600E+00
    -16.469  0.0000E+00  0.9600E+00
    -16.360  0.0000E+00  0.9600E+00
    -16.250  0.0000E+00  0.9600E+00
    -16.140  0.0000E+00  0.9600E+00
    -16.030  0.0000E+00  0.9600E+00
    -15.920  0.0000E+00  0.9600E+00
    -15.811  0.0000E+00  0.9600E+00
    -15.701  0.0000E+00  0.9600E+00
    -15.591  0.0000E+00  0.9600E+00
    -15.481  0.0000E+00  0.9600E+00
    -15.371  0.0000E+00  0.9600E+00
    -15.262  0.0000E+00  0.9600E+00
    -15.152  0.0000E+00  0.9600E+00
    -15.042  0.0000E+00  0.9600E+00
    -14.932  0.0000E+00  0.9600E+00
    -14.822  0.0000E+00  0.9600E+00
    -14.713  0.0000E+00  0.9600E+00
    -14.603  0.0000E+00  0.9600E+00
    -14.493  0.0000E+00  0.9600E+00
    -14.383  0.0000E+00  0.9600E+00
    -14.273  0.0000E+00  0.9600E+00
    -14.163  0.0000E+00  0.9600E+00
    -14.054  0.0000E+00  0.9600E+00
    -13.944  0.0000E+00  0.9600E+00
    -13.834  0.0000E+00  0.9600E+00
    -13.724  0.0000E+00  0.9600E+00
    -13.614  0.0000E+00  0.9600E+00
    -13.505  0.0000E+00  0.9600E+00
    -13.395  0.0000E+00  0.9600E+00
    -13.285  0.0000E+00  0.9600E+00
    -13.175  0.0000E+00  0.9600E+00
    -13.065  0.0000E+00  0.9600E+00
    -12.956  0.0000E+00  0.9600E+00
    -12.846  0.0000E+00  0.9600E+00
    -12.736  0.0000E+00  0.9600E+00
    -12.626  0.0000E+00  0.9600E+00
    -12.516  0.0000E+00  0.9600E+00
    -12.407  0.0000E+00  0.9600E+00
    -12.297  0.0000E+00  0.9600E+00
    -12.187  0.0000E+00  0.9600E+00
    -12.077  0.0000E+00  0.9600E+00
    -11.967  0.0000E+00  0.9600E+00
    -11.857  0.0000E+00  0.9600E+00
    -11.748  0.0000E+00  0.9600E+00
    -11.638  0.0000E+00  0.9600E+00
    -11.528  0.0000E+00  0.9600E+00
    -11.418  0.1172E-12  0.9600E+00
    -11.308  0.3010E-05  0.9600E+00
    -11.199  0.9761E-02  0.9611E+00
    -11.089  0.6339E-01  0.9680E+00
    -10.979  0.1768E+00  0.9874E+00
    -10.869  0.1361E+00  0.1002E+01
    -10.759  0.2364E+00  0.1028E+01
    -10.650  0.1253E+00  0.1042E+01
    -10.540  0.3484E+00  0.1080E+01
    -10.430  0.3506E+00  0.1119E+01
    -10.320  0.1028E-01  0.1120E+01
    -10.210  0.1990E-06  0.1120E+01
    -10.101  0.1677E-05  0.1120E+01
     -9.991  0.1504E-01  0.1122E+01
     -9.881  0.4354E+00  0.1169E+01
     -9.771  0.8309E+00  0.1261E+01
     -9.661  0.1756E+00  0.1280E+01
     -9.552  0.2264E-03  0.1280E+01
     -9.442  0.1028E-09  0.1280E+01
     -9.332  0.0000E+00  0.1280E+01
     -9.222  0.0000E+00  0.1280E+01
     -9.112  0.0000E+00  0.1280E+01
     -9.002  0.0000E+00  0.1280E+01
     -8.893  0.0000E+00  0.1280E+01
     -8.783  0.0000E+00  0.1280E+01
     -8.673  0.0000E+00  0.1280E+01
     -8.563  0.0000E+00  0.1280E+01
     -8.453  0.0000E+00  0.1280E+01
     -8.344  0.0000E+00  0.1280E+01
     -8.234  0.0000E+00  0.1280E+01
     -8.124  0.0000E+00  0.1280E+01
     -8.014  0.0000E+00  0.1280E+01
     -7.904  0.0000E+00  0.1280E+01
     -7.795  0.0000E+00  0.1280E+01
     -7.685  0.0000E+00  0.1280E+01
     -7.575  0.0000E+00  0.1280E+01
     -7.465  0.0000E+00  0.1280E+01
     -7.355  0.0000E+00  0.1280E+01
     -7.246  0.0000E+00  0.1280E+01
     -7.136  0.0000E+00  0.1280E+01
     -7.026  0.0000E+00  0.1280E+01
     -6.916  0.0000E+00  0.1280E+01
     -6.806  0.0000E+00  0.1280E+01
     -6.696  0.0000E+00  0.1280E+01
     -6.587  0.0000E+00  0.1280E+01
     -6.477  0.0000E+00  0.1280E+01
     -6.367  0.0000E+00  0.1280E+01
     -6.257  0.0000E+00  0.1280E+01
     -6.147  0.0000E+00  0.1280E+01
     -6.038  0.0000E+00  0.1280E+01
     -5.928  0.0000E+00  0.1280E+01
     -5.818  0.0000E+00  0.1280E+01
     -5.708  0.0000E+00  0.1280E+01
     -5.598  0.0000E+00  0.1280E+01
     -5.489  0.8400E-12  0.1280E+01
     -5.379  0.3173E-04  0.1280E+01
     -5.269  0.1718E+00  0.1299E+01
     -5.159  0.1212E+01  0.1432E+01
     -5.049  0.1274E+01  0.1572E+01
     -4.940  0.2806E+01  0.1880E+01
     -4.830  0.1414E+01  0.2035E+01
     -4.720  0.4012E+00  0.2079E+01
     -4.610  0.5692E-02  0.2080E+01
     -4.500  0.5217E-07  0.2080E+01
     -4.391  0.4943E-16  0.2080E+01
     -4.281  0.0000E+00  0.2080E+01
     -4.171  0.0000E+00  0.2080E+01
     -4.061  0.0000E+00  0.2080E+01
     -3.951  0.0000E+00  0.2080E+01
     -3.841  0.3370E-17  0.2080E+01
     -3.732  0.5405E-08  0.2080E+01
     -3.622  0.9663E-03  0.2080E+01
     -3.512  0.8811E-01  0.2090E+01
     -3.402  0.1201E+00  0.2103E+01
     -3.292  0.1497E+00  0.2119E+01
     -3.183  0.1354E+00  0.2134E+01
     -3.073  0.3354E-01  0.2138E+01
     -2.963  0.1362E+00  0.2153E+01
     -2.853  0.2558E+00  0.2181E+01
     -2.743  0.3485E-01  0.2185E+01
     -2.634  0.5685E-01  0.2191E+01
     -2.524  0.4867E-01  0.2196E+01
     -2.414  0.1482E+00  0.2213E+01
     -2.304  0.4671E-01  0.2218E+01
     -2.194  0.5446E-01  0.2224E+01
     -2.085  0.4146E-01  0.2228E+01
     -1.975  0.1403E+00  0.2244E+01
     -1.865  0.1111E+00  0.2256E+01
     -1.755  0.8785E-01  0.2266E+01
     -1.645  0.1965E+00  0.2287E+01
     -1.536  0.2157E+00  0.2311E+01
     -1.426  0.2612E+00  0.2340E+01
     -1.316  0.8222E-01  0.2349E+01
     -1.206  0.1759E+00  0.2368E+01
     -1.096  0.1491E+00  0.2384E+01
     -0.986  0.3999E+00  0.2428E+01
     -0.877  0.2542E+00  0.2456E+01
     -0.767  0.3315E+00  0.2493E+01
     -0.657  0.1569E+00  0.2510E+01
     -0.547  0.1849E+00  0.2530E+01
     -0.437  0.4395E+00  0.2578E+01
     -0.328  0.2987E+00  0.2611E+01
     -0.218  0.5027E+00  0.2666E+01
     -0.108  0.3890E+00  0.2709E+01
      0.002  0.3066E+00  0.2743E+01
      0.112  0.3025E+00  0.2776E+01
      0.221  0.3538E+00  0.2815E+01
      0.331  0.5023E+00  0.2870E+01
      0.441  0.4331E+00  0.2917E+01
      0.551  0.3696E+00  0.2958E+01
      0.661  0.4376E+00  0.3006E+01
      0.770  0.2403E+00  0.3032E+01
      0.880  0.5533E-01  0.3039E+01
      0.990  0.1293E-01  0.3040E+01
      1.100  0.4855E-04  0.3040E+01
      1.210  0.3137E-10  0.3040E+01
      1.320  0.0000E+00  0.3040E+01
      1.429  0.0000E+00  0.3040E+01
      1.539  0.0000E+00  0.3040E+01
      1.649  0.0000E+00  0.3040E+01
      1.759  0.0000E+00  0.3040E+01
      1.869  0.0000E+00  0.3040E+01
      1.978  0.0000E+00  0.3040E+01
      2.088  0.0000E+00  0.3040E+01
      2.198  0.0000E+00  0.3040E+01
      2.308  0.0000E+00  0.3040E+01
      2.418  0.0000E+00  0.3040E+01
      2.527  0.0000E+00  0.3040E+01
      2.637  0.0000E+00  0.3040E+01
      2.747  0.4494E-17  0.3040E+01
      2.857  0.5018E-08  0.3040E+01
      2.967  0.5525E-03  0.3040E+01
      3.076  0.1729E-01  0.3042E+01
      3.186  0.2393E-02  0.3042E+01
      3.296  0.1811E-06  0.3042E+01
      3.406  0.1424E-14  0.3042E+01
      3.516  0.3146E-16  0.3042E+01
      3.625  0.1780E-07  0.3042E+01
      3.735  0.9537E-03  0.3042E+01
      3.845  0.2058E-01  0.3045E+01
      3.955  0.7087E-01  0.3052E+01
      4.065  0.8787E-02  0.3053E+01
      4.175  0.9749E-03  0.3053E+01
      4.284  0.1118E+00  0.3066E+01
      4.394  0.2334E+00  0.3091E+01
      4.504  0.1668E+00  0.3110E+01
      4.614  0.1875E+00  0.3130E+01
      4.724  0.1914E+00  0.3151E+01
      4.833  0.1301E+00  0.3166E+01
      4.943  0.1607E+00  0.3183E+01
      5.053  0.1594E+00  0.3201E+01
      5.163  0.9673E-01  0.3211E+01
      5.273  0.1980E+00  0.3233E+01
      5.382  0.1483E+00  0.3249E+01
      5.492  0.1645E+00  0.3267E+01
      5.602  0.2305E+00  0.3293E+01
      5.712  0.1896E+00  0.3314E+01
      5.822  0.2790E+00  0.3344E+01
      5.931  0.2968E+00  0.3377E+01
      6.041  0.1462E+00  0.3393E+01
      6.151  0.1511E+00  0.3409E+01
      6.261  0.1010E+00  0.3421E+01
      6.371  0.9172E-01  0.3431E+01
      6.481  0.1457E+00  0.3447E+01
      6.590  0.2363E+00  0.3473E+01
      6.700  0.1548E+00  0.3490E+01
      6.810  0.2907E+00  0.3521E+01
      6.920  0.2986E+00  0.3554E+01
      7.030  0.1882E+00  0.3575E+01
      7.139  0.1620E+00  0.3593E+01
      7.249  0.3360E+00  0.3630E+01
      7.359  0.2478E+00  0.3657E+01
      7.469  0.2659E+00  0.3686E+01
      7.579  0.1976E+00  0.3708E+01
      7.688  0.4430E+00  0.3756E+01
      7.798  0.2860E+00  0.3788E+01
      7.908  0.2579E+00  0.3816E+01
      8.018  0.1351E+00  0.3831E+01
      8.128  0.4672E-01  0.3836E+01
      8.237  0.3548E-01  0.3840E+01
      8.347  0.5993E-03  0.3840E+01
      8.457  0.3939E-08  0.3840E+01
      8.567  0.2247E-17  0.3840E+01
      8.677  0.0000E+00  0.3840E+01
      8.786  0.0000E+00  0.3840E+01
      8.896  0.0000E+00  0.3840E+01
      9.006  0.0000E+00  0.3840E+01
      9.116  0.0000E+00  0.3840E+01
      9.226  0.0000E+00  0.3840E+01
      9.336  0.0000E+00  0.3840E+01
      9.445  0.0000E+00  0.3840E+01
      9.555  0.0000E+00  0.3840E+01
      9.665  0.0000E+00  0.3840E+01
