       N       E                     dE             d eps       ncg     rms          rms(c)
DAV:   1     0.265241815438E+04    0.26524E+04   -0.12606E+05  1536   0.148E+03
DAV:   2     0.220420171485E+03   -0.24320E+04   -0.23473E+04  1536   0.412E+02
DAV:   3    -0.128639091434E+03   -0.34906E+03   -0.34390E+03  1856   0.158E+02
DAV:   4    -0.145070910091E+03   -0.16432E+02   -0.16373E+02  1824   0.338E+01
DAV:   5    -0.145520114171E+03   -0.44920E+00   -0.44903E+00  1888   0.599E+00    0.214E+01
DAV:   6    -0.134337183943E+03    0.11183E+02   -0.20886E+01  2240   0.412E+01    0.174E+01
DAV:   7    -0.134278014949E+03    0.59169E-01   -0.18743E+01  1824   0.780E+00    0.103E+01
DAV:   8    -0.134258716153E+03    0.19299E-01   -0.99874E-01  1984   0.334E+00    0.339E+00
DAV:   9    -0.134283967361E+03   -0.25251E-01   -0.16484E-01  1856   0.201E+00    0.726E-01
DAV:  10    -0.134291876170E+03   -0.79088E-02   -0.24501E-02  1888   0.577E-01    0.548E-01
DAV:  11    -0.134299733494E+03   -0.78573E-02   -0.62728E-03  1856   0.202E-01    0.215E-01
DAV:  12    -0.134302929953E+03   -0.31965E-02   -0.40128E-03  1792   0.154E-01    0.552E-02
DAV:  13    -0.134303038233E+03   -0.10828E-03   -0.28890E-04  1920   0.580E-02    0.418E-02
DAV:  14    -0.134303164786E+03   -0.12655E-03   -0.16124E-04  1632   0.515E-02    0.285E-02
DAV:  15    -0.134303167654E+03   -0.28679E-05   -0.11938E-05  1440   0.109E-02
   1 F= -.13430317E+03 E0= -.13430317E+03  d E =-.134303E+03
       N       E                     dE             d eps       ncg     rms          rms(c)
DAV:   1    -0.134306667142E+03   -0.35024E-02   -0.53800E-01  1920   0.194E+00    0.371E-01
DAV:   2    -0.134306025514E+03    0.64163E-03   -0.18331E-02  1920   0.638E-01    0.169E-01
DAV:   3    -0.134305788629E+03    0.23688E-03   -0.11377E-03  1920   0.121E-01    0.896E-02
DAV:   4    -0.134305685928E+03    0.10270E-03   -0.16067E-04  1984   0.619E-02    0.367E-02
DAV:   5    -0.134305681988E+03    0.39398E-05   -0.47689E-05  1536   0.218E-02
   2 F= -.13430568E+03 E0= -.13430568E+03  d E =-.251433E-02
       N       E                     dE             d eps       ncg     rms          rms(c)
DAV:   1    -0.134309347669E+03   -0.36617E-02   -0.11226E+00  1920   0.279E+00    0.534E-01
DAV:   2    -0.134308018565E+03    0.13291E-02   -0.38117E-02  1920   0.921E-01    0.244E-01
DAV:   3    -0.134307516181E+03    0.50238E-03   -0.23776E-03  1920   0.175E-01    0.130E-01
DAV:   4    -0.134307294484E+03    0.22170E-03   -0.34542E-04  1984   0.881E-02    0.539E-02
DAV:   5    -0.134307281767E+03    0.12717E-04   -0.95444E-05  1792   0.311E-02    0.230E-02
DAV:   6    -0.134307281207E+03    0.56061E-06   -0.45099E-06  1152   0.163E-02
   3 F= -.13430728E+03 E0= -.13430728E+03  d E =-.411355E-02
       N       E                     dE             d eps       ncg     rms          rms(c)
DAV:   1    -0.134308846795E+03   -0.15650E-02   -0.33971E-01  1888   0.115E+00    0.195E-01
DAV:   2    -0.134309201171E+03   -0.35438E-03   -0.82577E-03  1984   0.348E-01    0.101E-01
DAV:   3    -0.134309106328E+03    0.94843E-04   -0.35852E-04  1984   0.761E-02    0.624E-02
DAV:   4    -0.134309056756E+03    0.49572E-04   -0.85077E-05  1856   0.345E-02    0.183E-02
DAV:   5    -0.134309052537E+03    0.42187E-05   -0.17530E-05  1280   0.140E-02
   4 F= -.13430905E+03 E0= -.13430905E+03  d E =-.177133E-02
