   8   8   0   0
  0.2225345E+02  0.7006130E-09  0.7006130E-09  0.7006130E-09  0.1500000E-16
   1.0000000000000000E-004
  CAR 
 unknown system                          
     12.13525202    -19.73326668  301      4.81877127      1.00000000
    -19.733  0.0000E+00  0.0000E+00
    -19.627  0.0000E+00  0.0000E+00
    -19.521  0.0000E+00  0.0000E+00
    -19.415  0.0000E+00  0.0000E+00
    -19.308  0.0000E+00  0.0000E+00
    -19.202  0.0000E+00  0.0000E+00
    -19.096  0.0000E+00  0.0000E+00
    -18.990  0.0000E+00  0.0000E+00
    -18.883  0.0000E+00  0.0000E+00
    -18.777  0.0000E+00  0.0000E+00
    -18.671  0.0000E+00  0.0000E+00
    -18.565  0.1492E-15  0.1585E-16
    -18.459  0.7444E-07  0.7908E-08
    -18.352  0.7873E-02  0.8363E-03
    -18.246  0.5733E+00  0.6174E-01
    -18.140  0.2679E+00  0.9019E-01
    -18.034  0.3064E-03  0.9023E-01
    -17.927  0.9746E-10  0.9023E-01
    -17.821  0.0000E+00  0.9023E-01
    -17.715  0.0000E+00  0.9023E-01
    -17.609  0.0000E+00  0.9023E-01
    -17.502  0.0000E+00  0.9023E-01
    -17.396  0.0000E+00  0.9023E-01
    -17.290  0.0000E+00  0.9023E-01
    -17.184  0.0000E+00  0.9023E-01
    -17.078  0.0000E+00  0.9023E-01
    -16.971  0.0000E+00  0.9023E-01
    -16.865  0.0000E+00  0.9023E-01
    -16.759  0.0000E+00  0.9023E-01
    -16.653  0.0000E+00  0.9023E-01
    -16.546  0.0000E+00  0.9023E-01
    -16.440  0.0000E+00  0.9023E-01
    -16.334  0.0000E+00  0.9023E-01
    -16.228  0.0000E+00  0.9023E-01
    -16.122  0.0000E+00  0.9023E-01
    -16.015  0.0000E+00  0.9023E-01
    -15.909  0.0000E+00  0.9023E-01
    -15.803  0.0000E+00  0.9023E-01
    -15.697  0.0000E+00  0.9023E-01
    -15.590  0.0000E+00  0.9023E-01
    -15.484  0.0000E+00  0.9023E-01
    -15.378  0.0000E+00  0.9023E-01
    -15.272  0.0000E+00  0.9023E-01
    -15.165  0.0000E+00  0.9023E-01
    -15.059  0.0000E+00  0.9023E-01
    -14.953  0.0000E+00  0.9023E-01
    -14.847  0.0000E+00  0.9023E-01
    -14.741  0.0000E+00  0.9023E-01
    -14.634  0.0000E+00  0.9023E-01
    -14.528  0.0000E+00  0.9023E-01
    -14.422  0.0000E+00  0.9023E-01
    -14.316  0.0000E+00  0.9023E-01
    -14.209  0.0000E+00  0.9023E-01
    -14.103  0.0000E+00  0.9023E-01
    -13.997  0.0000E+00  0.9023E-01
    -13.891  0.0000E+00  0.9023E-01
    -13.784  0.0000E+00  0.9023E-01
    -13.678  0.0000E+00  0.9023E-01
    -13.572  0.0000E+00  0.9023E-01
    -13.466  0.0000E+00  0.9023E-01
    -13.360  0.0000E+00  0.9023E-01
    -13.253  0.0000E+00  0.9023E-01
    -13.147  0.0000E+00  0.9023E-01
    -13.041  0.0000E+00  0.9023E-01
    -12.935  0.0000E+00  0.9023E-01
    -12.828  0.0000E+00  0.9023E-01
    -12.722  0.0000E+00  0.9023E-01
    -12.616  0.0000E+00  0.9023E-01
    -12.510  0.0000E+00  0.9023E-01
    -12.404  0.0000E+00  0.9023E-01
    -12.297  0.0000E+00  0.9023E-01
    -12.191  0.0000E+00  0.9023E-01
    -12.085  0.0000E+00  0.9023E-01
    -11.979  0.0000E+00  0.9023E-01
    -11.872  0.0000E+00  0.9023E-01
    -11.766  0.0000E+00  0.9023E-01
    -11.660  0.0000E+00  0.9023E-01
    -11.554  0.0000E+00  0.9023E-01
    -11.447  0.0000E+00  0.9023E-01
    -11.341  0.0000E+00  0.9023E-01
    -11.235  0.0000E+00  0.9023E-01
    -11.129  0.0000E+00  0.9023E-01
    -11.023  0.0000E+00  0.9023E-01
    -10.916  0.0000E+00  0.9023E-01
    -10.810  0.0000E+00  0.9023E-01
    -10.704  0.0000E+00  0.9023E-01
    -10.598  0.0000E+00  0.9023E-01
    -10.491  0.0000E+00  0.9023E-01
    -10.385  0.0000E+00  0.9023E-01
    -10.279  0.0000E+00  0.9023E-01
    -10.173  0.0000E+00  0.9023E-01
    -10.066  0.0000E+00  0.9023E-01
     -9.960  0.0000E+00  0.9023E-01
     -9.854  0.0000E+00  0.9023E-01
     -9.748  0.0000E+00  0.9023E-01
     -9.642  0.0000E+00  0.9023E-01
     -9.535  0.0000E+00  0.9023E-01
     -9.429  0.3561E-17  0.9023E-01
     -9.323  0.1196E-08  0.9023E-01
     -9.217  0.6774E-04  0.9023E-01
     -9.110  0.1860E-02  0.9043E-01
     -9.004  0.1619E-02  0.9060E-01
     -8.898  0.1555E-01  0.9225E-01
     -8.792  0.7059E-02  0.9300E-01
     -8.686  0.8001E-02  0.9385E-01
     -8.579  0.3063E-01  0.9711E-01
     -8.473  0.2268E-01  0.9952E-01
     -8.367  0.4321E-02  0.9998E-01
     -8.261  0.3290E-01  0.1035E+00
     -8.154  0.1947E-01  0.1055E+00
     -8.048  0.1557E-01  0.1072E+00
     -7.942  0.4122E-02  0.1076E+00
     -7.836  0.2034E-01  0.1098E+00
     -7.729  0.6227E-01  0.1164E+00
     -7.623  0.1934E-01  0.1185E+00
     -7.517  0.6807E-01  0.1257E+00
     -7.411  0.4409E-01  0.1304E+00
     -7.305  0.1009E+00  0.1411E+00
     -7.198  0.5812E-01  0.1473E+00
     -7.092  0.2883E-01  0.1503E+00
     -6.986  0.4180E-03  0.1504E+00
     -6.880  0.4061E-08  0.1504E+00
     -6.773  0.7858E-17  0.1504E+00
     -6.667  0.0000E+00  0.1504E+00
     -6.561  0.0000E+00  0.1504E+00
     -6.455  0.0000E+00  0.1504E+00
     -6.348  0.0000E+00  0.1504E+00
     -6.242  0.0000E+00  0.1504E+00
     -6.136  0.0000E+00  0.1504E+00
     -6.030  0.0000E+00  0.1504E+00
     -5.924  0.0000E+00  0.1504E+00
     -5.817  0.0000E+00  0.1504E+00
     -5.711  0.0000E+00  0.1504E+00
     -5.605  0.0000E+00  0.1504E+00
     -5.499  0.0000E+00  0.1504E+00
     -5.392  0.0000E+00  0.1504E+00
     -5.286  0.0000E+00  0.1504E+00
     -5.180  0.3097E-10  0.1504E+00
     -5.074  0.3065E-04  0.1504E+00
     -4.968  0.1299E-01  0.1518E+00
     -4.861  0.4408E-01  0.1564E+00
     -4.755  0.4825E-02  0.1570E+00
     -4.649  0.2715E-02  0.1572E+00
     -4.543  0.1575E-01  0.1589E+00
     -4.436  0.1559E-01  0.1606E+00
     -4.330  0.1095E-01  0.1617E+00
     -4.224  0.1192E-01  0.1630E+00
     -4.118  0.3310E-01  0.1665E+00
     -4.011  0.1582E-01  0.1682E+00
     -3.905  0.6473E-02  0.1689E+00
     -3.799  0.1362E-01  0.1703E+00
     -3.693  0.1065E-01  0.1715E+00
     -3.587  0.1817E-01  0.1734E+00
     -3.480  0.1669E-01  0.1752E+00
     -3.374  0.3305E-02  0.1755E+00
     -3.268  0.4513E-02  0.1760E+00
     -3.162  0.1301E-01  0.1774E+00
     -3.055  0.2900E-02  0.1777E+00
     -2.949  0.1725E-01  0.1795E+00
     -2.843  0.2130E-02  0.1797E+00
     -2.737  0.2584E-05  0.1797E+00
     -2.630  0.1027E-08  0.1797E+00
     -2.524  0.9230E-04  0.1798E+00
     -2.418  0.3607E-02  0.1801E+00
     -2.312  0.2217E-02  0.1804E+00
     -2.206  0.7184E-03  0.1805E+00
     -2.099  0.6010E-06  0.1805E+00
     -1.993  0.1135E-12  0.1805E+00
     -1.887  0.0000E+00  0.1805E+00
     -1.781  0.0000E+00  0.1805E+00
     -1.674  0.0000E+00  0.1805E+00
     -1.568  0.0000E+00  0.1805E+00
     -1.462  0.0000E+00  0.1805E+00
     -1.356  0.0000E+00  0.1805E+00
     -1.250  0.0000E+00  0.1805E+00
     -1.143  0.4757E-11  0.1805E+00
     -1.037  0.6256E-05  0.1805E+00
     -0.931  0.2231E-02  0.1807E+00
     -0.825  0.5624E-02  0.1813E+00
     -0.718  0.2229E-01  0.1837E+00
     -0.612  0.8742E-02  0.1846E+00
     -0.506  0.3192E-01  0.1880E+00
     -0.400  0.2175E-02  0.1882E+00
     -0.293  0.4788E-02  0.1887E+00
     -0.187  0.1958E-01  0.1908E+00
     -0.081  0.4263E-02  0.1912E+00
      0.025  0.9023E-02  0.1922E+00
      0.131  0.1789E-01  0.1941E+00
      0.238  0.4099E-01  0.1985E+00
      0.344  0.6334E-01  0.2052E+00
      0.450  0.3866E-01  0.2093E+00
      0.556  0.5251E-01  0.2149E+00
      0.663  0.6692E-01  0.2220E+00
      0.769  0.1382E-01  0.2235E+00
      0.875  0.5367E-02  0.2240E+00
      0.981  0.2454E-01  0.2266E+00
      1.087  0.5549E-01  0.2325E+00
      1.194  0.2987E-01  0.2357E+00
      1.300  0.1271E-01  0.2370E+00
      1.406  0.3351E-01  0.2406E+00
      1.512  0.1854E-01  0.2426E+00
      1.619  0.4296E-01  0.2471E+00
      1.725  0.4110E-01  0.2515E+00
      1.831  0.7118E-01  0.2591E+00
      1.937  0.4212E-01  0.2635E+00
      2.044  0.2791E-01  0.2665E+00
      2.150  0.1364E-01  0.2680E+00
      2.256  0.2647E-01  0.2708E+00
      2.362  0.2989E-01  0.2739E+00
      2.468  0.2982E-01  0.2771E+00
      2.575  0.4802E-01  0.2822E+00
      2.681  0.6412E-01  0.2890E+00
      2.787  0.4621E-01  0.2939E+00
      2.893  0.9850E-01  0.3044E+00
      3.000  0.6212E-01  0.3110E+00
      3.106  0.1032E+00  0.3220E+00
      3.212  0.7791E-01  0.3302E+00
      3.318  0.2981E-01  0.3334E+00
      3.425  0.5096E-01  0.3388E+00
      3.531  0.2698E-01  0.3417E+00
      3.637  0.2785E-01  0.3446E+00
      3.743  0.7356E-02  0.3454E+00
      3.849  0.2163E-01  0.3477E+00
      3.956  0.1157E-01  0.3489E+00
      4.062  0.4205E-01  0.3534E+00
      4.168  0.4542E-01  0.3582E+00
      4.274  0.7366E-02  0.3590E+00
      4.381  0.2346E-05  0.3590E+00
      4.487  0.1346E-02  0.3592E+00
      4.593  0.1272E-01  0.3605E+00
      4.699  0.3623E-02  0.3609E+00
      4.805  0.6555E-05  0.3609E+00
      4.912  0.2630E-08  0.3609E+00
      5.018  0.2477E-03  0.3609E+00
      5.124  0.1312E-01  0.3623E+00
      5.230  0.7020E-02  0.3631E+00
      5.337  0.3065E-01  0.3663E+00
      5.443  0.6967E-02  0.3671E+00
      5.549  0.2643E-01  0.3699E+00
      5.655  0.1925E-01  0.3719E+00
      5.762  0.2009E-01  0.3741E+00
      5.868  0.3693E-02  0.3744E+00
      5.974  0.1372E-01  0.3759E+00
      6.080  0.3621E-03  0.3759E+00
      6.186  0.6161E-08  0.3759E+00
      6.293  0.4214E-11  0.3759E+00
      6.399  0.1147E-04  0.3759E+00
      6.505  0.9576E-02  0.3770E+00
      6.611  0.3402E-01  0.3806E+00
      6.718  0.2057E-01  0.3828E+00
      6.824  0.3457E-01  0.3864E+00
      6.930  0.3278E-01  0.3899E+00
      7.036  0.2783E-01  0.3929E+00
      7.143  0.5634E-01  0.3989E+00
      7.249  0.3271E-02  0.3992E+00
      7.355  0.1831E-03  0.3992E+00
      7.461  0.2331E-01  0.4017E+00
      7.567  0.3174E-01  0.4051E+00
      7.674  0.1930E-01  0.4071E+00
      7.780  0.4704E-01  0.4121E+00
      7.886  0.1145E-01  0.4133E+00
      7.992  0.3427E-01  0.4170E+00
      8.099  0.6187E-01  0.4235E+00
      8.205  0.4653E-01  0.4285E+00
      8.311  0.3035E-01  0.4317E+00
      8.417  0.3868E-01  0.4358E+00
      8.523  0.7148E-02  0.4366E+00
      8.630  0.2560E-02  0.4369E+00
      8.736  0.1534E-01  0.4385E+00
      8.842  0.1261E-01  0.4398E+00
      8.948  0.1484E-01  0.4414E+00
      9.055  0.3490E-01  0.4451E+00
      9.161  0.1360E-01  0.4465E+00
      9.267  0.1940E-01  0.4486E+00
      9.373  0.8562E-02  0.4495E+00
      9.480  0.2457E-01  0.4521E+00
      9.586  0.2575E-01  0.4549E+00
      9.692  0.1446E-01  0.4564E+00
      9.798  0.1352E-01  0.4578E+00
      9.904  0.2682E-01  0.4607E+00
     10.011  0.2182E-01  0.4630E+00
     10.117  0.3713E-01  0.4669E+00
     10.223  0.6264E-01  0.4736E+00
     10.329  0.7003E-02  0.4743E+00
     10.436  0.2609E-02  0.4746E+00
     10.542  0.8709E-03  0.4747E+00
     10.648  0.2286E-01  0.4771E+00
     10.754  0.3720E-01  0.4811E+00
     10.861  0.1007E-02  0.4812E+00
     10.967  0.1560E-07  0.4812E+00
     11.073  0.3929E-16  0.4812E+00
     11.179  0.0000E+00  0.4812E+00
     11.285  0.0000E+00  0.4812E+00
     11.392  0.0000E+00  0.4812E+00
     11.498  0.0000E+00  0.4812E+00
     11.604  0.0000E+00  0.4812E+00
     11.710  0.0000E+00  0.4812E+00
     11.817  0.0000E+00  0.4812E+00
     11.923  0.0000E+00  0.4812E+00
     12.029  0.0000E+00  0.4812E+00
     12.135  0.0000E+00  0.4812E+00
