  55  55   0   0
  0.2301251E+02  0.1218282E-08  0.7661564E-09  0.1373046E-08  0.0000000E+00
   1.0000000000000000E-004
  CAR 
 NEB_bottleneck                          
      8.87849645    -28.50877790  301      3.06207864      1.00000000
    -28.509  0.0000E+00  0.0000E+00
    -28.384  0.0000E+00  0.0000E+00
    -28.260  0.0000E+00  0.0000E+00
    -28.135 -0.7177E-30 -0.8944E-31
    -28.010 -0.1130E-25 -0.1409E-26
    -27.886 -0.8134E-22 -0.1014E-22
    -27.761 -0.2670E-18 -0.3328E-19
    -27.636 -0.3865E-15 -0.4821E-16
    -27.512 -0.2603E-12 -0.3248E-13
    -27.387 -0.7897E-10 -0.9874E-11
    -27.263 -0.1070E-07 -0.1344E-08
    -27.138 -0.6378E-06 -0.8083E-07
    -27.013 -0.1614E-04 -0.2093E-05
    -26.889 -0.1583E-03 -0.2183E-04
    -26.764 -0.3878E-03 -0.7015E-04
    -26.639  0.1486E-02  0.1151E-03
    -26.515  0.6693E-02  0.9491E-03
    -26.390  0.7098E-02  0.1834E-02
    -26.266  0.1892E-02  0.2070E-02
    -26.141 -0.4829E-03  0.2009E-02
    -26.016 -0.5820E-03  0.1937E-02
    -25.892  0.9311E-03  0.2053E-02
    -25.767  0.6000E-02  0.2801E-02
    -25.642  0.7578E-02  0.3745E-02
    -25.518  0.2589E-02  0.4068E-02
    -25.393 -0.2793E-03  0.4033E-02
    -25.269 -0.2311E-03  0.4004E-02
    -25.144 -0.3093E-04  0.4000E-02
    -25.019 -0.1262E-04  0.3999E-02
    -24.895 -0.1248E-03  0.3983E-02
    -24.770 -0.3963E-03  0.3934E-02
    -24.645  0.9905E-03  0.4057E-02
    -24.521  0.6053E-02  0.4811E-02
    -24.396  0.7451E-02  0.5740E-02
    -24.272  0.1961E-02  0.5984E-02
    -24.147 -0.5293E-03  0.5918E-02
    -24.022  0.6050E-02  0.6672E-02
    -23.898  0.1496E-01  0.8537E-02
    -23.773  0.1695E-01  0.1065E-01
    -23.648  0.2088E-01  0.1325E-01
    -23.524  0.1759E-01  0.1544E-01
    -23.399  0.1010E-01  0.1670E-01
    -23.275  0.1323E-01  0.1835E-01
    -23.150  0.1052E-01  0.1966E-01
    -23.025  0.3772E-02  0.2013E-01
    -22.901  0.1262E-01  0.2171E-01
    -22.776  0.2649E-01  0.2501E-01
    -22.651  0.1945E-01  0.2743E-01
    -22.527  0.1068E-01  0.2876E-01
    -22.402  0.2872E-01  0.3234E-01
    -22.278  0.6383E-01  0.4029E-01
    -22.153  0.8937E-01  0.5143E-01
    -22.028  0.6140E-01  0.5908E-01
    -21.904  0.1148E-01  0.6052E-01
    -21.779 -0.5138E-02  0.5987E-01
    -21.654  0.1868E-02  0.6011E-01
    -21.530  0.3565E-01  0.6455E-01
    -21.405  0.1036E+00  0.7746E-01
    -21.281  0.1389E+00  0.9477E-01
    -21.156  0.9577E-01  0.1067E+00
    -21.031  0.3190E-01  0.1107E+00
    -20.907  0.1505E-01  0.1126E+00
    -20.782  0.2874E-01  0.1161E+00
    -20.657  0.3902E-01  0.1210E+00
    -20.533  0.5275E-01  0.1276E+00
    -20.408  0.5435E-01  0.1343E+00
    -20.284  0.2795E-01  0.1378E+00
    -20.159  0.3864E-02  0.1383E+00
    -20.034 -0.1735E-02  0.1381E+00
    -19.910 -0.6630E-03  0.1380E+00
    -19.785 -0.7911E-04  0.1380E+00
    -19.660 -0.3934E-05  0.1380E+00
    -19.536 -0.8635E-07  0.1380E+00
    -19.411 -0.8523E-09  0.1380E+00
    -19.287 -0.3813E-11  0.1380E+00
    -19.162 -0.7765E-14  0.1380E+00
    -19.037 -0.7127E-17  0.1380E+00
    -18.913  0.0000E+00  0.1380E+00
    -18.788  0.0000E+00  0.1380E+00
    -18.663  0.0000E+00  0.1380E+00
    -18.539  0.0000E+00  0.1380E+00
    -18.414  0.0000E+00  0.1380E+00
    -18.290  0.0000E+00  0.1380E+00
    -18.165  0.0000E+00  0.1380E+00
    -18.040  0.0000E+00  0.1380E+00
    -17.916  0.0000E+00  0.1380E+00
    -17.791  0.0000E+00  0.1380E+00
    -17.666  0.0000E+00  0.1380E+00
    -17.542  0.0000E+00  0.1380E+00
    -17.417  0.0000E+00  0.1380E+00
    -17.293  0.0000E+00  0.1380E+00
    -17.168  0.0000E+00  0.1380E+00
    -17.043  0.0000E+00  0.1380E+00
    -16.919  0.0000E+00  0.1380E+00
    -16.794  0.0000E+00  0.1380E+00
    -16.669  0.0000E+00  0.1380E+00
    -16.545  0.0000E+00  0.1380E+00
    -16.420  0.0000E+00  0.1380E+00
    -16.296  0.0000E+00  0.1380E+00
    -16.171  0.0000E+00  0.1380E+00
    -16.046  0.0000E+00  0.1380E+00
    -15.922  0.0000E+00  0.1380E+00
    -15.797  0.0000E+00  0.1380E+00
    -15.672  0.0000E+00  0.1380E+00
    -15.548  0.0000E+00  0.1380E+00
    -15.423 -0.9802E-32  0.1380E+00
    -15.299 -0.2145E-27  0.1380E+00
    -15.174 -0.2145E-23  0.1380E+00
    -15.049 -0.9794E-20  0.1380E+00
    -14.925 -0.1948E-16  0.1380E+00
    -14.800 -0.1859E-13  0.1380E+00
    -14.675 -0.7891E-11  0.1380E+00
    -14.551 -0.1503E-08  0.1380E+00
    -14.426 -0.1268E-06  0.1380E+00
    -14.302 -0.4628E-05  0.1380E+00
    -14.177 -0.6890E-04  0.1380E+00
    -14.052 -0.3425E-03  0.1379E+00
    -13.928  0.1918E-03  0.1380E+00
    -13.803  0.4439E-02  0.1385E+00
    -13.678  0.7808E-02  0.1395E+00
    -13.554  0.3783E-02  0.1400E+00
    -13.429  0.2357E-02  0.1403E+00
    -13.305  0.7069E-02  0.1411E+00
    -13.180  0.6247E-02  0.1419E+00
    -13.055  0.1163E-02  0.1421E+00
    -12.931 -0.4091E-03  0.1420E+00
    -12.806 -0.3050E-03  0.1420E+00
    -12.681 -0.7362E-03  0.1419E+00
    -12.557  0.8145E-03  0.1420E+00
    -12.432  0.9868E-02  0.1432E+00
    -12.308  0.1573E-01  0.1452E+00
    -12.183  0.6889E-02  0.1460E+00
    -12.058  0.5364E-03  0.1461E+00
    -11.934  0.4864E-02  0.1467E+00
    -11.809  0.7721E-02  0.1477E+00
    -11.685  0.3119E-02  0.1481E+00
    -11.560 -0.1846E-03  0.1480E+00
    -11.435 -0.2887E-03  0.1480E+00
    -11.311 -0.2381E-03  0.1480E+00
    -11.186 -0.3451E-03  0.1479E+00
    -11.061  0.2086E-02  0.1482E+00
    -10.937  0.7161E-02  0.1491E+00
    -10.812  0.5990E-02  0.1498E+00
    -10.688  0.1196E-02  0.1500E+00
    -10.563  0.5751E-02  0.1507E+00
    -10.438  0.1431E-01  0.1525E+00
    -10.314  0.1064E-01  0.1538E+00
    -10.189  0.4584E-02  0.1544E+00
    -10.064  0.8229E-02  0.1554E+00
     -9.940  0.1454E-01  0.1572E+00
     -9.815  0.1874E-01  0.1595E+00
     -9.691  0.1500E-01  0.1614E+00
     -9.566  0.8550E-02  0.1625E+00
     -9.441  0.7029E-02  0.1634E+00
     -9.317  0.6215E-02  0.1641E+00
     -9.192  0.1173E-01  0.1656E+00
     -9.067  0.2118E-01  0.1682E+00
     -8.943  0.2205E-01  0.1710E+00
     -8.818  0.2087E-01  0.1736E+00
     -8.694  0.2768E-01  0.1770E+00
     -8.569  0.2677E-01  0.1804E+00
     -8.444  0.1240E-01  0.1819E+00
     -8.320  0.3564E-02  0.1824E+00
     -8.195  0.6448E-02  0.1832E+00
     -8.070  0.6018E-02  0.1839E+00
     -7.946  0.8556E-03  0.1840E+00
     -7.821 -0.2895E-03  0.1840E+00
     -7.697  0.4079E-02  0.1845E+00
     -7.572  0.8011E-02  0.1855E+00
     -7.447  0.4349E-02  0.1860E+00
     -7.323  0.1518E-03  0.1861E+00
     -7.198 -0.3364E-03  0.1860E+00
     -7.073 -0.6587E-04  0.1860E+00
     -6.949 -0.4340E-05  0.1860E+00
     -6.824 -0.1169E-06  0.1860E+00
     -6.700 -0.1407E-08  0.1860E+00
     -6.575 -0.6640E-08  0.1860E+00
     -6.450 -0.4315E-06  0.1860E+00
     -6.326 -0.1199E-04  0.1860E+00
     -6.201 -0.1312E-03  0.1860E+00
     -6.076 -0.4035E-03  0.1859E+00
     -5.952  0.9929E-03  0.1861E+00
     -5.827  0.5817E-02  0.1868E+00
     -5.703  0.7937E-02  0.1878E+00
     -5.578  0.7534E-02  0.1887E+00
     -5.453  0.7613E-02  0.1897E+00
     -5.329  0.3224E-02  0.1901E+00
     -5.204 -0.1405E-03  0.1900E+00
     -5.079 -0.2885E-03  0.1900E+00
     -4.955 -0.8870E-04  0.1900E+00
     -4.830 -0.2806E-03  0.1900E+00
     -4.706 -0.1392E-03  0.1899E+00
     -4.581  0.3320E-02  0.1904E+00
     -4.456  0.7760E-02  0.1913E+00
     -4.332  0.4834E-02  0.1919E+00
     -4.207  0.1401E-02  0.1921E+00
     -4.082  0.5325E-02  0.1928E+00
     -3.958  0.8599E-02  0.1938E+00
     -3.833  0.8641E-02  0.1949E+00
     -3.709  0.8653E-02  0.1960E+00
     -3.584  0.8455E-02  0.1970E+00
     -3.459  0.6504E-02  0.1979E+00
     -3.335  0.5540E-02  0.1985E+00
     -3.210  0.8955E-02  0.1997E+00
     -3.085  0.1384E-01  0.2014E+00
     -2.961  0.2083E-01  0.2040E+00
     -2.836  0.2063E-01  0.2066E+00
     -2.712  0.1166E-01  0.2080E+00
     -2.587  0.7082E-02  0.2089E+00
     -2.462  0.8879E-02  0.2100E+00
     -2.338  0.1631E-01  0.2120E+00
     -2.213  0.2305E-01  0.2149E+00
     -2.088  0.2206E-01  0.2176E+00
     -1.964  0.1725E-01  0.2198E+00
     -1.839  0.1145E-01  0.2212E+00
     -1.715  0.1432E-01  0.2230E+00
     -1.590  0.2599E-01  0.2262E+00
     -1.465  0.2575E-01  0.2295E+00
     -1.341  0.1600E-01  0.2315E+00
     -1.216  0.1283E-01  0.2331E+00
     -1.091  0.1367E-01  0.2348E+00
     -0.967  0.1811E-01  0.2370E+00
     -0.842  0.2081E-01  0.2396E+00
     -0.718  0.1983E-01  0.2421E+00
     -0.593  0.1902E-01  0.2444E+00
     -0.468  0.1590E-01  0.2464E+00
     -0.344  0.1524E-01  0.2483E+00
     -0.219  0.2666E-01  0.2517E+00
     -0.094  0.3691E-01  0.2563E+00
      0.030  0.3211E-01  0.2603E+00
      0.155  0.2683E-01  0.2636E+00
      0.279  0.3100E-01  0.2675E+00
      0.404  0.3146E-01  0.2714E+00
      0.529  0.2154E-01  0.2741E+00
      0.653  0.1967E-01  0.2765E+00
      0.778  0.2539E-01  0.2797E+00
      0.903  0.2217E-01  0.2824E+00
      1.027  0.1760E-01  0.2846E+00
      1.152  0.1549E-01  0.2866E+00
      1.276  0.1580E-01  0.2885E+00
      1.401  0.2130E-01  0.2912E+00
      1.526  0.3032E-01  0.2950E+00
      1.650  0.2929E-01  0.2986E+00
      1.775  0.2316E-01  0.3015E+00
      1.900  0.2618E-01  0.3048E+00
      2.024  0.3218E-01  0.3088E+00
      2.149  0.3387E-01  0.3130E+00
      2.273  0.2885E-01  0.3166E+00
      2.398  0.2269E-01  0.3194E+00
      2.523  0.1782E-01  0.3216E+00
      2.647  0.1318E-01  0.3233E+00
      2.772  0.1055E-01  0.3246E+00
      2.897  0.1032E-01  0.3259E+00
      3.021  0.1712E-01  0.3280E+00
      3.146  0.2484E-01  0.3311E+00
      3.270  0.1793E-01  0.3333E+00
      3.395  0.8326E-02  0.3344E+00
      3.520  0.1256E-01  0.3360E+00
      3.644  0.1890E-01  0.3383E+00
      3.769  0.1302E-01  0.3399E+00
      3.894  0.7318E-02  0.3408E+00
      4.018  0.8600E-02  0.3419E+00
      4.143  0.8941E-02  0.3430E+00
      4.267  0.6530E-02  0.3438E+00
      4.392  0.8521E-02  0.3449E+00
      4.517  0.1462E-01  0.3467E+00
      4.641  0.1245E-01  0.3483E+00
      4.766  0.1181E-01  0.3497E+00
      4.891  0.1625E-01  0.3518E+00
      5.015  0.1783E-01  0.3540E+00
      5.140  0.1373E-01  0.3557E+00
      5.264  0.1402E-01  0.3575E+00
      5.389  0.2139E-01  0.3601E+00
      5.514  0.2142E-01  0.3628E+00
      5.638  0.1701E-01  0.3649E+00
      5.763  0.1722E-01  0.3671E+00
      5.888  0.2007E-01  0.3696E+00
      6.012  0.2299E-01  0.3724E+00
      6.137  0.2536E-01  0.3756E+00
      6.261  0.2657E-01  0.3789E+00
      6.386  0.2519E-01  0.3820E+00
      6.511  0.2514E-01  0.3852E+00
      6.635  0.2925E-01  0.3888E+00
      6.760  0.2916E-01  0.3924E+00
      6.885  0.2033E-01  0.3950E+00
      7.009  0.8462E-02  0.3960E+00
      7.134  0.6300E-03  0.3961E+00
      7.258 -0.7120E-03  0.3960E+00
      7.383 -0.1962E-03  0.3960E+00
      7.508 -0.1795E-04  0.3960E+00
      7.632 -0.6752E-06  0.3960E+00
      7.757 -0.1105E-07  0.3960E+00
      7.882 -0.8037E-10  0.3960E+00
      8.006 -0.2629E-12  0.3960E+00
      8.131 -0.3920E-15  0.3960E+00
      8.255  0.0000E+00  0.3960E+00
      8.380  0.0000E+00  0.3960E+00
      8.505  0.0000E+00  0.3960E+00
      8.629  0.0000E+00  0.3960E+00
      8.754  0.0000E+00  0.3960E+00
      8.878  0.0000E+00  0.3960E+00
