 vasp.6.3.2 27Jun22 (build Jun 14 2024 17:29:11) complex                         
 POSCAR found type information on POSCAR NaAlS 
 06/POSCAR found :  3 types and      55 ions
 -----------------------------------------------------------------------------
|                                                                             |
|           W    W    AA    RRRRR   N    N  II  N    N   GGGG   !!!           |
|           W    W   A  A   R    R  NN   N  II  NN   N  G    G  !!!           |
|           W    W  A    A  R    R  N N  N  II  N N  N  G       !!!           |
|           W WW W  AAAAAA  RRRRR   N  N N  II  N  N N  G  GGG   !            |
|           WW  WW  A    A  R   R   N   NN  II  N   NN  G    G                |
|           W    W  A    A  R    R  N    N  II  N    N   GGGG   !!!           |
|                                                                             |
|     The value NPAR = 9 specified in the INCAR file was overwritten,         |
|     because it was not compatible with the 3 processes available:           |
|     NPAR = 3                                                                |
|     was used instead, please check that this makes sense for your           |
|     machine.                                                                |
|                                                                             |
 -----------------------------------------------------------------------------

 LDA part: xc-table for Pade appr. of Perdew
 POSCAR found type information on POSCAR NaAlS 
 00/POSCAR found :  3 types and      55 ions
 POSCAR found type information on POSCAR NaAlS 
 10/POSCAR found :  3 types and      55 ions
 -----------------------------------------------------------------------------
|                                                                             |
|           W    W    AA    RRRRR   N    N  II  N    N   GGGG   !!!           |
|           W    W   A  A   R    R  NN   N  II  NN   N  G    G  !!!           |
|           W    W  A    A  R    R  N N  N  II  N N  N  G       !!!           |
|           W WW W  AAAAAA  RRRRR   N  N N  II  N  N N  G  GGG   !            |
|           WW  WW  A    A  R   R   N   NN  II  N   NN  G    G                |
|           W    W  A    A  R    R  N    N  II  N    N   GGGG   !!!           |
|                                                                             |
|     The distance between some ions is very small. Please check the          |
|     nearest-neighbor list in the OUTCAR file.                               |
|     I HOPE YOU KNOW WHAT YOU ARE DOING!                                     |
|                                                                             |
 -----------------------------------------------------------------------------

 POSCAR, INCAR and KPOINTS ok, starting setup
 FFT: planning ... GRIDC
 FFT: planning ... GRID_SOFT
 FFT: planning ... GRID
 WAVECAR not read
 entering main loop
       N       E                     dE             d eps       ncg     rms          rms(c)
DAV:   1     0.363441362528E+04    0.36344E+04   -0.14847E+05   423   0.160E+03
DAV:   2     0.500980239563E+03   -0.31334E+04   -0.30197E+04   432   0.423E+02
DAV:   3     0.531594939480E+01   -0.49566E+03   -0.48296E+03   495   0.180E+02
DAV:   4    -0.338430384553E+02   -0.39159E+02   -0.38517E+02   504   0.442E+01
DAV:   5    -0.359039809265E+02   -0.20609E+01   -0.20499E+01   594   0.951E+00    0.185E+03
RMM:   6    -0.417734616287E+00    0.35486E+02   -0.72450E+01   444   0.109E+01    0.429E+01
RMM:   7     0.411198352851E+01    0.45297E+01   -0.35960E+01   511   0.783E+00    0.128E+02
RMM:   8     0.415675467547E+01    0.44771E-01   -0.82200E+00   506   0.445E+00    0.439E+01
RMM:   9     0.638456530698E+01    0.22278E+01   -0.22758E+00   501   0.272E+00    0.520E+01
RMM:  10     0.645942893825E+01    0.74864E-01   -0.10163E+00   500   0.167E+00    0.444E+01
RMM:  11     0.656844486590E+01    0.10902E+00   -0.22938E-01   496   0.915E-01    0.491E+00
RMM:  12     0.655448066644E+01   -0.13964E-01   -0.10896E-01   516   0.568E-01    0.173E+01
RMM:  13     0.653972679392E+01   -0.14754E-01   -0.46018E-02   530   0.336E-01    0.178E+01
RMM:  14     0.651332423199E+01   -0.26403E-01   -0.61341E-02   495   0.283E-01    0.535E+00
RMM:  15     0.657527395073E+01    0.61950E-01   -0.15921E-02   468   0.184E-01    0.505E-01
RMM:  16     0.657493342940E+01   -0.34052E-03   -0.43324E-03   568   0.104E-01    0.158E-01
RMM:  17     0.657448026646E+01   -0.45316E-03   -0.10100E-03   615   0.493E-02    0.249E-01
RMM:  18     0.657466417938E+01    0.18391E-03   -0.13088E-04   527   0.206E-02    0.656E-01
RMM:  19     0.657448200151E+01   -0.18218E-03   -0.12786E-04   420   0.147E-02    0.372E-01
RMM:  20     0.657448996805E+01    0.79665E-05   -0.87039E-05   415   0.116E-02    0.244E-01
RMM:  21     0.657448745906E+01   -0.25090E-05   -0.45924E-05   439   0.826E-03    0.518E-02
RMM:  22     0.657447471298E+01   -0.12746E-04   -0.11800E-05   353   0.481E-03    0.554E-02
RMM:  23     0.657446515016E+01   -0.95628E-05   -0.14187E-05   330   0.427E-03    0.614E-02
RMM:  24     0.657446304165E+01   -0.21085E-05   -0.51168E-06   296   0.288E-03    0.198E-02
RMM:  25     0.657446311336E+01    0.71712E-07   -0.14800E-06   250   0.197E-03
   1 F= 0.65744631E+01 E0= 0.66073479E+01  d E =0.657446E+01
quench:  g(F)=  0.000E+00 g(S)=  0.000E+00 dE (1.order)= 0.000E+00
 bond charge predicted
       N       E                     dE             d eps       ncg     rms          rms(c)
DAV:   1     0.657446302395E+01   -0.17695E-07   -0.49039E-07   261   0.170E-03    0.364E-03
RMM:   2     0.657446300160E+01   -0.22352E-07   -0.11004E-07   219   0.103E-03
   2 F= 0.65744630E+01 E0= 0.66073497E+01  d E =-.111759E-06
quench:  g(F)=  0.000E+00 g(S)=  0.000E+00 dE (1.order)= 0.000E+00
 bond charge predicted
       N       E                     dE             d eps       ncg     rms          rms(c)
DAV:   1     0.657446279671E+01   -0.22724E-06   -0.17804E-06   261   0.117E-03    0.118E-02
RMM:   2     0.657445940577E+01   -0.33909E-05   -0.12690E-06   208   0.117E-03    0.607E-02
RMM:   3     0.657446297459E+01    0.35688E-05   -0.52050E-07   162   0.107E-03    0.487E-03
RMM:   4     0.657446298856E+01    0.13970E-07   -0.18533E-07   138   0.898E-04
   3 F= 0.65744630E+01 E0= 0.66073494E+01  d E =-.130385E-07
quench:  g(F)=  0.000E+00 g(S)=  0.000E+00 dE (1.order)= 0.000E+00
 bond charge predicted
       N       E                     dE             d eps       ncg     rms          rms(c)
DAV:   1     0.657446298204E+01    0.74506E-08   -0.90688E-08   252   0.935E-04    0.879E-04
RMM:   2     0.657446300346E+01    0.21420E-07   -0.48481E-10    51   0.271E-04
   4 F= 0.65744630E+01 E0= 0.66073491E+01  d E =0.149012E-07
quench:  g(F)=  0.000E+00 g(S)=  0.000E+00 dE (1.order)= 0.000E+00
 bond charge predicted
       N       E                     dE             d eps       ncg     rms          rms(c)
DAV:   1     0.657446298856E+01    0.65193E-08   -0.41056E-08   261   0.300E-04    0.137E-03
RMM:   2     0.657446297366E+01   -0.14901E-07   -0.18681E-09    46   0.240E-04
   5 F= 0.65744630E+01 E0= 0.66073477E+01  d E =-.298023E-07
quench:  g(F)=  0.000E+00 g(S)=  0.000E+00 dE (1.order)= 0.000E+00
 bond charge predicted
       N       E                     dE             d eps       ncg     rms          rms(c)
DAV:   1     0.657446299229E+01    0.37253E-08   -0.22893E-07   252   0.326E-04    0.248E-04
RMM:   2     0.657446300067E+01    0.83819E-08    0.56111E-62    36   0.162E-04
   6 F= 0.65744630E+01 E0= 0.66073495E+01  d E =0.270084E-07
quench:  g(F)=  0.000E+00 g(S)=  0.000E+00 dE (1.order)= 0.000E+00
 bond charge predicted
       N       E                     dE             d eps       ncg     rms          rms(c)
DAV:   1     0.657446300998E+01    0.17695E-07   -0.60943E-09   252   0.169E-04    0.206E-04
RMM:   2     0.657446299974E+01   -0.10245E-07    0.21906E-13    31   0.117E-04
   7 F= 0.65744630E+01 E0= 0.66073498E+01  d E =-.931323E-09
quench:  g(F)=  0.000E+00 g(S)=  0.000E+00 dE (1.order)= 0.000E+00
 bond charge predicted
       N       E                     dE             d eps       ncg     rms          rms(c)
DAV:   1     0.657446299601E+01   -0.13970E-07   -0.19788E-09   243   0.116E-04    0.111E-03
RMM:   2     0.657446298763E+01   -0.83819E-08    0.97592E-65    22   0.119E-04
   8 F= 0.65744630E+01 E0= 0.66073483E+01  d E =-.121072E-07
quench:  g(F)=  0.000E+00 g(S)=  0.000E+00 dE (1.order)= 0.000E+00
 bond charge predicted
       N       E                     dE             d eps       ncg     rms          rms(c)
DAV:   1     0.657446298018E+01   -0.15832E-07   -0.13434E-07   225   0.198E-04    0.632E-04
RMM:   2     0.657446299601E+01    0.15832E-07    0.30303-105    19   0.878E-05
   9 F= 0.65744630E+01 E0= 0.66073486E+01  d E =0.838190E-08
quench:  g(F)=  0.000E+00 g(S)=  0.000E+00 dE (1.order)= 0.000E+00
 bond charge predicted
       N       E                     dE             d eps       ncg     rms          rms(c)
DAV:   1     0.657446300905E+01    0.28871E-07   -0.47795E-08   225   0.123E-04    0.138E-04
RMM:   2     0.657446299508E+01   -0.13970E-07    0.22407E-65    18   0.626E-05
  10 F= 0.65744630E+01 E0= 0.66073495E+01  d E =-.931323E-09
quench:  g(F)=  0.000E+00 g(S)=  0.000E+00 dE (1.order)= 0.000E+00
 bond charge predicted
       N       E                     dE             d eps       ncg     rms          rms(c)
DAV:   1     0.657446300253E+01   -0.65193E-08   -0.19270E-09   225   0.684E-05    0.132E-04
RMM:   2     0.657446300719E+01    0.46566E-08    0.15967-110    14   0.435E-05
  11 F= 0.65744630E+01 E0= 0.66073497E+01  d E =0.121072E-07
quench:  g(F)=  0.000E+00 g(S)=  0.000E+00 dE (1.order)= 0.000E+00
 bond charge predicted
       N       E                     dE             d eps       ncg     rms          rms(c)
DAV:   1     0.657446298204E+01   -0.20489E-07   -0.20915E-09   225   0.460E-05    0.447E-04
RMM:   2     0.657446301091E+01    0.28871E-07    0.10629-110    11   0.440E-05
  12 F= 0.65744630E+01 E0= 0.66073490E+01  d E =0.372529E-08
quench:  g(F)=  0.000E+00 g(S)=  0.000E+00 dE (1.order)= 0.000E+00
 bond charge predicted
       N       E                     dE             d eps       ncg     rms          rms(c)
DAV:   1     0.657446299974E+01    0.17695E-07   -0.21016E-08   225   0.798E-05    0.393E-04
RMM:   2     0.657446300812E+01    0.83819E-08    0.59850-115    10   0.395E-05
  13 F= 0.65744630E+01 E0= 0.66073489E+01  d E =-.279397E-08
quench:  g(F)=  0.000E+00 g(S)=  0.000E+00 dE (1.order)= 0.000E+00
 bond charge predicted
       N       E                     dE             d eps       ncg     rms          rms(c)
DAV:   1     0.657446298018E+01   -0.19558E-07   -0.18467E-08   225   0.678E-05    0.419E-05
RMM:   2     0.657446298949E+01    0.93132E-08    0.41496-115     8   0.235E-05
  14 F= 0.65744630E+01 E0= 0.66073494E+01  d E =-.186265E-07
quench:  g(F)=  0.000E+00 g(S)=  0.000E+00 dE (1.order)= 0.000E+00
 bond charge predicted
       N       E                     dE             d eps       ncg     rms          rms(c)
DAV:   1     0.657446297180E+01   -0.83819E-08   -0.38003E-10   225   0.254E-05    0.315E-05
RMM:   2     0.657446299788E+01    0.26077E-07    0.35164-115     7   0.178E-05
  15 F= 0.65744630E+01 E0= 0.66073495E+01  d E =0.838190E-08
quench:  g(F)=  0.000E+00 g(S)=  0.000E+00 dE (1.order)= 0.000E+00
 bond charge predicted
       N       E                     dE             d eps       ncg     rms          rms(c)
DAV:   1     0.657446300440E+01    0.32596E-07   -0.54794E-10   225   0.175E-05    0.152E-04
RMM:   2     0.657446301278E+01    0.83819E-08    0.24659-115     7   0.176E-05
  16 F= 0.65744630E+01 E0= 0.66073493E+01  d E =0.149012E-07
quench:  g(F)=  0.000E+00 g(S)=  0.000E+00 dE (1.order)= 0.000E+00
 bond charge predicted
       N       E                     dE             d eps       ncg     rms          rms(c)
DAV:   1     0.657446300626E+01    0.18626E-08   -0.27914E-09   225   0.276E-05    0.882E-05
RMM:   2     0.657446300812E+01    0.18626E-08    0.10046-158     3   0.129E-05
  17 F= 0.65744630E+01 E0= 0.66073493E+01  d E =-.465661E-08
quench:  g(F)=  0.000E+00 g(S)=  0.000E+00 dE (1.order)= 0.000E+00
 bond charge predicted
       N       E                     dE             d eps       ncg     rms          rms(c)
DAV:   1     0.657446299322E+01   -0.13039E-07   -0.10444E-09   225   0.170E-05    0.268E-05
RMM:   2     0.657446298949E+01   -0.37253E-08    0.44013-159     3   0.930E-06
  18 F= 0.65744630E+01 E0= 0.66073494E+01  d E =-.186265E-07
quench:  g(F)=  0.000E+00 g(S)=  0.000E+00 dE (1.order)= 0.000E+00
 bond charge predicted
       N       E                     dE             d eps       ncg     rms          rms(c)
DAV:   1     0.657446299788E+01    0.46566E-08   -0.31948E-10   225   0.105E-05    0.138E-05
RMM:   2     0.657446300533E+01    0.74506E-08    0.11880-159     3   0.658E-06
  19 F= 0.65744630E+01 E0= 0.66073495E+01  d E =0.158325E-07
quench:  g(F)=  0.000E+00 g(S)=  0.000E+00 dE (1.order)= 0.000E+00
 bond charge predicted
       N       E                     dE             d eps       ncg     rms          rms(c)
DAV:   1     0.657446299322E+01   -0.46566E-08   -0.31673E-10   225   0.650E-06    0.110E-04
RMM:   2     0.657446298484E+01   -0.83819E-08    0.53442-160     3   0.912E-06
  20 F= 0.65744630E+01 E0= 0.66073493E+01  d E =-.204891E-07
quench:  g(F)=  0.000E+00 g(S)=  0.000E+00 dE (1.order)= 0.000E+00
 bond charge predicted
       N       E                     dE             d eps       ncg     rms          rms(c)
DAV:   1     0.657446301278E+01    0.19558E-07   -0.14120E-09   225   0.183E-05    0.752E-05
RMM:   2     0.657446298204E+01   -0.30734E-07    0.21929-165     2   0.724E-06
  21 F= 0.65744630E+01 E0= 0.66073493E+01  d E =-.279397E-08
quench:  g(F)=  0.000E+00 g(S)=  0.000E+00 dE (1.order)= 0.000E+00
 bond charge predicted
       N       E                     dE             d eps       ncg     rms          rms(c)
DAV:   1     0.657446299043E+01   -0.22352E-07   -0.54978E-10   225   0.125E-05    0.115E-05
RMM:   2     0.657446301371E+01    0.23283E-07    0.14231-165     2   0.432E-06
  22 F= 0.65744630E+01 E0= 0.66073494E+01  d E =0.316650E-07
quench:  g(F)=  0.000E+00 g(S)=  0.000E+00 dE (1.order)= 0.000E+00
 bond charge predicted
       N       E                     dE             d eps       ncg     rms          rms(c)
DAV:   1     0.657446299508E+01    0.46566E-08    0.26948E-11   225   0.426E-06    0.359E-06
RMM:   2     0.657446300719E+01    0.12107E-07    0.63585-166     2   0.287E-06
  23 F= 0.65744630E+01 E0= 0.66073494E+01  d E =-.651926E-08
quench:  g(F)=  0.000E+00 g(S)=  0.000E+00 dE (1.order)= 0.000E+00
 bond charge predicted
       N       E                     dE             d eps       ncg     rms          rms(c)
DAV:   1     0.657446299788E+01    0.27940E-08   -0.28984E-10   207   0.288E-06    0.745E-06
RMM:   2     0.657446299788E+01    0.00000E+00    0.52024-166     1   0.210E-06
  24 F= 0.65744630E+01 E0= 0.66073494E+01  d E =-.931323E-08
quench:  g(F)=  0.000E+00 g(S)=  0.000E+00 dE (1.order)= 0.000E+00
 bond charge predicted
       N       E                     dE             d eps       ncg     rms          rms(c)
DAV:   1     0.657446299136E+01   -0.65193E-08    0.69059E-11   198   0.242E-06    0.260E-05
RMM:   2     0.657446299788E+01    0.65193E-08    0.40941-166     1   0.240E-06
  25 F= 0.65744630E+01 E0= 0.66073494E+01  d E =0.000000E+00
quench:  g(F)=  0.000E+00 g(S)=  0.000E+00 dE (1.order)= 0.000E+00
 bond charge predicted
       N       E                     dE             d eps       ncg     rms          rms(c)
DAV:   1     0.657446300253E+01    0.11176E-07   -0.14936E-10   198   0.473E-06    0.926E-06
RMM:   2     0.657446298949E+01   -0.13039E-07    0.36636-166     1   0.155E-06
  26 F= 0.65744630E+01 E0= 0.66073494E+01  d E =-.838190E-08
quench:  g(F)=  0.000E+00 g(S)=  0.000E+00 dE (1.order)= 0.000E+00
 bond charge predicted
       N       E                     dE             d eps       ncg     rms          rms(c)
DAV:   1     0.657446300160E+01   -0.93132E-09    0.41061E-11   198   0.208E-06    0.288E-06
RMM:   2     0.657446299788E+01   -0.37253E-08    0.29827-166     1   0.132E-06
  27 F= 0.65744630E+01 E0= 0.66073494E+01  d E =0.838190E-08
quench:  g(F)=  0.000E+00 g(S)=  0.000E+00 dE (1.order)= 0.000E+00
 bond charge predicted
       N       E                     dE             d eps       ncg     rms          rms(c)
DAV:   1     0.657446301371E+01    0.12107E-07   -0.13152E-10   198   0.134E-06    0.652E-06
RMM:   2     0.657446302023E+01    0.65193E-08    0.25955-166     1   0.981E-07
  28 F= 0.65744630E+01 E0= 0.66073494E+01  d E =0.223517E-07
quench:  g(F)=  0.000E+00 g(S)=  0.000E+00 dE (1.order)= 0.000E+00
 bond charge predicted
       N       E                     dE             d eps       ncg     rms          rms(c)
DAV:   1     0.657446299788E+01   -0.15832E-07   -0.10632E-10   198   0.133E-06    0.553E-06
RMM:   2     0.657446300253E+01    0.46566E-08    0.22426-166     1   0.984E-07
  29 F= 0.65744630E+01 E0= 0.66073494E+01  d E =-.176951E-07
quench:  g(F)=  0.000E+00 g(S)=  0.000E+00 dE (1.order)= 0.000E+00
 bond charge predicted
       N       E                     dE             d eps       ncg     rms          rms(c)
DAV:   1     0.657446301930E+01    0.21420E-07   -0.69440E-11   198   0.125E-06    0.175E-05
RMM:   2     0.657446301371E+01   -0.55879E-08    0.20143-166     1   0.138E-06
  30 F= 0.65744630E+01 E0= 0.66073494E+01  d E =0.111759E-07
quench:  g(F)=  0.000E+00 g(S)=  0.000E+00 dE (1.order)= 0.000E+00
 bond charge predicted
       N       E                     dE             d eps       ncg     rms          rms(c)
DAV:   1     0.657446300719E+01   -0.12107E-07   -0.24171E-10   198   0.299E-06    0.563E-06
RMM:   2     0.657446299322E+01   -0.13970E-07    0.17137-166     1   0.657E-07
  31 F= 0.65744630E+01 E0= 0.66073494E+01  d E =-.204891E-07
quench:  g(F)=  0.000E+00 g(S)=  0.000E+00 dE (1.order)= 0.000E+00
 bond charge predicted
       N       E                     dE             d eps       ncg     rms          rms(c)
DAV:   1     0.657446300998E+01    0.27940E-08    0.97311E-12   198   0.108E-06    0.557E-07
RMM:   2     0.657446299043E+01   -0.19558E-07    0.17643-166     1   0.425E-07
  32 F= 0.65744630E+01 E0= 0.66073494E+01  d E =-.279397E-08
quench:  g(F)=  0.000E+00 g(S)=  0.000E+00 dE (1.order)= 0.000E+00
 bond charge predicted
       N       E                     dE             d eps       ncg     rms          rms(c)
DAV:   1     0.657446298763E+01   -0.22352E-07   -0.89430E-11   198   0.424E-07    0.942E-06
RMM:   2     0.657446298763E+01    0.00000E+00    0.12728-166     1   0.319E-07
  33 F= 0.65744630E+01 E0= 0.66073494E+01  d E =-.279397E-08
quench:  g(F)=  0.000E+00 g(S)=  0.000E+00 dE (1.order)= 0.000E+00
 bond charge predicted
       N       E                     dE             d eps       ncg     rms          rms(c)
DAV:   1     0.657446301650E+01    0.28871E-07   -0.15006E-10   198   0.755E-07    0.867E-06
RMM:   2     0.657446300533E+01   -0.11176E-07    0.12577-166     1   0.859E-07
  34 F= 0.65744630E+01 E0= 0.66073494E+01  d E =0.176951E-07
quench:  g(F)=  0.000E+00 g(S)=  0.000E+00 dE (1.order)= 0.000E+00
 bond charge predicted
       N       E                     dE             d eps       ncg     rms          rms(c)
DAV:   1     0.657446300160E+01   -0.14901E-07   -0.28848E-10   198   0.157E-06    0.124E-05
RMM:   2     0.657446299881E+01   -0.27940E-08    0.98165-167     1   0.913E-07
  35 F= 0.65744630E+01 E0= 0.66073494E+01  d E =-.651926E-08
quench:  g(F)=  0.000E+00 g(S)=  0.000E+00 dE (1.order)= 0.000E+00
 bond charge predicted
       N       E                     dE             d eps       ncg     rms          rms(c)
DAV:   1     0.657446298856E+01   -0.13039E-07   -0.32643E-11   198   0.210E-06    0.158E-06
RMM:   2     0.657446301278E+01    0.24214E-07    0.10502-166     1   0.209E-07
  36 F= 0.65744630E+01 E0= 0.66073494E+01  d E =0.139698E-07
quench:  g(F)=  0.000E+00 g(S)=  0.000E+00 dE (1.order)= 0.000E+00
 bond charge predicted
       N       E                     dE             d eps       ncg     rms          rms(c)
DAV:   1     0.657446298670E+01   -0.18626E-08   -0.37366E-10   198   0.240E-07    0.753E-06
RMM:   2     0.657446299788E+01    0.11176E-07    0.89633-167     1   0.439E-07
  37 F= 0.65744630E+01 E0= 0.66073494E+01  d E =-.149012E-07
quench:  g(F)=  0.000E+00 g(S)=  0.000E+00 dE (1.order)= 0.000E+00
 bond charge predicted
       N       E                     dE             d eps       ncg     rms          rms(c)
DAV:   1     0.657446300346E+01    0.16764E-07   -0.50872E-11   198   0.106E-06    0.439E-06
RMM:   2     0.657446300160E+01   -0.18626E-08    0.75417-167     1   0.478E-07
  38 F= 0.65744630E+01 E0= 0.66073494E+01  d E =0.372529E-08
quench:  g(F)=  0.000E+00 g(S)=  0.000E+00 dE (1.order)= 0.000E+00
 bond charge predicted
       N       E                     dE             d eps       ncg     rms          rms(c)
DAV:   1     0.657446299881E+01   -0.46566E-08    0.57999E-12   198   0.784E-07    0.527E-06
RMM:   2     0.657446300533E+01    0.65193E-08    0.63980-167     1   0.439E-07
  39 F= 0.65744630E+01 E0= 0.66073494E+01  d E =0.372529E-08
quench:  g(F)=  0.000E+00 g(S)=  0.000E+00 dE (1.order)= 0.000E+00
 bond charge predicted
       N       E                     dE             d eps       ncg     rms          rms(c)
DAV:   1     0.657446301185E+01    0.13039E-07   -0.12132E-10   198   0.972E-07    0.301E-06
RMM:   2     0.657446298949E+01   -0.22352E-07    0.61267-167     1   0.103E-07
  40 F= 0.65744630E+01 E0= 0.66073494E+01  d E =-.158325E-07
quench:  g(F)=  0.000E+00 g(S)=  0.000E+00 dE (1.order)= 0.000E+00
 bond charge predicted
       N       E                     dE             d eps       ncg     rms          rms(c)
DAV:   1     0.657446300160E+01   -0.10245E-07   -0.14309E-10   198   0.109E-07    0.703E-07
RMM:   2     0.657446298670E+01   -0.14901E-07    0.59508-167     1   0.937E-08
  41 F= 0.65744630E+01 E0= 0.66073494E+01  d E =-.279397E-08
quench:  g(F)=  0.000E+00 g(S)=  0.000E+00 dE (1.order)= 0.000E+00
 bond charge predicted
       N       E                     dE             d eps       ncg     rms          rms(c)
DAV:   1     0.657446299974E+01   -0.18626E-08   -0.56323E-11   198   0.905E-08    0.517E-07
RMM:   2     0.657446300440E+01    0.46566E-08    0.46155-167     1   0.648E-08
  42 F= 0.65744630E+01 E0= 0.66073494E+01  d E =0.176951E-07
quench:  g(F)=  0.000E+00 g(S)=  0.000E+00 dE (1.order)= 0.000E+00
 bond charge predicted
       N       E                     dE             d eps       ncg     rms          rms(c)
DAV:   1     0.657446299322E+01   -0.65193E-08   -0.15936E-10   198   0.110E-07    0.996E-07
RMM:   2     0.657446299136E+01   -0.18626E-08    0.37761-167     1   0.890E-08
  43 F= 0.65744630E+01 E0= 0.66073494E+01  d E =-.130385E-07
quench:  g(F)=  0.000E+00 g(S)=  0.000E+00 dE (1.order)= 0.000E+00
 bond charge predicted
       N       E                     dE             d eps       ncg     rms          rms(c)
DAV:   1     0.657446299322E+01    0.00000E+00   -0.10655E-11   198   0.161E-07    0.781E-06
RMM:   2     0.657446301557E+01    0.22352E-07    0.30913-167     1   0.556E-07
  44 F= 0.65744630E+01 E0= 0.66073494E+01  d E =0.242144E-07
quench:  g(F)=  0.000E+00 g(S)=  0.000E+00 dE (1.order)= 0.000E+00
 bond charge predicted
       N       E                     dE             d eps       ncg     rms          rms(c)
DAV:   1     0.657446300346E+01    0.10245E-07   -0.17509E-10   198   0.121E-06    0.108E-06
RMM:   2     0.657446298949E+01   -0.13970E-07    0.36435-167     1   0.166E-07
  45 F= 0.65744630E+01 E0= 0.66073494E+01  d E =-.260770E-07
quench:  g(F)=  0.000E+00 g(S)=  0.000E+00 dE (1.order)= 0.000E+00
 bond charge predicted
       N       E                     dE             d eps       ncg     rms          rms(c)
DAV:   1     0.657446299881E+01   -0.46566E-08   -0.14736E-10   198   0.158E-07    0.992E-07
RMM:   2     0.657446300812E+01    0.93132E-08    0.37422-167     1   0.184E-07
  46 F= 0.65744630E+01 E0= 0.66073494E+01  d E =0.186265E-07
quench:  g(F)=  0.000E+00 g(S)=  0.000E+00 dE (1.order)= 0.000E+00
 bond charge predicted
       N       E                     dE             d eps       ncg     rms          rms(c)
DAV:   1     0.657446301557E+01    0.16764E-07   -0.31074E-10   198   0.246E-07    0.929E-07
RMM:   2     0.657446298763E+01   -0.27940E-07    0.29308-167     1   0.249E-07
  47 F= 0.65744630E+01 E0= 0.66073494E+01  d E =-.204891E-07
quench:  g(F)=  0.000E+00 g(S)=  0.000E+00 dE (1.order)= 0.000E+00
 bond charge predicted
       N       E                     dE             d eps       ncg     rms          rms(c)
DAV:   1     0.657446300812E+01   -0.74506E-08   -0.21309E-10   198   0.274E-07    0.713E-06
RMM:   2     0.657446299881E+01   -0.93132E-08    0.00000E+00     0   0.735E-07
  48 F= 0.65744630E+01 E0= 0.66073494E+01  d E =0.111759E-07
quench:  g(F)=  0.000E+00 g(S)=  0.000E+00 dE (1.order)= 0.000E+00
 bond charge predicted
       N       E                     dE             d eps       ncg     rms          rms(c)
DAV:   1     0.657446299788E+01   -0.10245E-07   -0.26582E-10   198   0.133E-06    0.788E-06
RMM:   2     0.657446298856E+01   -0.93132E-08    0.16348-167     1   0.550E-07
  49 F= 0.65744630E+01 E0= 0.66073494E+01  d E =-.102445E-07
quench:  g(F)=  0.000E+00 g(S)=  0.000E+00 dE (1.order)= 0.000E+00
 bond charge predicted
       N       E                     dE             d eps       ncg     rms          rms(c)
DAV:   1     0.657446300440E+01    0.65193E-08   -0.18958E-10   198   0.139E-06    0.646E-07
RMM:   2     0.657446300067E+01   -0.37253E-08    0.00000E+00     0   0.149E-07
  50 F= 0.65744630E+01 E0= 0.66073494E+01  d E =0.121072E-07
quench:  g(F)=  0.000E+00 g(S)=  0.000E+00 dE (1.order)= 0.000E+00
 bond charge predicted
       N       E                     dE             d eps       ncg     rms          rms(c)
DAV:   1     0.657446301464E+01    0.10245E-07   -0.39560E-11   198   0.158E-07    0.164E-05
RMM:   2     0.657446300533E+01   -0.93132E-08    0.00000E+00     0   0.628E-07
  51 F= 0.65744630E+01 E0= 0.66073494E+01  d E =0.465661E-08
quench:  g(F)=  0.000E+00 g(S)=  0.000E+00 dE (1.order)= 0.000E+00
 bond charge predicted
       N       E                     dE             d eps       ncg     rms          rms(c)
DAV:   1     0.657446300719E+01   -0.74506E-08   -0.10675E-10   198   0.217E-06    0.218E-05
RMM:   2     0.657446298018E+01   -0.27008E-07    0.00000E+00     0   0.157E-06
  52 F= 0.65744630E+01 E0= 0.66073494E+01  d E =-.251457E-07
quench:  g(F)=  0.000E+00 g(S)=  0.000E+00 dE (1.order)= 0.000E+00
 bond charge predicted
       N       E                     dE             d eps       ncg     rms          rms(c)
DAV:   1     0.657446298670E+01   -0.20489E-07   -0.16266E-10   198   0.350E-06    0.755E-06
RMM:   2     0.657446300440E+01    0.17695E-07    0.00000E+00     0   0.322E-07
  53 F= 0.65744630E+01 E0= 0.66073494E+01  d E =0.242144E-07
quench:  g(F)=  0.000E+00 g(S)=  0.000E+00 dE (1.order)= 0.000E+00
 bond charge predicted
       N       E                     dE             d eps       ncg     rms          rms(c)
DAV:   1     0.657446298577E+01   -0.93132E-09   -0.40801E-10   198   0.110E-06    0.966E-06
RMM:   2     0.657446301091E+01    0.25146E-07    0.00000E+00     0   0.496E-07
  54 F= 0.65744630E+01 E0= 0.66073494E+01  d E =0.651926E-08
quench:  g(F)=  0.000E+00 g(S)=  0.000E+00 dE (1.order)= 0.000E+00
 bond charge predicted
       N       E                     dE             d eps       ncg     rms          rms(c)
DAV:   1     0.657446300998E+01    0.24214E-07   -0.27319E-10   198   0.137E-06    0.234E-06
RMM:   2     0.657446300440E+01   -0.55879E-08    0.00000E+00     0   0.226E-07
  55 F= 0.65744630E+01 E0= 0.66073494E+01  d E =-.651926E-08
quench:  g(F)=  0.000E+00 g(S)=  0.000E+00 dE (1.order)= 0.000E+00
 bond charge predicted
       N       E                     dE             d eps       ncg     rms          rms(c)
DAV:   1     0.657446299043E+01   -0.19558E-07   -0.18752E-10   198   0.448E-07    0.157E-06
RMM:   2     0.657446299136E+01    0.93132E-09    0.00000E+00     0   0.249E-07
  56 F= 0.65744630E+01 E0= 0.66073494E+01  d E =-.130385E-07
quench:  g(F)=  0.000E+00 g(S)=  0.000E+00 dE (1.order)= 0.000E+00
 bond charge predicted
       N       E                     dE             d eps       ncg     rms          rms(c)
DAV:   1     0.657446299601E+01    0.55879E-08    0.13066E-10   198   0.320E-07    0.707E-06
RMM:   2     0.657446299974E+01    0.37253E-08    0.00000E+00     0   0.480E-07
  57 F= 0.65744630E+01 E0= 0.66073494E+01  d E =0.838190E-08
quench:  g(F)=  0.000E+00 g(S)=  0.000E+00 dE (1.order)= 0.000E+00
 bond charge predicted
       N       E                     dE             d eps       ncg     rms          rms(c)
DAV:   1     0.657446299881E+01    0.27940E-08   -0.66409E-11   198   0.122E-06    0.499E-06
RMM:   2     0.657446299415E+01   -0.46566E-08    0.00000E+00     0   0.309E-07
  58 F= 0.65744630E+01 E0= 0.66073494E+01  d E =-.558794E-08
quench:  g(F)=  0.000E+00 g(S)=  0.000E+00 dE (1.order)= 0.000E+00
 bond charge predicted
       N       E                     dE             d eps       ncg     rms          rms(c)
DAV:   1     0.657446299229E+01   -0.65193E-08    0.10024E-10   198   0.766E-07    0.315E-06
RMM:   2     0.657446300998E+01    0.17695E-07    0.00000E+00     0   0.178E-07
  59 F= 0.65744630E+01 E0= 0.66073494E+01  d E =0.158325E-07
quench:  g(F)=  0.000E+00 g(S)=  0.000E+00 dE (1.order)= 0.000E+00
 bond charge predicted
       N       E                     dE             d eps       ncg     rms          rms(c)
DAV:   1     0.657446300533E+01    0.13039E-07   -0.25845E-10   198   0.410E-07    0.728E-07
RMM:   2     0.657446301371E+01    0.83819E-08    0.00000E+00     0   0.140E-07
  60 F= 0.65744630E+01 E0= 0.66073494E+01  d E =0.372529E-08
quench:  g(F)=  0.000E+00 g(S)=  0.000E+00 dE (1.order)= 0.000E+00
 bond charge predicted
       N       E                     dE             d eps       ncg     rms          rms(c)
DAV:   1     0.657446300998E+01    0.46566E-08   -0.95085E-11   198   0.153E-07    0.767E-06
RMM:   2     0.657446299508E+01   -0.14901E-07    0.00000E+00     0   0.611E-07
  61 F= 0.65744630E+01 E0= 0.66073494E+01  d E =-.186265E-07
quench:  g(F)=  0.000E+00 g(S)=  0.000E+00 dE (1.order)= 0.000E+00
 bond charge predicted
       N       E                     dE             d eps       ncg     rms          rms(c)
DAV:   1     0.657446300533E+01   -0.46566E-08    0.17994E-11   198   0.125E-06    0.138E-06
RMM:   2     0.657446299788E+01   -0.74506E-08    0.00000E+00     0   0.150E-07
  62 F= 0.65744630E+01 E0= 0.66073494E+01  d E =0.279397E-08
quench:  g(F)=  0.000E+00 g(S)=  0.000E+00 dE (1.order)= 0.000E+00
 bond charge predicted
       N       E                     dE             d eps       ncg     rms          rms(c)
DAV:   1     0.657446299043E+01   -0.14901E-07   -0.55708E-11   198   0.306E-07    0.384E-06
RMM:   2     0.657446300626E+01    0.15832E-07    0.00000E+00     0   0.165E-07
  63 F= 0.65744630E+01 E0= 0.66073494E+01  d E =0.838190E-08
quench:  g(F)=  0.000E+00 g(S)=  0.000E+00 dE (1.order)= 0.000E+00
 bond charge predicted
       N       E                     dE             d eps       ncg     rms          rms(c)
DAV:   1     0.657446299322E+01    0.27940E-08   -0.23061E-10   198   0.499E-07    0.329E-06
RMM:   2     0.657446299974E+01    0.65193E-08    0.00000E+00     0   0.206E-07
  64 F= 0.65744630E+01 E0= 0.66073494E+01  d E =-.651926E-08
quench:  g(F)=  0.000E+00 g(S)=  0.000E+00 dE (1.order)= 0.000E+00
 bond charge predicted
       N       E                     dE             d eps       ncg     rms          rms(c)
DAV:   1     0.657446300533E+01    0.12107E-07   -0.86353E-11   198   0.513E-07    0.575E-07
RMM:   2     0.657446301091E+01    0.55879E-08    0.00000E+00     0   0.825E-08
  65 F= 0.65744630E+01 E0= 0.66073494E+01  d E =0.111759E-07
quench:  g(F)=  0.000E+00 g(S)=  0.000E+00 dE (1.order)= 0.000E+00
 bond charge predicted
       N       E                     dE             d eps       ncg     rms          rms(c)
DAV:   1     0.657446299043E+01   -0.14901E-07   -0.13086E-10   198   0.122E-07    0.151E-06
RMM:   2     0.657446299881E+01    0.83819E-08    0.00000E+00     0   0.293E-07
  66 F= 0.65744630E+01 E0= 0.66073494E+01  d E =-.121072E-07
quench:  g(F)=  0.000E+00 g(S)=  0.000E+00 dE (1.order)= 0.000E+00
 bond charge predicted
       N       E                     dE             d eps       ncg     rms          rms(c)
DAV:   1     0.657446299508E+01    0.46566E-08   -0.19280E-10   198   0.363E-07    0.104E-05
RMM:   2     0.657446300253E+01    0.74506E-08    0.00000E+00     0   0.715E-07
  67 F= 0.65744630E+01 E0= 0.66073494E+01  d E =0.372529E-08
quench:  g(F)=  0.000E+00 g(S)=  0.000E+00 dE (1.order)= 0.000E+00
 bond charge predicted
       N       E                     dE             d eps       ncg     rms          rms(c)
DAV:   1     0.657446299415E+01   -0.93132E-09   -0.12769E-10   198   0.168E-06    0.280E-06
RMM:   2     0.657446299322E+01   -0.93132E-09    0.00000E+00     0   0.277E-07
  68 F= 0.65744630E+01 E0= 0.66073494E+01  d E =-.931323E-08
quench:  g(F)=  0.000E+00 g(S)=  0.000E+00 dE (1.order)= 0.000E+00
 bond charge predicted
       N       E                     dE             d eps       ncg     rms          rms(c)
DAV:   1     0.657446301837E+01    0.24214E-07   -0.12931E-10   198   0.482E-07    0.970E-06
RMM:   2     0.657446300440E+01   -0.13970E-07    0.00000E+00     0   0.171E-07
  69 F= 0.65744630E+01 E0= 0.66073494E+01  d E =0.111759E-07
quench:  g(F)=  0.000E+00 g(S)=  0.000E+00 dE (1.order)= 0.000E+00
 bond charge predicted
       N       E                     dE             d eps       ncg     rms          rms(c)
DAV:   1     0.657446300998E+01   -0.83819E-08   -0.94643E-11   198   0.889E-07    0.123E-05
RMM:   2     0.657446300905E+01   -0.93132E-09    0.00000E+00     0   0.944E-07
  70 F= 0.65744630E+01 E0= 0.66073494E+01  d E =0.465661E-08
quench:  g(F)=  0.000E+00 g(S)=  0.000E+00 dE (1.order)= 0.000E+00
 bond charge predicted
       N       E                     dE             d eps       ncg     rms          rms(c)
DAV:   1     0.657446299788E+01   -0.12107E-07   -0.19161E-11   198   0.209E-06    0.754E-06
RMM:   2     0.657446299788E+01    0.00000E+00    0.00000E+00     0   0.383E-07
  71 F= 0.65744630E+01 E0= 0.66073494E+01  d E =-.111759E-07
quench:  g(F)=  0.000E+00 g(S)=  0.000E+00 dE (1.order)= 0.000E+00
 bond charge predicted
       N       E                     dE             d eps       ncg     rms          rms(c)
DAV:   1     0.657446299881E+01    0.93132E-09   -0.43257E-10   198   0.115E-06    0.496E-06
RMM:   2     0.657446298763E+01   -0.11176E-07    0.00000E+00     0   0.393E-07
  72 F= 0.65744630E+01 E0= 0.66073494E+01  d E =-.102445E-07
quench:  g(F)=  0.000E+00 g(S)=  0.000E+00 dE (1.order)= 0.000E+00
 bond charge predicted
       N       E                     dE             d eps       ncg     rms          rms(c)
DAV:   1     0.657446299508E+01   -0.37253E-08    0.61911E-11   198   0.897E-07    0.161E-06
RMM:   2     0.657446301091E+01    0.15832E-07    0.00000E+00     0   0.157E-07
  73 F= 0.65744630E+01 E0= 0.66073494E+01  d E =0.232831E-07
quench:  g(F)=  0.000E+00 g(S)=  0.000E+00 dE (1.order)= 0.000E+00
 bond charge predicted
       N       E                     dE             d eps       ncg     rms          rms(c)
DAV:   1     0.657446299788E+01    0.27940E-08   -0.20340E-10   198   0.356E-07    0.131E-06
RMM:   2     0.657446298484E+01   -0.13039E-07    0.00000E+00     0   0.601E-08
  74 F= 0.65744630E+01 E0= 0.66073494E+01  d E =-.260770E-07
quench:  g(F)=  0.000E+00 g(S)=  0.000E+00 dE (1.order)= 0.000E+00
 bond charge predicted
       N       E                     dE             d eps       ncg     rms          rms(c)
DAV:   1     0.657446300440E+01    0.65193E-08   -0.52661E-11   198   0.219E-07    0.725E-06
RMM:   2     0.657446297552E+01   -0.28871E-07    0.00000E+00     0   0.520E-07
  75 F= 0.65744630E+01 E0= 0.66073494E+01  d E =-.931323E-08
quench:  g(F)=  0.000E+00 g(S)=  0.000E+00 dE (1.order)= 0.000E+00
 bond charge predicted
       N       E                     dE             d eps       ncg     rms          rms(c)
DAV:   1     0.657446299601E+01   -0.83819E-08   -0.28746E-10   198   0.123E-06    0.314E-06
RMM:   2     0.657446299043E+01   -0.55879E-08    0.00000E+00     0   0.230E-07
  76 F= 0.65744630E+01 E0= 0.66073494E+01  d E =0.149012E-07
quench:  g(F)=  0.000E+00 g(S)=  0.000E+00 dE (1.order)= 0.000E+00
 bond charge predicted
       N       E                     dE             d eps       ncg     rms          rms(c)
DAV:   1     0.657446298949E+01   -0.65193E-08   -0.10343E-10   198   0.482E-07    0.412E-06
RMM:   2     0.657446300905E+01    0.19558E-07    0.00000E+00     0   0.240E-07
  77 F= 0.65744630E+01 E0= 0.66073494E+01  d E =0.186265E-07
quench:  g(F)=  0.000E+00 g(S)=  0.000E+00 dE (1.order)= 0.000E+00
 bond charge predicted
       N       E                     dE             d eps       ncg     rms          rms(c)
DAV:   1     0.657446300160E+01    0.12107E-07   -0.20475E-10   198   0.536E-07    0.118E-06
RMM:   2     0.657446303420E+01    0.32596E-07    0.00000E+00     0   0.232E-07
  78 F= 0.65744630E+01 E0= 0.66073495E+01  d E =0.251457E-07
quench:  g(F)=  0.000E+00 g(S)=  0.000E+00 dE (1.order)= 0.000E+00
 bond charge predicted
       N       E                     dE             d eps       ncg     rms          rms(c)
DAV:   1     0.657446299974E+01   -0.18626E-08   -0.10689E-10   198   0.240E-07    0.763E-06
RMM:   2     0.657446301091E+01    0.11176E-07    0.00000E+00     0   0.499E-07
  79 F= 0.65744630E+01 E0= 0.66073494E+01  d E =-.232831E-07
quench:  g(F)=  0.000E+00 g(S)=  0.000E+00 dE (1.order)= 0.000E+00
 bond charge predicted
       N       E                     dE             d eps       ncg     rms          rms(c)
DAV:   1     0.657446300067E+01    0.93132E-09   -0.98658E-11   198   0.122E-06    0.420E-06
RMM:   2     0.657446301371E+01    0.13039E-07    0.00000E+00     0   0.379E-07
  80 F= 0.65744630E+01 E0= 0.66073494E+01  d E =0.279397E-08
quench:  g(F)=  0.000E+00 g(S)=  0.000E+00 dE (1.order)= 0.000E+00
 bond charge predicted
       N       E                     dE             d eps       ncg     rms          rms(c)
DAV:   1     0.657446299694E+01   -0.37253E-08    0.73471E-11   198   0.729E-07    0.182E-06
RMM:   2     0.657446300160E+01    0.46566E-08    0.00000E+00     0   0.156E-07
  81 F= 0.65744630E+01 E0= 0.66073494E+01  d E =-.121072E-07
quench:  g(F)=  0.000E+00 g(S)=  0.000E+00 dE (1.order)= 0.000E+00
 bond charge predicted
       N       E                     dE             d eps       ncg     rms          rms(c)
DAV:   1     0.657446301837E+01    0.21420E-07   -0.40389E-10   198   0.337E-07    0.402E-06
RMM:   2     0.657446298949E+01   -0.28871E-07    0.00000E+00     0   0.570E-08
  82 F= 0.65744630E+01 E0= 0.66073494E+01  d E =-.121072E-07
quench:  g(F)=  0.000E+00 g(S)=  0.000E+00 dE (1.order)= 0.000E+00
 bond charge predicted
       N       E                     dE             d eps       ncg     rms          rms(c)
DAV:   1     0.657446298670E+01   -0.31665E-07    0.54449E-11   198   0.758E-08    0.409E-06
RMM:   2     0.657446300067E+01    0.13970E-07    0.00000E+00     0   0.687E-08
  83 F= 0.65744630E+01 E0= 0.66073494E+01  d E =0.111759E-07
quench:  g(F)=  0.000E+00 g(S)=  0.000E+00 dE (1.order)= 0.000E+00
 bond charge predicted
       N       E                     dE             d eps       ncg     rms          rms(c)
DAV:   1     0.657446299043E+01    0.37253E-08   -0.15476E-10   198   0.241E-07    0.984E-07
RMM:   2     0.657446299601E+01    0.55879E-08    0.00000E+00     0   0.217E-07
  84 F= 0.65744630E+01 E0= 0.66073494E+01  d E =-.465661E-08
quench:  g(F)=  0.000E+00 g(S)=  0.000E+00 dE (1.order)= 0.000E+00
 bond charge predicted
       N       E                     dE             d eps       ncg     rms          rms(c)
DAV:   1     0.657446298484E+01   -0.55879E-08   -0.24478E-10   198   0.242E-07    0.103E-05
RMM:   2     0.657446300812E+01    0.23283E-07    0.00000E+00     0   0.693E-07
  85 F= 0.65744630E+01 E0= 0.66073494E+01  d E =0.121072E-07
quench:  g(F)=  0.000E+00 g(S)=  0.000E+00 dE (1.order)= 0.000E+00
 bond charge predicted
       N       E                     dE             d eps       ncg     rms          rms(c)
DAV:   1     0.657446299974E+01    0.14901E-07    0.35028E-11   198   0.165E-06    0.252E-06
RMM:   2     0.657446299694E+01   -0.27940E-08    0.00000E+00     0   0.344E-07
  86 F= 0.65744630E+01 E0= 0.66073494E+01  d E =-.111759E-07
quench:  g(F)=  0.000E+00 g(S)=  0.000E+00 dE (1.order)= 0.000E+00
 bond charge predicted
       N       E                     dE             d eps       ncg     rms          rms(c)
DAV:   1     0.657446299601E+01   -0.37253E-08    0.14145E-10   198   0.513E-07    0.615E-06
RMM:   2     0.657446300253E+01    0.65193E-08    0.00000E+00     0   0.406E-07
  87 F= 0.65744630E+01 E0= 0.66073494E+01  d E =0.558794E-08
quench:  g(F)=  0.000E+00 g(S)=  0.000E+00 dE (1.order)= 0.000E+00
 bond charge predicted
       N       E                     dE             d eps       ncg     rms          rms(c)
DAV:   1     0.657446297925E+01   -0.16764E-07   -0.10291E-10   198   0.991E-07    0.239E-06
RMM:   2     0.657446299694E+01    0.17695E-07    0.00000E+00     0   0.195E-07
  88 F= 0.65744630E+01 E0= 0.66073494E+01  d E =-.558794E-08
quench:  g(F)=  0.000E+00 g(S)=  0.000E+00 dE (1.order)= 0.000E+00
 bond charge predicted
       N       E                     dE             d eps       ncg     rms          rms(c)
DAV:   1     0.657446300440E+01    0.25146E-07   -0.83517E-11   198   0.356E-07    0.131E-05
RMM:   2     0.657446298949E+01   -0.14901E-07    0.00000E+00     0   0.133E-06
  89 F= 0.65744630E+01 E0= 0.66073494E+01  d E =-.745058E-08
quench:  g(F)=  0.000E+00 g(S)=  0.000E+00 dE (1.order)= 0.000E+00
 bond charge predicted
       N       E                     dE             d eps       ncg     rms          rms(c)
DAV:   1     0.657446299974E+01   -0.46566E-08   -0.24144E-10   198   0.236E-06    0.139E-05
RMM:   2     0.657446298577E+01   -0.13970E-07    0.00000E+00     0   0.105E-06
  90 F= 0.65744630E+01 E0= 0.66073494E+01  d E =-.372529E-08
quench:  g(F)=  0.000E+00 g(S)=  0.000E+00 dE (1.order)= 0.000E+00
 bond charge predicted
       N       E                     dE             d eps       ncg     rms          rms(c)
DAV:   1     0.657446302209E+01    0.22352E-07   -0.19494E-11   198   0.240E-06    0.256E-06
RMM:   2     0.657446299881E+01   -0.23283E-07    0.00000E+00     0   0.193E-07
  91 F= 0.65744630E+01 E0= 0.66073494E+01  d E =0.130385E-07
quench:  g(F)=  0.000E+00 g(S)=  0.000E+00 dE (1.order)= 0.000E+00
 bond charge predicted
       N       E                     dE             d eps       ncg     rms          rms(c)
DAV:   1     0.657446300253E+01   -0.19558E-07   -0.67972E-11   198   0.194E-07    0.511E-06
RMM:   2     0.657446299881E+01   -0.37253E-08    0.00000E+00     0   0.513E-07
  92 F= 0.65744630E+01 E0= 0.66073494E+01  d E =0.000000E+00
quench:  g(F)=  0.000E+00 g(S)=  0.000E+00 dE (1.order)= 0.000E+00
 bond charge predicted
       N       E                     dE             d eps       ncg     rms          rms(c)
DAV:   1     0.657446301557E+01    0.13039E-07   -0.14372E-10   198   0.984E-07    0.154E-06
RMM:   2     0.657446299881E+01   -0.16764E-07    0.00000E+00     0   0.201E-07
  93 F= 0.65744630E+01 E0= 0.66073494E+01  d E =0.000000E+00
quench:  g(F)=  0.000E+00 g(S)=  0.000E+00 dE (1.order)= 0.000E+00
 bond charge predicted
       N       E                     dE             d eps       ncg     rms          rms(c)
DAV:   1     0.657446300253E+01   -0.13039E-07   -0.10601E-10   198   0.202E-07    0.810E-06
RMM:   2     0.657446301557E+01    0.13039E-07    0.00000E+00     0   0.859E-07
  94 F= 0.65744630E+01 E0= 0.66073494E+01  d E =0.167638E-07
quench:  g(F)=  0.000E+00 g(S)=  0.000E+00 dE (1.order)= 0.000E+00
 bond charge predicted
       N       E                     dE             d eps       ncg     rms          rms(c)
DAV:   1     0.657446300533E+01    0.27940E-08   -0.38444E-10   198   0.157E-06    0.700E-06
RMM:   2     0.657446301930E+01    0.13970E-07    0.00000E+00     0   0.612E-07
  95 F= 0.65744630E+01 E0= 0.66073494E+01  d E =0.372529E-08
quench:  g(F)=  0.000E+00 g(S)=  0.000E+00 dE (1.order)= 0.000E+00
 bond charge predicted
       N       E                     dE             d eps       ncg     rms          rms(c)
DAV:   1     0.657446300812E+01    0.27940E-08   -0.15739E-10   198   0.129E-06    0.395E-06
RMM:   2     0.657446299229E+01   -0.15832E-07    0.00000E+00     0   0.348E-07
  96 F= 0.65744630E+01 E0= 0.66073494E+01  d E =-.270084E-07
quench:  g(F)=  0.000E+00 g(S)=  0.000E+00 dE (1.order)= 0.000E+00
 bond charge predicted
       N       E                     dE             d eps       ncg     rms          rms(c)
DAV:   1     0.657446299974E+01   -0.83819E-08    0.16279E-10   198   0.713E-07    0.782E-07
RMM:   2     0.657446298949E+01   -0.10245E-07    0.00000E+00     0   0.102E-07
  97 F= 0.65744630E+01 E0= 0.66073494E+01  d E =-.279397E-08
quench:  g(F)=  0.000E+00 g(S)=  0.000E+00 dE (1.order)= 0.000E+00
 bond charge predicted
       N       E                     dE             d eps       ncg     rms          rms(c)
DAV:   1     0.657446299694E+01   -0.27940E-08    0.10813E-10   198   0.264E-07    0.257E-06
RMM:   2     0.657446299694E+01    0.00000E+00    0.00000E+00     0   0.121E-07
  98 F= 0.65744630E+01 E0= 0.66073494E+01  d E =0.745058E-08
quench:  g(F)=  0.000E+00 g(S)=  0.000E+00 dE (1.order)= 0.000E+00
 bond charge predicted
       N       E                     dE             d eps       ncg     rms          rms(c)
DAV:   1     0.657446300067E+01    0.37253E-08   -0.85862E-11   198   0.370E-07    0.228E-06
RMM:   2     0.657446300533E+01    0.46566E-08    0.00000E+00     0   0.160E-07
  99 F= 0.65744630E+01 E0= 0.66073494E+01  d E =0.838190E-08
quench:  g(F)=  0.000E+00 g(S)=  0.000E+00 dE (1.order)= 0.000E+00
 bond charge predicted
       N       E                     dE             d eps       ncg     rms          rms(c)
DAV:   1     0.657446300905E+01    0.83819E-08   -0.26538E-10   198   0.347E-07    0.507E-06
RMM:   2     0.657446298949E+01   -0.19558E-07    0.00000E+00     0   0.112E-07
 100 F= 0.65744630E+01 E0= 0.66073494E+01  d E =-.158325E-07
quench:  g(F)=  0.000E+00 g(S)=  0.000E+00 dE (1.order)= 0.000E+00
 bond charge predicted
       N       E                     dE             d eps       ncg     rms          rms(c)
DAV:   1     0.657446300160E+01   -0.74506E-08   -0.29939E-12   198   0.466E-07    0.409E-06
RMM:   2     0.657446298298E+01   -0.18626E-07    0.00000E+00     0   0.495E-07
 101 F= 0.65744630E+01 E0= 0.66073494E+01  d E =-.651926E-08
quench:  g(F)=  0.000E+00 g(S)=  0.000E+00 dE (1.order)= 0.000E+00
 bond charge predicted
       N       E                     dE             d eps       ncg     rms          rms(c)
DAV:   1     0.657446301837E+01    0.16764E-07   -0.18654E-10   198   0.761E-07    0.962E-06
RMM:   2     0.657446298949E+01   -0.28871E-07    0.00000E+00     0   0.893E-07
 102 F= 0.65744630E+01 E0= 0.66073494E+01  d E =0.651926E-08
quench:  g(F)=  0.000E+00 g(S)=  0.000E+00 dE (1.order)= 0.000E+00
 bond charge predicted
       N       E                     dE             d eps       ncg     rms          rms(c)
DAV:   1     0.657446299508E+01   -0.23283E-07   -0.19972E-10   198   0.183E-06    0.274E-06
RMM:   2     0.657446299322E+01   -0.18626E-08    0.00000E+00     0   0.408E-07
 103 F= 0.65744630E+01 E0= 0.66073494E+01  d E =0.372529E-08
quench:  g(F)=  0.000E+00 g(S)=  0.000E+00 dE (1.order)= 0.000E+00
 bond charge predicted
       N       E                     dE             d eps       ncg     rms          rms(c)
DAV:   1     0.657446300998E+01    0.14901E-07   -0.48011E-11   198   0.627E-07    0.719E-06
RMM:   2     0.657446298856E+01   -0.21420E-07    0.00000E+00     0   0.761E-07
 104 F= 0.65744630E+01 E0= 0.66073494E+01  d E =-.465661E-08
quench:  g(F)=  0.000E+00 g(S)=  0.000E+00 dE (1.order)= 0.000E+00
 bond charge predicted
       N       E                     dE             d eps       ncg     rms          rms(c)
DAV:   1     0.657446299229E+01   -0.17695E-07   -0.22344E-10   198   0.146E-06    0.683E-06
RMM:   2     0.657446298856E+01   -0.37253E-08    0.00000E+00     0   0.578E-07
 105 F= 0.65744630E+01 E0= 0.66073494E+01  d E =0.000000E+00
quench:  g(F)=  0.000E+00 g(S)=  0.000E+00 dE (1.order)= 0.000E+00
 bond charge predicted
       N       E                     dE             d eps       ncg     rms          rms(c)
DAV:   1     0.657446300253E+01    0.10245E-07   -0.19364E-10   198   0.123E-06    0.283E-06
RMM:   2     0.657446300533E+01    0.27940E-08    0.00000E+00     0   0.289E-07
 106 F= 0.65744630E+01 E0= 0.66073494E+01  d E =0.167638E-07
quench:  g(F)=  0.000E+00 g(S)=  0.000E+00 dE (1.order)= 0.000E+00
 bond charge predicted
       N       E                     dE             d eps       ncg     rms          rms(c)
DAV:   1     0.657446299043E+01   -0.12107E-07   -0.27172E-10   198   0.553E-07    0.101E-06
RMM:   2     0.657446300998E+01    0.19558E-07    0.00000E+00     0   0.238E-07
 107 F= 0.65744630E+01 E0= 0.66073494E+01  d E =0.465661E-08
quench:  g(F)=  0.000E+00 g(S)=  0.000E+00 dE (1.order)= 0.000E+00
 bond charge predicted
       N       E                     dE             d eps       ncg     rms          rms(c)
DAV:   1     0.657446300533E+01    0.14901E-07    0.63474E-12   198   0.323E-07    0.275E-06
RMM:   2     0.657446300998E+01    0.46566E-08    0.00000E+00     0   0.546E-07
 108 F= 0.65744630E+01 E0= 0.66073494E+01  d E =0.000000E+00
quench:  g(F)=  0.000E+00 g(S)=  0.000E+00 dE (1.order)= 0.000E+00
 bond charge predicted
       N       E                     dE             d eps       ncg     rms          rms(c)
DAV:   1     0.657446298763E+01   -0.17695E-07   -0.23225E-10   198   0.721E-07    0.117E-05
RMM:   2     0.657446299694E+01    0.93132E-08    0.00000E+00     0   0.124E-06
 109 F= 0.65744630E+01 E0= 0.66073494E+01  d E =-.130385E-07
quench:  g(F)=  0.000E+00 g(S)=  0.000E+00 dE (1.order)= 0.000E+00
 bond charge predicted
       N       E                     dE             d eps       ncg     rms          rms(c)
DAV:   1     0.657446301557E+01    0.27940E-07   -0.15117E-10   198   0.228E-06    0.995E-06
RMM:   2     0.657446299229E+01   -0.23283E-07    0.00000E+00     0   0.100E-06
 110 F= 0.65744630E+01 E0= 0.66073494E+01  d E =-.465661E-08
quench:  g(F)=  0.000E+00 g(S)=  0.000E+00 dE (1.order)= 0.000E+00
 bond charge predicted
       N       E                     dE             d eps       ncg     rms          rms(c)
DAV:   1     0.657446300346E+01   -0.12107E-07   -0.62888E-11   198   0.202E-06    0.763E-06
RMM:   2     0.657446300626E+01    0.27940E-08    0.00000E+00     0   0.742E-07
 111 F= 0.65744630E+01 E0= 0.66073494E+01  d E =0.139698E-07
quench:  g(F)=  0.000E+00 g(S)=  0.000E+00 dE (1.order)= 0.000E+00
 bond charge predicted
       N       E                     dE             d eps       ncg     rms          rms(c)
DAV:   1     0.657446300253E+01   -0.93132E-09   -0.10247E-10   198   0.147E-06    0.587E-06
RMM:   2     0.657446298949E+01   -0.13039E-07    0.00000E+00     0   0.515E-07
 112 F= 0.65744630E+01 E0= 0.66073494E+01  d E =-.167638E-07
quench:  g(F)=  0.000E+00 g(S)=  0.000E+00 dE (1.order)= 0.000E+00
 bond charge predicted
       N       E                     dE             d eps       ncg     rms          rms(c)
DAV:   1     0.657446300253E+01    0.00000E+00   -0.26378E-10   198   0.113E-06    0.418E-06
RMM:   2     0.657446299974E+01   -0.27940E-08    0.00000E+00     0   0.220E-07
 113 F= 0.65744630E+01 E0= 0.66073494E+01  d E =0.102445E-07
quench:  g(F)=  0.000E+00 g(S)=  0.000E+00 dE (1.order)= 0.000E+00
 bond charge predicted
       N       E                     dE             d eps       ncg     rms          rms(c)
DAV:   1     0.657446299788E+01   -0.46566E-08    0.46894E-11   198   0.601E-07    0.153E-06
RMM:   2     0.657446301278E+01    0.14901E-07    0.00000E+00     0   0.210E-07
 114 F= 0.65744630E+01 E0= 0.66073494E+01  d E =0.130385E-07
quench:  g(F)=  0.000E+00 g(S)=  0.000E+00 dE (1.order)= 0.000E+00
 bond charge predicted
       N       E                     dE             d eps       ncg     rms          rms(c)
DAV:   1     0.657446298856E+01   -0.93132E-08   -0.10671E-10   198   0.322E-07    0.828E-06
RMM:   2     0.657446298298E+01   -0.55879E-08    0.00000E+00     0   0.363E-07
 115 F= 0.65744630E+01 E0= 0.66073494E+01  d E =-.298023E-07
quench:  g(F)=  0.000E+00 g(S)=  0.000E+00 dE (1.order)= 0.000E+00
 bond charge predicted
       N       E                     dE             d eps       ncg     rms          rms(c)
DAV:   1     0.657446299694E+01    0.83819E-08    0.49347E-11   198   0.125E-06    0.119E-05
RMM:   2     0.657446300905E+01    0.12107E-07    0.00000E+00     0   0.784E-07
 116 F= 0.65744630E+01 E0= 0.66073494E+01  d E =0.260770E-07
quench:  g(F)=  0.000E+00 g(S)=  0.000E+00 dE (1.order)= 0.000E+00
 bond charge predicted
       N       E                     dE             d eps       ncg     rms          rms(c)
DAV:   1     0.657446300160E+01    0.46566E-08   -0.12279E-10   198   0.186E-06    0.815E-07
RMM:   2     0.657446300905E+01    0.74506E-08    0.00000E+00     0   0.714E-08
 117 F= 0.65744630E+01 E0= 0.66073494E+01  d E =0.000000E+00
quench:  g(F)=  0.000E+00 g(S)=  0.000E+00 dE (1.order)= 0.000E+00
 bond charge predicted
       N       E                     dE             d eps       ncg     rms          rms(c)
DAV:   1     0.657446300905E+01    0.74506E-08   -0.70153E-12   198   0.203E-07    0.658E-06
RMM:   2     0.657446297459E+01   -0.34459E-07    0.00000E+00     0   0.259E-07
 118 F= 0.65744630E+01 E0= 0.66073494E+01  d E =-.344589E-07
quench:  g(F)=  0.000E+00 g(S)=  0.000E+00 dE (1.order)= 0.000E+00
 bond charge predicted
       N       E                     dE             d eps       ncg     rms          rms(c)
DAV:   1     0.657446298949E+01   -0.19558E-07   -0.11701E-11   198   0.784E-07    0.259E-06
RMM:   2     0.657446301278E+01    0.23283E-07    0.00000E+00     0   0.402E-07
 119 F= 0.65744630E+01 E0= 0.66073494E+01  d E =0.381842E-07
quench:  g(F)=  0.000E+00 g(S)=  0.000E+00 dE (1.order)= 0.000E+00
 bond charge predicted
       N       E                     dE             d eps       ncg     rms          rms(c)
DAV:   1     0.657446299694E+01    0.74506E-08   -0.15686E-10   198   0.584E-07    0.970E-06
RMM:   2     0.657446301650E+01    0.19558E-07    0.00000E+00     0   0.801E-07
 120 F= 0.65744630E+01 E0= 0.66073494E+01  d E =0.372529E-08
quench:  g(F)=  0.000E+00 g(S)=  0.000E+00 dE (1.order)= 0.000E+00
 bond charge predicted
       N       E                     dE             d eps       ncg     rms          rms(c)
DAV:   1     0.657446300253E+01    0.55879E-08   -0.24403E-11   198   0.164E-06    0.379E-06
RMM:   2     0.657446299881E+01   -0.37253E-08    0.00000E+00     0   0.311E-07
 121 F= 0.65744630E+01 E0= 0.66073494E+01  d E =-.176951E-07
quench:  g(F)=  0.000E+00 g(S)=  0.000E+00 dE (1.order)= 0.000E+00
 bond charge predicted
       N       E                     dE             d eps       ncg     rms          rms(c)
DAV:   1     0.657446299694E+01   -0.55879E-08   -0.24569E-11   198   0.709E-07    0.587E-07
RMM:   2     0.657446299508E+01   -0.18626E-08    0.00000E+00     0   0.129E-07
 122 F= 0.65744630E+01 E0= 0.66073494E+01  d E =-.372529E-08
quench:  g(F)=  0.000E+00 g(S)=  0.000E+00 dE (1.order)= 0.000E+00
 bond charge predicted
       N       E                     dE             d eps       ncg     rms          rms(c)
DAV:   1     0.657446300346E+01    0.65193E-08   -0.70595E-11   198   0.171E-07    0.383E-06
RMM:   2     0.657446301278E+01    0.93132E-08    0.00000E+00     0   0.233E-07
 123 F= 0.65744630E+01 E0= 0.66073494E+01  d E =0.176951E-07
quench:  g(F)=  0.000E+00 g(S)=  0.000E+00 dE (1.order)= 0.000E+00
 bond charge predicted
       N       E                     dE             d eps       ncg     rms          rms(c)
DAV:   1     0.657446301278E+01    0.93132E-08   -0.90765E-11   198   0.642E-07    0.628E-06
RMM:   2     0.657446300253E+01   -0.10245E-07    0.00000E+00     0   0.282E-07
 124 F= 0.65744630E+01 E0= 0.66073494E+01  d E =-.102445E-07
quench:  g(F)=  0.000E+00 g(S)=  0.000E+00 dE (1.order)= 0.000E+00
 bond charge predicted
       N       E                     dE             d eps       ncg     rms          rms(c)
DAV:   1     0.657446300626E+01   -0.65193E-08   -0.22917E-10   198   0.807E-07    0.332E-06
RMM:   2     0.657446299043E+01   -0.15832E-07    0.00000E+00     0   0.317E-07
 125 F= 0.65744630E+01 E0= 0.66073494E+01  d E =-.121072E-07
quench:  g(F)=  0.000E+00 g(S)=  0.000E+00 dE (1.order)= 0.000E+00
 bond charge predicted
       N       E                     dE             d eps       ncg     rms          rms(c)
DAV:   1     0.657446300719E+01    0.93132E-09   -0.27831E-10   198   0.556E-07    0.364E-06
RMM:   2     0.657446299229E+01   -0.14901E-07    0.00000E+00     0   0.353E-07
 126 F= 0.65744630E+01 E0= 0.66073494E+01  d E =0.186265E-08
quench:  g(F)=  0.000E+00 g(S)=  0.000E+00 dE (1.order)= 0.000E+00
 bond charge predicted
       N       E                     dE             d eps       ncg     rms          rms(c)
DAV:   1     0.657446299415E+01   -0.13039E-07   -0.15495E-10   198   0.720E-07    0.803E-07
RMM:   2     0.657446299601E+01    0.18626E-08    0.00000E+00     0   0.206E-07
 127 F= 0.65744630E+01 E0= 0.66073494E+01  d E =0.372529E-08
quench:  g(F)=  0.000E+00 g(S)=  0.000E+00 dE (1.order)= 0.000E+00
 bond charge predicted
       N       E                     dE             d eps       ncg     rms          rms(c)
DAV:   1     0.657446300719E+01    0.13039E-07   -0.10940E-10   198   0.224E-07    0.498E-06
RMM:   2     0.657446300253E+01   -0.46566E-08    0.00000E+00     0   0.699E-07
 128 F= 0.65744630E+01 E0= 0.66073494E+01  d E =0.651926E-08
quench:  g(F)=  0.000E+00 g(S)=  0.000E+00 dE (1.order)= 0.000E+00
 bond charge predicted
       N       E                     dE             d eps       ncg     rms          rms(c)
DAV:   1     0.657446299694E+01   -0.10245E-07   -0.33742E-10   198   0.108E-06    0.114E-05
RMM:   2     0.657446298856E+01   -0.83819E-08    0.00000E+00     0   0.103E-06
 129 F= 0.65744630E+01 E0= 0.66073494E+01  d E =-.139698E-07
quench:  g(F)=  0.000E+00 g(S)=  0.000E+00 dE (1.order)= 0.000E+00
 bond charge predicted
       N       E                     dE             d eps       ncg     rms          rms(c)
DAV:   1     0.657446300346E+01    0.65193E-08   -0.45167E-10   198   0.209E-06    0.553E-06
RMM:   2     0.657446300067E+01   -0.27940E-08    0.00000E+00     0   0.503E-07
 130 F= 0.65744630E+01 E0= 0.66073494E+01  d E =0.121072E-07
quench:  g(F)=  0.000E+00 g(S)=  0.000E+00 dE (1.order)= 0.000E+00
 bond charge predicted
       N       E                     dE             d eps       ncg     rms          rms(c)
DAV:   1     0.657446301091E+01    0.74506E-08   -0.32003E-10   198   0.107E-06    0.489E-06
RMM:   2     0.657446299043E+01   -0.20489E-07    0.00000E+00     0   0.286E-07
 131 F= 0.65744630E+01 E0= 0.66073494E+01  d E =-.102445E-07
quench:  g(F)=  0.000E+00 g(S)=  0.000E+00 dE (1.order)= 0.000E+00
 bond charge predicted
       N       E                     dE             d eps       ncg     rms          rms(c)
DAV:   1     0.657446300905E+01   -0.18626E-08   -0.17723E-11   198   0.715E-07    0.967E-07
RMM:   2     0.657446300440E+01   -0.46566E-08    0.00000E+00     0   0.112E-07
 132 F= 0.65744630E+01 E0= 0.66073494E+01  d E =0.139698E-07
quench:  g(F)=  0.000E+00 g(S)=  0.000E+00 dE (1.order)= 0.000E+00
 bond charge predicted
       N       E                     dE             d eps       ncg     rms          rms(c)
DAV:   1     0.657446298484E+01   -0.24214E-07   -0.45475E-11   198   0.181E-07    0.856E-06
RMM:   2     0.657446301185E+01    0.27008E-07    0.00000E+00     0   0.180E-07
 133 F= 0.65744630E+01 E0= 0.66073494E+01  d E =0.745058E-08
quench:  g(F)=  0.000E+00 g(S)=  0.000E+00 dE (1.order)= 0.000E+00
 bond charge predicted
       N       E                     dE             d eps       ncg     rms          rms(c)
DAV:   1     0.657446299043E+01    0.55879E-08   -0.22319E-10   198   0.917E-07    0.155E-05
RMM:   2     0.657446300719E+01    0.16764E-07    0.00000E+00     0   0.912E-07
 134 F= 0.65744630E+01 E0= 0.66073494E+01  d E =-.465661E-08
quench:  g(F)=  0.000E+00 g(S)=  0.000E+00 dE (1.order)= 0.000E+00
 bond charge predicted
       N       E                     dE             d eps       ncg     rms          rms(c)
DAV:   1     0.657446300998E+01    0.19558E-07   -0.26770E-10   198   0.235E-06    0.173E-06
RMM:   2     0.657446300440E+01   -0.55879E-08    0.00000E+00     0   0.332E-07
 135 F= 0.65744630E+01 E0= 0.66073494E+01  d E =-.279397E-08
quench:  g(F)=  0.000E+00 g(S)=  0.000E+00 dE (1.order)= 0.000E+00
 bond charge predicted
       N       E                     dE             d eps       ncg     rms          rms(c)
DAV:   1     0.657446299694E+01   -0.13039E-07    0.53191E-12   198   0.421E-07    0.895E-06
RMM:   2     0.657446300346E+01    0.65193E-08    0.00000E+00     0   0.706E-07
 136 F= 0.65744630E+01 E0= 0.66073494E+01  d E =-.931323E-09
quench:  g(F)=  0.000E+00 g(S)=  0.000E+00 dE (1.order)= 0.000E+00
 bond charge predicted
       N       E                     dE             d eps       ncg     rms          rms(c)
DAV:   1     0.657446300067E+01    0.37253E-08   -0.10637E-10   198   0.154E-06    0.149E-06
RMM:   2     0.657446300626E+01    0.55879E-08    0.00000E+00     0   0.980E-08
 137 F= 0.65744630E+01 E0= 0.66073494E+01  d E =0.279397E-08
quench:  g(F)=  0.000E+00 g(S)=  0.000E+00 dE (1.order)= 0.000E+00
 bond charge predicted
       N       E                     dE             d eps       ncg     rms          rms(c)
DAV:   1     0.657446300998E+01    0.93132E-08   -0.86318E-11   198   0.319E-07    0.197E-06
RMM:   2     0.657446298949E+01   -0.20489E-07    0.00000E+00     0   0.364E-07
 138 F= 0.65744630E+01 E0= 0.66073494E+01  d E =-.167638E-07
quench:  g(F)=  0.000E+00 g(S)=  0.000E+00 dE (1.order)= 0.000E+00
 bond charge predicted
       N       E                     dE             d eps       ncg     rms          rms(c)
DAV:   1     0.657446299229E+01   -0.17695E-07   -0.14685E-10   198   0.484E-07    0.716E-06
RMM:   2     0.657446299788E+01    0.55879E-08    0.00000E+00     0   0.896E-07
 139 F= 0.65744630E+01 E0= 0.66073494E+01  d E =0.838190E-08
quench:  g(F)=  0.000E+00 g(S)=  0.000E+00 dE (1.order)= 0.000E+00
 bond charge predicted
       N       E                     dE             d eps       ncg     rms          rms(c)
DAV:   1     0.657446299322E+01    0.93132E-09   -0.15561E-10   198   0.147E-06    0.157E-05
RMM:   2     0.657446300812E+01    0.14901E-07    0.00000E+00     0   0.112E-06
 140 F= 0.65744630E+01 E0= 0.66073494E+01  d E =0.102445E-07
quench:  g(F)=  0.000E+00 g(S)=  0.000E+00 dE (1.order)= 0.000E+00
 bond charge predicted
       N       E                     dE             d eps       ncg     rms          rms(c)
DAV:   1     0.657446301278E+01    0.19558E-07   -0.21849E-10   198   0.262E-06    0.924E-07
RMM:   2     0.657446298856E+01   -0.24214E-07    0.00000E+00     0   0.152E-07
 141 F= 0.65744630E+01 E0= 0.66073494E+01  d E =-.195578E-07
quench:  g(F)=  0.000E+00 g(S)=  0.000E+00 dE (1.order)= 0.000E+00
 bond charge predicted
       N       E                     dE             d eps       ncg     rms          rms(c)
DAV:   1     0.657446300533E+01   -0.74506E-08   -0.15644E-11   198   0.169E-07    0.904E-06
RMM:   2     0.657446299043E+01   -0.14901E-07    0.00000E+00     0   0.635E-07
 142 F= 0.65744630E+01 E0= 0.66073494E+01  d E =0.186265E-08
quench:  g(F)=  0.000E+00 g(S)=  0.000E+00 dE (1.order)= 0.000E+00
 bond charge predicted
       N       E                     dE             d eps       ncg     rms          rms(c)
DAV:   1     0.657446299601E+01   -0.93132E-08   -0.76532E-11   198   0.138E-06    0.142E-06
RMM:   2     0.657446299881E+01    0.27940E-08    0.00000E+00     0   0.199E-07
 143 F= 0.65744630E+01 E0= 0.66073494E+01  d E =0.838190E-08
quench:  g(F)=  0.000E+00 g(S)=  0.000E+00 dE (1.order)= 0.000E+00
 bond charge predicted
       N       E                     dE             d eps       ncg     rms          rms(c)
DAV:   1     0.657446300998E+01    0.13970E-07   -0.16779E-11   198   0.256E-07    0.422E-06
RMM:   2     0.657446299694E+01   -0.13039E-07    0.00000E+00     0   0.105E-07
 144 F= 0.65744630E+01 E0= 0.66073494E+01  d E =-.186265E-08
quench:  g(F)=  0.000E+00 g(S)=  0.000E+00 dE (1.order)= 0.000E+00
 bond charge predicted
       N       E                     dE             d eps       ncg     rms          rms(c)
DAV:   1     0.657446298391E+01   -0.26077E-07   -0.91870E-11   198   0.203E-07    0.499E-06
RMM:   2     0.657446299229E+01    0.83819E-08    0.00000E+00     0   0.244E-07
 145 F= 0.65744630E+01 E0= 0.66073494E+01  d E =-.465661E-08
quench:  g(F)=  0.000E+00 g(S)=  0.000E+00 dE (1.order)= 0.000E+00
 bond charge predicted
       N       E                     dE             d eps       ncg     rms          rms(c)
DAV:   1     0.657446300626E+01    0.22352E-07   -0.23841E-11   198   0.802E-07    0.291E-05
RMM:   2     0.657446300067E+01   -0.55879E-08    0.00000E+00     0   0.225E-06
 146 F= 0.65744630E+01 E0= 0.66073494E+01  d E =0.838190E-08
quench:  g(F)=  0.000E+00 g(S)=  0.000E+00 dE (1.order)= 0.000E+00
 bond charge predicted
       N       E                     dE             d eps       ncg     rms          rms(c)
DAV:   1     0.657446300160E+01   -0.46566E-08   -0.38184E-10   198   0.474E-06    0.577E-06
RMM:   2     0.657446299694E+01   -0.46566E-08    0.00000E+00     0   0.613E-07
 147 F= 0.65744630E+01 E0= 0.66073494E+01  d E =-.372529E-08
quench:  g(F)=  0.000E+00 g(S)=  0.000E+00 dE (1.order)= 0.000E+00
 bond charge predicted
       N       E                     dE             d eps       ncg     rms          rms(c)
DAV:   1     0.657446301185E+01    0.10245E-07   -0.29835E-11   198   0.122E-06    0.430E-06
RMM:   2     0.657446301278E+01    0.93132E-09    0.00000E+00     0   0.254E-07
 148 F= 0.65744630E+01 E0= 0.66073494E+01  d E =0.158325E-07
quench:  g(F)=  0.000E+00 g(S)=  0.000E+00 dE (1.order)= 0.000E+00
 bond charge predicted
       N       E                     dE             d eps       ncg     rms          rms(c)
DAV:   1     0.657446300998E+01   -0.18626E-08   -0.13483E-10   198   0.365E-07    0.367E-06
RMM:   2     0.657446299788E+01   -0.12107E-07    0.00000E+00     0   0.372E-07
 149 F= 0.65744630E+01 E0= 0.66073494E+01  d E =-.149012E-07
quench:  g(F)=  0.000E+00 g(S)=  0.000E+00 dE (1.order)= 0.000E+00
 bond charge predicted
       N       E                     dE             d eps       ncg     rms          rms(c)
DAV:   1     0.657446300719E+01   -0.27940E-08    0.74345E-11   198   0.681E-07    0.167E-06
RMM:   2     0.657446299601E+01   -0.11176E-07    0.00000E+00     0   0.281E-07
 150 F= 0.65744630E+01 E0= 0.66073494E+01  d E =-.186265E-08
quench:  g(F)=  0.000E+00 g(S)=  0.000E+00 dE (1.order)= 0.000E+00
 bond charge predicted
       N       E                     dE             d eps       ncg     rms          rms(c)
DAV:   1     0.657446299508E+01   -0.12107E-07   -0.13592E-10   198   0.415E-07    0.201E-06
RMM:   2     0.657446301837E+01    0.23283E-07    0.00000E+00     0   0.322E-07
 151 F= 0.65744630E+01 E0= 0.66073494E+01  d E =0.223517E-07
quench:  g(F)=  0.000E+00 g(S)=  0.000E+00 dE (1.order)= 0.000E+00
 bond charge predicted
       N       E                     dE             d eps       ncg     rms          rms(c)
DAV:   1     0.657446301837E+01    0.23283E-07   -0.12597E-10   198   0.514E-07    0.208E-06
RMM:   2     0.657446300905E+01   -0.93132E-08    0.00000E+00     0   0.449E-07
 152 F= 0.65744630E+01 E0= 0.66073494E+01  d E =-.931323E-08
quench:  g(F)=  0.000E+00 g(S)=  0.000E+00 dE (1.order)= 0.000E+00
 bond charge predicted
       N       E                     dE             d eps       ncg     rms          rms(c)
DAV:   1     0.657446298949E+01   -0.28871E-07   -0.14169E-10   198   0.556E-07    0.125E-05
RMM:   2     0.657446298111E+01   -0.83819E-08    0.00000E+00     0   0.117E-06
 153 F= 0.65744630E+01 E0= 0.66073494E+01  d E =-.279397E-07
quench:  g(F)=  0.000E+00 g(S)=  0.000E+00 dE (1.order)= 0.000E+00
 bond charge predicted
       N       E                     dE             d eps       ncg     rms          rms(c)
DAV:   1     0.657446299881E+01    0.93132E-08   -0.43749E-11   198   0.224E-06    0.909E-06
RMM:   2     0.657446297646E+01   -0.22352E-07    0.00000E+00     0   0.680E-07
 154 F= 0.65744630E+01 E0= 0.66073494E+01  d E =-.465661E-08
quench:  g(F)=  0.000E+00 g(S)=  0.000E+00 dE (1.order)= 0.000E+00
 bond charge predicted
       N       E                     dE             d eps       ncg     rms          rms(c)
DAV:   1     0.657446299974E+01    0.93132E-09   -0.40100E-10   198   0.167E-06    0.933E-07
RMM:   2     0.657446302582E+01    0.26077E-07    0.00000E+00     0   0.615E-08
 155 F= 0.65744630E+01 E0= 0.66073494E+01  d E =0.493601E-07
quench:  g(F)=  0.000E+00 g(S)=  0.000E+00 dE (1.order)= 0.000E+00
 bond charge predicted
       N       E                     dE             d eps       ncg     rms          rms(c)
DAV:   1     0.657446300346E+01    0.37253E-08    0.25874E-11   198   0.812E-08    0.249E-06
RMM:   2     0.657446300346E+01    0.00000E+00    0.00000E+00     0   0.656E-08
 156 F= 0.65744630E+01 E0= 0.66073494E+01  d E =-.223517E-07
quench:  g(F)=  0.000E+00 g(S)=  0.000E+00 dE (1.order)= 0.000E+00
 bond charge predicted
       N       E                     dE             d eps       ncg     rms          rms(c)
DAV:   1     0.657446300440E+01    0.93132E-09   -0.48647E-11   198   0.194E-07    0.310E-06
RMM:   2     0.657446300626E+01    0.18626E-08    0.00000E+00     0   0.176E-07
 157 F= 0.65744630E+01 E0= 0.66073494E+01  d E =0.279397E-08
quench:  g(F)=  0.000E+00 g(S)=  0.000E+00 dE (1.order)= 0.000E+00
 bond charge predicted
       N       E                     dE             d eps       ncg     rms          rms(c)
DAV:   1     0.657446299229E+01   -0.12107E-07   -0.26572E-10   198   0.466E-07    0.247E-06
RMM:   2     0.657446302488E+01    0.32596E-07    0.00000E+00     0   0.149E-07
 158 F= 0.65744630E+01 E0= 0.66073494E+01  d E =0.186265E-07
quench:  g(F)=  0.000E+00 g(S)=  0.000E+00 dE (1.order)= 0.000E+00
 bond charge predicted
       N       E                     dE             d eps       ncg     rms          rms(c)
DAV:   1     0.657446298763E+01   -0.46566E-08   -0.77914E-11   198   0.211E-07    0.114E-05
RMM:   2     0.657446300905E+01    0.21420E-07    0.00000E+00     0   0.834E-07
 159 F= 0.65744630E+01 E0= 0.66073494E+01  d E =-.158325E-07
quench:  g(F)=  0.000E+00 g(S)=  0.000E+00 dE (1.order)= 0.000E+00
 bond charge predicted
       N       E                     dE             d eps       ncg     rms          rms(c)
DAV:   1     0.657446299974E+01    0.12107E-07    0.26997E-11   198   0.180E-06    0.704E-07
RMM:   2     0.657446300905E+01    0.93132E-08    0.00000E+00     0   0.255E-07
 160 F= 0.65744630E+01 E0= 0.66073494E+01  d E =0.000000E+00
quench:  g(F)=  0.000E+00 g(S)=  0.000E+00 dE (1.order)= 0.000E+00
 bond charge predicted
       N       E                     dE             d eps       ncg     rms          rms(c)
DAV:   1     0.657446300440E+01    0.46566E-08   -0.10879E-10   198   0.248E-07    0.722E-06
RMM:   2     0.657446299788E+01   -0.65193E-08    0.00000E+00     0   0.293E-07
 161 F= 0.65744630E+01 E0= 0.66073494E+01  d E =-.111759E-07
quench:  g(F)=  0.000E+00 g(S)=  0.000E+00 dE (1.order)= 0.000E+00
 bond charge predicted
       N       E                     dE             d eps       ncg     rms          rms(c)
DAV:   1     0.657446299508E+01   -0.93132E-08   -0.60853E-11   198   0.892E-07    0.704E-06
RMM:   2     0.657446299974E+01    0.46566E-08    0.00000E+00     0   0.669E-07
 162 F= 0.65744630E+01 E0= 0.66073494E+01  d E =0.186265E-08
quench:  g(F)=  0.000E+00 g(S)=  0.000E+00 dE (1.order)= 0.000E+00
 bond charge predicted
       N       E                     dE             d eps       ncg     rms          rms(c)
DAV:   1     0.657446299788E+01    0.27940E-08   -0.23684E-10   198   0.126E-06    0.833E-06
RMM:   2     0.657446300346E+01    0.55879E-08    0.00000E+00     0   0.591E-07
 163 F= 0.65744630E+01 E0= 0.66073494E+01  d E =0.372529E-08
quench:  g(F)=  0.000E+00 g(S)=  0.000E+00 dE (1.order)= 0.000E+00
 bond charge predicted
       N       E                     dE             d eps       ncg     rms          rms(c)
DAV:   1     0.657446300719E+01    0.93132E-08   -0.26009E-10   198   0.139E-06    0.248E-06
RMM:   2     0.657446300719E+01    0.00000E+00    0.00000E+00     0   0.582E-08
 164 F= 0.65744630E+01 E0= 0.66073494E+01  d E =0.372529E-08
quench:  g(F)=  0.000E+00 g(S)=  0.000E+00 dE (1.order)= 0.000E+00
 bond charge predicted
       N       E                     dE             d eps       ncg     rms          rms(c)
DAV:   1     0.657446299229E+01   -0.14901E-07    0.16775E-10   198   0.947E-08    0.162E-06
RMM:   2     0.657446300346E+01    0.11176E-07    0.00000E+00     0   0.898E-08
 165 F= 0.65744630E+01 E0= 0.66073494E+01  d E =-.372529E-08
quench:  g(F)=  0.000E+00 g(S)=  0.000E+00 dE (1.order)= 0.000E+00
 bond charge predicted
       N       E                     dE             d eps       ncg     rms          rms(c)
DAV:   1     0.657446300253E+01    0.10245E-07    0.14911E-11   198   0.230E-07    0.603E-06
RMM:   2     0.657446300253E+01    0.00000E+00    0.00000E+00     0   0.731E-07
 166 F= 0.65744630E+01 E0= 0.66073494E+01  d E =-.931323E-09
quench:  g(F)=  0.000E+00 g(S)=  0.000E+00 dE (1.order)= 0.000E+00
 bond charge predicted
       N       E                     dE             d eps       ncg     rms          rms(c)
DAV:   1     0.657446298763E+01   -0.14901E-07    0.55292E-11   198   0.118E-06    0.979E-06
RMM:   2     0.657446298670E+01   -0.93132E-09    0.00000E+00     0   0.956E-07
 167 F= 0.65744630E+01 E0= 0.66073494E+01  d E =-.158325E-07
quench:  g(F)=  0.000E+00 g(S)=  0.000E+00 dE (1.order)= 0.000E+00
 bond charge predicted
       N       E                     dE             d eps       ncg     rms          rms(c)
DAV:   1     0.657446299415E+01    0.65193E-08   -0.15969E-10   198   0.185E-06    0.922E-06
RMM:   2     0.657446299788E+01    0.37253E-08    0.00000E+00     0   0.666E-07
 168 F= 0.65744630E+01 E0= 0.66073494E+01  d E =0.111759E-07
quench:  g(F)=  0.000E+00 g(S)=  0.000E+00 dE (1.order)= 0.000E+00
 bond charge predicted
       N       E                     dE             d eps       ncg     rms          rms(c)
DAV:   1     0.657446300812E+01    0.13970E-07   -0.22408E-10   198   0.157E-06    0.408E-07
RMM:   2     0.657446298577E+01   -0.22352E-07    0.00000E+00     0   0.922E-08
 169 F= 0.65744630E+01 E0= 0.66073494E+01  d E =-.121072E-07
quench:  g(F)=  0.000E+00 g(S)=  0.000E+00 dE (1.order)= 0.000E+00
 bond charge predicted
       N       E                     dE             d eps       ncg     rms          rms(c)
DAV:   1     0.657446298856E+01   -0.19558E-07   -0.26826E-10   198   0.926E-08    0.467E-06
RMM:   2     0.657446302861E+01    0.40047E-07    0.00000E+00     0   0.233E-07
 170 F= 0.65744630E+01 E0= 0.66073495E+01  d E =0.428408E-07
quench:  g(F)=  0.000E+00 g(S)=  0.000E+00 dE (1.order)= 0.000E+00
 bond charge predicted
       N       E                     dE             d eps       ncg     rms          rms(c)
DAV:   1     0.657446299415E+01    0.55879E-08   -0.10611E-10   198   0.646E-07    0.251E-05
RMM:   2     0.657446301091E+01    0.16764E-07    0.00000E+00     0   0.188E-06
 171 F= 0.65744630E+01 E0= 0.66073494E+01  d E =-.176951E-07
quench:  g(F)=  0.000E+00 g(S)=  0.000E+00 dE (1.order)= 0.000E+00
 bond charge predicted
       N       E                     dE             d eps       ncg     rms          rms(c)
DAV:   1     0.657446299043E+01   -0.37253E-08   -0.46771E-10   198   0.399E-06    0.177E-06
RMM:   2     0.657446298577E+01   -0.46566E-08    0.00000E+00     0   0.450E-07
 172 F= 0.65744630E+01 E0= 0.66073494E+01  d E =-.251457E-07
quench:  g(F)=  0.000E+00 g(S)=  0.000E+00 dE (1.order)= 0.000E+00
 bond charge predicted
       N       E                     dE             d eps       ncg     rms          rms(c)
DAV:   1     0.657446301837E+01    0.27940E-07    0.33879E-11   198   0.602E-07    0.162E-06
RMM:   2     0.657446299881E+01   -0.19558E-07    0.00000E+00     0   0.469E-07
 173 F= 0.65744630E+01 E0= 0.66073494E+01  d E =0.130385E-07
quench:  g(F)=  0.000E+00 g(S)=  0.000E+00 dE (1.order)= 0.000E+00
 bond charge predicted
       N       E                     dE             d eps       ncg     rms          rms(c)
DAV:   1     0.657446299229E+01   -0.26077E-07   -0.21955E-10   198   0.486E-07    0.159E-05
RMM:   2     0.657446298577E+01   -0.65193E-08    0.00000E+00     0   0.136E-06
 174 F= 0.65744630E+01 E0= 0.66073494E+01  d E =-.130385E-07
quench:  g(F)=  0.000E+00 g(S)=  0.000E+00 dE (1.order)= 0.000E+00
 bond charge predicted
       N       E                     dE             d eps       ncg     rms          rms(c)
DAV:   1     0.657446299601E+01    0.37253E-08   -0.24663E-10   198   0.278E-06    0.417E-06
RMM:   2     0.657446300253E+01    0.65193E-08    0.00000E+00     0   0.423E-07
 175 F= 0.65744630E+01 E0= 0.66073494E+01  d E =0.167638E-07
quench:  g(F)=  0.000E+00 g(S)=  0.000E+00 dE (1.order)= 0.000E+00
 bond charge predicted
       N       E                     dE             d eps       ncg     rms          rms(c)
DAV:   1     0.657446300719E+01    0.11176E-07   -0.30525E-11   198   0.870E-07    0.627E-06
RMM:   2     0.657446300160E+01   -0.55879E-08    0.00000E+00     0   0.359E-07
 176 F= 0.65744630E+01 E0= 0.66073494E+01  d E =-.931323E-09
quench:  g(F)=  0.000E+00 g(S)=  0.000E+00 dE (1.order)= 0.000E+00
 bond charge predicted
       N       E                     dE             d eps       ncg     rms          rms(c)
DAV:   1     0.657446300253E+01   -0.46566E-08    0.49893E-11   198   0.963E-07    0.715E-06
RMM:   2     0.657446299415E+01   -0.83819E-08    0.00000E+00     0   0.528E-07
 177 F= 0.65744630E+01 E0= 0.66073494E+01  d E =-.745058E-08
quench:  g(F)=  0.000E+00 g(S)=  0.000E+00 dE (1.order)= 0.000E+00
 bond charge predicted
       N       E                     dE             d eps       ncg     rms          rms(c)
DAV:   1     0.657446299788E+01   -0.46566E-08   -0.31977E-10   198   0.112E-06    0.173E-06
RMM:   2     0.657446301557E+01    0.17695E-07    0.00000E+00     0   0.127E-07
 178 F= 0.65744630E+01 E0= 0.66073494E+01  d E =0.214204E-07
quench:  g(F)=  0.000E+00 g(S)=  0.000E+00 dE (1.order)= 0.000E+00
 bond charge predicted
       N       E                     dE             d eps       ncg     rms          rms(c)
DAV:   1     0.657446299974E+01    0.18626E-08   -0.91234E-11   198   0.225E-07    0.516E-07
RMM:   2     0.657446299415E+01   -0.55879E-08    0.00000E+00     0   0.107E-07
 179 F= 0.65744630E+01 E0= 0.66073494E+01  d E =-.214204E-07
quench:  g(F)=  0.000E+00 g(S)=  0.000E+00 dE (1.order)= 0.000E+00
 bond charge predicted
       N       E                     dE             d eps       ncg     rms          rms(c)
DAV:   1     0.657446300533E+01    0.55879E-08   -0.93129E-11   198   0.131E-07    0.260E-06
RMM:   2     0.657446299788E+01   -0.74506E-08    0.00000E+00     0   0.179E-07
[...]
 bond charge predicted
       N       E                     dE             d eps       ncg     rms          rms(c)
DAV:   1     0.657446300533E+01    0.65193E-08   -0.23211E-10   198   0.203E-06    0.581E-06
RMM:   2     0.657446300440E+01   -0.93132E-09    0.00000E+00     0   0.355E-07
 953 F= 0.65744630E+01 E0= 0.66073494E+01  d E =0.102445E-07
quench:  g(F)=  0.000E+00 g(S)=  0.000E+00 dE (1.order)= 0.000E+00
 bond charge predicted
       N       E                     dE             d eps       ncg     rms          rms(c)
DAV:   1     0.657446301464E+01    0.93132E-08   -0.20405E-10   198   0.961E-07    0.463E-06
RMM:   2     0.657446299788E+01   -0.16764E-07    0.00000E+00     0   0.153E-07
 954 F= 0.65744630E+01 E0= 0.66073494E+01  d E =-.651926E-08
quench:  g(F)=  0.000E+00 g(S)=  0.000E+00 dE (1.order)= 0.000E+00
 bond charge predicted
       N       E                     dE             d eps       ncg     rms          rms(c)
DAV:   1     0.657446301650E+01    0.18626E-08   -0.13007E-11   198   0.572E-07    0.542E-06
RMM:   2     0.657446299508E+01   -0.21420E-07    0.00000E+00     0   0.194E-07
 955 F= 0.65744630E+01 E0= 0.66073494E+01  d E =-.279397E-08
quench:  g(F)=  0.000E+00 g(S)=  0.000E+00 dE (1.order)= 0.000E+00
 bond charge predicted
       N       E                     dE             d eps       ncg     rms          rms(c)
DAV:   1     0.657446298670E+01   -0.29802E-07    0.12324E-10   198   0.698E-07    0.287E-06
RMM:   2     0.657446300346E+01    0.16764E-07    0.00000E+00     0   0.292E-07
 956 F= 0.65744630E+01 E0= 0.66073494E+01  d E =0.838190E-08
quench:  g(F)=  0.000E+00 g(S)=  0.000E+00 dE (1.order)= 0.000E+00
 bond charge predicted
       N       E                     dE             d eps       ncg     rms          rms(c)
DAV:   1     0.657446299788E+01    0.11176E-07   -0.24461E-10   198   0.394E-07    0.219E-05
RMM:   2     0.657446300998E+01    0.12107E-07    0.00000E+00     0   0.193E-06
 957 F= 0.65744630E+01 E0= 0.66073494E+01  d E =0.651926E-08
quench:  g(F)=  0.000E+00 g(S)=  0.000E+00 dE (1.order)= 0.000E+00
 bond charge predicted
       N       E                     dE             d eps       ncg     rms          rms(c)
DAV:   1     0.657446299508E+01   -0.27940E-08   -0.30989E-10   198   0.368E-06    0.112E-05
RMM:   2     0.657446299415E+01   -0.93132E-09    0.00000E+00     0   0.910E-07
 958 F= 0.65744630E+01 E0= 0.66073494E+01  d E =-.158325E-07
quench:  g(F)=  0.000E+00 g(S)=  0.000E+00 dE (1.order)= 0.000E+00
 bond charge predicted
       N       E                     dE             d eps       ncg     rms          rms(c)
DAV:   1     0.657446299508E+01    0.00000E+00   -0.14440E-10   198   0.211E-06    0.172E-06
RMM:   2     0.657446299229E+01   -0.27940E-08    0.00000E+00     0   0.269E-07
 959 F= 0.65744630E+01 E0= 0.66073494E+01  d E =-.186265E-08
quench:  g(F)=  0.000E+00 g(S)=  0.000E+00 dE (1.order)= 0.000E+00
 bond charge predicted
       N       E                     dE             d eps       ncg     rms          rms(c)
DAV:   1     0.657446300533E+01    0.10245E-07   -0.39653E-10   198   0.395E-07    0.158E-06
RMM:   2     0.657446299601E+01   -0.93132E-08    0.00000E+00     0   0.222E-07
 960 F= 0.65744630E+01 E0= 0.66073494E+01  d E =0.372529E-08
quench:  g(F)=  0.000E+00 g(S)=  0.000E+00 dE (1.order)= 0.000E+00
 bond charge predicted
       N       E                     dE             d eps       ncg     rms          rms(c)
DAV:   1     0.657446299601E+01   -0.93132E-08   -0.13067E-10   198   0.267E-07    0.300E-06
RMM:   2     0.657446302023E+01    0.24214E-07    0.00000E+00     0   0.203E-07
 961 F= 0.65744630E+01 E0= 0.66073494E+01  d E =0.242144E-07
quench:  g(F)=  0.000E+00 g(S)=  0.000E+00 dE (1.order)= 0.000E+00
 bond charge predicted
       N       E                     dE             d eps       ncg     rms          rms(c)
DAV:   1     0.657446299043E+01   -0.55879E-08    0.12542E-10   198   0.559E-07    0.298E-06
RMM:   2     0.657446302395E+01    0.33528E-07    0.00000E+00     0   0.450E-07
 962 F= 0.65744630E+01 E0= 0.66073495E+01  d E =0.372529E-08
quench:  g(F)=  0.000E+00 g(S)=  0.000E+00 dE (1.order)= 0.000E+00
 bond charge predicted
       N       E                     dE             d eps       ncg     rms          rms(c)
DAV:   1     0.657446301650E+01    0.26077E-07   -0.26129E-10   198   0.707E-07    0.613E-06
RMM:   2     0.657446299788E+01   -0.18626E-07    0.00000E+00     0   0.758E-07
 963 F= 0.65744630E+01 E0= 0.66073494E+01  d E =-.260770E-07
quench:  g(F)=  0.000E+00 g(S)=  0.000E+00 dE (1.order)= 0.000E+00
 bond charge predicted
       N       E                     dE             d eps       ncg     rms          rms(c)
DAV:   1     0.657446300160E+01   -0.14901E-07   -0.10145E-10   198   0.130E-06    0.116E-05
RMM:   2     0.657446298949E+01   -0.12107E-07    0.00000E+00     0   0.879E-07
 964 F= 0.65744630E+01 E0= 0.66073494E+01  d E =-.838190E-08
quench:  g(F)=  0.000E+00 g(S)=  0.000E+00 dE (1.order)= 0.000E+00
 bond charge predicted
       N       E                     dE             d eps       ncg     rms          rms(c)
DAV:   1     0.657446298670E+01   -0.14901E-07   -0.12781E-10   198   0.198E-06    0.627E-06
RMM:   2     0.657446300533E+01    0.18626E-07    0.00000E+00     0   0.131E-07
 965 F= 0.65744630E+01 E0= 0.66073494E+01  d E =0.158325E-07
quench:  g(F)=  0.000E+00 g(S)=  0.000E+00 dE (1.order)= 0.000E+00
 bond charge predicted
       N       E                     dE             d eps       ncg     rms          rms(c)
DAV:   1     0.657446300905E+01    0.22352E-07   -0.47521E-11   198   0.674E-07    0.604E-06
RMM:   2     0.657446300440E+01   -0.46566E-08    0.00000E+00     0   0.654E-07
 966 F= 0.65744630E+01 E0= 0.66073494E+01  d E =-.931323E-09
quench:  g(F)=  0.000E+00 g(S)=  0.000E+00 dE (1.order)= 0.000E+00
 bond charge predicted
       N       E                     dE             d eps       ncg     rms          rms(c)
DAV:   1     0.657446300346E+01   -0.55879E-08   -0.22632E-10   198   0.115E-06    0.127E-05
RMM:   2     0.657446300346E+01    0.00000E+00    0.00000E+00     0   0.891E-07
 967 F= 0.65744630E+01 E0= 0.66073494E+01  d E =-.931323E-09
quench:  g(F)=  0.000E+00 g(S)=  0.000E+00 dE (1.order)= 0.000E+00
 bond charge predicted
       N       E                     dE             d eps       ncg     rms          rms(c)
DAV:   1     0.657446300067E+01   -0.27940E-08   -0.37011E-10   198   0.210E-06    0.472E-07
RMM:   2     0.657446297925E+01   -0.21420E-07    0.00000E+00     0   0.127E-07
 968 F= 0.65744630E+01 E0= 0.66073494E+01  d E =-.242144E-07
quench:  g(F)=  0.000E+00 g(S)=  0.000E+00 dE (1.order)= 0.000E+00
 bond charge predicted
       N       E                     dE             d eps       ncg     rms          rms(c)
DAV:   1     0.657446299322E+01   -0.74506E-08    0.37789E-11   198   0.125E-07    0.510E-06
RMM:   2     0.657446298670E+01   -0.65193E-08    0.00000E+00     0   0.419E-07
 969 F= 0.65744630E+01 E0= 0.66073494E+01  d E =0.745058E-08
quench:  g(F)=  0.000E+00 g(S)=  0.000E+00 dE (1.order)= 0.000E+00
 bond charge predicted
       N       E                     dE             d eps       ncg     rms          rms(c)
DAV:   1     0.657446301278E+01    0.19558E-07   -0.15117E-10   198   0.908E-07    0.384E-07
RMM:   2     0.657446300346E+01   -0.93132E-08    0.00000E+00     0   0.146E-07
 970 F= 0.65744630E+01 E0= 0.66073494E+01  d E =0.167638E-07
quench:  g(F)=  0.000E+00 g(S)=  0.000E+00 dE (1.order)= 0.000E+00
 bond charge predicted
       N       E                     dE             d eps       ncg     rms          rms(c)
DAV:   1     0.657446300440E+01   -0.83819E-08   -0.13532E-11   198   0.144E-07    0.415E-06
RMM:   2     0.657446299415E+01   -0.10245E-07    0.00000E+00     0   0.327E-07
 971 F= 0.65744630E+01 E0= 0.66073494E+01  d E =-.931323E-08
quench:  g(F)=  0.000E+00 g(S)=  0.000E+00 dE (1.order)= 0.000E+00
 bond charge predicted
       N       E                     dE             d eps       ncg     rms          rms(c)
DAV:   1     0.657446300533E+01    0.93132E-09   -0.13949E-10   198   0.623E-07    0.636E-07
RMM:   2     0.657446299974E+01   -0.55879E-08    0.00000E+00     0   0.135E-07
 972 F= 0.65744630E+01 E0= 0.66073494E+01  d E =0.558794E-08
quench:  g(F)=  0.000E+00 g(S)=  0.000E+00 dE (1.order)= 0.000E+00
 bond charge predicted
       N       E                     dE             d eps       ncg     rms          rms(c)
DAV:   1     0.657446300812E+01    0.27940E-08    0.83892E-12   198   0.139E-07    0.715E-06
RMM:   2     0.657446298670E+01   -0.21420E-07    0.00000E+00     0   0.455E-07
 973 F= 0.65744630E+01 E0= 0.66073494E+01  d E =-.130385E-07
quench:  g(F)=  0.000E+00 g(S)=  0.000E+00 dE (1.order)= 0.000E+00
 bond charge predicted
       N       E                     dE             d eps       ncg     rms          rms(c)
DAV:   1     0.657446299322E+01   -0.14901E-07   -0.99199E-11   198   0.107E-06    0.584E-07
RMM:   2     0.657446299322E+01    0.00000E+00    0.00000E+00     0   0.160E-07
 974 F= 0.65744630E+01 E0= 0.66073494E+01  d E =0.651926E-08
quench:  g(F)=  0.000E+00 g(S)=  0.000E+00 dE (1.order)= 0.000E+00
 bond charge predicted
       N       E                     dE             d eps       ncg     rms          rms(c)
DAV:   1     0.657446300626E+01    0.13039E-07   -0.25263E-10   198   0.155E-07    0.776E-06
RMM:   2     0.657446301091E+01    0.46566E-08    0.00000E+00     0   0.574E-07
 975 F= 0.65744630E+01 E0= 0.66073494E+01  d E =0.176951E-07
quench:  g(F)=  0.000E+00 g(S)=  0.000E+00 dE (1.order)= 0.000E+00
 bond charge predicted
       N       E                     dE             d eps       ncg     rms          rms(c)
DAV:   1     0.657446298949E+01   -0.16764E-07    0.71080E-11   198   0.124E-06    0.229E-06
RMM:   2     0.657446300160E+01    0.12107E-07    0.00000E+00     0   0.143E-07
 976 F= 0.65744630E+01 E0= 0.66073494E+01  d E =-.931323E-08
quench:  g(F)=  0.000E+00 g(S)=  0.000E+00 dE (1.order)= 0.000E+00
 bond charge predicted
       N       E                     dE             d eps       ncg     rms          rms(c)
DAV:   1     0.657446298856E+01   -0.93132E-09   -0.84282E-11   198   0.231E-07    0.431E-06
RMM:   2     0.657446299043E+01    0.18626E-08    0.00000E+00     0   0.221E-07
 977 F= 0.65744630E+01 E0= 0.66073494E+01  d E =-.111759E-07
quench:  g(F)=  0.000E+00 g(S)=  0.000E+00 dE (1.order)= 0.000E+00
 bond charge predicted
       N       E                     dE             d eps       ncg     rms          rms(c)
DAV:   1     0.657446300160E+01    0.13039E-07   -0.15552E-10   198   0.634E-07    0.417E-06
RMM:   2     0.657446298670E+01   -0.14901E-07    0.00000E+00     0   0.369E-07
 978 F= 0.65744630E+01 E0= 0.66073494E+01  d E =-.372529E-08
quench:  g(F)=  0.000E+00 g(S)=  0.000E+00 dE (1.order)= 0.000E+00
 bond charge predicted
       N       E                     dE             d eps       ncg     rms          rms(c)
DAV:   1     0.657446300719E+01    0.55879E-08   -0.22560E-10   198   0.759E-07    0.373E-06
RMM:   2     0.657446300346E+01   -0.37253E-08    0.00000E+00     0   0.132E-07
 979 F= 0.65744630E+01 E0= 0.66073494E+01  d E =0.167638E-07
quench:  g(F)=  0.000E+00 g(S)=  0.000E+00 dE (1.order)= 0.000E+00
 bond charge predicted
       N       E                     dE             d eps       ncg     rms          rms(c)
DAV:   1     0.657446301557E+01    0.83819E-08   -0.21699E-10   198   0.468E-07    0.446E-06
RMM:   2     0.657446298391E+01   -0.31665E-07    0.00000E+00     0   0.289E-07
 980 F= 0.65744630E+01 E0= 0.66073494E+01  d E =-.195578E-07
quench:  g(F)=  0.000E+00 g(S)=  0.000E+00 dE (1.order)= 0.000E+00
 bond charge predicted
       N       E                     dE             d eps       ncg     rms          rms(c)
DAV:   1     0.657446299974E+01   -0.15832E-07   -0.99780E-11   198   0.667E-07    0.976E-07
RMM:   2     0.657446299881E+01   -0.93132E-09    0.00000E+00     0   0.114E-07
 981 F= 0.65744630E+01 E0= 0.66073494E+01  d E =0.149012E-07
quench:  g(F)=  0.000E+00 g(S)=  0.000E+00 dE (1.order)= 0.000E+00
 bond charge predicted
       N       E                     dE             d eps       ncg     rms          rms(c)
DAV:   1     0.657446298856E+01   -0.11176E-07   -0.22208E-10   198   0.199E-07    0.204E-06
RMM:   2     0.657446299601E+01    0.74506E-08    0.00000E+00     0   0.109E-07
 982 F= 0.65744630E+01 E0= 0.66073494E+01  d E =-.279397E-08
quench:  g(F)=  0.000E+00 g(S)=  0.000E+00 dE (1.order)= 0.000E+00
 bond charge predicted
       N       E                     dE             d eps       ncg     rms          rms(c)
DAV:   1     0.657446300160E+01    0.13039E-07   -0.30840E-10   198   0.285E-07    0.108E-05
RMM:   2     0.657446299508E+01   -0.65193E-08    0.00000E+00     0   0.907E-07
 983 F= 0.65744630E+01 E0= 0.66073494E+01  d E =-.931323E-09
quench:  g(F)=  0.000E+00 g(S)=  0.000E+00 dE (1.order)= 0.000E+00
 bond charge predicted
       N       E                     dE             d eps       ncg     rms          rms(c)
DAV:   1     0.657446298577E+01   -0.15832E-07   -0.29273E-10   198   0.184E-06    0.224E-06
RMM:   2     0.657446299601E+01    0.10245E-07    0.00000E+00     0   0.295E-07
 984 F= 0.65744630E+01 E0= 0.66073494E+01  d E =0.931323E-09
quench:  g(F)=  0.000E+00 g(S)=  0.000E+00 dE (1.order)= 0.000E+00
 bond charge predicted
       N       E                     dE             d eps       ncg     rms          rms(c)
DAV:   1     0.657446299322E+01    0.74506E-08   -0.18856E-10   198   0.545E-07    0.379E-06
RMM:   2     0.657446299508E+01    0.18626E-08    0.00000E+00     0   0.280E-07
 985 F= 0.65744630E+01 E0= 0.66073494E+01  d E =-.931323E-09
quench:  g(F)=  0.000E+00 g(S)=  0.000E+00 dE (1.order)= 0.000E+00
 bond charge predicted
       N       E                     dE             d eps       ncg     rms          rms(c)
DAV:   1     0.657446300346E+01    0.10245E-07   -0.31234E-10   198   0.618E-07    0.230E-06
RMM:   2     0.657446298856E+01   -0.14901E-07    0.00000E+00     0   0.196E-07
 986 F= 0.65744630E+01 E0= 0.66073494E+01  d E =-.651926E-08
quench:  g(F)=  0.000E+00 g(S)=  0.000E+00 dE (1.order)= 0.000E+00
 bond charge predicted
       N       E                     dE             d eps       ncg     rms          rms(c)
DAV:   1     0.657446300626E+01    0.27940E-08   -0.25306E-10   198   0.368E-07    0.157E-05
RMM:   2     0.657446299322E+01   -0.13039E-07    0.00000E+00     0   0.118E-06
 987 F= 0.65744630E+01 E0= 0.66073494E+01  d E =0.465661E-08
quench:  g(F)=  0.000E+00 g(S)=  0.000E+00 dE (1.order)= 0.000E+00
 bond charge predicted
       N       E                     dE             d eps       ncg     rms          rms(c)
DAV:   1     0.657446300160E+01   -0.46566E-08   -0.27160E-10   198   0.247E-06    0.278E-06
RMM:   2     0.657446300719E+01    0.55879E-08    0.00000E+00     0   0.312E-07
 988 F= 0.65744630E+01 E0= 0.66073494E+01  d E =0.139698E-07
quench:  g(F)=  0.000E+00 g(S)=  0.000E+00 dE (1.order)= 0.000E+00
 bond charge predicted
       N       E                     dE             d eps       ncg     rms          rms(c)
DAV:   1     0.657446299694E+01   -0.46566E-08    0.96139E-11   198   0.545E-07    0.171E-06
RMM:   2     0.657446299322E+01   -0.37253E-08    0.00000E+00     0   0.182E-07
 989 F= 0.65744630E+01 E0= 0.66073494E+01  d E =-.139698E-07
quench:  g(F)=  0.000E+00 g(S)=  0.000E+00 dE (1.order)= 0.000E+00
 bond charge predicted
       N       E                     dE             d eps       ncg     rms          rms(c)
DAV:   1     0.657446300626E+01    0.93132E-08   -0.73289E-11   198   0.310E-07    0.316E-06
RMM:   2     0.657446299229E+01   -0.13970E-07    0.00000E+00     0   0.169E-07
 990 F= 0.65744630E+01 E0= 0.66073494E+01  d E =-.931323E-09
quench:  g(F)=  0.000E+00 g(S)=  0.000E+00 dE (1.order)= 0.000E+00
 bond charge predicted
       N       E                     dE             d eps       ncg     rms          rms(c)
DAV:   1     0.657446300812E+01    0.18626E-08   -0.65629E-11   198   0.405E-07    0.542E-06
RMM:   2     0.657446299601E+01   -0.12107E-07    0.00000E+00     0   0.291E-07
 991 F= 0.65744630E+01 E0= 0.66073494E+01  d E =0.372529E-08
quench:  g(F)=  0.000E+00 g(S)=  0.000E+00 dE (1.order)= 0.000E+00
 bond charge predicted
       N       E                     dE             d eps       ncg     rms          rms(c)
DAV:   1     0.657446298763E+01   -0.20489E-07   -0.17704E-10   198   0.734E-07    0.154E-06
RMM:   2     0.657446299601E+01    0.83819E-08    0.00000E+00     0   0.246E-07
 992 F= 0.65744630E+01 E0= 0.66073494E+01  d E =0.000000E+00
quench:  g(F)=  0.000E+00 g(S)=  0.000E+00 dE (1.order)= 0.000E+00
 bond charge predicted
       N       E                     dE             d eps       ncg     rms          rms(c)
DAV:   1     0.657446299229E+01    0.46566E-08   -0.27217E-10   198   0.274E-07    0.170E-05
RMM:   2     0.657446299788E+01    0.55879E-08    0.00000E+00     0   0.119E-06
 993 F= 0.65744630E+01 E0= 0.66073494E+01  d E =0.186265E-08
quench:  g(F)=  0.000E+00 g(S)=  0.000E+00 dE (1.order)= 0.000E+00
 bond charge predicted
       N       E                     dE             d eps       ncg     rms          rms(c)
DAV:   1     0.657446299508E+01    0.27940E-08    0.28213E-11   198   0.265E-06    0.496E-06
RMM:   2     0.657446300533E+01    0.10245E-07    0.00000E+00     0   0.499E-07
 994 F= 0.65744630E+01 E0= 0.66073494E+01  d E =0.745058E-08
quench:  g(F)=  0.000E+00 g(S)=  0.000E+00 dE (1.order)= 0.000E+00
 bond charge predicted
       N       E                     dE             d eps       ncg     rms          rms(c)
DAV:   1     0.657446299974E+01    0.46566E-08   -0.14458E-10   198   0.770E-07    0.216E-06
RMM:   2     0.657446300812E+01    0.83819E-08    0.00000E+00     0   0.248E-07
 995 F= 0.65744630E+01 E0= 0.66073494E+01  d E =0.279397E-08
quench:  g(F)=  0.000E+00 g(S)=  0.000E+00 dE (1.order)= 0.000E+00
 bond charge predicted
       N       E                     dE             d eps       ncg     rms          rms(c)
DAV:   1     0.657446299788E+01   -0.18626E-08   -0.12957E-10   198   0.382E-07    0.370E-06
RMM:   2     0.657446301371E+01    0.15832E-07    0.00000E+00     0   0.318E-07
 996 F= 0.65744630E+01 E0= 0.66073494E+01  d E =0.558794E-08
quench:  g(F)=  0.000E+00 g(S)=  0.000E+00 dE (1.order)= 0.000E+00
 bond charge predicted
       N       E                     dE             d eps       ncg     rms          rms(c)
DAV:   1     0.657446302116E+01    0.23283E-07   -0.36252E-10   198   0.680E-07    0.303E-06
RMM:   2     0.657446300346E+01   -0.17695E-07    0.00000E+00     0   0.154E-07
 997 F= 0.65744630E+01 E0= 0.66073494E+01  d E =-.102445E-07
quench:  g(F)=  0.000E+00 g(S)=  0.000E+00 dE (1.order)= 0.000E+00
 bond charge predicted
       N       E                     dE             d eps       ncg     rms          rms(c)
DAV:   1     0.657446299881E+01   -0.22352E-07   -0.52089E-11   198   0.170E-07    0.367E-06
RMM:   2     0.657446300998E+01    0.11176E-07    0.00000E+00     0   0.486E-07
 998 F= 0.65744630E+01 E0= 0.66073494E+01  d E =0.651926E-08
quench:  g(F)=  0.000E+00 g(S)=  0.000E+00 dE (1.order)= 0.000E+00
 bond charge predicted
       N       E                     dE             d eps       ncg     rms          rms(c)
DAV:   1     0.657446299415E+01   -0.46566E-08    0.10405E-10   198   0.793E-07    0.103E-05
RMM:   2     0.657446300626E+01    0.12107E-07    0.00000E+00     0   0.599E-07
 999 F= 0.65744630E+01 E0= 0.66073494E+01  d E =-.372529E-08
quench:  g(F)=  0.000E+00 g(S)=  0.000E+00 dE (1.order)= 0.000E+00
 bond charge predicted
       N       E                     dE             d eps       ncg     rms          rms(c)
DAV:   1     0.657446300067E+01    0.65193E-08   -0.36250E-10   198   0.160E-06    0.365E-06
RMM:   2     0.657446301557E+01    0.14901E-07    0.00000E+00     0   0.421E-07
1000 F= 0.65744630E+01 E0= 0.66073494E+01  d E =0.931323E-08
quench:  g(F)=  0.000E+00 g(S)=  0.000E+00 dE (1.order)= 0.000E+00
