 vasp.6.3.2 27Jun22 (build Mar 25 2024 10:42:18) complex                         
 executed on             LinuxGNU date 2024.03.31  12:36:14
 running on   32 total cores
 distrk:  each k-point on   32 cores,    1 groups
 distr:  one band on NCORE=   1 cores,   32 groups


--------------------------------------------------------------------------------------------------------


 INCAR:
   ISTART = 0
   ICHARG = 2
   PREC = Accurate
   IBRION = -1
   EDIFF = 0.000000001
   EDIFFG = -0.0005
   NSW = 0
   NELM = 100
   ENCUT = 520
   ISMEAR = -5
   SIGMA = 0.05
   ISPIN = 2
   ISYM = 0
   LWAVE = False
   LCHARG = False
   LASPH = True
   LORBIT = 11
   ADDGRID = TRUE

 POTCAR:    PAW_PBE S 06Sep2000                   
 -----------------------------------------------------------------------------
|                                                                             |
|           W    W    AA    RRRRR   N    N  II  N    N   GGGG   !!!           |
|           W    W   A  A   R    R  NN   N  II  NN   N  G    G  !!!           |
|           W    W  A    A  R    R  N N  N  II  N N  N  G       !!!           |
|           W WW W  AAAAAA  RRRRR   N  N N  II  N  N N  G  GGG   !            |
|           WW  WW  A    A  R   R   N   NN  II  N   NN  G    G                |
|           W    W  A    A  R    R  N    N  II  N    N   GGGG   !!!           |
|                                                                             |
|     You use a magnetic or noncollinear calculation, but did not specify     |
|     the initial magnetic moment with the MAGMOM tag. Note that a            |
|     default of 1 will be used for all atoms. This ferromagnetic setup       |
|     may break the symmetry of the crystal, in particular it may rule        |
|     out finding an antiferromagnetic solution. Thence, we recommend         |
|     setting the initial magnetic moment manually or verifying carefully     |
|     that this magnetic setup is desired.                                    |
|                                                                             |
 -----------------------------------------------------------------------------

 -----------------------------------------------------------------------------
|                                                                             |
|           W    W    AA    RRRRR   N    N  II  N    N   GGGG   !!!           |
|           W    W   A  A   R    R  NN   N  II  NN   N  G    G  !!!           |
|           W    W  A    A  R    R  N N  N  II  N N  N  G       !!!           |
|           W WW W  AAAAAA  RRRRR   N  N N  II  N  N N  G  GGG   !            |
|           WW  WW  A    A  R   R   N   NN  II  N   NN  G    G                |
|           W    W  A    A  R    R  N    N  II  N    N   GGGG   !!!           |
|                                                                             |
|     For optimal performance we recommend to set                             |
|       NCORE = 2 up to number-of-cores-per-socket                            |
|     NCORE specifies how many cores store one orbital (NPAR=cpu/NCORE).      |
|     This setting can greatly improve the performance of VASP for DFT.       |
|     The default, NCORE=1 might be grossly inefficient on modern             |
|     multi-core architectures or massively parallel machines. Do your        |
|     own testing! More info at https://www.vasp.at/wiki/index.php/NCORE      |
|     Unfortunately you need to use the default for GW and RPA                |
|     calculations (for HF NCORE is supported but not extensively tested      |
|     yet).                                                                   |
|                                                                             |
 -----------------------------------------------------------------------------

 POTCAR:    PAW_PBE S 06Sep2000                   
   SHA256 =  0fc7481fb0695f01bdc6462160264c5c84044ae9ec85a907d398b887a2bc3132 S/POTCAR              
   COPYR  = (c) Copyright 06Sep2000 Georg Kresse                                                    
   COPYR  = This file is part of the software VASP. Any use, copying, and all other rights are regul
   COPYR  = If you do not have a valid VASP license, you may not use, copy or distribute this file. 
   VRHFIN =S : s2p4                                                                                 
   LEXCH  = PE                                                                                      
   EATOM  =   276.8230 eV,   20.3459 Ry                                                             
                                                                                                    
   TITEL  = PAW_PBE S 06Sep2000                                                                     
   LULTRA =        F    use ultrasoft PP ?                                                          
   IUNSCR =        1    unscreen: 0-lin 1-nonlin 2-no                                               
   RPACOR =    1.500    partial core radius                                                         
   POMASS =   32.066; ZVAL   =    6.000    mass and valenz                                          
   RCORE  =    1.900    outmost cutoff radius                                                       
   RWIGS  =    2.200; RWIGS  =    1.164    wigner-seitz radius (au A)                               
   ENMAX  =  258.689; ENMIN  =  194.016 eV                                                          
   ICORE  =        2    local potential                                                             
   LCOR   =        T    correct aug charges                                                         
   LPAW   =        T    paw PP                                                                      
   EAUG   =  335.092                                                                                
   DEXC   =    0.000                                                                                
   RMAX   =    1.942    core radius for proj-oper                                                   
   RAUG   =    1.300    factor for augmentation sphere                                              
   RDEP   =    1.954    radius for radial grids                                                     
   RDEPT  =    1.744    core radius for aug-charge                                                  
                                                                                                    
   Atomic configuration                                                                             
    6 entries                                                                                       
     n  l   j            E        occ.                                                              
     1  0  0.50     -2405.8406   2.0000                                                             
     2  0  0.50      -211.7007   2.0000                                                             
     2  1  1.50      -156.4958   6.0000                                                             
     3  0  0.50       -17.2562   2.0000                                                             
     3  1  0.50        -7.0085   4.0000                                                             
     3  2  1.50        -6.8029   0.0000                                                             
   Description                                                                                      
     l       E           TYP  RCUT    TYP  RCUT                                                     
     0    -17.2561641     23  1.900                                                                 
     0    -15.8743224     23  1.900                                                                 
     1     -7.0085400     23  1.900                                                                 
     1     -2.7779785     23  1.900                                                                 
     2     -6.8029130     23  1.900                                                                 
  local pseudopotential read in
  partial core-charges read in
  partial kinetic energy density read in
  atomic valenz-charges read in
  non local Contribution for L=           0  read in
    real space projection operators read in
  non local Contribution for L=           0  read in
    real space projection operators read in
  non local Contribution for L=           1  read in
    real space projection operators read in
  non local Contribution for L=           1  read in
    real space projection operators read in
    PAW grid and wavefunctions read in

   number of l-projection  operators is LMAX  =           4
   number of lm-projection operators is LMMAX =           8

 -----------------------------------------------------------------------------
|                                                                             |
|               ----> ADVICE to this user running VASP <----                  |
|                                                                             |
|     You have a (more or less) 'large supercell' and for larger cells it     |
|     might be more efficient to use real-space projection operators.         |
|     Therefore, try LREAL= Auto in the INCAR file.                           |
|     Mind: For very accurate calculation, you might also keep the            |
|     reciprocal projection scheme (i.e. LREAL=.FALSE.).                      |
|                                                                             |
 -----------------------------------------------------------------------------

  PAW_PBE S 06Sep2000                   :
 energy of atom  1       EATOM= -276.8230
 kinetic energy error for atom=    0.0016 (will be added to EATOM!!)


 POSCAR: generated by phonopy
  positions in direct lattice
  No initial velocities read in
 exchange correlation table for  LEXCH =        8
   RHO(1)=    0.500       N(1)  =     2000
   RHO(2)=  100.500       N(2)  =     4000



--------------------------------------------------------------------------------------------------------


 ion  position               nearest neighbor table
   1  0.886  0.467  0.678-  45 1.98  24 2.13
   2  0.886  0.967  0.678-  46 1.98  23 2.13
   3  0.330  0.189  0.550-  41 2.05  19 2.14
   4  0.330  0.689  0.551-  42 2.05  20 2.13
   5  0.913  0.105  0.912-  51 1.98  11 2.13
   6  0.913  0.605  0.912-  52 1.98  12 2.13
   7  0.240  0.301  0.777-  19 1.98  37 2.23
   8  0.240  0.801  0.777-  20 1.98  38 2.23
   9  0.144  0.306  0.224-  31 2.05  39 2.13
  10  0.144  0.806  0.224-  32 2.05  40 2.13
  11  0.856  0.194  0.776-  47 2.05   5 2.13
  12  0.856  0.694  0.776-  48 2.05   6 2.13
  13  0.760  0.199  0.223-  27 1.98  33 2.23
  14  0.760  0.699  0.223-  28 1.98  34 2.23
  15  0.170  0.439  0.449-  31 2.05  30 2.13
  16  0.170  0.939  0.449-  32 2.05  29 2.13
  17  0.413  0.145  0.912-  37 1.98  43 2.13
  18  0.413  0.645  0.912-  38 1.98  44 2.13
  19  0.386  0.283  0.678-   7 1.98   3 2.14
  20  0.386  0.783  0.678-   8 1.98   4 2.13
  21  0.644  0.444  0.224-  53 2.05  35 2.13
  22  0.644  0.944  0.224-  54 2.05  36 2.13
  23  0.830  0.061  0.551-  47 2.05   2 2.13
  24  0.830  0.561  0.551-  48 2.05   1 2.13
  25  0.260  0.051  0.223-  29 1.98  50 2.23
  26  0.260  0.551  0.223-  30 1.98  49 2.23
  27  0.614  0.217  0.322-  13 1.98  55 2.13
  28  0.614  0.717  0.322-  14 1.98  56 2.13
  29  0.114  0.033  0.322-  25 1.98  16 2.13
  30  0.114  0.533  0.322-  26 1.98  15 2.13
  31  0.060  0.345  0.374-   9 2.05  15 2.05
  32  0.060  0.845  0.374-  10 2.05  16 2.05
  33  0.743  0.289  0.071-  35 1.98  13 2.23
  34  0.743  0.789  0.071-  36 1.98  14 2.23
  35  0.587  0.355  0.088-  33 1.98  21 2.13
  36  0.587  0.855  0.088-  34 1.98  22 2.13
  37  0.257  0.211  0.929-  17 1.98   7 2.23
  38  0.257  0.711  0.929-  18 1.98   8 2.23
  39  0.087  0.395  0.088-  49 1.98   9 2.13
  40  0.087  0.895  0.088-  50 1.98  10 2.13
  41  0.440  0.095  0.626-  43 2.05   3 2.05
  42  0.440  0.595  0.626-  44 2.05   4 2.05
  43  0.356  0.056  0.776-  41 2.05  17 2.13
  44  0.356  0.556  0.776-  42 2.05  18 2.13
  45  0.740  0.449  0.777-   1 1.98  52 2.23
  46  0.740  0.949  0.777-   2 1.98  51 2.23
  47  0.940  0.155  0.626-  11 2.05  23 2.05
  48  0.940  0.655  0.626-  12 2.05  24 2.05
  49  0.243  0.461  0.071-  39 1.98  26 2.23
  50  0.243  0.961  0.071-  40 1.98  25 2.23
  51  0.757  0.039  0.929-   5 1.98  46 2.23
  52  0.757  0.539  0.929-   6 1.98  45 2.23
  53  0.560  0.405  0.374-  21 2.05  55 2.05
  54  0.560  0.905  0.374-  22 2.05  56 2.05
  55  0.670  0.311  0.449-  53 2.05  27 2.13
  56  0.670  0.811  0.449-  54 2.05  28 2.13


IMPORTANT INFORMATION: All symmetrisations will be switched off!
NOSYMM: (Re-)initialisation of all symmetry stuff for point group C_1.


----------------------------------------------------------------------------------------

                                     Primitive cell                                     

  volume of cell :    1863.6770

  direct lattice vectors                    reciprocal lattice vectors
     0.000000000 10.307367086 -0.372855731     0.000000000  0.096453423 -0.015606996
    16.788494411  0.000000000  0.000000000     0.059564603  0.000000000  0.000000000
     0.000000000 -1.732519801-10.707215182     0.000000000 -0.003358783 -0.092851486

  length of vectors
    10.314108670 16.788494411 10.846477853     0.097707938  0.059564603  0.092912216

  position of ions in fractional coordinates (direct lattice)
     0.886423141  0.467004751  0.678126386
     0.886423141  0.967004751  0.678126386
     0.329563264  0.188743823  0.549785763
     0.329563264  0.688743823  0.550707721
     0.912671285  0.105241885  0.911960471
     0.912671285  0.605241885  0.911960471
     0.239736405  0.300831047  0.776574189
     0.239736405  0.800831047  0.776574189
     0.144417516  0.305688762  0.224396680
     0.144417516  0.805688762  0.224396680
     0.855582484  0.194311238  0.775603320
     0.855582484  0.694311238  0.775603320
     0.760263595  0.199168953  0.223425811
     0.760263595  0.699168953  0.223425811
     0.170436736  0.438743823  0.449292279
     0.170436736  0.938743823  0.449292279
     0.412671285  0.144758115  0.911960471
     0.412671285  0.644758115  0.911960471
     0.386423141  0.282995249  0.678126386
     0.386423141  0.782995249  0.678126386
     0.644417516  0.444311238  0.224396680
     0.644417516  0.944311238  0.224396680
     0.829563264  0.061256177  0.550707721
     0.829563264  0.561256177  0.550707721
     0.260263595  0.050831047  0.223425811
     0.260263595  0.550831047  0.223425811
     0.613576859  0.217004751  0.321873614
     0.613576859  0.717004751  0.321873614
     0.113576859  0.032995249  0.321873614
     0.113576859  0.532995249  0.321873614
     0.059895700  0.345087734  0.374484367
     0.059895700  0.845087734  0.374484367
     0.743425210  0.289344343  0.071165234
     0.743425210  0.789344343  0.071165234
     0.587328715  0.355241885  0.088039529
     0.587328715  0.855241885  0.088039529
     0.256574790  0.210655657  0.928834766
     0.256574790  0.710655657  0.928834766
     0.087328715  0.394758115  0.088039529
     0.087328715  0.894758115  0.088039529
     0.440104300  0.095087734  0.625515633
     0.440104300  0.595087734  0.625515633
     0.355582484  0.055688762  0.775603320
     0.355582484  0.555688762  0.775603320
     0.739736405  0.449168953  0.776574189
     0.739736405  0.949168953  0.776574189
     0.940104300  0.154912266  0.625515633
     0.940104300  0.654912266  0.625515633
     0.243425210  0.460655657  0.071165234
     0.243425210  0.960655657  0.071165234
     0.756574790  0.039344343  0.928834766
     0.756574790  0.539344343  0.928834766
     0.559895700  0.404912266  0.374484367
     0.559895700  0.904912266  0.374484367
     0.670436736  0.311256177  0.449292279
     0.670436736  0.811256177  0.449292279

  ion indices of the primitive-cell ions
   primitive index   ion index
                 1           1
                 2           2
                 3           3
                 4           4
                 5           5
                 6           6
                 7           7
                 8           8
                 9           9
                10          10
                11          11
                12          12
                13          13
                14          14
                15          15
                16          16
                17          17
                18          18
                19          19
                20          20
                21          21
                22          22
                23          23
                24          24
                25          25
                26          26
                27          27
                28          28
                29          29
                30          30
                31          31
                32          32
                33          33
                34          34
                35          35
                36          36
                37          37
                38          38
                39          39
                40          40
                41          41
                42          42
                43          43
                44          44
                45          45
                46          46
                47          47
                48          48
                49          49
                50          50
                51          51
                52          52
                53          53
                54          54
                55          55
                56          56

----------------------------------------------------------------------------------------



 KPOINTS: pymatgen with grid density = 595 / numbe

Automatic generation of k-mesh.
 Grid dimensions read from file:
 generate k-points for:    2    2    2

 Generating k-lattice:

  Cartesian coordinates                     Fractional coordinates (reciprocal lattice)
     0.000000000  0.048226712 -0.007803498     0.500000000  0.000000000 -0.000000000
     0.029782301  0.000000000  0.000000000     0.000000000  0.500000000  0.000000000
     0.000000000 -0.001679391 -0.046425743    -0.000000000  0.000000000  0.500000000

  Length of vectors
     0.048853969  0.029782301  0.046456108

  Shift w.r.t. Gamma in fractional coordinates (k-lattice)
     0.000000000  0.000000000  0.000000000

 TETIRR: Found     24 inequivalent tetrahedra from       48
 
 Subroutine IBZKPT returns following result:
 ===========================================
 
 Found      8 irreducible k-points:
 
 Following reciprocal coordinates:
            Coordinates               Weight
  0.000000  0.000000  0.000000      1.000000
  0.500000  0.000000  0.000000      1.000000
  0.000000  0.500000  0.000000      1.000000
  0.500000  0.500000  0.000000      1.000000
  0.000000  0.000000  0.500000      1.000000
  0.500000  0.000000  0.500000      1.000000
  0.000000  0.500000  0.500000      1.000000
  0.500000  0.500000  0.500000      1.000000
 
 Following cartesian coordinates:
            Coordinates               Weight
  0.000000  0.000000 -0.000000      1.000000
  0.000000  0.048227 -0.007803      1.000000
  0.029782  0.000000 -0.000000      1.000000
  0.029782  0.048227 -0.007803      1.000000
  0.000000 -0.001679 -0.046426      1.000000
  0.000000  0.046547 -0.054229      1.000000
  0.029782 -0.001679 -0.046426      1.000000
  0.029782  0.046547 -0.054229      1.000000
 


--------------------------------------------------------------------------------------------------------




 Dimension of arrays:
   k-points           NKPTS =      8   k-points in BZ     NKDIM =      8   number of bands    NBANDS=    256
   number of dos      NEDOS =    301   number of ions     NIONS =     56
   non local maximal  LDIM  =      4   non local SUM 2l+1 LMDIM =      8
   total plane-waves  NPLWV = 846720
   max r-space proj   IRMAX =      1   max aug-charges    IRDMAX= 114695
   dimension x,y,z NGX =    80 NGY =  126 NGZ =   84
   dimension x,y,z NGXF=   160 NGYF=  252 NGZF=  168
   support grid    NGXF=   320 NGYF=  504 NGZF=  336
   ions per type =              56
   NGX,Y,Z   is equivalent  to a cutoff of  12.89, 12.48, 12.87 a.u.
   NGXF,Y,Z  is equivalent  to a cutoff of  25.79, 24.95, 25.75 a.u.

 SYSTEM =  unknown system                          
 POSCAR =  generated by phonopy                    

 Startparameter for this run:
   NWRITE =      2    write-flag & timer
   PREC   = accura    normal or accurate (medium, high low for compatibility)
   ISTART =      0    job   : 0-new  1-cont  2-samecut
   ICHARG =      2    charge: 1-file 2-atom 10-const
   ISPIN  =      2    spin polarized calculation?
   LNONCOLLINEAR =      F non collinear calculations
   LSORBIT =      F    spin-orbit coupling
   INIWAV =      1    electr: 0-lowe 1-rand  2-diag
   LASPH  =      T    aspherical Exc in radial PAW
 Electronic Relaxation 1
   ENCUT  =  520.0 eV  38.22 Ry    6.18 a.u.  19.18 31.22 20.17*2*pi/ulx,y,z
   ENINI  =  520.0     initial cutoff
   ENAUG  =  335.1 eV  augmentation charge cutoff
   NELM   =    100;   NELMIN=  2; NELMDL= -5     # of ELM steps 
   EDIFF  = 0.1E-08   stopping-criterion for ELM
   LREAL  =      F    real-space projection
   NLSPLINE    = F    spline interpolate recip. space projectors
   LCOMPAT=      F    compatible to vasp.4.4
   GGA_COMPAT  = T    GGA compatible to vasp.4.4-vasp.4.6
   LMAXPAW     = -100 max onsite density
   LMAXMIX     =    2 max onsite mixed and CHGCAR
   VOSKOWN=      0    Vosko Wilk Nusair interpolation
   ROPT   =    0.00000
 Ionic relaxation
   EDIFFG = -.5E-03   stopping-criterion for IOM
   NSW    =      0    number of steps for IOM
   NBLOCK =      1;   KBLOCK =      1    inner block; outer block 
   IBRION =     -1    ionic relax: 0-MD 1-quasi-New 2-CG
   NFREE  =      0    steps in history (QN), initial steepest desc. (CG)
   ISIF   =      2    stress and relaxation
   IWAVPR =     10    prediction:  0-non 1-charg 2-wave 3-comb
   ISYM   =      0    0-nonsym 1-usesym 2-fastsym
   LCORR  =      T    Harris-Foulkes like correction to forces

   POTIM  = 0.5000    time-step for ionic-motion
   TEIN   =    0.0    initial temperature
   TEBEG  =    0.0;   TEEND  =   0.0 temperature during run
   SMASS  =  -3.00    Nose mass-parameter (am)
   estimated Nose-frequenzy (Omega)   =  0.10E-29 period in steps = 0.13E+47 mass=  -0.243E-26a.u.
   SCALEE = 1.0000    scale energy and forces
   NPACO  =    256;   APACO  = 10.0  distance and # of slots for P.C.
   PSTRESS=    0.0 pullay stress

  Mass of Ions in am
   POMASS =  32.07
  Ionic Valenz
   ZVAL   =   6.00
  Atomic Wigner-Seitz radii
   RWIGS  =  -1.00
  virtual crystal weights 
   VCA    =   1.00
   NELECT =     336.0000    total number of electrons
   NUPDOWN=      -1.0000    fix difference up-down

 DOS related values:
   EMIN   =  10.00;   EMAX   =-10.00  energy-range for DOS
   EFERMI =   0.00
   ISMEAR =    -5;   SIGMA  =   0.05  broadening in eV -4-tet -1-fermi 0-gaus

 Electronic relaxation 2 (details)
   IALGO  =     38    algorithm
   LDIAG  =      T    sub-space diagonalisation (order eigenvalues)
   LSUBROT=      F    optimize rotation matrix (better conditioning)
   TURBO    =      0    0=normal 1=particle mesh
   IRESTART =      0    0=no restart 2=restart with 2 vectors
   NREBOOT  =      0    no. of reboots
   NMIN     =      0    reboot dimension
   EREF     =   0.00    reference energy to select bands
   IMIX   =      4    mixing-type and parameters
     AMIX     =   0.40;   BMIX     =  1.00
     AMIX_MAG =   1.60;   BMIX_MAG =  1.00
     AMIN     =   0.10
     WC   =   100.;   INIMIX=   1;  MIXPRE=   1;  MAXMIX= -45

 Intra band minimization:
   WEIMIN = 0.0000     energy-eigenvalue tresh-hold
   EBREAK =  0.98E-12  absolut break condition
   DEPER  =   0.30     relativ break condition  

   TIME   =   0.40     timestep for ELM

  volume/ion in A,a.u.               =      33.28       224.58
  Fermi-wavevector in a.u.,A,eV,Ry     =   0.924835  1.747685 11.637339  0.855320
  Thomas-Fermi vector in A             =   2.050624

 Write flags
   LWAVE        =      F    write WAVECAR
   LDOWNSAMPLE  =      F    k-point downsampling of WAVECAR
   LCHARG       =      F    write CHGCAR
   LVTOT        =      F    write LOCPOT, total local potential
   LVHAR        =      F    write LOCPOT, Hartree potential only
   LELF         =      F    write electronic localiz. function (ELF)
   LORBIT       =     11    0 simple, 1 ext, 2 COOP (PROOUT), +10 PAW based schemes


 Dipole corrections
   LMONO  =      F    monopole corrections only (constant potential shift)
   LDIPOL =      F    correct potential (dipole corrections)
   IDIPOL =      0    1-x, 2-y, 3-z, 4-all directions 
   EPSILON=  1.0000000 bulk dielectric constant

 Exchange correlation treatment:
   GGA     =    --    GGA type
   LEXCH   =     8    internal setting for exchange type
   LIBXC   =     F    Libxc                    
   VOSKOWN =     0    Vosko Wilk Nusair interpolation
   LHFCALC =     F    Hartree Fock is set to
   LHFONE  =     F    Hartree Fock one center treatment
   AEXX    =    0.0000 exact exchange contribution

 Linear response parameters
   LEPSILON=     F    determine dielectric tensor
   LRPA    =     F    only Hartree local field effects (RPA)
   LNABLA  =     F    use nabla operator in PAW spheres
   LVEL    =     F    velocity operator in full k-point grid
   CSHIFT  =0.1000    complex shift for real part using Kramers Kronig
   OMEGAMAX=  -1.0    maximum frequency
   DEG_THRESHOLD= 0.2000000E-02 threshold for treating states as degnerate
   RTIME   =   -0.100 relaxation time in fs
  (WPLASMAI=    0.000 imaginary part of plasma frequency in eV, 0.658/RTIME)
   DFIELD  = 0.0000000 0.0000000 0.0000000 field for delta impulse in time

  Optional k-point grid parameters
   LKPOINTS_OPT  =     F    use optional k-point grid
   KPOINTS_OPT_MODE=     1    mode for optional k-point grid

 Orbital magnetization related:
   ORBITALMAG=     F  switch on orbital magnetization
   LCHIMAG   =     F  perturbation theory with respect to B field
   DQ        =  0.001000  dq finite difference perturbation B field
   LLRAUG    =     F  two centre corrections for induced B field



--------------------------------------------------------------------------------------------------------


 Static calculation
 charge density and potential will be updated during run
 spin polarized calculation
 Variant of blocked Davidson
 Davidson routine will perform the subspace rotation
 perform sub-space diagonalisation
    after iterative eigenvector-optimisation
 modified Broyden-mixing scheme, WC =      100.0
 initial mixing is a Kerker type mixing with AMIX =  0.4000 and BMIX =      1.0000
 Hartree-type preconditioning will be used
 using additional bands           88
 reciprocal scheme for non local part
 use partial core corrections
 calculate Harris-corrections to forces   (improved forces if not selfconsistent)
 use gradient corrections 
 use of overlap-Matrix (Vanderbilt PP)
 Fermi weights with tetrahedron method with Bloechl corrections


--------------------------------------------------------------------------------------------------------


  energy-cutoff  :      520.00
  volume of cell :     1863.68
      direct lattice vectors                 reciprocal lattice vectors
     0.000000000 10.307367086 -0.372855731     0.000000000  0.096453423 -0.015606996
    16.788494411  0.000000000  0.000000000     0.059564603  0.000000000  0.000000000
     0.000000000 -1.732519801-10.707215182     0.000000000 -0.003358783 -0.092851486

  length of vectors
    10.314108670 16.788494411 10.846477853     0.097707938  0.059564603  0.092912216



 k-points in units of 2pi/SCALE and weight: pymatgen with grid density = 595 / numbe
   0.00000000  0.00000000 -0.00000000       0.125
   0.00000000  0.04822671 -0.00780350       0.125
   0.02978230  0.00000000 -0.00000000       0.125
   0.02978230  0.04822671 -0.00780350       0.125
   0.00000000 -0.00167939 -0.04642574       0.125
   0.00000000  0.04654732 -0.05422924       0.125
   0.02978230 -0.00167939 -0.04642574       0.125
   0.02978230  0.04654732 -0.05422924       0.125

 k-points in reciprocal lattice and weights: pymatgen with grid density = 595 / numbe
   0.00000000  0.00000000  0.00000000       0.125
   0.50000000  0.00000000  0.00000000       0.125
   0.00000000  0.50000000  0.00000000       0.125
   0.50000000  0.50000000  0.00000000       0.125
   0.00000000  0.00000000  0.50000000       0.125
   0.50000000  0.00000000  0.50000000       0.125
   0.00000000  0.50000000  0.50000000       0.125
   0.50000000  0.50000000  0.50000000       0.125

 position of ions in fractional coordinates (direct lattice) 
   0.88642314  0.46700475  0.67812639
   0.88642314  0.96700475  0.67812639
   0.32956326  0.18874382  0.54978576
   0.32956326  0.68874382  0.55070772
   0.91267129  0.10524188  0.91196047
   0.91267129  0.60524188  0.91196047
   0.23973640  0.30083105  0.77657419
   0.23973640  0.80083105  0.77657419
   0.14441752  0.30568876  0.22439668
   0.14441752  0.80568876  0.22439668
   0.85558248  0.19431124  0.77560332
   0.85558248  0.69431124  0.77560332
   0.76026360  0.19916895  0.22342581
   0.76026360  0.69916895  0.22342581
   0.17043674  0.43874382  0.44929228
   0.17043674  0.93874382  0.44929228
   0.41267129  0.14475812  0.91196047
   0.41267129  0.64475812  0.91196047
   0.38642314  0.28299525  0.67812639
   0.38642314  0.78299525  0.67812639
   0.64441752  0.44431124  0.22439668
   0.64441752  0.94431124  0.22439668
   0.82956326  0.06125618  0.55070772
   0.82956326  0.56125618  0.55070772
   0.26026360  0.05083105  0.22342581
   0.26026360  0.55083105  0.22342581
   0.61357686  0.21700475  0.32187361
   0.61357686  0.71700475  0.32187361
   0.11357686  0.03299525  0.32187361
   0.11357686  0.53299525  0.32187361
   0.05989570  0.34508773  0.37448437
   0.05989570  0.84508773  0.37448437
   0.74342521  0.28934434  0.07116523
   0.74342521  0.78934434  0.07116523
   0.58732871  0.35524188  0.08803953
   0.58732871  0.85524188  0.08803953
   0.25657479  0.21065566  0.92883477
   0.25657479  0.71065566  0.92883477
   0.08732871  0.39475812  0.08803953
   0.08732871  0.89475812  0.08803953
   0.44010430  0.09508773  0.62551563
   0.44010430  0.59508773  0.62551563
   0.35558248  0.05568876  0.77560332
   0.35558248  0.55568876  0.77560332
   0.73973640  0.44916895  0.77657419
   0.73973640  0.94916895  0.77657419
   0.94010430  0.15491227  0.62551563
   0.94010430  0.65491227  0.62551563
   0.24342521  0.46065566  0.07116523
   0.24342521  0.96065566  0.07116523
   0.75657479  0.03934434  0.92883477
   0.75657479  0.53934434  0.92883477
   0.55989570  0.40491227  0.37448437
   0.55989570  0.90491227  0.37448437
   0.67043674  0.31125618  0.44929228
   0.67043674  0.81125618  0.44929228

 position of ions in cartesian coordinates  (Angst):
   7.84030666  7.96182132 -7.59135308
  16.23455387  7.96182132 -7.59135308
   3.16872461  2.44441482 -6.00955402
  11.56297182  2.44281751 -6.01942562
   1.76685280  7.82724839-10.10485172
  10.16110000  7.82724839-10.10485172
   5.05050035  1.12562097 -8.40433404
  13.44474755  1.12562097 -8.40433404
   5.13205407  1.09979266 -2.45651044
  13.52630128  1.09979266 -2.45651044
   3.26219313  7.47505463 -8.62356047
  11.65644034  7.47505463 -8.62356047
   3.34374686  7.44922632 -2.67573688
  11.73799406  7.44922632 -2.67573688
   7.36584822  0.97834624 -4.87421742
  15.76009542  0.97834624 -4.87421742
   2.43027081  2.67356485 -9.91842386
  10.82451801  2.67356485 -9.91842386
   4.75106415  2.80813777 -7.40492521
  13.14531135  2.80813777 -7.40492521
   7.45931673  6.25347620 -2.64293831
  15.85356394  6.25347620 -2.64293831
   1.02839899  7.59650105 -6.20585349
   9.42264619  7.59650105 -6.20585349
   0.85337674  2.29554277 -2.48930901
   9.24762395  2.29554277 -2.48930901
   3.64318306  5.76670951 -3.67514570
  12.03743026  5.76670951 -3.67514570
   0.55394055  0.61302597 -3.48871783
   8.94818775  0.61302597 -3.48871783
   5.79350349 -0.03143461 -4.03201715
  14.18775070 -0.03143461 -4.03201715
   4.85765589  7.53946136 -1.03917182
  13.25190310  7.53946136 -1.03917182
   5.96397640  5.90128244 -1.16164705
  14.35822361  5.90128244 -1.16164705
   3.53659131  1.03538593-10.04089909
  11.93083852  1.03538593-10.04089909
   6.62739441  0.74759889 -0.97521919
  15.02164161  0.74759889 -0.97521919
   1.59637989  3.45259836 -6.86162589
   9.99062710  3.45259836 -6.86162589
   0.93493047  2.32137108 -8.43713261
   9.32917768  2.32137108 -8.43713261
   7.54087046  6.27930451 -8.59076190
  15.93511767  6.27930451 -8.59076190
   2.60074371  8.60628190 -7.04805376
  10.99499092  8.60628190 -7.04805376
   7.73371492  2.38577782 -0.85274396
  16.12796212  2.38577782 -0.85274396
   0.66053229  6.18906947-10.22732695
   9.05477950  6.18906947-10.22732695
   6.79786731  5.12224893 -4.21844502
  15.19211452  5.12224893 -4.21844502
   5.22552259  6.13202978 -5.06064529
  13.61976980  6.13202978 -5.06064529



--------------------------------------------------------------------------------------------------------


 k-point   1 :   0.0000 0.0000 0.0000  plane waves:   50179
 k-point   2 :   0.5000 0.0000 0.0000  plane waves:   50160
 k-point   3 :   0.0000 0.5000 0.0000  plane waves:   50162
 k-point   4 :   0.5000 0.5000 0.0000  plane waves:   50192
 k-point   5 :   0.0000 0.0000 0.5000  plane waves:   50190
 k-point   6 :   0.5000 0.0000 0.5000  plane waves:   50190
 k-point   7 :   0.0000 0.5000 0.5000  plane waves:   50172
 k-point   8 :   0.5000 0.5000 0.5000  plane waves:   50200

 maximum and minimum number of plane-waves per node :     50200    50160

 maximum number of plane-waves:     50200
 maximum index in each direction: 
   IXMAX=   19   IYMAX=   31   IZMAX=   20
   IXMIN=  -19   IYMIN=  -31   IZMIN=  -20


 serial   3D FFT for wavefunctions
 parallel 3D FFT for charge:
    minimum data exchange during FFTs selected (reduces bandwidth)


 total amount of memory used by VASP MPI-rank0   322725. kBytes
=======================================================================

   base      :      30000. kBytes
   nonl-proj :      70692. kBytes
   fftplans  :      34504. kBytes
   grid      :      83442. kBytes
   one-center:        344. kBytes
   wavefun   :     103743. kBytes

     INWAV:  cpu time      0.0000: real time      0.0001
 Broyden mixing: mesh for mixing (old mesh)
   NGX = 39   NGY = 63   NGZ = 41
  (NGX  =160   NGY  =252   NGZ  =168)
  gives a total of 100737 points

 initial charge density was supplied:
 charge density of overlapping atoms calculated
 number of electron     336.0000000 magnetization      56.0000000
 keeping initial charge density in first step


--------------------------------------------------------------------------------------------------------


 Maximum index for augmentation-charges         3947 (set IRDMAX)


--------------------------------------------------------------------------------------------------------


 First call to EWALD:  gamma=   0.144
 Maximum number of real-space cells 3x 2x 3
 Maximum number of reciprocal cells 2x 4x 2

    FEWALD:  cpu time      0.0021: real time      0.0021


--------------------------------------- Iteration      1(   1)  ---------------------------------------


    POTLOK:  cpu time      0.5392: real time      0.5392
    SETDIJ:  cpu time     10.9624: real time     10.9673
     EDDAV:  cpu time     52.8745: real time     52.8977
 BZINTS: Fermi energy:   10.166217;  336.000000 electrons
         Band energy: 0.225178E+03;  BLOECHL correction:   -0.009005
       DOS:  cpu time      0.0478: real time      0.0479
    --------------------------------------------
      LOOP:  cpu time     64.4239: real time     64.4521

 eigenvalue-minimisations  :  8192
 total energy-change (2. order) : 0.2106021E+04  (-0.1333786E+05)
 number of electron     336.0000000 magnetization      56.0000000
 augmentation part      336.0000000 magnetization      56.0000000

 Free energy of the ion-electron system (eV)
  ---------------------------------------------------
  alpha Z        PSCENC =       253.99581917
  Ewald energy   TEWEN  =     -9972.17973863
  -Hartree energ DENC   =     -4764.71358271
  -exchange      EXHF   =         0.00000000
  -V(xc)+E(xc)   XCENC  =       682.49371260
  PAW double counting   =     12174.71095765   -11995.46358648
  entropy T*S    EENTRO =         0.00000000
  eigenvalues    EBANDS =       225.17839677
  atomic energy  EATOM  =     15501.99929693
  Solvation  Ediel_sol  =         0.00000000
  ---------------------------------------------------
  free energy    TOTEN  =      2106.02127531 eV

  energy without entropy =     2106.02127531  energy(sigma->0) =     2106.02127531


--------------------------------------------------------------------------------------------------------




--------------------------------------- Iteration      1(   2)  ---------------------------------------


     EDDAV:  cpu time     56.2803: real time     56.3061
 BZINTS: Fermi energy:    1.451268;  336.000000 electrons
         Band energy:-0.187459E+04;  BLOECHL correction:    0.000000
       DOS:  cpu time      0.0264: real time      0.0265
    --------------------------------------------
      LOOP:  cpu time     56.3066: real time     56.3325

 eigenvalue-minimisations  : 10272
 total energy-change (2. order) :-0.2099772E+04  (-0.2021595E+04)
 number of electron     336.0000000 magnetization      56.0000000
 augmentation part      336.0000000 magnetization      56.0000000

 Free energy of the ion-electron system (eV)
  ---------------------------------------------------
  alpha Z        PSCENC =       253.99581917
  Ewald energy   TEWEN  =     -9972.17973863
  -Hartree energ DENC   =     -4764.71358271
  -exchange      EXHF   =         0.00000000
  -V(xc)+E(xc)   XCENC  =       682.49371260
  PAW double counting   =     12174.71095765   -11995.46358648
  entropy T*S    EENTRO =         0.00000000
  eigenvalues    EBANDS =     -1874.59370404
  atomic energy  EATOM  =     15501.99929693
  Solvation  Ediel_sol  =         0.00000000
  ---------------------------------------------------
  free energy    TOTEN  =         6.24917449 eV

  energy without entropy =        6.24917449  energy(sigma->0) =        6.24917449


--------------------------------------------------------------------------------------------------------




--------------------------------------- Iteration      1(   3)  ---------------------------------------


     EDDAV:  cpu time     70.3606: real time     70.3915
 BZINTS: Fermi energy:    0.219552;  336.000000 electrons
         Band energy:-0.209442E+04;  BLOECHL correction:    0.000000
       DOS:  cpu time      0.0279: real time      0.0279
    --------------------------------------------
      LOOP:  cpu time     70.3885: real time     70.4195

 eigenvalue-minimisations  : 10240
 total energy-change (2. order) :-0.2198286E+03  (-0.2171421E+03)
 number of electron     336.0000000 magnetization      56.0000000
 augmentation part      336.0000000 magnetization      56.0000000

 Free energy of the ion-electron system (eV)
  ---------------------------------------------------
  alpha Z        PSCENC =       253.99581917
  Ewald energy   TEWEN  =     -9972.17973863
  -Hartree energ DENC   =     -4764.71358271
  -exchange      EXHF   =         0.00000000
  -V(xc)+E(xc)   XCENC  =       682.49371260
  PAW double counting   =     12174.71095765   -11995.46358648
  entropy T*S    EENTRO =         0.00000000
  eigenvalues    EBANDS =     -2094.42225569
  atomic energy  EATOM  =     15501.99929693
  Solvation  Ediel_sol  =         0.00000000
  ---------------------------------------------------
  free energy    TOTEN  =      -213.57937715 eV

  energy without entropy =     -213.57937715  energy(sigma->0) =     -213.57937715


--------------------------------------------------------------------------------------------------------




--------------------------------------- Iteration      1(   4)  ---------------------------------------


     EDDAV:  cpu time     61.7388: real time     61.7690
 BZINTS: Fermi energy:    0.191619;  336.000000 electrons
         Band energy:-0.209932E+04;  BLOECHL correction:    0.000000
       DOS:  cpu time      0.0280: real time      0.0281
    --------------------------------------------
      LOOP:  cpu time     61.7668: real time     61.7972

 eigenvalue-minimisations  : 10368
 total energy-change (2. order) :-0.4900030E+01  (-0.4881698E+01)
 number of electron     336.0000000 magnetization      56.0000000
 augmentation part      336.0000000 magnetization      56.0000000

 Free energy of the ion-electron system (eV)
  ---------------------------------------------------
  alpha Z        PSCENC =       253.99581917
  Ewald energy   TEWEN  =     -9972.17973863
  -Hartree energ DENC   =     -4764.71358271
  -exchange      EXHF   =         0.00000000
  -V(xc)+E(xc)   XCENC  =       682.49371260
  PAW double counting   =     12174.71095765   -11995.46358648
  entropy T*S    EENTRO =         0.00000000
  eigenvalues    EBANDS =     -2099.32228524
  atomic energy  EATOM  =     15501.99929693
  Solvation  Ediel_sol  =         0.00000000
  ---------------------------------------------------
  free energy    TOTEN  =      -218.47940671 eV

  energy without entropy =     -218.47940671  energy(sigma->0) =     -218.47940671


--------------------------------------------------------------------------------------------------------




--------------------------------------- Iteration      1(   5)  ---------------------------------------


     EDDAV:  cpu time     56.3352: real time     56.3610
 BZINTS: Fermi energy:    0.191425;  336.000000 electrons
         Band energy:-0.209946E+04;  BLOECHL correction:   -0.000000
       DOS:  cpu time      0.0306: real time      0.0306
    CHARGE:  cpu time     10.1497: real time     10.1548
    MIXING:  cpu time      0.0158: real time      0.0158
    --------------------------------------------
      LOOP:  cpu time     66.5312: real time     66.5622

 eigenvalue-minimisations  : 10080
 total energy-change (2. order) :-0.1328883E+00  (-0.1328222E+00)
 number of electron     335.9999997 magnetization      44.9918631
 augmentation part      -47.3227814 magnetization      44.8828055

 Broyden mixing:
  rms(total) = 0.82809E+01    rms(broyden)= 0.82809E+01
  rms(prec ) = 0.83009E+01
  weight for this iteration     100.00

 Free energy of the ion-electron system (eV)
  ---------------------------------------------------
  alpha Z        PSCENC =       253.99581917
  Ewald energy   TEWEN  =     -9972.17973863
  -Hartree energ DENC   =     -4764.71358271
  -exchange      EXHF   =         0.00000000
  -V(xc)+E(xc)   XCENC  =       682.49371260
  PAW double counting   =     12174.71095765   -11995.46358648
  entropy T*S    EENTRO =         0.00000000
  eigenvalues    EBANDS =     -2099.45517356
  atomic energy  EATOM  =     15501.99929693
  Solvation  Ediel_sol  =         0.00000000
  ---------------------------------------------------
  free energy    TOTEN  =      -218.61229503 eV

  energy without entropy =     -218.61229503  energy(sigma->0) =     -218.61229503


--------------------------------------------------------------------------------------------------------




--------------------------------------- Iteration      1(   6)  ---------------------------------------


    POTLOK:  cpu time      0.4865: real time      0.4914
    SETDIJ:  cpu time     10.1804: real time     10.1842
     EDDAV:  cpu time     63.2717: real time     63.2987
 BZINTS: Fermi energy:    0.408778;  336.000000 electrons
         Band energy:-0.201399E+04;  BLOECHL correction:    0.000000
       DOS:  cpu time      0.0259: real time      0.0259
    CHARGE:  cpu time      8.3553: real time      8.3586
    MIXING:  cpu time      2.0105: real time      2.0113
    --------------------------------------------
      LOOP:  cpu time     84.3303: real time     84.3702

 eigenvalue-minimisations  :  9632
 total energy-change (2. order) : 0.1022845E+03  (-0.2668106E+02)
 number of electron     335.9999997 magnetization      26.4656815
 augmentation part      -47.6489305 magnetization      27.5235710

 Broyden mixing:
  rms(total) = 0.49355E+01    rms(broyden)= 0.49355E+01
  rms(prec ) = 0.49578E+01
  weight for this iteration     100.00

 eigenvalues of (default mixing * dielectric matrix)
  average eigenvalue GAMMA=   1.6690
  1.6690

 Free energy of the ion-electron system (eV)
  ---------------------------------------------------
  alpha Z        PSCENC =       253.99581917
  Ewald energy   TEWEN  =     -9972.17973863
  -Hartree energ DENC   =     -4809.00658701
  -exchange      EXHF   =         0.00000000
  -V(xc)+E(xc)   XCENC  =       746.07131355
  PAW double counting   =     20722.04210827   -20545.26089413
  entropy T*S    EENTRO =         0.00000000
  eigenvalues    EBANDS =     -2013.98911592
  atomic energy  EATOM  =     15501.99929693
  Solvation  Ediel_sol  =         0.00000000
  ---------------------------------------------------
  free energy    TOTEN  =      -116.32779777 eV

  energy without entropy =     -116.32779777  energy(sigma->0) =     -116.32779777


--------------------------------------------------------------------------------------------------------




--------------------------------------- Iteration      1(   7)  ---------------------------------------


    POTLOK:  cpu time      0.4546: real time      0.4575
    SETDIJ:  cpu time     12.3668: real time     12.3715
     EDDAV:  cpu time     57.4179: real time     57.4436
 BZINTS: Fermi energy:    0.738205;  336.000000 electrons
         Band energy:-0.186744E+04;  BLOECHL correction:    0.000000
       DOS:  cpu time      0.0267: real time      0.0268
    CHARGE:  cpu time     12.3846: real time     12.3890
    MIXING:  cpu time      0.0179: real time      0.0179
    --------------------------------------------
      LOOP:  cpu time     82.6686: real time     82.7062

 eigenvalue-minimisations  : 10144
 total energy-change (2. order) :-0.1115511E+02  (-0.2699211E+01)
 number of electron     335.9999997 magnetization      19.7391010
 augmentation part      -47.3157909 magnetization      20.9443733

 Broyden mixing:
  rms(total) = 0.14058E+01    rms(broyden)= 0.14058E+01
  rms(prec ) = 0.14094E+01
  weight for this iteration     100.00

 eigenvalues of (default mixing * dielectric matrix)
  average eigenvalue GAMMA=   1.4813
  0.7858  2.1769

 Free energy of the ion-electron system (eV)
  ---------------------------------------------------
  alpha Z        PSCENC =       253.99581917
  Ewald energy   TEWEN  =     -9972.17973863
  -Hartree energ DENC   =     -4968.64634477
  -exchange      EXHF   =         0.00000000
  -V(xc)+E(xc)   XCENC  =       751.41642918
  PAW double counting   =     37043.55800028   -36870.18992602
  entropy T*S    EENTRO =         0.00000000
  eigenvalues    EBANDS =     -1867.43644085
  atomic energy  EATOM  =     15501.99929693
  Solvation  Ediel_sol  =         0.00000000
  ---------------------------------------------------
  free energy    TOTEN  =      -127.48290470 eV

  energy without entropy =     -127.48290470  energy(sigma->0) =     -127.48290470


--------------------------------------------------------------------------------------------------------




--------------------------------------- Iteration      1(   8)  ---------------------------------------


    POTLOK:  cpu time      0.4418: real time      0.4431
    SETDIJ:  cpu time     11.8837: real time     11.8899
     EDDAV:  cpu time     59.2548: real time     59.2815
 BZINTS: Fermi energy:    0.705845;  336.000000 electrons
         Band energy:-0.185514E+04;  BLOECHL correction:    0.000000
       DOS:  cpu time      0.0282: real time      0.0283
    CHARGE:  cpu time     14.2585: real time     14.2637
    MIXING:  cpu time      1.7140: real time      1.7146
    --------------------------------------------
      LOOP:  cpu time     87.5811: real time     87.6211

 eigenvalue-minimisations  :  9312
 total energy-change (2. order) :-0.4259212E+02  (-0.1963997E+01)
 number of electron     335.9999997 magnetization      16.0517106
 augmentation part      -47.0129088 magnetization      17.0964032

 Broyden mixing:
  rms(total) = 0.78545E+00    rms(broyden)= 0.78545E+00
  rms(prec ) = 0.79056E+00
  weight for this iteration     100.00

 eigenvalues of (default mixing * dielectric matrix)
  average eigenvalue GAMMA=   1.3395
  2.4923  0.9446  0.5815

 Free energy of the ion-electron system (eV)
  ---------------------------------------------------
  alpha Z        PSCENC =       253.99581917
  Ewald energy   TEWEN  =     -9972.17973863
  -Hartree energ DENC   =     -4997.95264624
  -exchange      EXHF   =         0.00000000
  -V(xc)+E(xc)   XCENC  =       726.59857116
  PAW double counting   =     40158.71944963   -39986.11796759
  entropy T*S    EENTRO =         0.00000000
  eigenvalues    EBANDS =     -1855.13780688
  atomic energy  EATOM  =     15501.99929693
  Solvation  Ediel_sol  =         0.00000000
  ---------------------------------------------------
  free energy    TOTEN  =      -170.07502246 eV

  energy without entropy =     -170.07502246  energy(sigma->0) =     -170.07502246


--------------------------------------------------------------------------------------------------------




--------------------------------------- Iteration      1(   9)  ---------------------------------------


    POTLOK:  cpu time      0.4998: real time      0.5007
    SETDIJ:  cpu time      9.5460: real time      9.5497
     EDDAV:  cpu time     61.8201: real time     61.8474
 BZINTS: Fermi energy:    0.627894;  336.000000 electrons
         Band energy:-0.186636E+04;  BLOECHL correction:    0.000000
       DOS:  cpu time      0.0275: real time      0.0276
    CHARGE:  cpu time     12.2624: real time     12.2670
    MIXING:  cpu time      0.0173: real time      0.0173
    --------------------------------------------
      LOOP:  cpu time     84.1729: real time     84.2096

 eigenvalue-minimisations  : 10240
 total energy-change (2. order) :-0.1693343E+02  (-0.6521508E+00)
 number of electron     335.9999997 magnetization      11.5273932
 augmentation part      -46.9151126 magnetization      12.3648660

 Broyden mixing:
  rms(total) = 0.43669E+00    rms(broyden)= 0.43669E+00
  rms(prec ) = 0.44878E+00
  weight for this iteration     100.00

 eigenvalues of (default mixing * dielectric matrix)
  average eigenvalue GAMMA=   1.3240
  2.5750  1.2998  0.7106  0.7106

 Free energy of the ion-electron system (eV)
  ---------------------------------------------------
  alpha Z        PSCENC =       253.99581917
  Ewald energy   TEWEN  =     -9972.17973863
  -Hartree energ DENC   =     -4994.25860623
  -exchange      EXHF   =         0.00000000
  -V(xc)+E(xc)   XCENC  =       717.17536782
  PAW double counting   =     40949.83759585   -40777.21475112
  entropy T*S    EENTRO =         0.00000000
  eigenvalues    EBANDS =     -1866.36343792
  atomic energy  EATOM  =     15501.99929693
  Solvation  Ediel_sol  =         0.00000000
  ---------------------------------------------------
  free energy    TOTEN  =      -187.00845412 eV

  energy without entropy =     -187.00845412  energy(sigma->0) =     -187.00845412


--------------------------------------------------------------------------------------------------------




--------------------------------------- Iteration      1(  10)  ---------------------------------------


    POTLOK:  cpu time      0.4610: real time      0.4623
    SETDIJ:  cpu time     12.2523: real time     12.2567
     EDDAV:  cpu time     59.8924: real time     59.9252
 BZINTS: Fermi energy:    0.474638;  336.000000 electrons
         Band energy:-0.190094E+04;  BLOECHL correction:    0.000000
       DOS:  cpu time      0.0267: real time      0.0267
    CHARGE:  cpu time     12.1029: real time     12.1074
    MIXING:  cpu time      0.0217: real time      0.0217
    --------------------------------------------
      LOOP:  cpu time     84.7570: real time     84.8001

 eigenvalue-minimisations  :  9984
 total energy-change (2. order) :-0.2003734E+02  (-0.1301469E+01)
 number of electron     335.9999997 magnetization       5.3073242
 augmentation part      -46.8736762 magnetization       5.8414788

 Broyden mixing:
  rms(total) = 0.32377E+00    rms(broyden)= 0.32377E+00
  rms(prec ) = 0.33674E+00
  weight for this iteration     100.00

 eigenvalues of (default mixing * dielectric matrix)
  average eigenvalue GAMMA=   1.4494
  2.4868  2.4868  0.9410  0.7301  0.6021

 Free energy of the ion-electron system (eV)
  ---------------------------------------------------
  alpha Z        PSCENC =       253.99581917
  Ewald energy   TEWEN  =     -9972.17973863
  -Hartree energ DENC   =     -4968.80491333
  -exchange      EXHF   =         0.00000000
  -V(xc)+E(xc)   XCENC  =       705.60837190
  PAW double counting   =     40954.30851108   -40781.03041262
  entropy T*S    EENTRO =         0.00000000
  eigenvalues    EBANDS =     -1900.94272595
  atomic energy  EATOM  =     15501.99929693
  Solvation  Ediel_sol  =         0.00000000
  ---------------------------------------------------
  free energy    TOTEN  =      -207.04579145 eV

  energy without entropy =     -207.04579145  energy(sigma->0) =     -207.04579145


--------------------------------------------------------------------------------------------------------




--------------------------------------- Iteration      1(  11)  ---------------------------------------


    POTLOK:  cpu time      0.4616: real time      0.4625
    SETDIJ:  cpu time      8.0335: real time      8.0365
     EDDAV:  cpu time     57.0427: real time     57.0683
 BZINTS: Fermi energy:    0.256889;  336.000000 electrons
         Band energy:-0.195829E+04;  BLOECHL correction:    0.000000
       DOS:  cpu time      0.0259: real time      0.0259
    CHARGE:  cpu time     13.1622: real time     13.1671
    MIXING:  cpu time      0.0165: real time      0.0165
    --------------------------------------------
      LOOP:  cpu time     78.7423: real time     78.7768

 eigenvalue-minimisations  :  9920
 total energy-change (2. order) :-0.1783524E+02  (-0.2163706E+01)
 number of electron     335.9999997 magnetization       3.5672980
 augmentation part      -46.9053308 magnetization       3.7504839

 Broyden mixing:
  rms(total) = 0.18633E+00    rms(broyden)= 0.18633E+00
  rms(prec ) = 0.20003E+00
  weight for this iteration     100.00

 eigenvalues of (default mixing * dielectric matrix)
  average eigenvalue GAMMA=   1.4672
  2.7980  2.7980  1.0282  0.8884  0.7000  0.5906

 Free energy of the ion-electron system (eV)
  ---------------------------------------------------
  alpha Z        PSCENC =       253.99581917
  Ewald energy   TEWEN  =     -9972.17973863
  -Hartree energ DENC   =     -4919.24402147
  -exchange      EXHF   =         0.00000000
  -V(xc)+E(xc)   XCENC  =       694.50585054
  PAW double counting   =     40381.73707297   -40207.40031961
  entropy T*S    EENTRO =         0.00000000
  eigenvalues    EBANDS =     -1958.29499579
  atomic energy  EATOM  =     15501.99929693
  Solvation  Ediel_sol  =         0.00000000
  ---------------------------------------------------
  free energy    TOTEN  =      -224.88103589 eV

  energy without entropy =     -224.88103589  energy(sigma->0) =     -224.88103589


--------------------------------------------------------------------------------------------------------




--------------------------------------- Iteration      1(  12)  ---------------------------------------


    POTLOK:  cpu time      0.4850: real time      0.4860
    SETDIJ:  cpu time     11.4325: real time     11.4369
     EDDAV:  cpu time     61.5264: real time     61.5743
 BZINTS: Fermi energy:    0.183379;  336.000000 electrons
         Band energy:-0.197900E+04;  BLOECHL correction:    0.000000
       DOS:  cpu time      0.0293: real time      0.0293
    CHARGE:  cpu time     13.6757: real time     13.6807
    MIXING:  cpu time      0.0244: real time      0.0244
    --------------------------------------------
      LOOP:  cpu time     87.1734: real time     87.2318

 eigenvalue-minimisations  : 10080
 total energy-change (2. order) :-0.3387989E+01  (-0.3884670E+00)
 number of electron     335.9999997 magnetization       2.3900771
 augmentation part      -46.9156541 magnetization       2.4729502

 Broyden mixing:
  rms(total) = 0.15940E+00    rms(broyden)= 0.15940E+00
  rms(prec ) = 0.17193E+00
  weight for this iteration     100.00

 eigenvalues of (default mixing * dielectric matrix)
  average eigenvalue GAMMA=   1.4924
  3.1013  3.1013  1.0565  1.0565  0.7811  0.7811  0.5691

 Free energy of the ion-electron system (eV)
  ---------------------------------------------------
  alpha Z        PSCENC =       253.99581917
  Ewald energy   TEWEN  =     -9972.17973863
  -Hartree energ DENC   =     -4899.70653081
  -exchange      EXHF   =         0.00000000
  -V(xc)+E(xc)   XCENC  =       692.04886042
  PAW double counting   =     39948.78469840   -39774.21048468
  entropy T*S    EENTRO =         0.00000000
  eigenvalues    EBANDS =     -1979.00094594
  atomic energy  EATOM  =     15501.99929693
  Solvation  Ediel_sol  =         0.00000000
  ---------------------------------------------------
  free energy    TOTEN  =      -228.26902514 eV

  energy without entropy =     -228.26902514  energy(sigma->0) =     -228.26902514


--------------------------------------------------------------------------------------------------------




--------------------------------------- Iteration      1(  13)  ---------------------------------------


    POTLOK:  cpu time      0.4687: real time      0.4695
    SETDIJ:  cpu time     17.4316: real time     17.4386
     EDDAV:  cpu time     54.2072: real time     54.2311
 BZINTS: Fermi energy:    0.115744;  336.000000 electrons
         Band energy:-0.200139E+04;  BLOECHL correction:    0.000000
       DOS:  cpu time      0.0260: real time      0.0260
    CHARGE:  cpu time      8.7939: real time      8.7974
    MIXING:  cpu time      0.0207: real time      0.0207
    --------------------------------------------
      LOOP:  cpu time     80.9481: real time     80.9833

 eigenvalue-minimisations  :  9568
 total energy-change (2. order) :-0.1047615E+01  (-0.1329500E+00)
 number of electron     335.9999997 magnetization       0.8848661
 augmentation part      -46.9737306 magnetization       0.9108492

 Broyden mixing:
  rms(total) = 0.92863E-01    rms(broyden)= 0.92862E-01
  rms(prec ) = 0.99676E-01
  weight for this iteration     100.00

 eigenvalues of (default mixing * dielectric matrix)
  average eigenvalue GAMMA=   1.5521
  3.3235  3.3235  1.5839  1.2844  0.9282  0.7002  0.7002  0.5735

 Free energy of the ion-electron system (eV)
  ---------------------------------------------------
  alpha Z        PSCENC =       253.99581917
  Ewald energy   TEWEN  =     -9972.17973863
  -Hartree energ DENC   =     -4876.62718606
  -exchange      EXHF   =         0.00000000
  -V(xc)+E(xc)   XCENC  =       690.07126273
  PAW double counting   =     39129.76580061   -38954.95325142
  entropy T*S    EENTRO =         0.00000000
  eigenvalues    EBANDS =     -2001.38864344
  atomic energy  EATOM  =     15501.99929693
  Solvation  Ediel_sol  =         0.00000000
  ---------------------------------------------------
  free energy    TOTEN  =      -229.31664011 eV

  energy without entropy =     -229.31664011  energy(sigma->0) =     -229.31664011


--------------------------------------------------------------------------------------------------------




--------------------------------------- Iteration      1(  14)  ---------------------------------------


    POTLOK:  cpu time      0.4603: real time      0.4607
    SETDIJ:  cpu time     13.3485: real time     13.3536
     EDDAV:  cpu time     49.9413: real time     49.9688
 BZINTS: Fermi energy:    0.080105;  336.000000 electrons
         Band energy:-0.201186E+04;  BLOECHL correction:    0.000000
       DOS:  cpu time      0.0267: real time      0.0267
    CHARGE:  cpu time      9.8014: real time      9.8050
    MIXING:  cpu time      0.0178: real time      0.0180
    --------------------------------------------
      LOOP:  cpu time     73.5959: real time     73.6328

 eigenvalue-minimisations  :  8992
 total energy-change (2. order) :-0.6333759E-01  (-0.1616263E-01)
 number of electron     335.9999997 magnetization       0.4183916
 augmentation part      -47.0008433 magnetization       0.4253389

 Broyden mixing:
  rms(total) = 0.43607E-01    rms(broyden)= 0.43607E-01
  rms(prec ) = 0.46308E-01
  weight for this iteration     100.00

 eigenvalues of (default mixing * dielectric matrix)
  average eigenvalue GAMMA=   1.5789
  4.1297  2.5581  2.5581  1.0966  1.0966  0.7713  0.7713  0.5761  0.6522

 Free energy of the ion-electron system (eV)
  ---------------------------------------------------
  alpha Z        PSCENC =       253.99581917
  Ewald energy   TEWEN  =     -9972.17973863
  -Hartree energ DENC   =     -4865.26708591
  -exchange      EXHF   =         0.00000000
  -V(xc)+E(xc)   XCENC  =       689.15927923
  PAW double counting   =     39069.53188589   -38894.76441229
  entropy T*S    EENTRO =         0.00000000
  eigenvalues    EBANDS =     -2011.85502208
  atomic energy  EATOM  =     15501.99929693
  Solvation  Ediel_sol  =         0.00000000
  ---------------------------------------------------
  free energy    TOTEN  =      -229.37997769 eV

  energy without entropy =     -229.37997769  energy(sigma->0) =     -229.37997769


--------------------------------------------------------------------------------------------------------




--------------------------------------- Iteration      1(  15)  ---------------------------------------


    POTLOK:  cpu time      0.4458: real time      0.4465
    SETDIJ:  cpu time     14.4214: real time     14.4269
     EDDAV:  cpu time     56.5764: real time     56.6010
 BZINTS: Fermi energy:    0.078362;  336.000000 electrons
         Band energy:-0.201152E+04;  BLOECHL correction:    0.000000
       DOS:  cpu time      0.0267: real time      0.0268
    CHARGE:  cpu time     12.2277: real time     12.2322
    MIXING:  cpu time      0.0180: real time      0.0180
    --------------------------------------------
      LOOP:  cpu time     83.7160: real time     83.7514

 eigenvalue-minimisations  :  9568
 total energy-change (2. order) : 0.1332511E-02  (-0.2084654E-02)
 number of electron     335.9999997 magnetization       0.1721413
 augmentation part      -46.9946188 magnetization       0.1764617

 Broyden mixing:
  rms(total) = 0.20198E-01    rms(broyden)= 0.20198E-01
  rms(prec ) = 0.21767E-01
  weight for this iteration     100.00

 eigenvalues of (default mixing * dielectric matrix)
  average eigenvalue GAMMA=   1.5652
  4.5533  2.5269  2.5269  1.3392  0.9964  0.9964  0.7591  0.7591  0.6239  0.5704

 Free energy of the ion-electron system (eV)
  ---------------------------------------------------
  alpha Z        PSCENC =       253.99581917
  Ewald energy   TEWEN  =     -9972.17973863
  -Hartree energ DENC   =     -4865.47562903
  -exchange      EXHF   =         0.00000000
  -V(xc)+E(xc)   XCENC  =       689.12360262
  PAW double counting   =     39155.33462440   -38980.65438867
  entropy T*S    EENTRO =         0.00000000
  eigenvalues    EBANDS =     -2011.52223197
  atomic energy  EATOM  =     15501.99929693
  Solvation  Ediel_sol  =         0.00000000
  ---------------------------------------------------
  free energy    TOTEN  =      -229.37864518 eV

  energy without entropy =     -229.37864518  energy(sigma->0) =     -229.37864518


--------------------------------------------------------------------------------------------------------




--------------------------------------- Iteration      1(  16)  ---------------------------------------


    POTLOK:  cpu time      0.4368: real time      0.4378
    SETDIJ:  cpu time      9.0479: real time      9.0536
     EDDAV:  cpu time     58.4696: real time     58.4946
 BZINTS: Fermi energy:    0.076443;  336.000000 electrons
         Band energy:-0.201199E+04;  BLOECHL correction:    0.000000
       DOS:  cpu time      0.0283: real time      0.0283
    CHARGE:  cpu time     15.0971: real time     15.1031
    MIXING:  cpu time      0.0195: real time      0.0195
    --------------------------------------------
      LOOP:  cpu time     83.0991: real time     83.1370

 eigenvalue-minimisations  :  9152
 total energy-change (2. order) : 0.3092537E-02  (-0.5506169E-03)
 number of electron     335.9999997 magnetization       0.0698201
 augmentation part      -46.9934969 magnetization       0.0706155

 Broyden mixing:
  rms(total) = 0.12317E-01    rms(broyden)= 0.12317E-01
  rms(prec ) = 0.13325E-01
  weight for this iteration     100.00

 eigenvalues of (default mixing * dielectric matrix)
  average eigenvalue GAMMA=   1.5470
  4.7567  2.4281  2.4281  1.8425  0.9961  0.9961  0.9236  0.7286  0.7286  0.5824
  0.6058

 Free energy of the ion-electron system (eV)
  ---------------------------------------------------
  alpha Z        PSCENC =       253.99581917
  Ewald energy   TEWEN  =     -9972.17973863
  -Hartree energ DENC   =     -4864.90823076
  -exchange      EXHF   =         0.00000000
  -V(xc)+E(xc)   XCENC  =       689.05491410
  PAW double counting   =     39124.98347876   -38950.32692645
  entropy T*S    EENTRO =         0.00000000
  eigenvalues    EBANDS =     -2011.99416576
  atomic energy  EATOM  =     15501.99929693
  Solvation  Ediel_sol  =         0.00000000
  ---------------------------------------------------
  free energy    TOTEN  =      -229.37555265 eV

  energy without entropy =     -229.37555265  energy(sigma->0) =     -229.37555265


--------------------------------------------------------------------------------------------------------




--------------------------------------- Iteration      1(  17)  ---------------------------------------


    POTLOK:  cpu time      0.4539: real time      0.4548
    SETDIJ:  cpu time     14.0134: real time     14.0186
     EDDAV:  cpu time     63.7204: real time     63.7480
 BZINTS: Fermi energy:    0.078432;  336.000000 electrons
         Band energy:-0.201106E+04;  BLOECHL correction:    0.000000
       DOS:  cpu time      0.0259: real time      0.0259
    CHARGE:  cpu time     15.1445: real time     15.1501
    MIXING:  cpu time      0.0206: real time      0.0206
    --------------------------------------------
      LOOP:  cpu time     93.3786: real time     93.4180

 eigenvalue-minimisations  :  9504
 total energy-change (2. order) :-0.5046844E-03  (-0.1201447E-03)
 number of electron     335.9999997 magnetization       0.0178695
 augmentation part      -46.9884148 magnetization       0.0182729

 Broyden mixing:
  rms(total) = 0.49250E-02    rms(broyden)= 0.49250E-02
  rms(prec ) = 0.55201E-02
  weight for this iteration     100.00

 eigenvalues of (default mixing * dielectric matrix)
  average eigenvalue GAMMA=   1.5762
  4.9474  2.6016  2.6016  2.2031  1.1771  0.9961  0.9961  0.7614  0.7614  0.6836
  0.5927  0.5927

 Free energy of the ion-electron system (eV)
  ---------------------------------------------------
  alpha Z        PSCENC =       253.99581917
  Ewald energy   TEWEN  =     -9972.17973863
  -Hartree energ DENC   =     -4865.87534004
  -exchange      EXHF   =         0.00000000
  -V(xc)+E(xc)   XCENC  =       689.11523089
  PAW double counting   =     39166.10957909   -38991.47732659
  entropy T*S    EENTRO =         0.00000000
  eigenvalues    EBANDS =     -2011.06357816
  atomic energy  EATOM  =     15501.99929693
  Solvation  Ediel_sol  =         0.00000000
  ---------------------------------------------------
  free energy    TOTEN  =      -229.37605733 eV

  energy without entropy =     -229.37605733  energy(sigma->0) =     -229.37605733


--------------------------------------------------------------------------------------------------------




--------------------------------------- Iteration      1(  18)  ---------------------------------------


    POTLOK:  cpu time      0.4340: real time      0.4376
    SETDIJ:  cpu time     11.2494: real time     11.2542
     EDDAV:  cpu time     53.3080: real time     53.3315
 BZINTS: Fermi energy:    0.079407;  336.000000 electrons
         Band energy:-0.201054E+04;  BLOECHL correction:   -0.000000
       DOS:  cpu time      0.0267: real time      0.0267
    CHARGE:  cpu time     19.2943: real time     19.3016
    MIXING:  cpu time      0.0251: real time      0.0251
    --------------------------------------------
      LOOP:  cpu time     84.3375: real time     84.3768

 eigenvalue-minimisations  :  9504
 total energy-change (2. order) :-0.1166405E-03  (-0.3915722E-04)
 number of electron     335.9999997 magnetization       0.0052405
 augmentation part      -46.9851017 magnetization       0.0057806

 Broyden mixing:
  rms(total) = 0.44412E-02    rms(broyden)= 0.44412E-02
  rms(prec ) = 0.46924E-02
  weight for this iteration     100.00

 eigenvalues of (default mixing * dielectric matrix)
  average eigenvalue GAMMA=   1.5447
  5.0016  2.6458  2.6458  2.2648  1.1297  1.1297  0.9914  0.9914  0.7250  0.7250
  0.5800  0.6454  0.6057

 Free energy of the ion-electron system (eV)
  ---------------------------------------------------
  alpha Z        PSCENC =       253.99581917
  Ewald energy   TEWEN  =     -9972.17973863
  -Hartree energ DENC   =     -4866.41481634
  -exchange      EXHF   =         0.00000000
  -V(xc)+E(xc)   XCENC  =       689.15032368
  PAW double counting   =     39194.73262120   -39020.11507808
  entropy T*S    EENTRO =         0.00000000
  eigenvalues    EBANDS =     -2010.54460190
  atomic energy  EATOM  =     15501.99929693
  Solvation  Ediel_sol  =         0.00000000
  ---------------------------------------------------
  free energy    TOTEN  =      -229.37617397 eV

  energy without entropy =     -229.37617397  energy(sigma->0) =     -229.37617397


--------------------------------------------------------------------------------------------------------




--------------------------------------- Iteration      1(  19)  ---------------------------------------


    POTLOK:  cpu time      0.4489: real time      0.4500
    SETDIJ:  cpu time     11.7270: real time     11.7309
     EDDAV:  cpu time     56.4729: real time     57.4194
 BZINTS: Fermi energy:    0.078753;  336.000000 electrons
         Band energy:-0.201080E+04;  BLOECHL correction:    0.000000
       DOS:  cpu time      0.0259: real time      0.0259
    CHARGE:  cpu time     10.1857: real time     10.2614
    MIXING:  cpu time      0.0210: real time      0.0210
    --------------------------------------------
      LOOP:  cpu time     78.8814: real time     79.9086

 eigenvalue-minimisations  :  9792
 total energy-change (2. order) :-0.5758819E-05  (-0.6171676E-05)
 number of electron     335.9999997 magnetization      -0.0005270
 augmentation part      -46.9859309 magnetization      -0.0002846

 Broyden mixing:
  rms(total) = 0.20215E-02    rms(broyden)= 0.20215E-02
  rms(prec ) = 0.21955E-02
  weight for this iteration     100.00

 eigenvalues of (default mixing * dielectric matrix)
  average eigenvalue GAMMA=   1.5457
  5.0452  2.7073  2.7073  2.1113  1.4082  1.4082  1.0334  1.0334  0.8572  0.7535
  0.7535  0.5816  0.6080  0.6321

 Free energy of the ion-electron system (eV)
  ---------------------------------------------------
  alpha Z        PSCENC =       253.99581917
  Ewald energy   TEWEN  =     -9972.17973863
  -Hartree energ DENC   =     -4866.14272549
  -exchange      EXHF   =         0.00000000
  -V(xc)+E(xc)   XCENC  =       689.13358209
  PAW double counting   =     39193.44655675   -39018.82589021
  entropy T*S    EENTRO =         0.00000000
  eigenvalues    EBANDS =     -2010.80308034
  atomic energy  EATOM  =     15501.99929693
  Solvation  Ediel_sol  =         0.00000000
  ---------------------------------------------------
  free energy    TOTEN  =      -229.37617973 eV

  energy without entropy =     -229.37617973  energy(sigma->0) =     -229.37617973


--------------------------------------------------------------------------------------------------------




--------------------------------------- Iteration      1(  20)  ---------------------------------------


    POTLOK:  cpu time      0.4245: real time      0.4302
    SETDIJ:  cpu time     16.0666: real time     16.0960
     EDDAV:  cpu time     54.4562: real time     54.4913
 BZINTS: Fermi energy:    0.078399;  336.000000 electrons
         Band energy:-0.201094E+04;  BLOECHL correction:    0.000000
       DOS:  cpu time      0.0258: real time      0.0259
    CHARGE:  cpu time     11.8046: real time     11.8087
    MIXING:  cpu time      0.0228: real time      0.0228
    --------------------------------------------
      LOOP:  cpu time     82.8005: real time     82.8748

 eigenvalue-minimisations  :  9184
 total energy-change (2. order) :-0.1038767E-04  (-0.3472259E-05)
 number of electron     335.9999997 magnetization      -0.0016111
 augmentation part      -46.9864617 magnetization      -0.0015338

 Broyden mixing:
  rms(total) = 0.94474E-03    rms(broyden)= 0.94462E-03
  rms(prec ) = 0.10036E-02
  weight for this iteration     100.00

 eigenvalues of (default mixing * dielectric matrix)
  average eigenvalue GAMMA=   1.5473
  5.0950  2.7076  2.7076  2.1014  2.1014  1.2299  1.2299  0.9905  0.9905  0.7799
  0.7328  0.7328  0.5794  0.6156  0.6156

 Free energy of the ion-electron system (eV)
  ---------------------------------------------------
  alpha Z        PSCENC =       253.99581917
  Ewald energy   TEWEN  =     -9972.17973863
  -Hartree energ DENC   =     -4865.99950163
  -exchange      EXHF   =         0.00000000
  -V(xc)+E(xc)   XCENC  =       689.12654095
  PAW double counting   =     39198.56654208   -39023.94395497
  entropy T*S    EENTRO =         0.00000000
  eigenvalues    EBANDS =     -2010.94119402
  atomic energy  EATOM  =     15501.99929693
  Solvation  Ediel_sol  =         0.00000000
  ---------------------------------------------------
  free energy    TOTEN  =      -229.37619012 eV

  energy without entropy =     -229.37619012  energy(sigma->0) =     -229.37619012


--------------------------------------------------------------------------------------------------------




--------------------------------------- Iteration      1(  21)  ---------------------------------------


    POTLOK:  cpu time      0.4417: real time      0.4426
    SETDIJ:  cpu time     11.5977: real time     11.6021
     EDDAV:  cpu time     56.0487: real time     56.0734
 BZINTS: Fermi energy:    0.078140;  336.000000 electrons
         Band energy:-0.201100E+04;  BLOECHL correction:    0.000000
       DOS:  cpu time      0.0291: real time      0.0291
    CHARGE:  cpu time     15.3487: real time     15.3543
    MIXING:  cpu time      0.0280: real time      0.0283
    --------------------------------------------
      LOOP:  cpu time     83.4939: real time     83.5298

 eigenvalue-minimisations  :  9216
 total energy-change (2. order) : 0.1196902E-05  (-0.8854488E-06)
 number of electron     335.9999997 magnetization      -0.0013444
 augmentation part      -46.9866542 magnetization      -0.0013479

 Broyden mixing:
  rms(total) = 0.42291E-03    rms(broyden)= 0.42264E-03
  rms(prec ) = 0.44494E-03
  weight for this iteration     100.00

 eigenvalues of (default mixing * dielectric matrix)
  average eigenvalue GAMMA=   1.5121
  5.0969  2.6687  2.6687  2.5708  1.6092  1.4062  1.1543  1.1543  0.9283  0.9283
  0.7390  0.7390  0.7258  0.5791  0.6122  0.6122

 Free energy of the ion-electron system (eV)
  ---------------------------------------------------
  alpha Z        PSCENC =       253.99581917
  Ewald energy   TEWEN  =     -9972.17973863
  -Hartree energ DENC   =     -4865.94106311
  -exchange      EXHF   =         0.00000000
  -V(xc)+E(xc)   XCENC  =       689.12296505
  PAW double counting   =     39198.00958559   -39023.38619148
  entropy T*S    EENTRO =         0.00000000
  eigenvalues    EBANDS =     -2010.99686244
  atomic energy  EATOM  =     15501.99929693
  Solvation  Ediel_sol  =         0.00000000
  ---------------------------------------------------
  free energy    TOTEN  =      -229.37618892 eV

  energy without entropy =     -229.37618892  energy(sigma->0) =     -229.37618892


--------------------------------------------------------------------------------------------------------




--------------------------------------- Iteration      1(  22)  ---------------------------------------


    POTLOK:  cpu time      2.2719: real time      2.2799
    SETDIJ:  cpu time      6.1639: real time      6.1659
     EDDAV:  cpu time     56.2659: real time     56.2907
 BZINTS: Fermi energy:    0.078347;  336.000000 electrons
         Band energy:-0.201102E+04;  BLOECHL correction:    0.000000
       DOS:  cpu time      0.0258: real time      0.0259
    CHARGE:  cpu time     12.9820: real time     12.9869
    MIXING:  cpu time      0.0262: real time      0.0262
    --------------------------------------------
      LOOP:  cpu time     77.7356: real time     77.7754

 eigenvalue-minimisations  :  9856
 total energy-change (2. order) : 0.4644971E-06  (-0.1388872E-06)
 number of electron     335.9999997 magnetization      -0.0004678
 augmentation part      -46.9867240 magnetization      -0.0004897

 Broyden mixing:
  rms(total) = 0.23060E-03    rms(broyden)= 0.23010E-03
  rms(prec ) = 0.24479E-03
  weight for this iteration     100.00

 eigenvalues of (default mixing * dielectric matrix)
  average eigenvalue GAMMA=   1.5004
  5.0911  2.6573  2.6573  2.6221  1.6743  1.4385  1.4385  1.0822  1.0822  0.9003
  0.9003  0.7422  0.7422  0.6742  0.5804  0.6122  0.6122

 Free energy of the ion-electron system (eV)
  ---------------------------------------------------
  alpha Z        PSCENC =       253.99581917
  Ewald energy   TEWEN  =     -9972.17973863
  -Hartree energ DENC   =     -4865.91940457
  -exchange      EXHF   =         0.00000000
  -V(xc)+E(xc)   XCENC  =       689.12138666
  PAW double counting   =     39196.60218074   -39021.97847620
  entropy T*S    EENTRO =         0.00000000
  eigenvalues    EBANDS =     -2011.01725257
  atomic energy  EATOM  =     15501.99929693
  Solvation  Ediel_sol  =         0.00000000
  ---------------------------------------------------
  free energy    TOTEN  =      -229.37618846 eV

  energy without entropy =     -229.37618846  energy(sigma->0) =     -229.37618846


--------------------------------------------------------------------------------------------------------




--------------------------------------- Iteration      1(  23)  ---------------------------------------


    POTLOK:  cpu time      0.4483: real time      0.4493
    SETDIJ:  cpu time      9.6710: real time      9.6746
     EDDAV:  cpu time     54.1739: real time     54.2049
 BZINTS: Fermi energy:    0.078385;  336.000000 electrons
         Band energy:-0.201101E+04;  BLOECHL correction:    0.000000
       DOS:  cpu time      0.0259: real time      0.0260
    CHARGE:  cpu time      6.8468: real time      6.8490
    MIXING:  cpu time      0.0203: real time      0.0206
    --------------------------------------------
      LOOP:  cpu time     71.1863: real time     71.2243

 eigenvalue-minimisations  :  9216
 total energy-change (2. order) :-0.2424385E-06  (-0.5703973E-07)
 number of electron     335.9999997 magnetization      -0.0002595
 augmentation part      -46.9866950 magnetization      -0.0002555

 Broyden mixing:
[...]

  length of vectors
    10.314108670 16.788494411 10.846477853     0.097707938  0.059564603  0.092912216


 FORCES acting on ions
    electron-ion (+dipol)            ewald-force                    non-local-force                 convergence-correction
 -----------------------------------------------------------------------------------------------
   0.987E+02 -.105E+03 -.125E+02   -.104E+03 0.113E+03 0.112E+02   0.495E+01 -.888E+01 0.132E+01   0.179E-05 -.199E-06 0.890E-06
   0.986E+02 -.105E+03 -.125E+02   -.104E+03 0.113E+03 0.112E+02   0.495E+01 -.888E+01 0.132E+01   0.163E-05 -.166E-06 0.894E-06
   -.125E+02 0.416E+02 -.126E+03   0.128E+02 -.468E+02 0.133E+03   -.263E+00 0.515E+01 -.708E+01   0.207E-06 0.366E-07 -.101E-05
   -.124E+02 0.420E+02 -.127E+03   0.126E+02 -.472E+02 0.134E+03   -.246E+00 0.519E+01 -.705E+01   0.721E-07 -.343E-07 -.117E-05
   -.211E+02 -.902E+02 0.980E+02   0.198E+02 0.989E+02 -.103E+03   0.134E+01 -.874E+01 0.530E+01   0.205E-07 0.474E-07 0.161E-05
   -.211E+02 -.902E+02 0.981E+02   0.198E+02 0.989E+02 -.103E+03   0.134E+01 -.874E+01 0.530E+01   -.763E-07 0.702E-07 0.174E-05
   -.108E+03 0.949E+02 0.612E+01   0.114E+03 -.101E+03 -.402E+01   -.537E+01 0.592E+01 -.209E+01   -.162E-05 0.108E-06 0.611E-06
   -.108E+03 0.950E+02 0.625E+01   0.114E+03 -.101E+03 -.414E+01   -.534E+01 0.592E+01 -.212E+01   -.182E-05 0.827E-07 0.636E-06
   0.136E+03 -.539E+02 -.188E+02   -.143E+03 0.594E+02 0.193E+02   0.680E+01 -.552E+01 -.558E+00   0.172E-05 0.120E-06 -.108E-05
   0.136E+03 -.539E+02 -.187E+02   -.143E+03 0.595E+02 0.193E+02   0.680E+01 -.552E+01 -.558E+00   0.159E-05 0.913E-07 -.104E-05
   -.136E+03 0.539E+02 0.187E+02   0.143E+03 -.595E+02 -.193E+02   -.680E+01 0.552E+01 0.558E+00   -.152E-05 0.282E-08 0.962E-06
   -.136E+03 0.540E+02 0.187E+02   0.143E+03 -.595E+02 -.193E+02   -.680E+01 0.552E+01 0.558E+00   -.174E-05 0.609E-07 0.965E-06
   0.108E+03 -.950E+02 -.628E+01   -.114E+03 0.101E+03 0.416E+01   0.534E+01 -.592E+01 0.212E+01   0.192E-05 -.107E-07 -.710E-06
   0.108E+03 -.950E+02 -.625E+01   -.114E+03 0.101E+03 0.414E+01   0.534E+01 -.592E+01 0.212E+01   0.169E-05 0.705E-07 -.683E-06
   -.124E+02 -.420E+02 0.127E+03   0.126E+02 0.472E+02 -.134E+03   -.246E+00 -.519E+01 0.705E+01   0.930E-07 0.140E-06 0.142E-05
   -.123E+02 -.420E+02 0.127E+03   0.126E+02 0.472E+02 -.134E+03   -.245E+00 -.519E+01 0.705E+01   0.579E-07 0.203E-06 0.136E-05
   0.211E+02 -.902E+02 0.979E+02   -.197E+02 0.989E+02 -.103E+03   -.133E+01 -.874E+01 0.529E+01   0.112E-06 -.175E-06 0.170E-05
   0.211E+02 -.902E+02 0.981E+02   -.198E+02 0.989E+02 -.103E+03   -.134E+01 -.874E+01 0.530E+01   -.864E-09 -.175E-06 0.184E-05
   -.980E+02 -.104E+03 -.127E+02   0.103E+03 0.113E+03 0.114E+02   -.495E+01 -.891E+01 0.137E+01   -.165E-05 -.328E-06 0.934E-06
   -.987E+02 -.105E+03 -.125E+02   0.104E+03 0.113E+03 0.112E+02   -.495E+01 -.888E+01 0.132E+01   -.179E-05 -.390E-06 0.841E-06
   -.136E+03 -.540E+02 -.187E+02   0.143E+03 0.595E+02 0.193E+02   -.680E+01 -.552E+01 -.558E+00   -.172E-05 -.137E-06 -.101E-05
   -.136E+03 -.540E+02 -.187E+02   0.143E+03 0.595E+02 0.193E+02   -.680E+01 -.552E+01 -.558E+00   -.163E-05 -.187E-06 -.101E-05
   0.124E+02 0.420E+02 -.127E+03   -.126E+02 -.472E+02 0.134E+03   0.246E+00 0.519E+01 -.705E+01   -.755E-07 -.141E-07 -.975E-06
   0.124E+02 0.420E+02 -.127E+03   -.126E+02 -.472E+02 0.134E+03   0.246E+00 0.519E+01 -.705E+01   -.171E-06 0.142E-07 -.110E-05
   -.108E+03 -.950E+02 -.635E+01   0.114E+03 0.101E+03 0.424E+01   -.534E+01 -.592E+01 0.212E+01   -.165E-05 0.168E-06 -.740E-06
   -.108E+03 -.950E+02 -.626E+01   0.114E+03 0.101E+03 0.414E+01   -.534E+01 -.592E+01 0.212E+01   -.181E-05 0.944E-07 -.696E-06
   0.986E+02 0.104E+03 0.125E+02   -.104E+03 -.113E+03 -.112E+02   0.495E+01 0.888E+01 -.132E+01   0.184E-05 0.587E-07 -.647E-06
   0.986E+02 0.105E+03 0.125E+02   -.104E+03 -.113E+03 -.112E+02   0.495E+01 0.888E+01 -.132E+01   0.166E-05 0.109E-06 -.737E-06
   -.986E+02 0.105E+03 0.125E+02   0.104E+03 -.114E+03 -.112E+02   -.495E+01 0.888E+01 -.132E+01   -.171E-05 0.496E-06 -.742E-06
   -.987E+02 0.105E+03 0.125E+02   0.104E+03 -.113E+03 -.112E+02   -.495E+01 0.888E+01 -.132E+01   -.182E-05 0.420E-06 -.757E-06
   0.727E+02 0.962E+02 0.633E+02   -.755E+02 -.106E+03 -.653E+02   0.274E+01 0.971E+01 0.207E+01   0.944E-06 0.624E-06 0.755E-06
   0.728E+02 0.962E+02 0.633E+02   -.755E+02 -.106E+03 -.653E+02   0.274E+01 0.971E+01 0.207E+01   0.814E-06 0.651E-06 0.655E-06
   0.218E+02 -.938E+02 -.889E+02   -.205E+02 0.100E+03 0.940E+02   -.133E+01 -.628E+01 -.509E+01   0.414E-06 0.646E-08 -.177E-05
   0.218E+02 -.938E+02 -.889E+02   -.205E+02 0.100E+03 0.940E+02   -.133E+01 -.628E+01 -.509E+01   0.217E-06 0.616E-07 -.163E-05
   -.211E+02 0.902E+02 -.981E+02   0.198E+02 -.989E+02 0.103E+03   0.134E+01 0.874E+01 -.530E+01   -.332E-07 -.133E-06 -.202E-05
   -.211E+02 0.902E+02 -.981E+02   0.198E+02 -.989E+02 0.103E+03   0.134E+01 0.874E+01 -.530E+01   -.110E-06 -.144E-06 -.193E-05
   -.218E+02 0.937E+02 0.887E+02   0.205E+02 -.100E+03 -.938E+02   0.133E+01 0.628E+01 0.508E+01   -.174E-06 0.460E-07 0.123E-05
   -.218E+02 0.938E+02 0.889E+02   0.205E+02 -.100E+03 -.940E+02   0.133E+01 0.628E+01 0.509E+01   -.325E-06 -.473E-07 0.141E-05
   0.211E+02 0.902E+02 -.981E+02   -.198E+02 -.989E+02 0.103E+03   -.134E+01 0.874E+01 -.530E+01   0.617E-07 0.199E-06 -.213E-05
   0.211E+02 0.902E+02 -.981E+02   -.198E+02 -.989E+02 0.103E+03   -.134E+01 0.874E+01 -.530E+01   -.518E-07 0.256E-06 -.207E-05
   0.723E+02 -.957E+02 -.629E+02   -.751E+02 0.105E+03 0.650E+02   0.277E+01 -.978E+01 -.202E+01   0.920E-06 -.662E-06 -.379E-06
   0.728E+02 -.961E+02 -.632E+02   -.755E+02 0.106E+03 0.653E+02   0.274E+01 -.971E+01 -.207E+01   0.852E-06 -.604E-06 -.488E-06
   0.136E+03 0.540E+02 0.186E+02   -.143E+03 -.595E+02 -.191E+02   0.682E+01 0.551E+01 0.575E+00   0.163E-05 0.988E-08 0.990E-06
   0.136E+03 0.540E+02 0.187E+02   -.143E+03 -.595E+02 -.193E+02   0.680E+01 0.552E+01 0.558E+00   0.166E-05 -.125E-07 0.984E-06
   0.108E+03 0.950E+02 0.626E+01   -.114E+03 -.101E+03 -.414E+01   0.534E+01 0.592E+01 -.212E+01   0.180E-05 -.182E-06 0.655E-06
   0.108E+03 0.950E+02 0.626E+01   -.114E+03 -.101E+03 -.414E+01   0.534E+01 0.592E+01 -.212E+01   0.164E-05 -.226E-06 0.678E-06
   -.728E+02 -.962E+02 -.632E+02   0.755E+02 0.106E+03 0.653E+02   -.274E+01 -.971E+01 -.207E+01   -.773E-06 -.295E-06 -.367E-06
   -.728E+02 -.961E+02 -.632E+02   0.755E+02 0.106E+03 0.653E+02   -.274E+01 -.971E+01 -.207E+01   -.922E-06 -.299E-06 -.512E-06
   -.218E+02 -.938E+02 -.889E+02   0.205E+02 0.100E+03 0.940E+02   0.133E+01 -.628E+01 -.509E+01   -.321E-06 0.172E-06 -.167E-05
   -.218E+02 -.938E+02 -.889E+02   0.205E+02 0.100E+03 0.940E+02   0.133E+01 -.628E+01 -.509E+01   -.319E-06 0.216E-06 -.166E-05
   0.218E+02 0.938E+02 0.889E+02   -.205E+02 -.100E+03 -.940E+02   -.133E+01 0.628E+01 0.509E+01   0.305E-06 -.266E-06 0.130E-05
   0.218E+02 0.938E+02 0.889E+02   -.205E+02 -.100E+03 -.940E+02   -.133E+01 0.628E+01 0.509E+01   0.247E-06 -.191E-06 0.138E-05
   -.728E+02 0.961E+02 0.633E+02   0.756E+02 -.106E+03 -.653E+02   -.274E+01 0.971E+01 0.207E+01   -.908E-06 0.277E-06 0.724E-06
   -.727E+02 0.961E+02 0.633E+02   0.755E+02 -.106E+03 -.653E+02   -.274E+01 0.971E+01 0.207E+01   -.886E-06 0.235E-06 0.697E-06
   0.123E+02 -.420E+02 0.127E+03   -.126E+02 0.472E+02 -.134E+03   0.245E+00 -.519E+01 0.705E+01   -.189E-07 -.140E-06 0.154E-05
   0.124E+02 -.420E+02 0.127E+03   -.126E+02 0.472E+02 -.134E+03   0.246E+00 -.519E+01 0.705E+01   -.196E-06 -.132E-06 0.140E-05
 -----------------------------------------------------------------------------------------------
   -.296E-02 0.144E+00 -.102E+00   0.163E-12 -.121E-12 0.284E-13   0.296E-02 -.144E+00 0.102E+00   0.389E-07 -.102E-08 0.494E-07


 POSITION                                       TOTAL-FORCE (eV/Angst)
 -----------------------------------------------------------------------------------
      7.84031      7.96182     -7.59135         0.002488     -0.001317      0.000936
     16.23455      7.96182     -7.59135         0.002473     -0.001320      0.000914
      3.16872      2.44441     -6.00955        -0.001871      0.025017     -0.084676
     11.56297      2.44282     -6.01943         0.002143     -0.000881     -0.002587
      1.76685      7.82725    -10.10485        -0.000056     -0.000046     -0.000510
     10.16110      7.82725    -10.10485        -0.000058     -0.000008     -0.000460
      5.05050      1.12562     -8.40433        -0.003322      0.017343      0.009499
     13.44475      1.12562     -8.40433         0.001613     -0.000624     -0.000678
      5.13205      1.09979     -2.45651        -0.000092      0.000467     -0.000180
     13.52630      1.09979     -2.45651        -0.000075      0.000499     -0.000239
      3.26219      7.47505     -8.62356         0.000089     -0.000501      0.000293
     11.65644      7.47505     -8.62356         0.000100     -0.000437      0.000284
      3.34375      7.44923     -2.67574        -0.001399      0.000811      0.000798
     11.73799      7.44923     -2.67574        -0.001578      0.000631      0.000714
      7.36585      0.97835     -4.87422         0.002170      0.001034      0.002533
     15.76010      0.97835     -4.87422         0.002191      0.001043      0.002532
      2.43027      2.67356     -9.91842         0.003977      0.000404     -0.000732
     10.82452      2.67356     -9.91842         0.000040     -0.000031     -0.000436
      4.75106      2.80814     -7.40493        -0.026099     -0.025282      0.031749
     13.14531      2.80814     -7.40493        -0.002486     -0.001232      0.001011
      7.45932      6.25348     -2.64294         0.000126      0.000384     -0.000211
     15.85356      6.25348     -2.64294         0.000031      0.000418     -0.000335
      1.02840      7.59650     -6.20585        -0.002049     -0.000909     -0.002574
      9.42265      7.59650     -6.20585        -0.002142     -0.000865     -0.002507
      0.85338      2.29554     -2.48931         0.001524      0.000752      0.000705
      9.24762      2.29554     -2.48931         0.001583      0.000663      0.000619
      3.64318      5.76671     -3.67515         0.002335      0.000963     -0.001224
     12.03743      5.76671     -3.67515         0.002448      0.001270     -0.000964
      0.55394      0.61303     -3.48872        -0.002706      0.001144     -0.000835
      8.94819      0.61303     -3.48872        -0.002529      0.001182     -0.000854
      5.79350     -0.03143     -4.03202        -0.001097      0.001703      0.000254
     14.18775     -0.03143     -4.03202        -0.001124      0.001664      0.000254
      4.85766      7.53946     -1.03917        -0.003999      0.002183     -0.000200
     13.25190      7.53946     -1.03917        -0.003966      0.002118     -0.000216
      5.96398      5.90128     -1.16165        -0.000018      0.000028      0.000452
     14.35822      5.90128     -1.16165        -0.000070     -0.000030      0.000448
      3.53659      1.03539    -10.04090         0.001683     -0.005720      0.001293
     11.93084      1.03539    -10.04090         0.003923     -0.002071      0.000215
      6.62739      0.74760     -0.97522         0.000088     -0.000064      0.000547
     15.02164      0.74760     -0.97522         0.000023     -0.000068      0.000458
      1.59638      3.45260     -6.86163         0.017888     -0.020038      0.022478
      9.99063      3.45260     -6.86163        -0.001240     -0.001796     -0.000199
      0.93493      2.32137     -8.43713         0.011592      0.000702      0.017741
      9.32918      2.32137     -8.43713        -0.000023     -0.000400      0.000276
      7.54087      6.27930     -8.59076        -0.001591     -0.000623     -0.000683
     15.93512      6.27930     -8.59076        -0.001556     -0.000530     -0.000652
      2.60074      8.60628     -7.04805         0.001138     -0.001634     -0.000167
     10.99499      8.60628     -7.04805         0.001205     -0.001788     -0.000230
      7.73371      2.38578     -0.85274         0.003995      0.002038     -0.000330
     16.12796      2.38578     -0.85274         0.003883      0.002071     -0.000263
      0.66053      6.18907    -10.22733        -0.003970     -0.001914      0.000203
      9.05478      6.18907    -10.22733        -0.003948     -0.002030      0.000256
      6.79787      5.12225     -4.21845         0.001069      0.001861      0.000044
     15.19211      5.12225     -4.21845         0.001302      0.001799      0.000155
      5.22552      6.13203     -5.06065        -0.001955      0.001097      0.002674
     13.61977      6.13203     -5.06065        -0.002101      0.000865      0.002608
 -----------------------------------------------------------------------------------
    total drift:                               -0.000000     -0.000001      0.000009


--------------------------------------------------------------------------------------------------------



  FREE ENERGIE OF THE ION-ELECTRON SYSTEM (eV)
  ---------------------------------------------------
  free  energy   TOTEN  =      -229.37618849 eV

  energy  without entropy=     -229.37618849  energy(sigma->0) =     -229.37618849



--------------------------------------------------------------------------------------------------------


    POTLOK:  cpu time      9.6221: real time      9.6357


--------------------------------------------------------------------------------------------------------


     LOOP+:  cpu time   2802.0343: real time   2804.3493
    4ORBIT:  cpu time      0.0000: real time      0.0000



 total charge

# of ion       s       p       d       tot
------------------------------------------
    1        1.376   2.247   0.000   3.623
    2        1.376   2.247   0.000   3.623
    3        1.377   2.256   0.000   3.632
    4        1.376   2.258   0.000   3.635
    5        1.376   2.247   0.000   3.623
    6        1.376   2.247   0.000   3.623
    7        1.375   2.262   0.000   3.637
    8        1.375   2.262   0.000   3.638
    9        1.377   2.257   0.000   3.634
   10        1.377   2.257   0.000   3.634
   11        1.377   2.257   0.000   3.634
   12        1.377   2.257   0.000   3.634
   13        1.375   2.262   0.000   3.638
   14        1.375   2.262   0.000   3.638
   15        1.376   2.258   0.000   3.635
   16        1.376   2.258   0.000   3.635
   17        1.376   2.247   0.000   3.623
   18        1.376   2.247   0.000   3.622
   19        1.376   2.245   0.000   3.621
   20        1.376   2.247   0.000   3.623
   21        1.377   2.257   0.000   3.634
   22        1.377   2.257   0.000   3.634
   23        1.376   2.258   0.000   3.635
   24        1.376   2.258   0.000   3.635
   25        1.375   2.262   0.000   3.638
   26        1.375   2.262   0.000   3.638
   27        1.376   2.247   0.000   3.623
   28        1.376   2.247   0.000   3.623
   29        1.376   2.247   0.000   3.623
   30        1.376   2.247   0.000   3.623
   31        1.376   2.254   0.000   3.630
   32        1.376   2.254   0.000   3.630
   33        1.375   2.263   0.000   3.638
   34        1.375   2.263   0.000   3.638
   35        1.376   2.247   0.000   3.623
   36        1.376   2.247   0.000   3.623
   37        1.375   2.263   0.000   3.638
   38        1.375   2.263   0.000   3.638
   39        1.376   2.247   0.000   3.622
   40        1.376   2.247   0.000   3.622
   41        1.376   2.253   0.000   3.629
   42        1.376   2.254   0.000   3.630
   43        1.377   2.257   0.000   3.634
   44        1.377   2.257   0.000   3.634
   45        1.375   2.262   0.000   3.638
   46        1.375   2.262   0.000   3.638
   47        1.376   2.254   0.000   3.630
   48        1.376   2.254   0.000   3.630
   49        1.375   2.263   0.000   3.638
   50        1.375   2.263   0.000   3.638
   51        1.375   2.263   0.000   3.638
   52        1.375   2.263   0.000   3.638
   53        1.376   2.254   0.000   3.630
   54        1.376   2.254   0.000   3.630
   55        1.376   2.258   0.000   3.635
   56        1.376   2.258   0.000   3.635
--------------------------------------------------
tot         77.050 126.306   0.000 203.356



 magnetization (x)

# of ion       s       p       d       tot
------------------------------------------
    1        0.000   0.000   0.000   0.000
    2        0.000   0.000   0.000   0.000
    3        0.000   0.000   0.000   0.000
    4        0.000   0.000   0.000   0.000
    5        0.000   0.000   0.000   0.000
    6        0.000  -0.000   0.000   0.000
    7        0.000   0.000   0.000   0.000
    8        0.000   0.000   0.000   0.000
    9        0.000   0.000   0.000   0.000
   10        0.000   0.000   0.000   0.000
   11        0.000   0.000   0.000   0.000
   12        0.000   0.000   0.000   0.000
   13        0.000   0.000   0.000   0.000
   14        0.000   0.000   0.000   0.000
   15        0.000   0.000   0.000   0.000
   16        0.000   0.000   0.000   0.000
   17        0.000   0.000   0.000   0.000
   18        0.000   0.000   0.000   0.000
   19        0.000   0.000   0.000   0.000
   20        0.000   0.000   0.000   0.000
   21        0.000   0.000   0.000   0.000
   22        0.000   0.000   0.000   0.000
   23        0.000   0.000   0.000   0.000
   24        0.000   0.000   0.000   0.000
   25        0.000   0.000   0.000   0.000
   26        0.000   0.000   0.000   0.000
   27        0.000   0.000   0.000   0.000
   28        0.000   0.000   0.000   0.000
   29        0.000   0.000   0.000   0.000
   30        0.000   0.000   0.000   0.000
   31        0.000   0.000   0.000   0.000
   32        0.000   0.000   0.000   0.000
   33        0.000   0.000   0.000   0.000
   34        0.000   0.000   0.000   0.000
   35        0.000   0.000   0.000   0.000
   36        0.000   0.000   0.000   0.000
   37        0.000   0.000   0.000   0.000
   38        0.000   0.000   0.000   0.000
   39        0.000   0.000   0.000   0.000
   40        0.000   0.000   0.000   0.000
   41        0.000   0.000   0.000   0.000
   42        0.000   0.000   0.000   0.000
   43        0.000   0.000   0.000   0.000
   44        0.000   0.000   0.000   0.000
   45        0.000   0.000   0.000   0.000
   46        0.000   0.000   0.000   0.000
   47        0.000   0.000   0.000   0.000
   48        0.000   0.000   0.000   0.000
   49        0.000   0.000   0.000   0.000
   50        0.000   0.000   0.000   0.000
   51        0.000   0.000   0.000   0.000
   52        0.000   0.000   0.000   0.000
   53        0.000   0.000   0.000   0.000
   54        0.000   0.000   0.000   0.000
   55        0.000   0.000   0.000   0.000
   56        0.000   0.000   0.000   0.000
--------------------------------------------------
tot          0.000   0.000   0.000   0.000

 BZINTS: Fermi energy:    0.078317;  336.000000 electrons
         Band energy:-0.201102E+04;  BLOECHL correction:    0.000000

 total amount of memory used by VASP MPI-rank0   322725. kBytes
=======================================================================

   base      :      30000. kBytes
   nonl-proj :      70692. kBytes
   fftplans  :      34504. kBytes
   grid      :      83442. kBytes
   one-center:        344. kBytes
   wavefun   :     103743. kBytes

  
  
 General timing and accounting informations for this job:
 ========================================================
  
                  Total CPU time used (sec):     2843.388
                            User time (sec):     2841.101
                          System time (sec):        2.287
                         Elapsed time (sec):     2846.333
  
                   Maximum memory used (kb):      609392.
                   Average memory used (kb):          N/A
  
                          Minor page faults:       575016
                          Major page faults:          117
                 Voluntary context switches:         4740
