   4   4   0   0
  0.1885365E+02  0.3547340E-09  0.3547340E-09  0.6920210E-09  0.1500000E-16
   1.0000000000000000E-004
  CAR 
 unknown system                          
     16.44658709    -22.05566201  301      2.55699064      1.00000000
    -22.056  0.0000E+00  0.0000E+00
    -21.927  0.0000E+00  0.0000E+00
    -21.799  0.0000E+00  0.0000E+00
    -21.671  0.0000E+00  0.0000E+00
    -21.542  0.0000E+00  0.0000E+00
    -21.414  0.0000E+00  0.0000E+00
    -21.286  0.0000E+00  0.0000E+00
    -21.157  0.0000E+00  0.0000E+00
    -21.029  0.0000E+00  0.0000E+00
    -20.901  0.0000E+00  0.0000E+00
    -20.772  0.0000E+00  0.0000E+00
    -20.644  0.0000E+00  0.0000E+00
    -20.516  0.5612E-10  0.7202E-11
    -20.387  0.8457E-03  0.1085E-03
    -20.259  0.3084E+00  0.3969E-01
    -20.131  0.2406E+00  0.7056E-01
    -20.002  0.1884E-03  0.7059E-01
    -19.874  0.1613E-11  0.7059E-01
    -19.746  0.0000E+00  0.7059E-01
    -19.617  0.0000E+00  0.7059E-01
    -19.489  0.0000E+00  0.7059E-01
    -19.361  0.0000E+00  0.7059E-01
    -19.232  0.0000E+00  0.7059E-01
    -19.104  0.0000E+00  0.7059E-01
    -18.975  0.0000E+00  0.7059E-01
    -18.847  0.0000E+00  0.7059E-01
    -18.719  0.0000E+00  0.7059E-01
    -18.590  0.0000E+00  0.7059E-01
    -18.462  0.0000E+00  0.7059E-01
    -18.334  0.0000E+00  0.7059E-01
    -18.205  0.0000E+00  0.7059E-01
    -18.077  0.0000E+00  0.7059E-01
    -17.949  0.0000E+00  0.7059E-01
    -17.820  0.0000E+00  0.7059E-01
    -17.692  0.0000E+00  0.7059E-01
    -17.564  0.0000E+00  0.7059E-01
    -17.435  0.0000E+00  0.7059E-01
    -17.307  0.0000E+00  0.7059E-01
    -17.179  0.0000E+00  0.7059E-01
    -17.050  0.0000E+00  0.7059E-01
    -16.922  0.0000E+00  0.7059E-01
    -16.794  0.0000E+00  0.7059E-01
    -16.665  0.0000E+00  0.7059E-01
    -16.537  0.0000E+00  0.7059E-01
    -16.409  0.0000E+00  0.7059E-01
    -16.280  0.0000E+00  0.7059E-01
    -16.152  0.0000E+00  0.7059E-01
    -16.024  0.0000E+00  0.7059E-01
    -15.895  0.0000E+00  0.7059E-01
    -15.767  0.0000E+00  0.7059E-01
    -15.639  0.0000E+00  0.7059E-01
    -15.510  0.0000E+00  0.7059E-01
    -15.382  0.0000E+00  0.7059E-01
    -15.254  0.0000E+00  0.7059E-01
    -15.125  0.0000E+00  0.7059E-01
    -14.997  0.0000E+00  0.7059E-01
    -14.869  0.0000E+00  0.7059E-01
    -14.740  0.0000E+00  0.7059E-01
    -14.612  0.0000E+00  0.7059E-01
    -14.484  0.0000E+00  0.7059E-01
    -14.355  0.0000E+00  0.7059E-01
    -14.227  0.0000E+00  0.7059E-01
    -14.099  0.0000E+00  0.7059E-01
    -13.970  0.0000E+00  0.7059E-01
    -13.842  0.0000E+00  0.7059E-01
    -13.714  0.0000E+00  0.7059E-01
    -13.585  0.0000E+00  0.7059E-01
    -13.457  0.0000E+00  0.7059E-01
    -13.328  0.0000E+00  0.7059E-01
    -13.200  0.0000E+00  0.7059E-01
    -13.072  0.0000E+00  0.7059E-01
    -12.943  0.0000E+00  0.7059E-01
    -12.815  0.0000E+00  0.7059E-01
    -12.687  0.0000E+00  0.7059E-01
    -12.558  0.0000E+00  0.7059E-01
    -12.430  0.0000E+00  0.7059E-01
    -12.302  0.0000E+00  0.7059E-01
    -12.173  0.0000E+00  0.7059E-01
    -12.045  0.0000E+00  0.7059E-01
    -11.917  0.0000E+00  0.7059E-01
    -11.788  0.0000E+00  0.7059E-01
    -11.660  0.0000E+00  0.7059E-01
    -11.532  0.0000E+00  0.7059E-01
    -11.403  0.0000E+00  0.7059E-01
    -11.275  0.0000E+00  0.7059E-01
    -11.147  0.0000E+00  0.7059E-01
    -11.018  0.0000E+00  0.7059E-01
    -10.890  0.0000E+00  0.7059E-01
    -10.762  0.0000E+00  0.7059E-01
    -10.633  0.6311E-10  0.7059E-01
    -10.505  0.6911E-04  0.7060E-01
    -10.377  0.3587E-02  0.7106E-01
    -10.248  0.1605E-02  0.7126E-01
    -10.120  0.1976E-01  0.7380E-01
     -9.992  0.1062E-01  0.7516E-01
     -9.863  0.2575E-05  0.7516E-01
     -9.735  0.1654E-02  0.7538E-01
     -9.607  0.2729E-01  0.7888E-01
     -9.478  0.1589E-01  0.8092E-01
     -9.350  0.1731E-01  0.8314E-01
     -9.222  0.6546E-02  0.8398E-01
     -9.093  0.2800E-01  0.8757E-01
     -8.965  0.7397E-01  0.9707E-01
     -8.837  0.6895E-01  0.1059E+00
     -8.708  0.8417E-01  0.1167E+00
     -8.580  0.7252E-02  0.1176E+00
     -8.452  0.8712E-07  0.1176E+00
     -8.323  0.0000E+00  0.1176E+00
     -8.195  0.0000E+00  0.1176E+00
     -8.067  0.0000E+00  0.1176E+00
     -7.938  0.0000E+00  0.1176E+00
     -7.810  0.0000E+00  0.1176E+00
     -7.681  0.0000E+00  0.1176E+00
     -7.553  0.0000E+00  0.1176E+00
     -7.425  0.0000E+00  0.1176E+00
     -7.296  0.0000E+00  0.1176E+00
     -7.168  0.0000E+00  0.1176E+00
     -7.040  0.0000E+00  0.1176E+00
     -6.911  0.0000E+00  0.1176E+00
     -6.783  0.0000E+00  0.1176E+00
     -6.655  0.0000E+00  0.1176E+00
     -6.526  0.0000E+00  0.1176E+00
     -6.398  0.0000E+00  0.1176E+00
     -6.270  0.0000E+00  0.1176E+00
     -6.141  0.0000E+00  0.1176E+00
     -6.013  0.0000E+00  0.1176E+00
     -5.885  0.0000E+00  0.1176E+00
     -5.756  0.0000E+00  0.1176E+00
     -5.628  0.0000E+00  0.1176E+00
     -5.500  0.0000E+00  0.1176E+00
     -5.371  0.0000E+00  0.1176E+00
     -5.243  0.0000E+00  0.1176E+00
     -5.115  0.0000E+00  0.1176E+00
     -4.986  0.0000E+00  0.1176E+00
     -4.858  0.0000E+00  0.1176E+00
     -4.730  0.0000E+00  0.1176E+00
     -4.601  0.0000E+00  0.1176E+00
     -4.473  0.0000E+00  0.1176E+00
     -4.345  0.0000E+00  0.1176E+00
     -4.216  0.0000E+00  0.1176E+00
     -4.088  0.0000E+00  0.1176E+00
     -3.960  0.9693E-12  0.1176E+00
     -3.831  0.3894E-04  0.1177E+00
     -3.703  0.1629E-01  0.1197E+00
     -3.575  0.2497E+00  0.1518E+00
     -3.446  0.1981E+00  0.1772E+00
     -3.318  0.2395E+00  0.2079E+00
     -3.190  0.1934E+00  0.2328E+00
     -3.061  0.1964E-01  0.2353E+00
     -2.933  0.3495E-04  0.2353E+00
     -2.805  0.7950E-12  0.2353E+00
     -2.676  0.0000E+00  0.2353E+00
     -2.548  0.0000E+00  0.2353E+00
     -2.420  0.0000E+00  0.2353E+00
     -2.291  0.1634E-15  0.2353E+00
     -2.163  0.3749E-06  0.2353E+00
     -2.034  0.5298E-02  0.2360E+00
     -1.906  0.3086E-01  0.2399E+00
     -1.778  0.5076E-01  0.2464E+00
     -1.649  0.3944E-02  0.2470E+00
     -1.521  0.3295E-01  0.2512E+00
     -1.393  0.2812E-01  0.2548E+00
     -1.264  0.3981E-01  0.2599E+00
     -1.136  0.7106E-02  0.2608E+00
     -1.008  0.2061E-01  0.2635E+00
     -0.879  0.3291E-01  0.2677E+00
     -0.751  0.1403E-01  0.2695E+00
     -0.623  0.1305E-01  0.2712E+00
     -0.494  0.1772E-01  0.2734E+00
     -0.366  0.1024E-01  0.2747E+00
     -0.238  0.9209E-02  0.2759E+00
     -0.109  0.3847E-02  0.2764E+00
      0.019  0.6078E-02  0.2772E+00
      0.147  0.5664E-01  0.2845E+00
      0.276  0.3390E-01  0.2888E+00
      0.404  0.3030E-01  0.2927E+00
      0.532  0.2536E-01  0.2960E+00
      0.661  0.5566E-01  0.3031E+00
      0.789  0.3210E-01  0.3072E+00
      0.917  0.3175E-02  0.3076E+00
      1.046  0.1727E-01  0.3099E+00
      1.174  0.2018E-01  0.3124E+00
      1.302  0.1164E-01  0.3139E+00
      1.431  0.4344E-01  0.3195E+00
      1.559  0.1875E-01  0.3219E+00
      1.687  0.5572E-01  0.3291E+00
      1.816  0.2646E-01  0.3325E+00
      1.944  0.8003E-01  0.3427E+00
      2.072  0.5297E-01  0.3495E+00
      2.201  0.8809E-01  0.3608E+00
      2.329  0.1564E-01  0.3628E+00
      2.457  0.9262E-02  0.3640E+00
      2.586  0.1106E-01  0.3655E+00
      2.714  0.3650E-01  0.3701E+00
      2.842  0.1014E-01  0.3714E+00
      2.971  0.3471E-01  0.3759E+00
      3.099  0.4472E-02  0.3765E+00
      3.227  0.2384E-06  0.3765E+00
      3.356  0.9197E-16  0.3765E+00
      3.484  0.0000E+00  0.3765E+00
      3.613  0.0000E+00  0.3765E+00
      3.741  0.0000E+00  0.3765E+00
      3.869  0.0000E+00  0.3765E+00
      3.998  0.0000E+00  0.3765E+00
      4.126  0.0000E+00  0.3765E+00
      4.254  0.0000E+00  0.3765E+00
      4.383  0.0000E+00  0.3765E+00
      4.511  0.0000E+00  0.3765E+00
      4.639  0.0000E+00  0.3765E+00
      4.768  0.0000E+00  0.3765E+00
      4.896  0.0000E+00  0.3765E+00
      5.024  0.0000E+00  0.3765E+00
      5.153  0.0000E+00  0.3765E+00
      5.281  0.7966E-13  0.3765E+00
      5.409  0.9471E-05  0.3765E+00
      5.538  0.7282E-02  0.3774E+00
      5.666  0.4656E-02  0.3780E+00
      5.794  0.4670E-02  0.3786E+00
      5.923  0.3580E-03  0.3786E+00
      6.051  0.1153E-05  0.3786E+00
      6.179  0.4913E-02  0.3793E+00
      6.308  0.1521E-01  0.3812E+00
      6.436  0.4146E-01  0.3866E+00
      6.564  0.3595E-01  0.3912E+00
      6.693  0.7710E-02  0.3922E+00
      6.821  0.6488E-02  0.3930E+00
      6.949  0.3707E-02  0.3935E+00
      7.078  0.5732E-06  0.3935E+00
      7.206  0.2969E-04  0.3935E+00
      7.334  0.1022E-01  0.3948E+00
      7.463  0.3128E-01  0.3988E+00
      7.591  0.1062E-01  0.4002E+00
      7.719  0.4288E-01  0.4057E+00
      7.848  0.9685E-02  0.4069E+00
      7.976  0.4859E-01  0.4131E+00
      8.104  0.2725E-01  0.4166E+00
      8.233  0.1810E-01  0.4190E+00
      8.361  0.2759E-01  0.4225E+00
      8.489  0.1223E-02  0.4227E+00
      8.618  0.1535E-04  0.4227E+00
      8.746  0.4125E-02  0.4232E+00
      8.874  0.2901E-01  0.4269E+00
      9.003  0.6879E-02  0.4278E+00
      9.131  0.2127E-01  0.4305E+00
      9.260  0.4755E-01  0.4366E+00
      9.388  0.3396E-01  0.4410E+00
      9.516  0.2972E-01  0.4448E+00
      9.645  0.7215E-02  0.4457E+00
      9.773  0.7218E-02  0.4467E+00
      9.901  0.2853E-01  0.4503E+00
     10.030  0.4863E-01  0.4566E+00
     10.158  0.1692E-01  0.4587E+00
     10.286  0.5420E-01  0.4657E+00
     10.415  0.3734E-01  0.4705E+00
     10.543  0.4738E-01  0.4766E+00
     10.671  0.4708E-01  0.4826E+00
     10.800  0.4632E-01  0.4885E+00
     10.928  0.7795E-01  0.4985E+00
     11.056  0.2254E-01  0.5014E+00
     11.185  0.2122E-01  0.5042E+00
     11.313  0.3013E-01  0.5080E+00
     11.441  0.1700E-01  0.5102E+00
     11.570  0.2130E-01  0.5129E+00
     11.698  0.2406E-01  0.5160E+00
     11.826  0.5662E-01  0.5233E+00
     11.955  0.1964E-01  0.5258E+00
     12.083  0.2892E-01  0.5295E+00
     12.211  0.5469E-01  0.5366E+00
     12.340  0.3327E-01  0.5408E+00
     12.468  0.1291E-01  0.5425E+00
     12.596  0.7340E-03  0.5426E+00
     12.725  0.9519E-02  0.5438E+00
     12.853  0.3145E-01  0.5478E+00
     12.981  0.1612E-01  0.5499E+00
     13.110  0.3868E-01  0.5549E+00
     13.238  0.3295E-03  0.5549E+00
     13.366  0.8455E-02  0.5560E+00
     13.495  0.1690E-02  0.5562E+00
     13.623  0.2809E-03  0.5562E+00
     13.751  0.1948E-01  0.5587E+00
     13.880  0.2035E-01  0.5614E+00
     14.008  0.6219E-03  0.5614E+00
     14.136  0.4646E-03  0.5615E+00
     14.265  0.9455E-02  0.5627E+00
     14.393  0.2662E-03  0.5627E+00
     14.521  0.2644E-02  0.5631E+00
     14.650  0.8003E-02  0.5641E+00
     14.778  0.4578E-02  0.5647E+00
     14.906  0.5317E-04  0.5647E+00
     15.035  0.7250E-11  0.5647E+00
     15.163  0.0000E+00  0.5647E+00
     15.292  0.0000E+00  0.5647E+00
     15.420  0.0000E+00  0.5647E+00
     15.548  0.0000E+00  0.5647E+00
     15.677  0.0000E+00  0.5647E+00
     15.805  0.0000E+00  0.5647E+00
     15.933  0.0000E+00  0.5647E+00
     16.062  0.0000E+00  0.5647E+00
     16.190  0.0000E+00  0.5647E+00
     16.318  0.0000E+00  0.5647E+00
     16.447  0.0000E+00  0.5647E+00
