       N       E                     dE             d eps       ncg     rms          rms(c)
DAV:   1     0.210446963732E+03    0.21045E+03   -0.12705E+04  2688   0.122E+03
DAV:   2     0.496152669536E+01   -0.20549E+03   -0.19340E+03  2888   0.318E+02
DAV:   3    -0.131497872785E+02   -0.18111E+02   -0.17807E+02  3448   0.956E+01
DAV:   4    -0.135766781774E+02   -0.42689E+00   -0.42633E+00  3016   0.153E+01
DAV:   5    -0.135865665253E+02   -0.98883E-02   -0.98872E-02  3528   0.228E+00    0.760E+00
DAV:   6    -0.129281007969E+02    0.65847E+00   -0.17345E+00  3264   0.418E+01    0.622E+00
DAV:   7    -0.128921679715E+02    0.35933E-01   -0.65646E-01  3376   0.886E+00    0.356E+00
DAV:   8    -0.128931530884E+02   -0.98512E-03   -0.54414E-02  3272   0.176E+00    0.692E-01
DAV:   9    -0.128928582689E+02    0.29482E-03   -0.43812E-03  3280   0.116E+00    0.101E-01
DAV:  10    -0.128930230296E+02   -0.16476E-03   -0.12684E-03  3008   0.273E-01    0.628E-02
DAV:  11    -0.128930998875E+02   -0.76858E-04   -0.15827E-04  3440   0.109E-01    0.202E-02
DAV:  12    -0.128931068309E+02   -0.69434E-05   -0.43929E-05  3320   0.672E-02    0.142E-02
DAV:  13    -0.128931071162E+02   -0.28528E-06   -0.81346E-06  3336   0.156E-02
   1 F= -.12893107E+02 E0= -.12892095E+02  d E =-.202411E-02
 Found    12 degrees of freedom:
 Adding 6 more for cell shape distortion
       N       E                     dE             d eps       ncg     rms          rms(c)
DAV:   1    -0.131416874730E+02   -0.24858E+00   -0.62400E+00  3200   0.306E+01    0.393E+00
DAV:   2    -0.129384538323E+02    0.20323E+00   -0.86769E-01  3224   0.142E+01    0.186E+00
DAV:   3    -0.128910712431E+02    0.47383E-01   -0.59524E-02  3232   0.238E+00    0.832E-01
DAV:   4    -0.128796244855E+02    0.11447E-01   -0.13669E-02  3640   0.133E+00    0.396E-01
DAV:   5    -0.128786889460E+02    0.93554E-03   -0.26433E-03  3168   0.443E-01    0.106E-01
DAV:   6    -0.128786401413E+02    0.48805E-04   -0.35203E-04  3376   0.156E-01    0.376E-02
DAV:   7    -0.128786413204E+02   -0.11791E-05   -0.23497E-05  3344   0.577E-02    0.207E-02
DAV:   8    -0.128786429998E+02   -0.16794E-05   -0.99574E-06  3440   0.185E-02    0.611E-03
DAV:   9    -0.128786429097E+02    0.90170E-07   -0.45013E-06  2352   0.841E-03
   2 F= -.12878643E+02 E0= -.12878176E+02  d E =-.933208E-03
       N       E                     dE             d eps       ncg     rms          rms(c)
DAV:   1    -0.129556354460E+02   -0.76992E-01   -0.15002E+00  3168   0.142E+01    0.201E+00
DAV:   2    -0.129041906173E+02    0.51445E-01   -0.22794E-01  3240   0.881E+00    0.933E-01
DAV:   3    -0.128925730746E+02    0.11618E-01   -0.16994E-02  3448   0.182E+00    0.427E-01
DAV:   4    -0.128897148717E+02    0.28582E-02   -0.48557E-03  3552   0.771E-01    0.235E-01
DAV:   5    -0.128894917811E+02    0.22309E-03   -0.65561E-04  3488   0.253E-01    0.793E-02
DAV:   6    -0.128894650359E+02    0.26745E-04   -0.20140E-04  3360   0.161E-01    0.227E-02
DAV:   7    -0.128894637045E+02    0.13314E-05   -0.17728E-05  3168   0.727E-02    0.797E-03
DAV:   8    -0.128894637473E+02   -0.42839E-07   -0.45146E-06  3128   0.152E-02
   3 F= -.12889464E+02 E0= -.12888799E+02  d E =-.133042E-02
       N       E                     dE             d eps       ncg     rms          rms(c)
DAV:   1    -0.131600289421E+02   -0.27057E+00   -0.61713E+00  3208   0.287E+01    0.416E+00
DAV:   2    -0.129488247981E+02    0.21120E+00   -0.98845E-01  3192   0.205E+01    0.194E+00
DAV:   3    -0.129022911122E+02    0.46534E-01   -0.84786E-02  3368   0.445E+00    0.895E-01
DAV:   4    -0.128903020601E+02    0.11989E-01   -0.25420E-02  3368   0.166E+00    0.531E-01
DAV:   5    -0.128892936874E+02    0.10084E-02   -0.25162E-03  3512   0.563E-01    0.222E-01
DAV:   6    -0.128890642985E+02    0.22939E-03   -0.11845E-03  3272   0.376E-01    0.513E-02
DAV:   7    -0.128890559362E+02    0.83623E-05   -0.11327E-04  3272   0.186E-01    0.176E-02
DAV:   8    -0.128890561379E+02   -0.20169E-06   -0.19979E-05  3384   0.434E-02    0.619E-03
DAV:   9    -0.128890557553E+02    0.38263E-06   -0.20946E-06  2112   0.143E-02
   4 F= -.12889056E+02 E0= -.12888313E+02  d E =-.148643E-02
       N       E                     dE             d eps       ncg     rms          rms(c)
DAV:   1    -0.129452752901E+02   -0.56219E-01   -0.16189E+00  3216   0.152E+01    0.210E+00
DAV:   2    -0.128906051931E+02    0.54670E-01   -0.24493E-01  3136   0.959E+00    0.992E-01
DAV:   3    -0.128778368417E+02    0.12768E-01   -0.18621E-02  3488   0.196E+00    0.448E-01
DAV:   4    -0.128746109795E+02    0.32259E-02   -0.55900E-03  3592   0.846E-01    0.251E-01
DAV:   5    -0.128743710708E+02    0.23991E-03   -0.68258E-04  3624   0.256E-01    0.940E-02
DAV:   6    -0.128743268346E+02    0.44236E-04   -0.22016E-04  3312   0.164E-01    0.245E-02
DAV:   7    -0.128743254920E+02    0.13426E-05   -0.17935E-05  3192   0.771E-02    0.886E-03
DAV:   8    -0.128743253617E+02    0.13025E-06   -0.41451E-06  3048   0.164E-02
   5 F= -.12874325E+02 E0= -.12873606E+02  d E =-.143930E-02
       N       E                     dE             d eps       ncg     rms          rms(c)
DAV:   1    -0.137434032694E+02   -0.86908E+00   -0.16502E+01  3248   0.606E+01    0.704E+00
DAV:   2    -0.130387490283E+02    0.70465E+00   -0.25022E+00  3176   0.247E+01    0.314E+00
DAV:   3    -0.129111512178E+02    0.12760E+00   -0.19279E-01  3200   0.345E+00    0.142E+00
DAV:   4    -0.128802012673E+02    0.30950E-01   -0.25196E-02  3744   0.174E+00    0.674E-01
DAV:   5    -0.128765683705E+02    0.36329E-02   -0.63281E-03  3008   0.704E-01    0.154E-01
DAV:   6    -0.128763915529E+02    0.17682E-03   -0.54372E-04  3528   0.227E-01    0.617E-02
DAV:   7    -0.128764043552E+02   -0.12802E-04   -0.13035E-04  3072   0.933E-02    0.532E-02
DAV:   8    -0.128764082442E+02   -0.38889E-05   -0.10488E-05  3440   0.379E-02    0.219E-02
DAV:   9    -0.128764092667E+02   -0.10225E-05   -0.90671E-06  2960   0.149E-02    0.771E-03
DAV:  10    -0.128764089517E+02    0.31504E-06   -0.20338E-06  2112   0.205E-02
   6 F= -.12876409E+02 E0= -.12875516E+02  d E =-.178568E-02
       N       E                     dE             d eps       ncg     rms          rms(c)
DAV:   1    -0.129554715837E+02   -0.79062E-01   -0.14993E+00  3200   0.142E+01    0.201E+00
DAV:   2    -0.129039150661E+02    0.51557E-01   -0.22830E-01  3272   0.883E+00    0.934E-01
DAV:   3    -0.128923308228E+02    0.11584E-01   -0.17273E-02  3440   0.185E+00    0.430E-01
DAV:   4    -0.128894111970E+02    0.29196E-02   -0.49026E-03  3544   0.778E-01    0.237E-01
DAV:   5    -0.128891762816E+02    0.23492E-03   -0.68021E-04  3408   0.261E-01    0.784E-02
DAV:   6    -0.128891516685E+02    0.24613E-04   -0.22275E-04  3296   0.170E-01    0.230E-02
DAV:   7    -0.128891501697E+02    0.14988E-05   -0.19815E-05  3232   0.786E-02    0.805E-03
DAV:   8    -0.128891500807E+02    0.89070E-07   -0.41069E-06  3016   0.203E-02
   7 F= -.12889150E+02 E0= -.12888323E+02  d E =-.165429E-02
       N       E                     dE             d eps       ncg     rms          rms(c)
DAV:   1    -0.131607816517E+02   -0.27163E+00   -0.61648E+00  3200   0.287E+01    0.417E+00
DAV:   2    -0.129490941420E+02    0.21169E+00   -0.98109E-01  3256   0.206E+01    0.195E+00
DAV:   3    -0.129026643641E+02    0.46430E-01   -0.85035E-02  3384   0.447E+00    0.895E-01
DAV:   4    -0.128908499578E+02    0.11814E-01   -0.25213E-02  3472   0.165E+00    0.533E-01
DAV:   5    -0.128897927100E+02    0.10572E-02   -0.25381E-03  3472   0.580E-01    0.213E-01
DAV:   6    -0.128895802754E+02    0.21243E-03   -0.11920E-03  3384   0.379E-01    0.500E-02
DAV:   7    -0.128895720953E+02    0.81801E-05   -0.11326E-04  3224   0.179E-01    0.185E-02
DAV:   8    -0.128895725112E+02   -0.41589E-06   -0.23320E-05  3456   0.341E-02    0.687E-03
DAV:   9    -0.128895716615E+02    0.84963E-06   -0.39207E-06  2304   0.199E-02
   8 F= -.12889572E+02 E0= -.12889036E+02  d E =-.107077E-02
       N       E                     dE             d eps       ncg     rms          rms(c)
DAV:   1    -0.129473796647E+02   -0.57807E-01   -0.16174E+00  3192   0.152E+01    0.210E+00
DAV:   2    -0.128930383648E+02    0.54341E-01   -0.24484E-01  3248   0.958E+00    0.990E-01
DAV:   3    -0.128804320184E+02    0.12606E-01   -0.18557E-02  3488   0.195E+00    0.448E-01
DAV:   4    -0.128772464157E+02    0.31856E-02   -0.53754E-03  3488   0.837E-01    0.253E-01
DAV:   5    -0.128769980641E+02    0.24835E-03   -0.70320E-04  3416   0.264E-01    0.924E-02
DAV:   6    -0.128769579676E+02    0.40096E-04   -0.23470E-04  3392   0.171E-01    0.245E-02
DAV:   7    -0.128769564060E+02    0.15617E-05   -0.19522E-05  3208   0.804E-02    0.896E-03
DAV:   8    -0.128769562933E+02    0.11266E-06   -0.45169E-06  3096   0.167E-02
   9 F= -.12876956E+02 E0= -.12876726E+02  d E =-.460703E-03
       N       E                     dE             d eps       ncg     rms          rms(c)
DAV:   1    -0.137697329727E+02   -0.89278E+00   -0.16733E+01  3208   0.617E+01    0.709E+00
DAV:   2    -0.130352438204E+02    0.73449E+00   -0.26213E+00  3176   0.257E+01    0.316E+00
DAV:   3    -0.129043671337E+02    0.13088E+00   -0.20472E-01  3216   0.339E+00    0.146E+00
DAV:   4    -0.128706983148E+02    0.33669E-01   -0.24592E-02  3664   0.163E+00    0.685E-01
DAV:   5    -0.128671456685E+02    0.35526E-02   -0.64151E-03  3328   0.755E-01    0.883E-02
DAV:   6    -0.128671123873E+02    0.33281E-04   -0.93899E-04  3360   0.225E-01    0.566E-02
DAV:   7    -0.128671124178E+02   -0.30432E-07   -0.70375E-05  3464   0.569E-02    0.437E-02
DAV:   8    -0.128671159327E+02   -0.35149E-05   -0.18658E-05  3512   0.494E-02    0.119E-02
DAV:   9    -0.128671159513E+02   -0.18579E-07   -0.79254E-06  3056   0.331E-02
  10 F= -.12867116E+02 E0= -.12866125E+02  d E =-.198194E-02
       N       E                     dE             d eps       ncg     rms          rms(c)
DAV:   1    -0.129550716007E+02   -0.87956E-01   -0.14512E+00  3200   0.145E+01    0.202E+00
DAV:   2    -0.129007619742E+02    0.54310E-01   -0.23813E-01  3240   0.948E+00    0.932E-01
DAV:   3    -0.128896555798E+02    0.11106E-01   -0.18288E-02  3544   0.175E+00    0.445E-01
DAV:   4    -0.128865607772E+02    0.30948E-02   -0.42993E-03  3512   0.736E-01    0.238E-01
DAV:   5    -0.128863137850E+02    0.24699E-03   -0.81111E-04  4016   0.343E-01    0.395E-02
DAV:   6    -0.128862942528E+02    0.19532E-04   -0.28086E-04  3384   0.230E-01    0.175E-02
DAV:   7    -0.128862936793E+02    0.57353E-06   -0.26409E-05  3448   0.535E-02    0.995E-03
DAV:   8    -0.128862939777E+02   -0.29843E-06   -0.44837E-06  3200   0.129E-02
  11 F= -.12886294E+02 E0= -.12885314E+02  d E =-.196062E-02
       N       E                     dE             d eps       ncg     rms          rms(c)
DAV:   1    -0.131791620755E+02   -0.29287E+00   -0.59848E+00  3176   0.293E+01    0.425E+00
DAV:   2    -0.129492403851E+02    0.22992E+00   -0.10649E+00  3208   0.230E+01    0.195E+00
DAV:   3    -0.129027953275E+02    0.46445E-01   -0.97099E-02  3296   0.472E+00    0.949E-01
DAV:   4    -0.128891485679E+02    0.13647E-01   -0.28352E-02  3448   0.170E+00    0.538E-01
DAV:   5    -0.128880251513E+02    0.11234E-02   -0.38046E-03  4048   0.860E-01    0.957E-02
DAV:   6    -0.128878890879E+02    0.13606E-03   -0.15561E-03  3424   0.557E-01    0.430E-02
DAV:   7    -0.128878853522E+02    0.37358E-05   -0.16192E-04  3304   0.994E-02    0.228E-02
DAV:   8    -0.128878864728E+02   -0.11206E-05   -0.10018E-05  3136   0.347E-02    0.347E-03
DAV:   9    -0.128878864240E+02    0.48784E-07   -0.58349E-07  1912   0.125E-02
  12 F= -.12887886E+02 E0= -.12886725E+02  d E =-.232298E-02
       N       E                     dE             d eps       ncg     rms          rms(c)
DAV:   1    -0.129459933725E+02   -0.58107E-01   -0.15737E+00  3176   0.155E+01    0.216E+00
DAV:   2    -0.128857061519E+02    0.60287E-01   -0.27516E-01  3264   0.108E+01    0.995E-01
DAV:   3    -0.128734723544E+02    0.12234E-01   -0.21956E-02  3512   0.219E+00    0.481E-01
DAV:   4    -0.128697677727E+02    0.37046E-02   -0.60851E-03  3640   0.872E-01    0.259E-01
DAV:   5    -0.128695179649E+02    0.24981E-03   -0.97707E-04  3952   0.379E-01    0.479E-02
DAV:   6    -0.128694839378E+02    0.34027E-04   -0.35550E-04  3384   0.267E-01    0.197E-02
DAV:   7    -0.128694834859E+02    0.45190E-06   -0.32159E-05  3440   0.589E-02    0.107E-02
DAV:   8    -0.128694836566E+02   -0.17074E-06   -0.53290E-06  3264   0.121E-02
  13 F= -.12869484E+02 E0= -.12868248E+02  d E =-.247103E-02
       N       E                     dE             d eps       ncg     rms          rms(c)
DAV:   1    -0.132373055870E+02   -0.36782E+00   -0.87515E+00  3192   0.349E+01    0.448E+00
DAV:   2    -0.129755791954E+02    0.26173E+00   -0.11771E+00  3248   0.169E+01    0.222E+00
DAV:   3    -0.129101768177E+02    0.65402E-01   -0.83308E-02  3488   0.283E+00    0.104E+00
DAV:   4    -0.128915540111E+02    0.18623E-01   -0.19619E-02  3680   0.160E+00    0.424E-01
DAV:   5    -0.128907458917E+02    0.80812E-03   -0.43515E-03  3560   0.618E-01    0.850E-02
DAV:   6    -0.128907337758E+02    0.12116E-04   -0.81503E-04  3464   0.377E-01    0.404E-02
DAV:   7    -0.128907310383E+02    0.27376E-05   -0.59412E-05  3376   0.135E-01    0.194E-02
DAV:   8    -0.128907331482E+02   -0.21099E-05   -0.15434E-05  3152   0.317E-02    0.480E-03
DAV:   9    -0.128907331358E+02    0.12353E-07   -0.93361E-07  2008   0.798E-03
  14 F= -.12890733E+02 E0= -.12890281E+02  d E =-.903597E-03
       N       E                     dE             d eps       ncg     rms          rms(c)
DAV:   1    -0.129068601454E+02   -0.16127E-01   -0.58987E-01  2920   0.533E+00    0.895E-01
DAV:   2    -0.128982835755E+02    0.85766E-02   -0.21715E-02  3368   0.149E+00    0.516E-01
DAV:   3    -0.128929742918E+02    0.53093E-02   -0.40246E-03  3728   0.729E-01    0.126E-01
DAV:   4    -0.128929206351E+02    0.53657E-04   -0.14191E-03  3136   0.268E-01    0.444E-02
DAV:   5    -0.128929117313E+02    0.89038E-05   -0.10547E-04  3352   0.819E-02    0.179E-02
DAV:   6    -0.128929124007E+02   -0.66939E-06   -0.15806E-05  3568   0.317E-02    0.877E-03
DAV:   7    -0.128929123944E+02    0.62696E-08   -0.13830E-06  1992   0.886E-03
  15 F= -.12892912E+02 E0= -.12892229E+02  d E =-.136750E-02
       N       E                     dE             d eps       ncg     rms          rms(c)
DAV:   1    -0.129456154179E+02   -0.52703E-01   -0.23589E+00  2968   0.107E+01    0.178E+00
DAV:   2    -0.129130431563E+02    0.32572E-01   -0.87836E-02  3320   0.284E+00    0.102E+00
DAV:   3    -0.128932894891E+02    0.19754E-01   -0.14876E-02  3840   0.132E+00    0.258E-01
DAV:   4    -0.128929529793E+02    0.33651E-03   -0.47612E-03  3128   0.513E-01    0.874E-02
DAV:   5    -0.128929200496E+02    0.32930E-04   -0.41422E-04  3408   0.159E-01    0.386E-02
DAV:   6    -0.128929215423E+02   -0.14927E-05   -0.78234E-05  3480   0.536E-02    0.167E-02
DAV:   7    -0.128929214211E+02    0.12115E-06   -0.14654E-05  3432   0.183E-02    0.122E-02
DAV:   8    -0.128929213942E+02    0.26972E-07   -0.13426E-06  2096   0.102E-02
  16 F= -.12892921E+02 E0= -.12892237E+02  d E =-.136823E-02
       N       E                     dE             d eps       ncg     rms          rms(c)
DAV:   1    -0.129046481993E+02   -0.11727E-01   -0.58957E-01  2960   0.533E+00    0.894E-01
DAV:   2    -0.128961267676E+02    0.85214E-02   -0.21761E-02  3344   0.149E+00    0.516E-01
DAV:   3    -0.128908227479E+02    0.53040E-02   -0.40236E-03  3808   0.720E-01    0.126E-01
DAV:   4    -0.128907592679E+02    0.63480E-04   -0.13869E-03  3104   0.262E-01    0.435E-02
DAV:   5    -0.128907513329E+02    0.79350E-05   -0.10653E-04  3416   0.764E-02    0.175E-02
DAV:   6    -0.128907520779E+02   -0.74504E-06   -0.13144E-05  3256   0.215E-02    0.875E-03
DAV:   7    -0.128907521313E+02   -0.53376E-07   -0.10765E-06  2024   0.705E-03
  17 F= -.12890752E+02 E0= -.12890300E+02  d E =-.903618E-03
       N       E                     dE             d eps       ncg     rms          rms(c)
DAV:   1    -0.130071064163E+02   -0.11635E+00   -0.49463E+00  2984   0.154E+01    0.254E+00
DAV:   2    -0.129335203794E+02    0.73586E-01   -0.19793E-01  3368   0.408E+00    0.147E+00
DAV:   3    -0.128882082554E+02    0.45312E-01   -0.43085E-02  3512   0.200E+00    0.319E-01
DAV:   4    -0.128881236301E+02    0.84625E-04   -0.10574E-02  3040   0.778E-01    0.136E-01
DAV:   5    -0.128880241524E+02    0.99478E-04   -0.66798E-04  3488   0.209E-01    0.585E-02
DAV:   6    -0.128880209111E+02    0.32413E-05   -0.13780E-04  3688   0.950E-02    0.210E-02
DAV:   7    -0.128880210916E+02   -0.18041E-06   -0.21553E-05  3488   0.295E-02    0.168E-02
DAV:   8    -0.128880209269E+02    0.16468E-06   -0.53382E-06  3024   0.128E-02
  18 F= -.12888021E+02 E0= -.12886891E+02  d E =-.225960E-02
       N       E                     dE             d eps       ncg     rms          rms(c)
DAV:   1    -0.129082284277E+02   -0.20207E-01   -0.64974E-01  3024   0.546E+00    0.906E-01
DAV:   2    -0.128980725796E+02    0.10156E-01   -0.26377E-02  3352   0.163E+00    0.524E-01
DAV:   3    -0.128917940848E+02    0.62785E-02   -0.69393E-03  3656   0.848E-01    0.940E-02
DAV:   4    -0.128918653459E+02   -0.71261E-04   -0.15790E-03  2976   0.284E-01    0.464E-02
DAV:   5    -0.128918519352E+02    0.13411E-04   -0.63462E-05  3640   0.656E-02    0.141E-02
DAV:   6    -0.128918525032E+02   -0.56796E-06   -0.20675E-05  3496   0.372E-02    0.835E-03
DAV:   7    -0.128918524522E+02    0.50964E-07   -0.33542E-06  2416   0.971E-03
  19 F= -.12891852E+02 E0= -.12890787E+02  d E =-.213002E-02
       N       E                     dE             d eps       ncg     rms          rms(c)
DAV:   1    -0.129576380931E+02   -0.65786E-01   -0.26124E+00  3024   0.109E+01    0.181E+00
DAV:   2    -0.129167610294E+02    0.40877E-01   -0.10674E-01  3328   0.307E+00    0.105E+00
DAV:   3    -0.128916185022E+02    0.25143E-01   -0.28591E-02  3776   0.164E+00    0.182E-01
DAV:   4    -0.128918969709E+02   -0.27847E-03   -0.59568E-03  2904   0.566E-01    0.938E-02
DAV:   5    -0.128918398957E+02    0.57075E-04   -0.22742E-04  3584   0.112E-01    0.279E-02
DAV:   6    -0.128918426815E+02   -0.27859E-05   -0.45179E-05  3048   0.463E-02    0.154E-02
DAV:   7    -0.128918429150E+02   -0.23348E-06   -0.29797E-06  3232   0.192E-02
  20 F= -.12891843E+02 E0= -.12890781E+02  d E =-.212421E-02
       N       E                     dE             d eps       ncg     rms          rms(c)
DAV:   1    -0.129046110400E+02   -0.12768E-01   -0.65341E-01  3072   0.546E+00    0.903E-01
DAV:   2    -0.128942126028E+02    0.10398E-01   -0.26314E-02  3328   0.162E+00    0.524E-01
DAV:   3    -0.128878867161E+02    0.63259E-02   -0.74616E-03  3680   0.863E-01    0.877E-02
DAV:   4    -0.128879728684E+02   -0.86152E-04   -0.15717E-03  2896   0.286E-01    0.475E-02
DAV:   5    -0.128879602169E+02    0.12651E-04   -0.84787E-05  3696   0.565E-02    0.190E-02
DAV:   6    -0.128879577977E+02    0.24192E-05   -0.46185E-05  3400   0.312E-02    0.727E-03
DAV:   7    -0.128879580531E+02   -0.25541E-06   -0.51346E-06  3064   0.124E-02
  21 F= -.12887958E+02 E0= -.12886848E+02  d E =-.221973E-02
       N       E                     dE             d eps       ncg     rms          rms(c)
DAV:   1    -0.130199450932E+02   -0.13199E+00   -0.52340E+00  3032   0.155E+01    0.255E+00
DAV:   2    -0.129378368060E+02    0.82108E-01   -0.21505E-01  3328   0.416E+00    0.148E+00
DAV:   3    -0.128875846796E+02    0.50252E-01   -0.58313E-02  3624   0.221E+00    0.258E-01
DAV:   4    -0.128880846998E+02   -0.50002E-03   -0.11419E-02  2984   0.823E-01    0.135E-01
DAV:   5    -0.128879719838E+02    0.11272E-03   -0.47936E-04  3560   0.165E-01    0.508E-02
DAV:   6    -0.128879710549E+02    0.92888E-06   -0.10894E-04  3432   0.724E-02    0.207E-02
DAV:   7    -0.128879713018E+02   -0.24689E-06   -0.24434E-05  3416   0.307E-02    0.153E-02
DAV:   8    -0.128879712989E+02    0.28863E-08   -0.28703E-06  2752   0.950E-03
  22 F= -.12887971E+02 E0= -.12886851E+02  d E =-.224106E-02
       N       E                     dE             d eps       ncg     rms          rms(c)
DAV:   1    -0.129083085517E+02   -0.20337E-01   -0.65172E-01  3064   0.547E+00    0.900E-01
DAV:   2    -0.128980748888E+02    0.10234E-01   -0.26238E-02  3288   0.162E+00    0.524E-01
DAV:   3    -0.128917706229E+02    0.63043E-02   -0.71822E-03  3632   0.862E-01    0.917E-02
DAV:   4    -0.128918556483E+02   -0.85025E-04   -0.16130E-03  2968   0.292E-01    0.461E-02
DAV:   5    -0.128918423005E+02    0.13348E-04   -0.56477E-05  3520   0.567E-02    0.143E-02
DAV:   6    -0.128918429091E+02   -0.60860E-06   -0.12286E-05  3400   0.267E-02    0.790E-03
DAV:   7    -0.128918429268E+02   -0.17695E-07   -0.16843E-06  1984   0.874E-03
  23 F= -.12891843E+02 E0= -.12890781E+02  d E =-.212480E-02
       N       E                     dE             d eps       ncg     rms          rms(c)
DAV:   1    -0.129575419587E+02   -0.65699E-01   -0.26105E+00  3056   0.109E+01    0.180E+00
DAV:   2    -0.129167195822E+02    0.40822E-01   -0.10547E-01  3328   0.304E+00    0.105E+00
DAV:   3    -0.128916114338E+02    0.25108E-01   -0.28562E-02  3600   0.163E+00    0.184E-01
DAV:   4    -0.128918969416E+02   -0.28551E-03   -0.59987E-03  3008   0.574E-01    0.927E-02
DAV:   5    -0.128918455665E+02    0.51375E-04   -0.23368E-04  3536   0.123E-01    0.323E-02
DAV:   6    -0.128918464513E+02   -0.88479E-06   -0.50345E-05  3704   0.606E-02    0.149E-02
DAV:   7    -0.128918466283E+02   -0.17696E-06   -0.78692E-06  3368   0.181E-02
  24 F= -.12891847E+02 E0= -.12890784E+02  d E =-.212557E-02
       N       E                     dE             d eps       ncg     rms          rms(c)
DAV:   1    -0.129045283926E+02   -0.12682E-01   -0.65161E-01  3048   0.546E+00    0.901E-01
DAV:   2    -0.128942189197E+02    0.10309E-01   -0.26226E-02  3320   0.162E+00    0.524E-01
DAV:   3    -0.128879050919E+02    0.63138E-02   -0.72136E-03  3592   0.864E-01    0.915E-02
DAV:   4    -0.128879918440E+02   -0.86752E-04   -0.16265E-03  3000   0.293E-01    0.464E-02
DAV:   5    -0.128879784333E+02    0.13411E-04   -0.62413E-05  3672   0.604E-02    0.149E-02
DAV:   6    -0.128879787081E+02   -0.27473E-06   -0.22808E-05  3424   0.296E-02    0.820E-03
DAV:   7    -0.128879786729E+02    0.35157E-07   -0.39478E-06  2824   0.952E-03
  25 F= -.12887979E+02 E0= -.12886858E+02  d E =-.224100E-02
       N       E                     dE             d eps       ncg     rms          rms(c)
DAV:   1    -0.129501395320E+02   -0.62161E-01   -0.60387E+00  3152   0.144E+01    0.181E+00
DAV:   2    -0.129172703592E+02    0.32869E-01   -0.18508E-01  3256   0.384E+00    0.105E+00
DAV:   3    -0.128924984597E+02    0.24772E-01   -0.30489E-02  3680   0.173E+00    0.192E-01
DAV:   4    -0.128927409931E+02   -0.24253E-03   -0.60744E-03  2984   0.584E-01    0.935E-02
DAV:   5    -0.128926924248E+02    0.48568E-04   -0.25864E-04  3504   0.130E-01    0.355E-02
DAV:   6    -0.128926926354E+02   -0.21064E-06   -0.50765E-05  3640   0.619E-02    0.141E-02
DAV:   7    -0.128926927934E+02   -0.15803E-06   -0.88241E-06  3416   0.196E-02
  26 F= -.12892693E+02 E0= -.12891681E+02  d E =-.202371E-02
       N       E                     dE             d eps       ncg     rms          rms(c)
DAV:   1    -0.128919511628E+02    0.74147E-03   -0.86096E-01  2768   0.328E+00    0.313E-02
DAV:   2    -0.128929946790E+02   -0.10435E-02   -0.10433E-02  3168   0.405E-01    0.792E-03
DAV:   3    -0.128930198116E+02   -0.25133E-04   -0.23869E-04  3352   0.576E-02    0.730E-03
DAV:   4    -0.128930206557E+02   -0.84408E-06   -0.85623E-06  2816   0.124E-02
  27 F= -.12893021E+02 E0= -.12892009E+02  d E =-.202399E-02
       N       E                     dE             d eps       ncg     rms          rms(c)
DAV:   1    -0.128885542718E+02    0.44655E-02   -0.34620E+00  2784   0.666E+00    0.619E-02
DAV:   2    -0.128929131502E+02   -0.43589E-02   -0.43605E-02  3160   0.828E-01    0.161E-02
DAV:   3    -0.128930169476E+02   -0.10380E-03   -0.98583E-04  3360   0.118E-01    0.153E-02
DAV:   4    -0.128930200543E+02   -0.31067E-05   -0.34019E-05  2992   0.258E-02    0.957E-03
DAV:   5    -0.128930208499E+02   -0.79560E-06   -0.33706E-06  2656   0.127E-02
  28 F= -.12893021E+02 E0= -.12892009E+02  d E =-.202402E-02
       N       E                     dE             d eps       ncg     rms          rms(c)
DAV:   1    -0.128916250652E+02    0.13950E-02   -0.86094E-01  2768   0.328E+00    0.314E-02
DAV:   2    -0.128926665964E+02   -0.10415E-02   -0.10413E-02  3184   0.403E-01    0.777E-03
DAV:   3    -0.128926917416E+02   -0.25145E-04   -0.23716E-04  3312   0.568E-02    0.713E-03
DAV:   4    -0.128926926344E+02   -0.89285E-06   -0.82049E-06  2800   0.119E-02
  29 F= -.12892693E+02 E0= -.12891681E+02  d E =-.202362E-02
       N       E                     dE             d eps       ncg     rms          rms(c)
DAV:   1    -0.128833667641E+02    0.93250E-02   -0.69686E+00  2744   0.960E+00    0.888E-02
DAV:   2    -0.128924791671E+02   -0.91124E-02   -0.91701E-02  3152   0.121E+00    0.224E-02
DAV:   3    -0.128926897853E+02   -0.21062E-03   -0.20357E-03  3344   0.175E-01    0.216E-02
DAV:   4    -0.128926955566E+02   -0.57713E-05   -0.70133E-05  2872   0.385E-02    0.137E-02
DAV:   5    -0.128926971234E+02   -0.15668E-05   -0.74467E-06  3136   0.221E-02    0.255E-03
DAV:   6    -0.128926970635E+02    0.59907E-07   -0.71363E-07  1808   0.752E-03
  30 F= -.12892697E+02 E0= -.12891685E+02  d E =-.202363E-02
       N       E                     dE             d eps       ncg     rms          rms(c)
DAV:   1    -0.128919659651E+02    0.73116E-03   -0.86097E-01  2744   0.328E+00    0.300E-02
DAV:   2    -0.128929976583E+02   -0.10317E-02   -0.10358E-02  3152   0.406E-01    0.765E-03
DAV:   3    -0.128930219293E+02   -0.24271E-04   -0.23416E-04  3224   0.578E-02    0.723E-03
DAV:   4    -0.128930227570E+02   -0.82770E-06   -0.81911E-06  2704   0.121E-02
  31 F= -.12893023E+02 E0= -.12892011E+02  d E =-.202399E-02
       N       E                     dE             d eps       ncg     rms          rms(c)
DAV:   1    -0.128886025590E+02    0.44194E-02   -0.34622E+00  2744   0.666E+00    0.612E-02
DAV:   2    -0.128929177516E+02   -0.43152E-02   -0.43321E-02  3160   0.832E-01    0.156E-02
DAV:   3    -0.128930188853E+02   -0.10113E-03   -0.97216E-04  3288   0.119E-01    0.147E-02
DAV:   4    -0.128930221648E+02   -0.32794E-05   -0.33881E-05  2880   0.257E-02    0.907E-03
DAV:   5    -0.128930229994E+02   -0.83467E-06   -0.29065E-06  2616   0.123E-02
  32 F= -.12893023E+02 E0= -.12892011E+02  d E =-.202402E-02
       N       E                     dE             d eps       ncg     rms          rms(c)
DAV:   1    -0.128916396193E+02    0.13825E-02   -0.86099E-01  2744   0.328E+00    0.307E-02
DAV:   2    -0.128926715344E+02   -0.10319E-02   -0.10358E-02  3192   0.405E-01    0.765E-03
DAV:   3    -0.128926960201E+02   -0.24486E-04   -0.23423E-04  3200   0.578E-02    0.702E-03
DAV:   4    -0.128926969467E+02   -0.92665E-06   -0.82043E-06  2752   0.121E-02
  33 F= -.12892697E+02 E0= -.12891685E+02  d E =-.202361E-02
       N       E                     dE             d eps       ncg     rms          rms(c)
DAV:   1    -0.128829618409E+02    0.97342E-02   -0.69855E+00  2800   0.988E+00    0.156E-01
DAV:   2    -0.128921353411E+02   -0.91735E-02   -0.10701E-01  3320   0.146E+00    0.117E-01
DAV:   3    -0.128918944931E+02    0.24085E-03   -0.63662E-03  3416   0.382E-01    0.411E-02
DAV:   4    -0.128919174064E+02   -0.22913E-04   -0.27096E-04  3016   0.110E-01    0.167E-02
DAV:   5    -0.128919179622E+02   -0.55575E-06   -0.11118E-05  3688   0.196E-02    0.106E-02
DAV:   6    -0.128919190603E+02   -0.10982E-05   -0.29594E-06  2824   0.144E-02    0.723E-03
DAV:   7    -0.128919194078E+02   -0.34741E-06   -0.72457E-07  1680   0.580E-03
  34 F= -.12891919E+02 E0= -.12890906E+02  d E =-.202617E-02
       N       E                     dE             d eps       ncg     rms          rms(c)
DAV:   1    -0.128918137144E+02    0.10535E-03   -0.86475E-01  2792   0.341E+00    0.728E-02
DAV:   2    -0.128929152429E+02   -0.11015E-02   -0.14918E-02  3376   0.529E-01    0.618E-02
DAV:   3    -0.128928181801E+02    0.97063E-04   -0.13125E-03  3312   0.154E-01    0.193E-02
DAV:   4    -0.128928233261E+02   -0.51460E-05   -0.56430E-05  3024   0.487E-02    0.660E-03
DAV:   5    -0.128928233787E+02   -0.52628E-07   -0.19837E-06  2704   0.789E-03
  35 F= -.12892823E+02 E0= -.12891811E+02  d E =-.202465E-02
       N       E                     dE             d eps       ncg     rms          rms(c)
DAV:   1    -0.128884712708E+02    0.43521E-02   -0.34754E+00  2792   0.693E+00    0.147E-01
DAV:   2    -0.128931739563E+02   -0.47027E-02   -0.62526E-02  3376   0.108E+00    0.124E-01
DAV:   3    -0.128928012585E+02    0.37270E-03   -0.53257E-03  3312   0.320E-01    0.404E-02
DAV:   4    -0.128928221911E+02   -0.20933E-04   -0.22954E-04  3008   0.988E-02    0.137E-02
DAV:   5    -0.128928226113E+02   -0.42020E-06   -0.86017E-06  3400   0.163E-02
  36 F= -.12892823E+02 E0= -.12891810E+02  d E =-.202457E-02
       N       E                     dE             d eps       ncg     rms          rms(c)
DAV:   1    -0.128909020252E+02    0.19202E-02   -0.86476E-01  2792   0.341E+00    0.739E-02
DAV:   2    -0.128920074769E+02   -0.11055E-02   -0.14868E-02  3400   0.528E-01    0.627E-02
DAV:   3    -0.128919131275E+02    0.94349E-04   -0.12984E-03  3288   0.154E-01    0.220E-02
DAV:   4    -0.128919188177E+02   -0.56902E-05   -0.56753E-05  3032   0.489E-02    0.690E-03
DAV:   5    -0.128919190566E+02   -0.23884E-06   -0.22360E-06  2712   0.815E-03
  37 F= -.12891919E+02 E0= -.12890906E+02  d E =-.202612E-02
       N       E                     dE             d eps       ncg     rms          rms(c)
DAV:   1    -0.128847085910E+02    0.72102E-02   -0.79527E+00  2856   0.161E+01    0.258E-01
DAV:   2    -0.128919841279E+02   -0.72755E-02   -0.88182E-02  3256   0.179E+00    0.122E-01
DAV:   3    -0.128917388044E+02    0.24532E-03   -0.67521E-03  3400   0.409E-01    0.579E-02
DAV:   4    -0.128917608017E+02   -0.21997E-04   -0.33843E-04  3104   0.125E-01    0.315E-02
DAV:   5    -0.128917619790E+02   -0.11773E-05   -0.29015E-05  3768   0.365E-02    0.196E-02
DAV:   6    -0.128917633154E+02   -0.13364E-05   -0.91503E-06  3792   0.250E-02    0.657E-03
DAV:   7    -0.128917634493E+02   -0.13387E-06   -0.85102E-07  1760   0.773E-03
  38 F= -.12891763E+02 E0= -.12890754E+02  d E =-.201933E-02
       N       E                     dE             d eps       ncg     rms          rms(c)
DAV:   1    -0.128923999922E+02   -0.63668E-03   -0.11167E+00  2768   0.516E+00    0.879E-02
DAV:   2    -0.128927998687E+02   -0.39988E-03   -0.38817E-03  3304   0.386E-01    0.264E-02
DAV:   3    -0.128928046989E+02   -0.48302E-05   -0.51919E-05  3272   0.598E-02    0.144E-02
DAV:   4    -0.128928054187E+02   -0.71985E-06   -0.50639E-06  3360   0.267E-02
  39 F= -.12892805E+02 E0= -.12891794E+02  d E =-.202322E-02
       N       E                     dE             d eps       ncg     rms          rms(c)
DAV:   1    -0.128910975247E+02    0.17072E-02   -0.44875E+00  2760   0.104E+01    0.178E-01
DAV:   2    -0.128927777145E+02   -0.16802E-02   -0.16368E-02  3336   0.794E-01    0.531E-02
DAV:   3    -0.128928011497E+02   -0.23435E-04   -0.24054E-04  3192   0.133E-01    0.288E-02
DAV:   4    -0.128928048767E+02   -0.37270E-05   -0.23818E-05  3384   0.586E-02    0.114E-02
DAV:   5    -0.128928055722E+02   -0.69549E-06   -0.45367E-06  3128   0.240E-02
  40 F= -.12892806E+02 E0= -.12891794E+02  d E =-.202294E-02
       N       E                     dE             d eps       ncg     rms          rms(c)
DAV:   1    -0.128913591853E+02    0.14457E-02   -0.11168E+00  2768   0.516E+00    0.886E-02
DAV:   2    -0.128917560019E+02   -0.39682E-03   -0.38326E-03  3360   0.377E-01    0.252E-02
DAV:   3    -0.128917624099E+02   -0.64080E-05   -0.52847E-05  3224   0.487E-02    0.140E-02
DAV:   4    -0.128917635983E+02   -0.11884E-05   -0.43226E-06  3392   0.227E-02    0.334E-03
DAV:   5    -0.128917636173E+02   -0.19002E-07   -0.88954E-07  1992   0.109E-02
  41 F= -.12891764E+02 E0= -.12890754E+02  d E =-.201933E-02
       N       E                     dE             d eps       ncg     rms          rms(c)
DAV:   1    -0.128881161695E+02    0.36474E-02   -0.90295E+00  2760   0.149E+01    0.252E-01
DAV:   2    -0.128916932884E+02   -0.35771E-02   -0.35373E-02  3288   0.117E+00    0.770E-02
DAV:   3    -0.128917380423E+02   -0.44754E-04   -0.50777E-04  3232   0.196E-01    0.415E-02
DAV:   4    -0.128917445597E+02   -0.65174E-05   -0.48687E-05  3400   0.819E-02    0.170E-02
DAV:   5    -0.128917459339E+02   -0.13742E-05   -0.92597E-06  3288   0.338E-02    0.272E-03
DAV:   6    -0.128917459886E+02   -0.54740E-07   -0.11525E-06  2096   0.680E-03
  42 F= -.12891746E+02 E0= -.12890736E+02  d E =-.201927E-02
       N       E                     dE             d eps       ncg     rms          rms(c)
DAV:   1    -0.128924076609E+02   -0.66173E-03   -0.11168E+00  2768   0.516E+00    0.871E-02
DAV:   2    -0.128927971728E+02   -0.38951E-03   -0.38190E-03  3248   0.381E-01    0.263E-02
DAV:   3    -0.128928025021E+02   -0.53293E-05   -0.55750E-05  3192   0.576E-02    0.141E-02
DAV:   4    -0.128928032417E+02   -0.73964E-06   -0.56508E-06  3360   0.292E-02
  43 F= -.12892803E+02 E0= -.12891792E+02  d E =-.202329E-02
       N       E                     dE             d eps       ncg     rms          rms(c)
DAV:   1    -0.128911174993E+02    0.16850E-02   -0.44875E+00  2744   0.104E+01    0.177E-01
DAV:   2    -0.128927759247E+02   -0.16584E-02   -0.16290E-02  3296   0.790E-01    0.528E-02
DAV:   3    -0.128927992318E+02   -0.23307E-04   -0.23703E-04  3176   0.125E-01    0.286E-02
DAV:   4    -0.128928029200E+02   -0.36882E-05   -0.24126E-05  3408   0.582E-02    0.112E-02
DAV:   5    -0.128928034632E+02   -0.54321E-06   -0.61165E-06  3288   0.243E-02
  44 F= -.12892803E+02 E0= -.12891792E+02  d E =-.202298E-02
       N       E                     dE             d eps       ncg     rms          rms(c)
DAV:   1    -0.128913479678E+02    0.14550E-02   -0.11168E+00  2744   0.516E+00    0.885E-02
DAV:   2    -0.128917388743E+02   -0.39091E-03   -0.38159E-03  3280   0.377E-01    0.254E-02
DAV:   3    -0.128917451811E+02   -0.63068E-05   -0.52441E-05  3232   0.473E-02    0.139E-02
DAV:   4    -0.128917463424E+02   -0.11613E-05   -0.38438E-06  3280   0.211E-02    0.284E-03
DAV:   5    -0.128917463534E+02   -0.11007E-07   -0.60954E-07  1888   0.107E-02
  45 F= -.12891746E+02 E0= -.12890737E+02  d E =-.201932E-02
       N       E                     dE             d eps       ncg     rms          rms(c)
DAV:   1    -0.128878755079E+02    0.38708E-02   -0.90345E+00  2760   0.149E+01    0.389E-01
DAV:   2    -0.128917766093E+02   -0.39011E-02   -0.40029E-02  3320   0.129E+00    0.882E-02
DAV:   3    -0.128917815121E+02   -0.49028E-05   -0.16058E-03  3440   0.297E-01    0.665E-02
DAV:   4    -0.128917697988E+02    0.11713E-04   -0.31475E-04  3232   0.843E-02    0.314E-02
DAV:   5    -0.128917699203E+02   -0.12143E-06   -0.87788E-05  3408   0.488E-02    0.177E-02
DAV:   6    -0.128917709512E+02   -0.10310E-05   -0.55378E-06  3056   0.238E-02    0.606E-03
DAV:   7    -0.128917709470E+02    0.42787E-08   -0.94639E-07  1968   0.101E-02
  46 F= -.12891771E+02 E0= -.12890757E+02  d E =-.202876E-02
       N       E                     dE             d eps       ncg     rms          rms(c)
DAV:   1    -0.128924447255E+02   -0.67377E-03   -0.11184E+00  2720   0.516E+00    0.164E-01
DAV:   2    -0.128928847685E+02   -0.44004E-03   -0.46955E-03  3336   0.416E-01    0.325E-02
DAV:   3    -0.128928799093E+02    0.48592E-05   -0.34333E-04  3480   0.952E-02    0.308E-02
DAV:   4    -0.128928745042E+02    0.54051E-05   -0.66543E-05  3296   0.322E-02    0.126E-02
DAV:   5    -0.128928746435E+02   -0.13927E-06   -0.16492E-05  3376   0.221E-02    0.819E-03
DAV:   6    -0.128928747356E+02   -0.92145E-07   -0.63769E-07  1496   0.865E-03
  47 F= -.12892875E+02 E0= -.12891862E+02  d E =-.202515E-02
       N       E                     dE             d eps       ncg     rms          rms(c)
DAV:   1    -0.128910208584E+02    0.18538E-02   -0.44930E+00  2720   0.104E+01    0.331E-01
DAV:   2    -0.128929119864E+02   -0.18911E-02   -0.20145E-02  3336   0.884E-01    0.666E-02
DAV:   3    -0.128928923396E+02    0.19647E-04   -0.13740E-03  3456   0.223E-01    0.604E-02
DAV:   4    -0.128928733052E+02    0.19034E-04   -0.26475E-04  3312   0.677E-02    0.249E-02
DAV:   5    -0.128928737581E+02   -0.45298E-06   -0.65124E-05  3376   0.459E-02    0.165E-02
DAV:   6    -0.128928744202E+02   -0.66209E-06   -0.32977E-06  2944   0.186E-02
  48 F= -.12892874E+02 E0= -.12891862E+02  d E =-.202520E-02
       N       E                     dE             d eps       ncg     rms          rms(c)
DAV:   1    -0.128913436464E+02    0.15301E-02   -0.11182E+00  2720   0.516E+00    0.165E-01
DAV:   2    -0.128917794789E+02   -0.43583E-03   -0.46389E-03  3336   0.408E-01    0.307E-02
DAV:   3    -0.128917752688E+02    0.42101E-05   -0.34578E-04  3480   0.889E-02    0.303E-02
DAV:   4    -0.128917699098E+02    0.53590E-05   -0.66870E-05  3368   0.327E-02    0.124E-02
DAV:   5    -0.128917704287E+02   -0.51891E-06   -0.16811E-05  3304   0.208E-02    0.750E-03
DAV:   6    -0.128917704890E+02   -0.60223E-07   -0.62051E-07  1576   0.765E-03
  49 F= -.12891770E+02 E0= -.12890756E+02  d E =-.202879E-02
       N       E                     dE             d eps       ncg     rms          rms(c)
DAV:   1    -0.128856268941E+02    0.61435E-02   -0.52282E+00  2752   0.117E+01    0.458E-01
DAV:   2    -0.128923241343E+02   -0.66972E-02   -0.69774E-02  3400   0.162E+00    0.141E-01
DAV:   3    -0.128922238321E+02    0.10030E-03   -0.20520E-03  3384   0.287E-01    0.120E-01
DAV:   4    -0.128921764656E+02    0.47366E-04   -0.32041E-04  3256   0.855E-02    0.775E-02
DAV:   5    -0.128921546994E+02    0.21766E-04   -0.27079E-04  3384   0.755E-02    0.214E-02
DAV:   6    -0.128921535670E+02    0.11324E-05   -0.35334E-05  3112   0.374E-02    0.134E-02
DAV:   7    -0.128921525472E+02    0.10198E-05   -0.64728E-06  3416   0.126E-02    0.921E-03
DAV:   8    -0.128921527234E+02   -0.17626E-06   -0.16302E-06  2344   0.668E-03
  50 F= -.12892153E+02 E0= -.12891105E+02  d E =-.209510E-02
       N       E                     dE             d eps       ncg     rms          rms(c)
DAV:   1    -0.128919888765E+02    0.16367E-03   -0.18730E-01  2688   0.168E+00    0.153E-01
DAV:   2    -0.128928358068E+02   -0.84693E-03   -0.87388E-03  3288   0.531E-01    0.474E-02
DAV:   3    -0.128928256331E+02    0.10174E-04   -0.15424E-04  3256   0.821E-02    0.316E-02
DAV:   4    -0.128928160920E+02    0.95411E-05   -0.50777E-05  3360   0.389E-02    0.103E-02
DAV:   5    -0.128928164276E+02   -0.33564E-06   -0.14935E-05  3256   0.200E-02    0.665E-03
DAV:   6    -0.128928159583E+02    0.46930E-06   -0.71048E-07  2008   0.533E-03
  51 F= -.12892816E+02 E0= -.12891794E+02  d E =-.204354E-02
       N       E                     dE             d eps       ncg     rms          rms(c)
DAV:   1    -0.128894883537E+02    0.33281E-02   -0.75030E-01  2688   0.336E+00    0.319E-01
DAV:   2    -0.128928944289E+02   -0.34061E-02   -0.35122E-02  3304   0.106E+00    0.981E-02
DAV:   3    -0.128928525306E+02    0.41898E-04   -0.61574E-04  3264   0.164E-01    0.663E-02
DAV:   4    -0.128928141107E+02    0.38420E-04   -0.20693E-04  3368   0.763E-02    0.216E-02
DAV:   5    -0.128928154924E+02   -0.13817E-05   -0.64985E-05  3280   0.399E-02    0.138E-02
DAV:   6    -0.128928139006E+02    0.15917E-05   -0.28236E-06  3256   0.997E-03    0.869E-03
DAV:   7    -0.128928137500E+02    0.15065E-06   -0.18823E-06  2944   0.711E-03
  52 F= -.12892814E+02 E0= -.12891792E+02  d E =-.204343E-02
       N       E                     dE             d eps       ncg     rms          rms(c)
DAV:   1    -0.128913189719E+02    0.14949E-02   -0.18758E-01  2688   0.168E+00    0.154E-01
DAV:   2    -0.128921684384E+02   -0.84947E-03   -0.87514E-03  3304   0.532E-01    0.482E-02
DAV:   3    -0.128921580008E+02    0.10438E-04   -0.15253E-04  3256   0.816E-02    0.321E-02
DAV:   4    -0.128921487245E+02    0.92764E-05   -0.53371E-05  3536   0.398E-02    0.921E-03
DAV:   5    -0.128921491485E+02   -0.42408E-06   -0.12595E-05  3128   0.205E-02    0.716E-03
DAV:   6    -0.128921485916E+02    0.55689E-06   -0.45441E-07  2120   0.415E-03
  53 F= -.12892149E+02 E0= -.12891101E+02  d E =-.209491E-02
       N       E                     dE             d eps       ncg     rms          rms(c)
DAV:   1    -0.128854747647E+02    0.66744E-02   -0.14998E+00  2688   0.475E+00    0.480E-01
DAV:   2    -0.128922833225E+02   -0.68086E-02   -0.70265E-02  3280   0.150E+00    0.150E-01
DAV:   3    -0.128921930978E+02    0.90225E-04   -0.12268E-03  3232   0.234E-01    0.102E-01
DAV:   4    -0.128921130055E+02    0.80092E-04   -0.41568E-04  3400   0.106E-01    0.399E-02
DAV:   5    -0.128921145601E+02   -0.15546E-05   -0.16722E-04  3360   0.553E-02    0.212E-02
DAV:   6    -0.128921123049E+02    0.22552E-05   -0.96087E-06  3232   0.190E-02    0.132E-02
DAV:   7    -0.128921119328E+02    0.37217E-06   -0.32118E-06  3184   0.949E-03
  54 F= -.12892112E+02 E0= -.12891064E+02  d E =-.209569E-02
       N       E                     dE             d eps       ncg     rms          rms(c)
DAV:   1    -0.128919888349E+02    0.12347E-03   -0.18735E-01  2688   0.168E+00    0.160E-01
DAV:   2    -0.128928381611E+02   -0.84933E-03   -0.87678E-03  3296   0.528E-01    0.506E-02
DAV:   3    -0.128928258115E+02    0.12350E-04   -0.15094E-04  3192   0.825E-02    0.328E-02
DAV:   4    -0.128928151858E+02    0.10626E-04   -0.51526E-05  3384   0.404E-02    0.119E-02
DAV:   5    -0.128928156351E+02   -0.44931E-06   -0.15985E-05  3280   0.199E-02    0.663E-03
DAV:   6    -0.128928153021E+02    0.33302E-06   -0.74409E-07  1904   0.594E-03
  55 F= -.12892815E+02 E0= -.12891794E+02  d E =-.204359E-02
       N       E                     dE             d eps       ncg     rms          rms(c)
DAV:   1    -0.128894523258E+02    0.33633E-02   -0.75067E-01  2688   0.336E+00    0.336E-01
DAV:   2    -0.128928986345E+02   -0.34463E-02   -0.35566E-02  3296   0.107E+00    0.106E-01
DAV:   3    -0.128928501947E+02    0.48440E-04   -0.61291E-04  3200   0.166E-01    0.707E-02
DAV:   4    -0.128928080529E+02    0.42142E-04   -0.21005E-04  3360   0.794E-02    0.259E-02
DAV:   5    -0.128928098363E+02   -0.17834E-05   -0.71219E-05  3296   0.398E-02    0.141E-02
DAV:   6    -0.128928085772E+02    0.12591E-05   -0.33409E-06  3144   0.120E-02    0.880E-03
DAV:   7    -0.128928083876E+02    0.18961E-06   -0.17467E-06  2800   0.747E-03
  56 F= -.12892808E+02 E0= -.12891787E+02  d E =-.204341E-02
       N       E                     dE             d eps       ncg     rms          rms(c)
DAV:   1    -0.128912200519E+02    0.15885E-02   -0.18733E-01  2704   0.168E+00    0.164E-01
DAV:   2    -0.128920880391E+02   -0.86799E-03   -0.89524E-03  3288   0.535E-01    0.517E-02
DAV:   3    -0.128920757121E+02    0.12327E-04   -0.15308E-04  3200   0.820E-02    0.339E-02
DAV:   4    -0.128920654076E+02    0.10304E-04   -0.54707E-05  3416   0.412E-02    0.104E-02
DAV:   5    -0.128920658302E+02   -0.42254E-06   -0.13546E-05  3096   0.207E-02    0.697E-03
DAV:   6    -0.128920654276E+02    0.40253E-06   -0.54159E-07  1928   0.476E-03
  57 F= -.12892065E+02 E0= -.12891018E+02  d E =-.209449E-02
       N       E                     dE             d eps       ncg     rms          rms(c)
DAV:   1    -0.128835202269E+02    0.85456E-02   -0.15068E+00  2688   0.484E+00    0.595E-01
DAV:   2    -0.128909544632E+02   -0.74342E-02   -0.79888E-02  3440   0.160E+00    0.152E-01
DAV:   3    -0.128908847783E+02    0.69685E-04   -0.20018E-03  3200   0.270E-01    0.107E-01
DAV:   4    -0.128908165714E+02    0.68207E-04   -0.50533E-04  3488   0.982E-02    0.583E-02
DAV:   5    -0.128907998081E+02    0.16763E-04   -0.28195E-04  3320   0.655E-02    0.205E-02
DAV:   6    -0.128907996546E+02    0.15356E-06   -0.33030E-05  3144   0.320E-02    0.128E-02
DAV:   7    -0.128907999738E+02   -0.31922E-06   -0.29019E-06  3184   0.839E-03
  58 F= -.12890800E+02 E0= -.12889671E+02  d E =-.225852E-02
       N       E                     dE             d eps       ncg     rms          rms(c)
DAV:   1    -0.128917381330E+02   -0.93848E-03   -0.19033E-01  2688   0.173E+00    0.193E-01
DAV:   2    -0.128926826328E+02   -0.94450E-03   -0.10681E-02  3384   0.604E-01    0.706E-02
DAV:   3    -0.128926722056E+02    0.10427E-04   -0.24214E-04  3112   0.100E-01    0.452E-02
DAV:   4    -0.128926611802E+02    0.11025E-04   -0.47019E-05  3400   0.574E-02    0.194E-02
DAV:   5    -0.128926606730E+02    0.50717E-06   -0.22105E-05  3208   0.235E-02    0.725E-03
DAV:   6    -0.128926602359E+02    0.43712E-06   -0.22958E-06  2288   0.125E-02
  59 F= -.12892660E+02 E0= -.12891597E+02  d E =-.212611E-02
       N       E                     dE             d eps       ncg     rms          rms(c)
DAV:   1    -0.128887589370E+02    0.39017E-02   -0.76357E-01  2688   0.346E+00    0.373E-01
DAV:   2    -0.128925191244E+02   -0.37602E-02   -0.42487E-02  3384   0.120E+00    0.143E-01
DAV:   3    -0.128924844959E+02    0.34629E-04   -0.94939E-04  3080   0.194E-01    0.930E-02
DAV:   4    -0.128924437696E+02    0.40726E-04   -0.18259E-04  3400   0.111E-01    0.377E-02
DAV:   5    -0.128924429181E+02    0.85141E-06   -0.85929E-05  3216   0.448E-02    0.156E-02
DAV:   6    -0.128924417357E+02    0.11825E-05   -0.95142E-06  3240   0.233E-02    0.114E-02
DAV:   7    -0.128924412134E+02    0.52224E-06   -0.12309E-06  2056   0.112E-02
  60 F= -.12892441E+02 E0= -.12891462E+02  d E =-.195908E-02
       N       E                     dE             d eps       ncg     rms          rms(c)
DAV:   1    -0.128895474092E+02    0.28943E-02   -0.19108E-01  2688   0.172E+00    0.191E-01
DAV:   2    -0.128904868003E+02   -0.93939E-03   -0.10599E-02  3384   0.601E-01    0.670E-02
DAV:   3    -0.128904777267E+02    0.90736E-05   -0.24646E-04  3056   0.960E-02    0.440E-02
DAV:   4    -0.128904684497E+02    0.92770E-05   -0.63091E-05  3432   0.506E-02    0.210E-02
DAV:   5    -0.128904664523E+02    0.19975E-05   -0.35643E-05  3272   0.221E-02    0.687E-03
DAV:   6    -0.128904661475E+02    0.30478E-06   -0.35872E-06  2848   0.136E-02
  61 F= -.12890466E+02 E0= -.12889505E+02  d E =-.192165E-02
       N       E                     dE             d eps       ncg     rms          rms(c)
DAV:   1    -0.128831185219E+02    0.73479E-02   -0.14899E+00  2688   0.488E+00    0.545E-01
DAV:   2    -0.128924001464E+02   -0.92816E-02   -0.10040E-01  3432   0.174E+00    0.153E-01
DAV:   3    -0.128922499967E+02    0.15015E-03   -0.17507E-03  3168   0.266E-01    0.105E-01
DAV:   4    -0.128921440725E+02    0.10592E-03   -0.42623E-04  3576   0.126E-01    0.436E-02
DAV:   5    -0.128921487060E+02   -0.46336E-05   -0.21051E-04  3336   0.616E-02    0.185E-02
DAV:   6    -0.128921481432E+02    0.56280E-06   -0.18026E-05  3320   0.253E-02    0.151E-02
DAV:   7    -0.128921484721E+02   -0.32888E-06   -0.17297E-06  2600   0.102E-02
  62 F= -.12892148E+02 E0= -.12891101E+02  d E =-.209470E-02
       N       E                     dE             d eps       ncg     rms          rms(c)
DAV:   1    -0.128919912729E+02    0.15687E-03   -0.18698E-01  2688   0.168E+00    0.154E-01
DAV:   2    -0.128928343897E+02   -0.84312E-03   -0.87007E-03  3288   0.531E-01    0.470E-02
DAV:   3    -0.128928235973E+02    0.10792E-04   -0.15269E-04  3248   0.817E-02    0.312E-02
DAV:   4    -0.128928139387E+02    0.96586E-05   -0.50951E-05  3368   0.385E-02    0.101E-02
DAV:   5    -0.128928142816E+02   -0.34286E-06   -0.14815E-05  3240   0.201E-02    0.674E-03
DAV:   6    -0.128928138100E+02    0.47159E-06   -0.70080E-07  2016   0.513E-03
  63 F= -.12892814E+02 E0= -.12891792E+02  d E =-.204349E-02
       N       E                     dE             d eps       ncg     rms          rms(c)
DAV:   1    -0.128894906755E+02    0.33236E-02   -0.75028E-01  2688   0.336E+00    0.319E-01
DAV:   2    -0.128928965086E+02   -0.34058E-02   -0.35119E-02  3304   0.106E+00    0.981E-02
DAV:   3    -0.128928546375E+02    0.41871E-04   -0.61578E-04  3256   0.164E-01    0.663E-02
DAV:   4    -0.128928162105E+02    0.38427E-04   -0.20684E-04  3368   0.762E-02    0.216E-02
DAV:   5    -0.128928175934E+02   -0.13829E-05   -0.65067E-05  3272   0.399E-02    0.137E-02
DAV:   6    -0.128928160029E+02    0.15905E-05   -0.28290E-06  3256   0.998E-03    0.868E-03
DAV:   7    -0.128928158536E+02    0.14931E-06   -0.18744E-06  2936   0.710E-03
  64 F= -.12892816E+02 E0= -.12891794E+02  d E =-.204347E-02
       N       E                     dE             d eps       ncg     rms          rms(c)
DAV:   1    -0.128913232994E+02    0.14927E-02   -0.18759E-01  2688   0.168E+00    0.154E-01
DAV:   2    -0.128921727190E+02   -0.84942E-03   -0.87509E-03  3304   0.532E-01    0.482E-02
DAV:   3    -0.128921622744E+02    0.10445E-04   -0.15248E-04  3256   0.815E-02    0.321E-02
DAV:   4    -0.128921529984E+02    0.92760E-05   -0.53369E-05  3536   0.398E-02    0.921E-03
DAV:   5    -0.128921534229E+02   -0.42453E-06   -0.12594E-05  3128   0.205E-02    0.717E-03
DAV:   6    -0.128921528659E+02    0.55702E-06   -0.45411E-07  2120   0.415E-03
  65 F= -.12892153E+02 E0= -.12891105E+02  d E =-.209498E-02
       N       E                     dE             d eps       ncg     rms          rms(c)
DAV:   1    -0.128853137860E+02    0.68396E-02   -0.14950E+00  2688   0.476E+00    0.481E-01
DAV:   2    -0.128922406701E+02   -0.69269E-02   -0.71542E-02  3272   0.151E+00    0.146E-01
DAV:   3    -0.128921479372E+02    0.92733E-04   -0.12656E-03  3256   0.234E-01    0.100E-01
DAV:   4    -0.128920654353E+02    0.82502E-04   -0.41610E-04  3424   0.102E-01    0.341E-02
DAV:   5    -0.128920682368E+02   -0.28014E-05   -0.16033E-04  3344   0.567E-02    0.205E-02
DAV:   6    -0.128920662043E+02    0.20324E-05   -0.68945E-06  3224   0.149E-02    0.140E-02
DAV:   7    -0.128920654549E+02    0.74943E-06   -0.40141E-06  3288   0.965E-03
  66 F= -.12892065E+02 E0= -.12891018E+02  d E =-.209455E-02
       N       E                     dE             d eps       ncg     rms          rms(c)
DAV:   1    -0.128919665125E+02    0.99692E-04   -0.18698E-01  2688   0.168E+00    0.163E-01
DAV:   2    -0.128928324537E+02   -0.86594E-03   -0.89486E-03  3288   0.534E-01    0.497E-02
DAV:   3    -0.128928192311E+02    0.13223E-04   -0.15421E-04  3232   0.818E-02    0.325E-02
DAV:   4    -0.128928083795E+02    0.10852E-04   -0.52307E-05  3392   0.388E-02    0.104E-02
DAV:   5    -0.128928089171E+02   -0.53757E-06   -0.15608E-05  3224   0.207E-02    0.675E-03
DAV:   6    -0.128928085451E+02    0.37198E-06   -0.61055E-07  1968   0.485E-03
  67 F= -.12892809E+02 E0= -.12891787E+02  d E =-.204344E-02
       N       E                     dE             d eps       ncg     rms          rms(c)
DAV:   1    -0.128894270757E+02    0.33818E-02   -0.74912E-01  2688   0.337E+00    0.330E-01
DAV:   2    -0.128929046495E+02   -0.34776E-02   -0.35889E-02  3288   0.106E+00    0.104E-01
DAV:   3    -0.128928567849E+02    0.47865E-04   -0.61973E-04  3216   0.164E-01    0.691E-02
DAV:   4    -0.128928142047E+02    0.42580E-04   -0.20572E-04  3424   0.767E-02    0.218E-02
DAV:   5    -0.128928165225E+02   -0.23178E-05   -0.64940E-05  3192   0.407E-02    0.134E-02
DAV:   6    -0.128928152708E+02    0.12517E-05   -0.24460E-06  3248   0.942E-03    0.868E-03
DAV:   7    -0.128928150549E+02    0.21595E-06   -0.19575E-06  2944   0.710E-03
  68 F= -.12892815E+02 E0= -.12891793E+02  d E =-.204348E-02
       N       E                     dE             d eps       ncg     rms          rms(c)
DAV:   1    -0.128912741917E+02    0.15411E-02   -0.18749E-01  2704   0.168E+00    0.158E-01
DAV:   2    -0.128921333835E+02   -0.85919E-03   -0.88546E-03  3280   0.529E-01    0.514E-02
DAV:   3    -0.128921219412E+02    0.11442E-04   -0.15205E-04  3168   0.819E-02    0.335E-02
DAV:   4    -0.128921115968E+02    0.10344E-04   -0.53126E-05  3520   0.414E-02    0.102E-02
DAV:   5    -0.128921120687E+02   -0.47191E-06   -0.12481E-05  3088   0.204E-02    0.649E-03
DAV:   6    -0.128921117857E+02    0.28300E-06   -0.42068E-07  1960   0.463E-03
  69 F= -.12892112E+02 E0= -.12891064E+02  d E =-.209548E-02
       N       E                     dE             d eps       ncg     rms          rms(c)
DAV:   1    -0.128833478893E+02    0.87642E-02   -0.15098E+00  2688   0.485E+00    0.460E-01
DAV:   2    -0.128906157331E+02   -0.72678E-02   -0.78665E-02  3368   0.159E+00    0.172E-01
DAV:   3    -0.128905504821E+02    0.65251E-04   -0.17133E-03  3136   0.260E-01    0.117E-01
DAV:   4    -0.128904652874E+02    0.85195E-04   -0.33887E-04  3536   0.127E-01    0.394E-02
DAV:   5    -0.128904688752E+02   -0.35878E-05   -0.15161E-04  3280   0.553E-02    0.209E-02
DAV:   6    -0.128904668178E+02    0.20574E-05   -0.10879E-05  3352   0.201E-02    0.154E-02
DAV:   7    -0.128904658213E+02    0.99648E-06   -0.31962E-06  3168   0.121E-02
  70 F= -.12890466E+02 E0= -.12889505E+02  d E =-.192172E-02
       N       E                     dE             d eps       ncg     rms          rms(c)
DAV:   1    -0.128915176603E+02   -0.10508E-02   -0.19012E-01  2688   0.171E+00    0.212E-01
DAV:   2    -0.128924579378E+02   -0.94028E-03   -0.10585E-02  3408   0.599E-01    0.624E-02
DAV:   3    -0.128924504563E+02    0.74815E-05   -0.26658E-04  3056   0.970E-02    0.418E-02
DAV:   4    -0.128924436579E+02    0.67984E-05   -0.79408E-05  3616   0.455E-02    0.236E-02
DAV:   5    -0.128924409628E+02    0.26950E-05   -0.43266E-05  3280   0.235E-02    0.756E-03
DAV:   6    -0.128924411046E+02   -0.14177E-06   -0.47810E-06  3040   0.136E-02
  71 F= -.12892441E+02 E0= -.12891462E+02  d E =-.195885E-02
       N       E                     dE             d eps       ncg     rms          rms(c)
DAV:   1    -0.128888858444E+02    0.35551E-02   -0.75999E-01  2688   0.344E+00    0.454E-01
DAV:   2    -0.128927319412E+02   -0.38461E-02   -0.43145E-02  3384   0.121E+00    0.126E-01
DAV:   3    -0.128927006187E+02    0.31322E-04   -0.10895E-03  3064   0.197E-01    0.854E-02
DAV:   4    -0.128926703707E+02    0.30248E-04   -0.30778E-04  3536   0.948E-02    0.482E-02
DAV:   5    -0.128926599045E+02    0.10466E-04   -0.16424E-04  3240   0.475E-02    0.162E-02
DAV:   6    -0.128926601316E+02   -0.22715E-06   -0.18803E-05  3176   0.277E-02    0.979E-03
DAV:   7    -0.128926602355E+02   -0.10385E-06   -0.16190E-06  2000   0.844E-03
  72 F= -.12892660E+02 E0= -.12891597E+02  d E =-.212568E-02
       N       E                     dE             d eps       ncg     rms          rms(c)
DAV:   1    -0.128898497399E+02    0.28104E-02   -0.19050E-01  2688   0.173E+00    0.215E-01
DAV:   2    -0.128908160516E+02   -0.96631E-03   -0.10813E-02  3384   0.607E-01    0.661E-02
DAV:   3    -0.128908087829E+02    0.72687E-05   -0.25608E-04  3056   0.100E-01    0.432E-02
DAV:   4    -0.128908011667E+02    0.76162E-05   -0.62210E-05  3464   0.545E-02    0.215E-02
DAV:   5    -0.128908000674E+02    0.10993E-05   -0.32744E-05  3240   0.235E-02    0.722E-03
DAV:   6    -0.128908001227E+02   -0.55306E-07   -0.34276E-06  2928   0.139E-02
  73 F= -.12890800E+02 E0= -.12889671E+02  d E =-.225852E-02
