       N       E                     dE             d eps       ncg     rms          rms(c)
DAV:   1     0.209074260894E+03    0.20907E+03   -0.12840E+04   816   0.123E+03
DAV:   2     0.484629192900E+01   -0.20423E+03   -0.19103E+03   888   0.315E+02
DAV:   3    -0.131575746056E+02   -0.18004E+02   -0.17649E+02  1064   0.951E+01
DAV:   4    -0.135767814512E+02   -0.41921E+00   -0.41874E+00   912   0.152E+01
DAV:   5    -0.135865942158E+02   -0.98128E-02   -0.98117E-02  1104   0.226E+00    0.762E+00
DAV:   6    -0.129281965547E+02    0.65840E+00   -0.17349E+00   976   0.418E+01    0.622E+00
DAV:   7    -0.128921341866E+02    0.36062E-01   -0.65675E-01  1008   0.886E+00    0.355E+00
DAV:   8    -0.128931613356E+02   -0.10271E-02   -0.54502E-02   992   0.176E+00    0.690E-01
DAV:   9    -0.128928604410E+02    0.30089E-03   -0.43561E-03   984   0.115E+00    0.100E-01
DAV:  10    -0.128930235683E+02   -0.16313E-03   -0.12678E-03   920   0.272E-01    0.627E-02
DAV:  11    -0.128931019485E+02   -0.78380E-04   -0.15752E-04  1008   0.113E-01    0.202E-02
DAV:  12    -0.128931083025E+02   -0.63540E-05   -0.41048E-05   992   0.903E-02    0.192E-02
DAV:  13    -0.128931083829E+02   -0.80458E-07   -0.51354E-06  1016   0.234E-02
   1 F= -.12893108E+02 E0= -.12892096E+02  d E =-.202418E-02
 Found     6 degrees of freedom:
 Adding 6 more for cell shape distortion
