       N       E                     dE             d eps       ncg     rms          rms(c)
DAV:   1     0.530433686380E+02    0.53043E+02   -0.15206E+04  1088   0.915E+02
DAV:   2    -0.126293718960E+02   -0.65673E+02   -0.65602E+02  1472   0.979E+01
DAV:   3    -0.135840016173E+02   -0.95463E+00   -0.95440E+00  1312   0.162E+01
DAV:   4    -0.135869737107E+02   -0.29721E-02   -0.29721E-02  1984   0.946E-01
DAV:   5    -0.135869740366E+02   -0.32595E-06   -0.32591E-06  1216   0.841E-03    0.755E+00
DAV:   6    -0.129657889601E+02    0.62119E+00   -0.54095E+00  1312   0.314E+01    0.642E+00
DAV:   7    -0.128998261534E+02    0.65963E-01   -0.35805E-01  1216   0.600E+00    0.353E+00
DAV:   8    -0.128938894548E+02    0.59367E-02   -0.58340E-02  1664   0.119E+00    0.431E-01
DAV:   9    -0.128929470037E+02    0.94245E-03   -0.98223E-03  1408   0.872E-01    0.101E-01
DAV:  10    -0.128930473255E+02   -0.10032E-03   -0.12998E-03  1664   0.305E-01    0.710E-02
DAV:  11    -0.128931081162E+02   -0.60791E-04   -0.12817E-04  1376   0.516E-02    0.141E-02
DAV:  12    -0.128931079769E+02    0.13934E-06   -0.39417E-05  1728   0.665E-02    0.106E-02
DAV:  13    -0.128931085541E+02   -0.57727E-06   -0.14108E-06  1376   0.907E-03
   1 F= -.12893109E+02 E0= -.12892096E+02  d E =-.202411E-02
 Found     6 degrees of freedom:
 Adding 6 more for cell shape distortion
