 vasp.6.3.2 27Jun22 (build Jun 14 2024 17:29:11) complex                         
 executed on             LinuxGNU date 2026.03.30  07:38:56
 running on    8 total cores
 distrk:  each k-point on    8 cores,    1 groups
 distr:  one band on NCORE=   1 cores,    8 groups


--------------------------------------------------------------------------------------------------------


 INCAR:
   EDIFF = 1e-06
   ENCUT = 400.0
   IBRION = 6
   ISIF = 3
   ISMEAR = 0
   LCHARG = False
   LREAL = Auto
   LWAVE = False
   NFREE = 4
   NSW = 1
   POTIM = 0.015
   SIGMA = 0.05

 POTCAR:    PAW_PBE Na_pv 19Sep2006               
 POTCAR:    PAW_PBE Zn 06Sep2000                  
 POTCAR:    PAW_PBE S 06Sep2000                   
 -----------------------------------------------------------------------------
|                                                                             |
|           W    W    AA    RRRRR   N    N  II  N    N   GGGG   !!!           |
|           W    W   A  A   R    R  NN   N  II  NN   N  G    G  !!!           |
|           W    W  A    A  R    R  N N  N  II  N N  N  G       !!!           |
|           W WW W  AAAAAA  RRRRR   N  N N  II  N  N N  G  GGG   !            |
|           WW  WW  A    A  R   R   N   NN  II  N   NN  G    G                |
|           W    W  A    A  R    R  N    N  II  N    N   GGGG   !!!           |
|                                                                             |
|     For optimal performance we recommend to set                             |
|       NCORE = 2 up to number-of-cores-per-socket                            |
|     NCORE specifies how many cores store one orbital (NPAR=cpu/NCORE).      |
|     This setting can greatly improve the performance of VASP for DFT.       |
|     The default, NCORE=1 might be grossly inefficient on modern             |
|     multi-core architectures or massively parallel machines. Do your        |
|     own testing! More info at https://www.vasp.at/wiki/index.php/NCORE      |
|     Unfortunately you need to use the default for GW and RPA                |
|     calculations (for HF NCORE is supported but not extensively tested      |
|     yet).                                                                   |
|                                                                             |
 -----------------------------------------------------------------------------

 POTCAR:    PAW_PBE Na_pv 19Sep2006               
   SHA256 =  6a2f546d9e11350984debacf3dc457d8cffc0868e817d445faca461816a32b94 Na_pv/POTCAR          
   COPYR  = (c) Copyright 19Sep2006 Georg Kresse                                                    
   COPYR  = This file is part of the software VASP. Any use, copying, and all other rights are regul
   COPYR  = If you do not have a valid VASP license, you may not use, copy or distribute this file. 
   VRHFIN =Na: p6s1                                                                                 
   LEXCH  = PE                                                                                      
   EATOM  =   766.0439 eV,   56.3026 Ry                                                             
                                                                                                    
   TITEL  = PAW_PBE Na_pv 19Sep2006                                                                 
   LULTRA =        F    use ultrasoft PP ?                                                          
   IUNSCR =        1    unscreen: 0-lin 1-nonlin 2-no                                               
   RPACOR =    1.800    partial core radius                                                         
   POMASS =   22.990; ZVAL   =    7.000    mass and valenz                                          
   RCORE  =    2.200    outmost cutoff radius                                                       
   RWIGS  =    2.200; RWIGS  =    1.164    wigner-seitz radius (au A)                               
   ENMAX  =  259.561; ENMIN  =  194.671 eV                                                          
   ICORE  =        2    local potential                                                             
   LCOR   =        T    correct aug charges                                                         
   LPAW   =        T    paw PP                                                                      
   EAUG   =  368.056                                                                                
   DEXC   =    0.000                                                                                
   RMAX   =    2.245    core radius for proj-oper                                                   
   RAUG   =    1.300    factor for augmentation sphere                                              
   RDEP   =    2.259    radius for radial grids                                                     
   RDEPT  =    1.738    core radius for aug-charge                                                  
                                                                                                    
   Atomic configuration                                                                             
    5 entries                                                                                       
     n  l   j            E        occ.                                                              
     1  0  0.50     -1033.6933   2.0000                                                             
     2  0  0.50       -56.7526   2.0000                                                             
     2  1  1.50       -28.6721   6.0000                                                             
     3  0  0.50        -2.7440   1.0000                                                             
     3  2  1.50        -1.3606   0.0000                                                             
   Description                                                                                      
     l       E           TYP  RCUT    TYP  RCUT                                                     
     1    -28.6720912     23  2.000                                                                 
     1      6.8029130     23  2.000                                                                 
     0     -2.7439560     23  2.200                                                                 
     0     34.0145650     23  2.200                                                                 
     2     -1.3605826     23  2.200                                                                 
  local pseudopotential read in
  partial core-charges read in
  partial kinetic energy density read in
  atomic valenz-charges read in
  non local Contribution for L=           1  read in
    real space projection operators read in
  non local Contribution for L=           1  read in
    real space projection operators read in
  non local Contribution for L=           0  read in
    real space projection operators read in
  non local Contribution for L=           0  read in
    real space projection operators read in
    PAW grid and wavefunctions read in

   number of l-projection  operators is LMAX  =           4
   number of lm-projection operators is LMMAX =           8

 POTCAR:    PAW_PBE Zn 06Sep2000                  
   SHA256 =  501fddbd8274dd8e9725d4f3de27861d7f1e553a7e18441bc79fed8f346e7f23 Zn/POTCAR             
   COPYR  = (c) Copyright 06Sep2000 Georg Kresse                                                    
   COPYR  = This file is part of the software VASP. Any use, copying, and all other rights are regul
   COPYR  = If you do not have a valid VASP license, you may not use, copy or distribute this file. 
   VRHFIN =Zn: d10 p2                                                                               
   LEXCH  = PE                                                                                      
   EATOM  =  1748.8345 eV,  128.5357 Ry                                                             
                                                                                                    
   TITEL  = PAW_PBE Zn 06Sep2000                                                                    
   LULTRA =        F    use ultrasoft PP ?                                                          
   IUNSCR =        1    unscreen: 0-lin 1-nonlin 2-no                                               
   RPACOR =    2.000    partial core radius                                                         
   POMASS =   65.390; ZVAL   =   12.000    mass and valenz                                          
   RCORE  =    2.300    outmost cutoff radius                                                       
   RWIGS  =    2.400; RWIGS  =    1.270    wigner-seitz radius (au A)                               
   ENMAX  =  276.723; ENMIN  =  207.542 eV                                                          
   RCLOC  =    1.828    cutoff for local pot                                                        
   LCOR   =        T    correct aug charges                                                         
   LPAW   =        T    paw PP                                                                      
   EAUG   =  575.892                                                                                
   DEXC   =    0.000                                                                                
   RMAX   =    2.347    core radius for proj-oper                                                   
   RAUG   =    1.300    factor for augmentation sphere                                              
   RDEP   =    2.324    radius for radial grids                                                     
   RDEPT  =    1.788    core radius for aug-charge                                                  
                                                                                                    
   Atomic configuration                                                                             
    9 entries                                                                                       
     n  l   j            E        occ.                                                              
     1  0  0.50     -9524.6913   2.0000                                                             
     2  0  0.50     -1158.1882   2.0000                                                             
     2  1  1.50     -1003.8506   6.0000                                                             
     3  0  0.50      -129.2194   2.0000                                                             
     3  1  1.50       -83.3890   6.0000                                                             
     3  2  2.50       -10.1410  10.0000                                                             
     4  0  0.50        -5.9785   2.0000                                                             
     4  1  0.50        -4.0817   0.0000                                                             
     4  3  2.50        -1.3606   0.0000                                                             
   Description                                                                                      
     l       E           TYP  RCUT    TYP  RCUT                                                     
     2    -10.1410010     23  2.300                                                                 
     2    -11.5015836     23  2.300                                                                 
     0     -5.9785163     23  2.300                                                                 
     0      1.1858015     23  2.300                                                                 
     1     -2.7211652     23  2.300                                                                 
     1     13.2444212     23  2.300                                                                 
  local pseudopotential read in
  partial core-charges read in
  partial kinetic energy density read in
  atomic valenz-charges read in
  non local Contribution for L=           2  read in
    real space projection operators read in
  non local Contribution for L=           2  read in
    real space projection operators read in
  non local Contribution for L=           0  read in
    real space projection operators read in
  non local Contribution for L=           0  read in
    real space projection operators read in
  non local Contribution for L=           1  read in
    real space projection operators read in
  non local Contribution for L=           1  read in
    real space projection operators read in
    PAW grid and wavefunctions read in

   number of l-projection  operators is LMAX  =           6
   number of lm-projection operators is LMMAX =          18

 POTCAR:    PAW_PBE S 06Sep2000                   
   SHA256 =  0fc7481fb0695f01bdc6462160264c5c84044ae9ec85a907d398b887a2bc3132 S/POTCAR              
   COPYR  = (c) Copyright 06Sep2000 Georg Kresse                                                    
   COPYR  = This file is part of the software VASP. Any use, copying, and all other rights are regul
   COPYR  = If you do not have a valid VASP license, you may not use, copy or distribute this file. 
   VRHFIN =S : s2p4                                                                                 
   LEXCH  = PE                                                                                      
   EATOM  =   276.8230 eV,   20.3459 Ry                                                             
                                                                                                    
   TITEL  = PAW_PBE S 06Sep2000                                                                     
   LULTRA =        F    use ultrasoft PP ?                                                          
   IUNSCR =        1    unscreen: 0-lin 1-nonlin 2-no                                               
   RPACOR =    1.500    partial core radius                                                         
   POMASS =   32.066; ZVAL   =    6.000    mass and valenz                                          
   RCORE  =    1.900    outmost cutoff radius                                                       
   RWIGS  =    2.200; RWIGS  =    1.164    wigner-seitz radius (au A)                               
   ENMAX  =  258.689; ENMIN  =  194.016 eV                                                          
   ICORE  =        2    local potential                                                             
   LCOR   =        T    correct aug charges                                                         
   LPAW   =        T    paw PP                                                                      
   EAUG   =  335.092                                                                                
   DEXC   =    0.000                                                                                
   RMAX   =    1.942    core radius for proj-oper                                                   
   RAUG   =    1.300    factor for augmentation sphere                                              
   RDEP   =    1.954    radius for radial grids                                                     
   RDEPT  =    1.744    core radius for aug-charge                                                  
                                                                                                    
   Atomic configuration                                                                             
    6 entries                                                                                       
     n  l   j            E        occ.                                                              
     1  0  0.50     -2405.8406   2.0000                                                             
     2  0  0.50      -211.7007   2.0000                                                             
     2  1  1.50      -156.4958   6.0000                                                             
     3  0  0.50       -17.2562   2.0000                                                             
     3  1  0.50        -7.0085   4.0000                                                             
     3  2  1.50        -6.8029   0.0000                                                             
   Description                                                                                      
     l       E           TYP  RCUT    TYP  RCUT                                                     
     0    -17.2561641     23  1.900                                                                 
     0    -15.8743224     23  1.900                                                                 
     1     -7.0085400     23  1.900                                                                 
     1     -2.7779785     23  1.900                                                                 
     2     -6.8029130     23  1.900                                                                 
  local pseudopotential read in
  partial core-charges read in
  partial kinetic energy density read in
  atomic valenz-charges read in
  non local Contribution for L=           0  read in
    real space projection operators read in
  non local Contribution for L=           0  read in
    real space projection operators read in
  non local Contribution for L=           1  read in
    real space projection operators read in
  non local Contribution for L=           1  read in
    real space projection operators read in
    PAW grid and wavefunctions read in

   number of l-projection  operators is LMAX  =           4
   number of lm-projection operators is LMMAX =           8

 -----------------------------------------------------------------------------
|                                                                             |
|               ----> ADVICE to this user running VASP <----                  |
|                                                                             |
|     You have a (more or less) 'small supercell' and for smaller cells       |
|     it is recommended to use the reciprocal-space projection scheme!        |
|     The real-space optimization is not efficient for small cells and it     |
|     is also less accurate ...                                               |
|     Therefore, set LREAL=.FALSE. in the INCAR file.                         |
|                                                                             |
 -----------------------------------------------------------------------------

 Optimization of the real space projectors (new method)

 maximal supplied QI-value         = 17.01
 optimisation between [QCUT,QGAM] = [ 10.20, 20.41] = [ 29.16,116.64] Ry 
 Optimized for a Real-space Cutoff    1.30 Angstroem

   l    n(q)    QCUT    max X(q) W(low)/X(q) W(high)/X(q)  e(spline) 
   1      7    10.205     4.940    0.23E-03    0.84E-03    0.11E-06
   1      7    10.205     6.253    0.40E-03    0.13E-02    0.18E-06
   0      8    10.205    37.438    0.23E-03    0.37E-03    0.42E-07
   0      8    10.205     9.606    0.16E-03    0.26E-03    0.31E-07
 Optimization of the real space projectors (new method)

 maximal supplied QI-value         = 16.25
 optimisation between [QCUT,QGAM] = [ 10.24, 20.48] = [ 29.35,117.42] Ry 
 Optimized for a Real-space Cutoff    1.38 Angstroem

   l    n(q)    QCUT    max X(q) W(low)/X(q) W(high)/X(q)  e(spline) 
   2      7    10.239    46.356    0.21E-03    0.48E-03    0.10E-06
   2      7    10.239    41.843    0.21E-03    0.50E-03    0.10E-06
   0      8    10.239    48.958    0.37E-03    0.79E-04    0.11E-06
   0      8    10.239    32.776    0.35E-03    0.73E-04    0.10E-06
   1      8    10.239    17.787    0.49E-03    0.70E-03    0.14E-06
   1      8    10.239    14.435    0.42E-03    0.61E-03    0.13E-06
 Optimization of the real space projectors (new method)

 maximal supplied QI-value         = 19.84
 optimisation between [QCUT,QGAM] = [ 10.12, 20.44] = [ 28.68,116.96] Ry 
 Optimized for a Real-space Cutoff    1.23 Angstroem

   l    n(q)    QCUT    max X(q) W(low)/X(q) W(high)/X(q)  e(spline) 
   0      7    10.119   187.594    0.62E-04    0.28E-03    0.52E-07
   0      7    10.119   164.243    0.61E-04    0.28E-03    0.52E-07
   1      7    10.119    67.533    0.45E-03    0.63E-03    0.13E-06
   1      7    10.119    50.729    0.44E-03    0.62E-03    0.12E-06
  PAW_PBE Na_pv 19Sep2006               :
 energy of atom  1       EATOM= -766.0439
 kinetic energy error for atom=    0.0103 (will be added to EATOM!!)
  PAW_PBE Zn 06Sep2000                  :
 energy of atom  2       EATOM=-1748.8345
 kinetic energy error for atom=    0.0107 (will be added to EATOM!!)
  PAW_PBE S 06Sep2000                   :
 energy of atom  3       EATOM= -276.8230
 kinetic energy error for atom=    0.0046 (will be added to EATOM!!)


 POSCAR: Na1 Zn1 S2
  positions in direct lattice
  velocities in cartesian coordinates
 exchange correlation table for  LEXCH =        8
   RHO(1)=    0.500       N(1)  =     2000
   RHO(2)=  100.500       N(2)  =     4000



--------------------------------------------------------------------------------------------------------


 ion  position               nearest neighbor table
   1  0.000  0.000  0.500-
   2  0.000  0.000  0.000-   3 2.50   4 2.50   3 2.50   3 2.50   4 2.50   4 2.50
   3  0.333  0.667  0.792-   2 2.50   2 2.50   2 2.50
   4  0.667  0.333  0.208-   2 2.50   2 2.50   2 2.50

  LATTYP: Found a hexagonal cell.
 ALAT       =     3.5473395486
 C/A-ratio  =     1.9508169579
  
  Lattice vectors:
  
 A1 = (   3.5473395486,  -0.0000000000,   0.0000000000)
 A2 = (  -1.7736697744,   3.0720861650,  -0.0000000000)
 A3 = (  -0.0000000000,   0.0000000000,   6.9202101470)


Analysis of symmetry for initial positions (statically):
=====================================================================
 Subroutine PRICEL returns:
 Original cell was already a primitive cell.
 

 Routine SETGRP: Setting up the symmetry group for a 
 hexagonal supercell.


 Subroutine GETGRP returns: Found 12 space group operations
 (whereof 12 operations were pure point group operations)
 out of a pool of 24 trial point group operations.


The static configuration has the point symmetry D_3d.


Analysis of symmetry for dynamics (positions and initial velocities):
=====================================================================
 Subroutine PRICEL returns:
 Original cell was already a primitive cell.
 

 Routine SETGRP: Setting up the symmetry group for a 
 hexagonal supercell.


 Subroutine GETGRP returns: Found 12 space group operations
 (whereof 12 operations were pure point group operations)
 out of a pool of 24 trial point group operations.


The dynamic configuration has the point symmetry D_3d.


 Subroutine INISYM returns: Found 12 space group operations
 (whereof 12 operations are pure point group operations),
 and found     1 'primitive' translations


----------------------------------------------------------------------------------------

                                     Primitive cell                                     

  volume of cell :      75.4146

  direct lattice vectors                    reciprocal lattice vectors
     3.547339549 -0.000000000  0.000000000     0.281901404  0.162755852  0.000000000
    -1.773669774  3.072086165 -0.000000000     0.000000000  0.325511703  0.000000000
    -0.000000000  0.000000000  6.920210147     0.000000000  0.000000000  0.144504282

  length of vectors
     3.547339549  3.547339549  6.920210147     0.325511703  0.325511703  0.144504282

  position of ions in fractional coordinates (direct lattice)
     0.000000000  0.000000000  0.500000319
     0.000000000  0.000000000  0.000000000
     0.333332921  0.666665842  0.792034834
     0.666665888  0.333332921  0.207965805

  ion indices of the primitive-cell ions
   primitive index   ion index
                 1           1
                 2           2
                 3           3
                 4           4

----------------------------------------------------------------------------------------



 KPOINTS: pymatgen with grid density = 600 / numbe

Automatic generation of k-mesh.
 Grid dimensions read from file:
 generate k-points for:    6    6    3

 Generating k-lattice:

  Cartesian coordinates                     Fractional coordinates (reciprocal lattice)
     0.046983567  0.027125975  0.000000000     0.166666667  0.000000000  0.000000000
     0.000000000  0.054251951  0.000000000    -0.000000000  0.166666667  0.000000000
     0.000000000  0.000000000  0.048168094     0.000000000  0.000000000  0.333333333

  Length of vectors
     0.054251951  0.054251951  0.048168094

  Shift w.r.t. Gamma in fractional coordinates (k-lattice)
     0.000000000  0.000000000  0.000000000

 
 Subroutine IBZKPT returns following result:
 ===========================================
 
 Found     17 irreducible k-points:
 
 Following reciprocal coordinates:
            Coordinates               Weight
  0.000000  0.000000  0.000000      1.000000
  0.166667  0.000000  0.000000      6.000000
  0.333333  0.000000  0.000000      6.000000
  0.500000  0.000000  0.000000      3.000000
  0.166667  0.166667  0.000000      6.000000
  0.333333  0.166667  0.000000     12.000000
  0.333333  0.333333  0.000000      2.000000
  0.000000  0.000000  0.333333      2.000000
  0.166667  0.000000  0.333333      6.000000
  0.000000  0.166667  0.333333      6.000000
  0.333333  0.000000  0.333333      6.000000
  0.000000  0.333333  0.333333      6.000000
  0.500000  0.000000  0.333333      6.000000
  0.166667  0.166667  0.333333     12.000000
  0.333333  0.166667  0.333333     12.000000
 -0.166667  0.500000  0.333333     12.000000
  0.333333  0.333333  0.333333      4.000000
 
 Following cartesian coordinates:
            Coordinates               Weight
  0.000000  0.000000  0.000000      1.000000
  0.046984  0.027126  0.000000      6.000000
  0.093967  0.054252  0.000000      6.000000
  0.140951  0.081378  0.000000      3.000000
  0.046984  0.081378  0.000000      6.000000
  0.093967  0.108504  0.000000     12.000000
  0.093967  0.162756  0.000000      2.000000
  0.000000  0.000000  0.048168      2.000000
  0.046984  0.027126  0.048168      6.000000
  0.000000  0.054252  0.048168      6.000000
  0.093967  0.054252  0.048168      6.000000
  0.000000  0.108504  0.048168      6.000000
  0.140951  0.081378  0.048168      6.000000
  0.046984  0.081378  0.048168     12.000000
  0.093967  0.108504  0.048168     12.000000
 -0.046984  0.135630  0.048168     12.000000
  0.093967  0.162756  0.048168      4.000000
 
 
 Subroutine IBZKPT_HF returns following result:
 ==============================================
 
 Found    108 k-points in 1st BZ
 the following    108 k-points will be used (e.g. in the exchange kernel)
 Following reciprocal coordinates:   # in IRBZ
  0.000000  0.000000  0.000000    0.00925926   1 t-inv F
  0.166667  0.000000  0.000000    0.00925926   2 t-inv F
  0.333333  0.000000  0.000000    0.00925926   3 t-inv F
  0.500000  0.000000  0.000000    0.00925926   4 t-inv F
  0.166667  0.166667  0.000000    0.00925926   5 t-inv F
  0.333333  0.166667  0.000000    0.00925926   6 t-inv F
  0.333333  0.333333  0.000000    0.00925926   7 t-inv F
  0.000000  0.000000  0.333333    0.00925926   8 t-inv F
  0.166667  0.000000  0.333333    0.00925926   9 t-inv F
  0.000000  0.166667  0.333333    0.00925926  10 t-inv F
  0.333333  0.000000  0.333333    0.00925926  11 t-inv F
  0.000000  0.333333  0.333333    0.00925926  12 t-inv F
  0.500000  0.000000  0.333333    0.00925926  13 t-inv F
  0.166667  0.166667  0.333333    0.00925926  14 t-inv F
  0.333333  0.166667  0.333333    0.00925926  15 t-inv F
 -0.166667  0.500000  0.333333    0.00925926  16 t-inv F
  0.333333  0.333333  0.333333    0.00925926  17 t-inv F
 -0.166667 -0.000000 -0.000000    0.00925926   2 t-inv F
 -0.166667  0.166667  0.000000    0.00925926   2 t-inv F
  0.166667 -0.166667 -0.000000    0.00925926   2 t-inv F
  0.000000 -0.166667  0.000000    0.00925926   2 t-inv F
 -0.000000  0.166667 -0.000000    0.00925926   2 t-inv F
 -0.333333 -0.000000 -0.000000    0.00925926   3 t-inv F
 -0.333333  0.333333  0.000000    0.00925926   3 t-inv F
  0.333333 -0.333333 -0.000000    0.00925926   3 t-inv F
  0.000000 -0.333333  0.000000    0.00925926   3 t-inv F
 -0.000000  0.333333 -0.000000    0.00925926   3 t-inv F
 -0.500000  0.500000  0.000000    0.00925926   4 t-inv F
  0.000000 -0.500000  0.000000    0.00925926   4 t-inv F
 -0.166667 -0.166667 -0.000000    0.00925926   5 t-inv F
 -0.333333  0.166667  0.000000    0.00925926   5 t-inv F
  0.333333 -0.166667 -0.000000    0.00925926   5 t-inv F
  0.166667 -0.333333  0.000000    0.00925926   5 t-inv F
 -0.166667  0.333333 -0.000000    0.00925926   5 t-inv F
 -0.333333 -0.166667 -0.000000    0.00925926   6 t-inv F
 -0.500000  0.333333  0.000000    0.00925926   6 t-inv F
  0.500000 -0.333333 -0.000000    0.00925926   6 t-inv F
  0.166667 -0.500000  0.000000    0.00925926   6 t-inv F
 -0.166667  0.500000 -0.000000    0.00925926   6 t-inv F
  0.333333 -0.500000 -0.000000    0.00925926   6 t-inv F
 -0.333333  0.500000  0.000000    0.00925926   6 t-inv F
 -0.500000  0.166667 -0.000000    0.00925926   6 t-inv F
  0.500000 -0.166667  0.000000    0.00925926   6 t-inv F
  0.166667  0.333333 -0.000000    0.00925926   6 t-inv F
 -0.166667 -0.333333  0.000000    0.00925926   6 t-inv F
 -0.333333 -0.333333 -0.000000    0.00925926   7 t-inv F
 -0.000000 -0.000000 -0.333333    0.00925926   8 t-inv F
 -0.166667 -0.000000 -0.333333    0.00925926   9 t-inv F
 -0.166667  0.166667  0.333333    0.00925926   9 t-inv F
  0.166667 -0.166667 -0.333333    0.00925926   9 t-inv F
  0.000000 -0.166667  0.333333    0.00925926   9 t-inv F
 -0.000000  0.166667 -0.333333    0.00925926   9 t-inv F
 -0.000000 -0.166667 -0.333333    0.00925926  10 t-inv F
 -0.166667  0.000000  0.333333    0.00925926  10 t-inv F
  0.166667 -0.000000 -0.333333    0.00925926  10 t-inv F
  0.166667 -0.166667  0.333333    0.00925926  10 t-inv F
 -0.166667  0.166667 -0.333333    0.00925926  10 t-inv F
 -0.333333 -0.000000 -0.333333    0.00925926  11 t-inv F
 -0.333333  0.333333  0.333333    0.00925926  11 t-inv F
  0.333333 -0.333333 -0.333333    0.00925926  11 t-inv F
  0.000000 -0.333333  0.333333    0.00925926  11 t-inv F
 -0.000000  0.333333 -0.333333    0.00925926  11 t-inv F
 -0.000000 -0.333333 -0.333333    0.00925926  12 t-inv F
 -0.333333  0.000000  0.333333    0.00925926  12 t-inv F
  0.333333 -0.000000 -0.333333    0.00925926  12 t-inv F
  0.333333 -0.333333  0.333333    0.00925926  12 t-inv F
 -0.333333  0.333333 -0.333333    0.00925926  12 t-inv F
 -0.500000 -0.000000 -0.333333    0.00925926  13 t-inv F
 -0.500000  0.500000  0.333333    0.00925926  13 t-inv F
  0.500000 -0.500000 -0.333333    0.00925926  13 t-inv F
  0.000000 -0.500000  0.333333    0.00925926  13 t-inv F
 -0.000000  0.500000 -0.333333    0.00925926  13 t-inv F
 -0.166667 -0.166667 -0.333333    0.00925926  14 t-inv F
 -0.333333  0.166667  0.333333    0.00925926  14 t-inv F
  0.333333 -0.166667 -0.333333    0.00925926  14 t-inv F
  0.166667 -0.333333  0.333333    0.00925926  14 t-inv F
 -0.166667  0.333333 -0.333333    0.00925926  14 t-inv F
  0.166667 -0.333333 -0.333333    0.00925926  14 t-inv F
 -0.166667  0.333333  0.333333    0.00925926  14 t-inv F
 -0.333333  0.166667 -0.333333    0.00925926  14 t-inv F
  0.333333 -0.166667  0.333333    0.00925926  14 t-inv F
  0.166667  0.166667 -0.333333    0.00925926  14 t-inv F
 -0.166667 -0.166667  0.333333    0.00925926  14 t-inv F
 -0.333333 -0.166667 -0.333333    0.00925926  15 t-inv F
 -0.500000  0.333333  0.333333    0.00925926  15 t-inv F
  0.500000 -0.333333 -0.333333    0.00925926  15 t-inv F
  0.166667 -0.500000  0.333333    0.00925926  15 t-inv F
 -0.166667  0.500000 -0.333333    0.00925926  15 t-inv F
  0.333333 -0.500000 -0.333333    0.00925926  15 t-inv F
 -0.333333  0.500000  0.333333    0.00925926  15 t-inv F
 -0.500000  0.166667 -0.333333    0.00925926  15 t-inv F
  0.500000 -0.166667  0.333333    0.00925926  15 t-inv F
  0.166667  0.333333 -0.333333    0.00925926  15 t-inv F
 -0.166667 -0.333333  0.333333    0.00925926  15 t-inv F
  0.166667 -0.500000 -0.333333    0.00925926  16 t-inv F
 -0.333333 -0.166667  0.333333    0.00925926  16 t-inv F
  0.333333  0.166667 -0.333333    0.00925926  16 t-inv F
  0.500000 -0.333333  0.333333    0.00925926  16 t-inv F
 -0.500000  0.333333 -0.333333    0.00925926  16 t-inv F
 -0.166667 -0.333333 -0.333333    0.00925926  16 t-inv F
  0.166667  0.333333  0.333333    0.00925926  16 t-inv F
 -0.333333  0.500000 -0.333333    0.00925926  16 t-inv F
  0.333333 -0.500000  0.333333    0.00925926  16 t-inv F
  0.500000 -0.166667 -0.333333    0.00925926  16 t-inv F
 -0.500000  0.166667  0.333333    0.00925926  16 t-inv F
 -0.333333 -0.333333 -0.333333    0.00925926  17 t-inv F
  0.333333 -0.666667 -0.333333    0.00925926  17 t-inv F
 -0.333333  0.666667  0.333333    0.00925926  17 t-inv F


--------------------------------------------------------------------------------------------------------




 Dimension of arrays:
   k-points           NKPTS =     17   k-points in BZ     NKDIM =     17   number of bands    NBANDS=     24
   number of dos      NEDOS =    301   number of ions     NIONS =      4
   non local maximal  LDIM  =      6   non local SUM 2l+1 LMDIM =     18
   total plane-waves  NPLWV =  11664
   max r-space proj   IRMAX =   1754   max aug-charges    IRDMAX=   5072
   dimension x,y,z NGX =    18 NGY =   18 NGZ =   36
   dimension x,y,z NGXF=    36 NGYF=   36 NGZF=   72
   support grid    NGXF=    36 NGYF=   36 NGZF=   72
   ions per type =               1   1   2
   NGX,Y,Z   is equivalent  to a cutoff of   8.44,  8.44,  8.65 a.u.
   NGXF,Y,Z  is equivalent  to a cutoff of  16.87, 16.87, 17.30 a.u.

 SYSTEM =  unknown system                          
 POSCAR =  Na1 Zn1 S2                              

 Startparameter for this run:
   NWRITE =      2    write-flag & timer
   PREC   = normal    normal or accurate (medium, high low for compatibility)
   ISTART =      0    job   : 0-new  1-cont  2-samecut
   ICHARG =      2    charge: 1-file 2-atom 10-const
   ISPIN  =      1    spin polarized calculation?
   LNONCOLLINEAR =      F non collinear calculations
   LSORBIT =      F    spin-orbit coupling
   INIWAV =      1    electr: 0-lowe 1-rand  2-diag
   LASPH  =      F    aspherical Exc in radial PAW
 Electronic Relaxation 1
   ENCUT  =  400.0 eV  29.40 Ry    5.42 a.u.   5.78  5.78 11.29*2*pi/ulx,y,z
   ENINI  =  400.0     initial cutoff
   ENAUG  =  575.9 eV  augmentation charge cutoff
   NELM   =     60;   NELMIN=  2; NELMDL=  0     # of ELM steps 
   EDIFF  = 0.1E-05   stopping-criterion for ELM
   LREAL  =      T    real-space projection
   NLSPLINE    = F    spline interpolate recip. space projectors
   LCOMPAT=      F    compatible to vasp.4.4
   GGA_COMPAT  = T    GGA compatible to vasp.4.4-vasp.4.6
   LMAXPAW     = -100 max onsite density
   LMAXMIX     =    2 max onsite mixed and CHGCAR
   VOSKOWN=      0    Vosko Wilk Nusair interpolation
   ROPT   =   -0.00050  -0.00050  -0.00050
 Ionic relaxation
   EDIFFG = 0.1E-04   stopping-criterion for IOM
   NSW    =     85    number of steps for IOM
   NBLOCK =      1;   KBLOCK =     85    inner block; outer block 
   IBRION =      6    ionic relax: 0-MD 1-quasi-New 2-CG
   NFREE  =      4    steps in history (QN), initial steepest desc. (CG)
   ISIF   =      3    stress and relaxation
   IWAVPR =     11    prediction:  0-non 1-charg 2-wave 3-comb
   ISYM   =      2    0-nonsym 1-usesym 2-fastsym
   LCORR  =      T    Harris-Foulkes like correction to forces

   POTIM  = 0.0150    time-step for ionic-motion
   TEIN   =    0.0    initial temperature
   TEBEG  =    0.0;   TEEND  =   0.0 temperature during run
   SMASS  =  -3.00    Nose mass-parameter (am)
   estimated Nose-frequenzy (Omega)   =  0.10E-29 period in steps = 0.42E+48 mass=  -0.288E-27a.u.
   SCALEE = 1.0000    scale energy and forces
   NPACO  =    256;   APACO  = 10.0  distance and # of slots for P.C.
   PSTRESS=    0.0 pullay stress

  Mass of Ions in am
   POMASS =  22.99 65.39 32.07
  Ionic Valenz
   ZVAL   =   7.00 12.00  6.00
  Atomic Wigner-Seitz radii
   RWIGS  =  -1.00 -1.00 -1.00
  virtual crystal weights 
   VCA    =   1.00  1.00  1.00
   NELECT =      31.0000    total number of electrons
   NUPDOWN=      -1.0000    fix difference up-down

 DOS related values:
   EMIN   =  10.00;   EMAX   =-10.00  energy-range for DOS
   EFERMI =   0.00
   ISMEAR =     0;   SIGMA  =   0.05  broadening in eV -4-tet -1-fermi 0-gaus

 Electronic relaxation 2 (details)
   IALGO  =     38    algorithm
   LDIAG  =      T    sub-space diagonalisation (order eigenvalues)
   LSUBROT=      F    optimize rotation matrix (better conditioning)
   TURBO    =      0    0=normal 1=particle mesh
   IRESTART =      0    0=no restart 2=restart with 2 vectors
   NREBOOT  =      0    no. of reboots
   NMIN     =      0    reboot dimension
   EREF     =   0.00    reference energy to select bands
   IMIX   =      4    mixing-type and parameters
     AMIX     =   0.40;   BMIX     =  1.00
     AMIX_MAG =   1.60;   BMIX_MAG =  1.00
     AMIN     =   0.10
     WC   =   100.;   INIMIX=   1;  MIXPRE=   1;  MAXMIX= -45

 Intra band minimization:
   WEIMIN = 0.0010     energy-eigenvalue tresh-hold
   EBREAK =  0.10E-07  absolut break condition
   DEPER  =   0.30     relativ break condition  

   TIME   =   0.40     timestep for ELM

  volume/ion in A,a.u.               =      18.85       127.23
  Fermi-wavevector in a.u.,A,eV,Ry     =   1.217242  2.300254 20.159453  1.481678
  Thomas-Fermi vector in A             =   2.352569

 Write flags
   LWAVE        =      F    write WAVECAR
   LDOWNSAMPLE  =      F    k-point downsampling of WAVECAR
   LCHARG       =      F    write CHGCAR
   LVTOT        =      F    write LOCPOT, total local potential
   LVHAR        =      F    write LOCPOT, Hartree potential only
   LELF         =      F    write electronic localiz. function (ELF)
   LORBIT       =      0    0 simple, 1 ext, 2 COOP (PROOUT), +10 PAW based schemes


 Dipole corrections
   LMONO  =      F    monopole corrections only (constant potential shift)
   LDIPOL =      F    correct potential (dipole corrections)
   IDIPOL =      0    1-x, 2-y, 3-z, 4-all directions 
   EPSILON=  1.0000000 bulk dielectric constant

 Exchange correlation treatment:
   GGA     =    --    GGA type
   LEXCH   =     8    internal setting for exchange type
   LIBXC   =     F    Libxc                    
   VOSKOWN =     0    Vosko Wilk Nusair interpolation
   LHFCALC =     F    Hartree Fock is set to
   LHFONE  =     F    Hartree Fock one center treatment
   AEXX    =    0.0000 exact exchange contribution

 Linear response parameters
   LEPSILON=     F    determine dielectric tensor
   LRPA    =     F    only Hartree local field effects (RPA)
   LNABLA  =     F    use nabla operator in PAW spheres
   LVEL    =     F    velocity operator in full k-point grid
   CSHIFT  =0.1000    complex shift for real part using Kramers Kronig
   OMEGAMAX=  -1.0    maximum frequency
   DEG_THRESHOLD= 0.2000000E-02 threshold for treating states as degnerate
   RTIME   =   -0.100 relaxation time in fs
  (WPLASMAI=    0.000 imaginary part of plasma frequency in eV, 0.658/RTIME)
   DFIELD  = 0.0000000 0.0000000 0.0000000 field for delta impulse in time

  Optional k-point grid parameters
   LKPOINTS_OPT  =     F    use optional k-point grid
   KPOINTS_OPT_MODE=     1    mode for optional k-point grid

 Orbital magnetization related:
   ORBITALMAG=     F  switch on orbital magnetization
   LCHIMAG   =     F  perturbation theory with respect to B field
   DQ        =  0.001000  dq finite difference perturbation B field
   LLRAUG    =     F  two centre corrections for induced B field



--------------------------------------------------------------------------------------------------------


 finite differences with symmetry
 charge density and potential will be updated during run
 non-spin polarized calculation
 Variant of blocked Davidson
 Davidson routine will perform the subspace rotation
 perform sub-space diagonalisation
    after iterative eigenvector-optimisation
 modified Broyden-mixing scheme, WC =      100.0
 initial mixing is a Kerker type mixing with AMIX =  0.4000 and BMIX =      1.0000
 Hartree-type preconditioning will be used
 using additional bands            8
 real space projection scheme for non local part
 use partial core corrections
 calculate Harris-corrections to forces   (improved forces if not selfconsistent)
 use gradient corrections 
 use of overlap-Matrix (Vanderbilt PP)
 Gauss-broadening in eV      SIGMA  =   0.05


--------------------------------------------------------------------------------------------------------


  energy-cutoff  :      400.00
  volume of cell :       75.41
      direct lattice vectors                 reciprocal lattice vectors
     3.547339549 -0.000000000  0.000000000     0.281901404  0.162755852  0.000000000
    -1.773669774  3.072086165 -0.000000000     0.000000000  0.325511703  0.000000000
    -0.000000000  0.000000000  6.920210147     0.000000000  0.000000000  0.144504282

  length of vectors
     3.547339549  3.547339549  6.920210147     0.325511703  0.325511703  0.144504282



 k-points in units of 2pi/SCALE and weight: pymatgen with grid density = 600 / numbe
   0.00000000  0.00000000  0.00000000       0.009
   0.04698357  0.02712598  0.00000000       0.056
   0.09396713  0.05425195  0.00000000       0.056
   0.14095070  0.08137793  0.00000000       0.028
   0.04698357  0.08137793  0.00000000       0.056
   0.09396713  0.10850390  0.00000000       0.111
   0.09396713  0.16275585  0.00000000       0.019
   0.00000000  0.00000000  0.04816809       0.019
   0.04698357  0.02712598  0.04816809       0.056
   0.00000000  0.05425195  0.04816809       0.056
   0.09396713  0.05425195  0.04816809       0.056
   0.00000000  0.10850390  0.04816809       0.056
   0.14095070  0.08137793  0.04816809       0.056
   0.04698357  0.08137793  0.04816809       0.111
   0.09396713  0.10850390  0.04816809       0.111
  -0.04698357  0.13562988  0.04816809       0.111
   0.09396713  0.16275585  0.04816809       0.037

 k-points in reciprocal lattice and weights: pymatgen with grid density = 600 / numbe
   0.00000000  0.00000000  0.00000000       0.009
   0.16666667  0.00000000  0.00000000       0.056
   0.33333333  0.00000000  0.00000000       0.056
   0.50000000  0.00000000  0.00000000       0.028
   0.16666667  0.16666667  0.00000000       0.056
   0.33333333  0.16666667  0.00000000       0.111
   0.33333333  0.33333333  0.00000000       0.019
   0.00000000  0.00000000  0.33333333       0.019
   0.16666667  0.00000000  0.33333333       0.056
   0.00000000  0.16666667  0.33333333       0.056
   0.33333333  0.00000000  0.33333333       0.056
   0.00000000  0.33333333  0.33333333       0.056
   0.50000000  0.00000000  0.33333333       0.056
   0.16666667  0.16666667  0.33333333       0.111
   0.33333333  0.16666667  0.33333333       0.111
  -0.16666667  0.50000000  0.33333333       0.111
   0.33333333  0.33333333  0.33333333       0.037

 position of ions in fractional coordinates (direct lattice) 
   0.00000000  0.00000000  0.50000032
   0.00000000  0.00000000  0.00000000
   0.33333292  0.66666584  0.79203483
   0.66666589  0.33333292  0.20796581

 position of ions in cartesian coordinates  (Angst):
   0.00000000  0.00000000  3.46010728
   0.00000000  0.00000000  0.00000000
  -0.00000000  2.04805491  5.48104749
   1.77366774  1.02402745  1.43916707



--------------------------------------------------------------------------------------------------------


 k-point   1 :   0.0000 0.0000 0.0000  plane waves:    1361
 k-point   2 :   0.1667 0.0000 0.0000  plane waves:    1372
 k-point   3 :   0.3333 0.0000 0.0000  plane waves:    1380
 k-point   4 :   0.5000 0.0000 0.0000  plane waves:    1384
 k-point   5 :   0.1667 0.1667 0.0000  plane waves:    1368
 k-point   6 :   0.3333 0.1667 0.0000  plane waves:    1370
 k-point   7 :   0.3333 0.3333 0.0000  plane waves:    1350
 k-point   8 :   0.0000 0.0000 0.3333  plane waves:    1366
 k-point   9 :   0.1667 0.0000 0.3333  plane waves:    1363
 k-point  10 :   0.0000 0.1667 0.3333  plane waves:    1363
 k-point  11 :   0.3333 0.0000 0.3333  plane waves:    1362
 k-point  12 :   0.0000 0.3333 0.3333  plane waves:    1362
 k-point  13 :   0.5000 0.0000 0.3333  plane waves:    1378
 k-point  14 :   0.1667 0.1667 0.3333  plane waves:    1361
 k-point  15 :   0.3333 0.1667 0.3333  plane waves:    1371
 k-point  16 :  -0.1667 0.5000 0.3333  plane waves:    1371
 k-point  17 :   0.3333 0.3333 0.3333  plane waves:    1371

 maximum and minimum number of plane-waves per node :      1384     1350

 maximum number of plane-waves:      1384
 maximum index in each direction: 
   IXMAX=    5   IYMAX=    5   IZMAX=   11
   IXMIN=   -6   IYMIN=   -6   IZMIN=  -11


 serial   3D FFT for wavefunctions
 parallel 3D FFT for charge:
    minimum data exchange during FFTs selected (reduces bandwidth)


 total amount of memory used by VASP MPI-rank0    33668. kBytes
=======================================================================

   base      :      30000. kBytes
   nonlr-proj:        634. kBytes
   fftplans  :        486. kBytes
   grid      :       1318. kBytes
   one-center:         62. kBytes
   wavefun   :       1168. kBytes

     INWAV:  cpu time      0.0001: real time      0.0003
 Broyden mixing: mesh for mixing (old mesh)
   NGX = 11   NGY = 11   NGZ = 23
  (NGX  = 36   NGY  = 36   NGZ  = 72)
  gives a total of   2783 points

 initial charge density was supplied:
 charge density of overlapping atoms calculated
 number of electron      31.0000000 magnetization 
 keeping initial charge density in first step


--------------------------------------------------------------------------------------------------------


 Maximum index for non-local projection operator         1659
 Maximum index for augmentation-charges          703 (set IRDMAX)


--------------------------------------------------------------------------------------------------------


 First call to EWALD:  gamma=   0.420
 Maximum number of real-space cells 4x 4x 2
 Maximum number of reciprocal cells 2x 2x 4

    FEWALD:  cpu time      0.0005: real time      0.0005


--------------------------------------- Iteration      1(   1)  ---------------------------------------


    POTLOK:  cpu time      0.0087: real time      0.0230
    SETDIJ:  cpu time      0.0018: real time      0.0018
     EDDAV:  cpu time      0.2204: real time      0.2204
       DOS:  cpu time      0.0004: real time      0.0005
    --------------------------------------------
      LOOP:  cpu time      0.2313: real time      0.2457

 eigenvalue-minimisations  :   816
 total energy-change (2. order) : 0.2090743E+03  (-0.1283993E+04)
 number of electron      31.0000000 magnetization 
 augmentation part       31.0000000 magnetization 

 Free energy of the ion-electron system (eV)
  ---------------------------------------------------
  alpha Z        PSCENC =        92.80534813
  Ewald energy   TEWEN  =     -1831.03953168
  -Hartree energ DENC   =     -1016.15328824
  -exchange      EXHF   =         0.00000000
  -V(xc)+E(xc)   XCENC  =       106.34454506
  PAW double counting   =      2392.54527448    -2652.30260127
  entropy T*S    EENTRO =        -0.00259855
  eigenvalues    EBANDS =        48.38295710
  atomic energy  EATOM  =      3068.49415586
  Solvation  Ediel_sol  =         0.00000000
  ---------------------------------------------------
  free energy    TOTEN  =       209.07426089 eV

  energy without entropy =      209.07685944  energy(sigma->0) =      209.07556017


--------------------------------------------------------------------------------------------------------




--------------------------------------- Iteration      1(   2)  ---------------------------------------


     EDDAV:  cpu time      0.2353: real time      0.2358
       DOS:  cpu time      0.0003: real time      0.0003
    --------------------------------------------
      LOOP:  cpu time      0.2356: real time      0.2360

 eigenvalue-minimisations  :   888
 total energy-change (2. order) :-0.2042280E+03  (-0.1910304E+03)
 number of electron      31.0000000 magnetization 
 augmentation part       31.0000000 magnetization 

 Free energy of the ion-electron system (eV)
  ---------------------------------------------------
  alpha Z        PSCENC =        92.80534813
  Ewald energy   TEWEN  =     -1831.03953168
  -Hartree energ DENC   =     -1016.15328824
  -exchange      EXHF   =         0.00000000
  -V(xc)+E(xc)   XCENC  =       106.34454506
  PAW double counting   =      2392.54527448    -2652.30260127
  entropy T*S    EENTRO =        -0.00595863
  eigenvalues    EBANDS =      -155.84165178
  atomic energy  EATOM  =      3068.49415586
  Solvation  Ediel_sol  =         0.00000000
  ---------------------------------------------------
  free energy    TOTEN  =         4.84629193 eV

  energy without entropy =        4.85225056  energy(sigma->0) =        4.84927124


--------------------------------------------------------------------------------------------------------




--------------------------------------- Iteration      1(   3)  ---------------------------------------


     EDDAV:  cpu time      0.2862: real time      0.2863
       DOS:  cpu time      0.0003: real time      0.0004
    --------------------------------------------
      LOOP:  cpu time      0.2865: real time      0.2867

 eigenvalue-minimisations  :  1064
 total energy-change (2. order) :-0.1800387E+02  (-0.1764861E+02)
 number of electron      31.0000000 magnetization 
 augmentation part       31.0000000 magnetization 

 Free energy of the ion-electron system (eV)
  ---------------------------------------------------
  alpha Z        PSCENC =        92.80534813
  Ewald energy   TEWEN  =     -1831.03953168
  -Hartree energ DENC   =     -1016.15328824
  -exchange      EXHF   =         0.00000000
  -V(xc)+E(xc)   XCENC  =       106.34454506
  PAW double counting   =      2392.54527448    -2652.30260127
  entropy T*S    EENTRO =        -0.00111618
  eigenvalues    EBANDS =      -173.85036077
  atomic energy  EATOM  =      3068.49415586
  Solvation  Ediel_sol  =         0.00000000
  ---------------------------------------------------
  free energy    TOTEN  =       -13.15757461 eV

  energy without entropy =      -13.15645843  energy(sigma->0) =      -13.15701652


--------------------------------------------------------------------------------------------------------




--------------------------------------- Iteration      1(   4)  ---------------------------------------


     EDDAV:  cpu time      0.2498: real time      0.2500
       DOS:  cpu time      0.0003: real time      0.0003
    --------------------------------------------
      LOOP:  cpu time      0.2500: real time      0.2504

 eigenvalue-minimisations  :   912
 total energy-change (2. order) :-0.4192068E+00  (-0.4187437E+00)
 number of electron      31.0000000 magnetization 
 augmentation part       31.0000000 magnetization 

 Free energy of the ion-electron system (eV)
  ---------------------------------------------------
  alpha Z        PSCENC =        92.80534813
  Ewald energy   TEWEN  =     -1831.03953168
  -Hartree energ DENC   =     -1016.15328824
  -exchange      EXHF   =         0.00000000
  -V(xc)+E(xc)   XCENC  =       106.34454506
  PAW double counting   =      2392.54527448    -2652.30260127
  entropy T*S    EENTRO =        -0.00144015
  eigenvalues    EBANDS =      -174.26924365
  atomic energy  EATOM  =      3068.49415586
  Solvation  Ediel_sol  =         0.00000000
  ---------------------------------------------------
  free energy    TOTEN  =       -13.57678145 eV

  energy without entropy =      -13.57534131  energy(sigma->0) =      -13.57606138


--------------------------------------------------------------------------------------------------------




--------------------------------------- Iteration      1(   5)  ---------------------------------------


     EDDAV:  cpu time      0.3058: real time      0.3060
       DOS:  cpu time      0.0003: real time      0.0004
    CHARGE:  cpu time      0.0150: real time      0.0150
    MIXING:  cpu time      0.0005: real time      0.0006
    --------------------------------------------
      LOOP:  cpu time      0.3216: real time      0.3220

 eigenvalue-minimisations  :  1104
 total energy-change (2. order) :-0.9812765E-02  (-0.9811670E-02)
 number of electron      30.9999894 magnetization 
 augmentation part       10.6690893 magnetization 

 Broyden mixing:
  rms(total) = 0.76165E+00    rms(broyden)= 0.76163E+00
  rms(prec ) = 0.10012E+01
  weight for this iteration     100.00

 Free energy of the ion-electron system (eV)
  ---------------------------------------------------
  alpha Z        PSCENC =        92.80534813
  Ewald energy   TEWEN  =     -1831.03953168
  -Hartree energ DENC   =     -1016.15328824
  -exchange      EXHF   =         0.00000000
  -V(xc)+E(xc)   XCENC  =       106.34454506
  PAW double counting   =      2392.54527448    -2652.30260127
  entropy T*S    EENTRO =        -0.00144770
  eigenvalues    EBANDS =      -174.27904886
  atomic energy  EATOM  =      3068.49415586
  Solvation  Ediel_sol  =         0.00000000
  ---------------------------------------------------
  free energy    TOTEN  =       -13.58659422 eV

  energy without entropy =      -13.58514652  energy(sigma->0) =      -13.58587037


--------------------------------------------------------------------------------------------------------




--------------------------------------- Iteration      1(   6)  ---------------------------------------


    POTLOK:  cpu time      0.0087: real time      0.0088
    SETDIJ:  cpu time      0.0016: real time      0.0016
     EDDAV:  cpu time      0.2653: real time      0.2654
       DOS:  cpu time      0.0003: real time      0.0004
    CHARGE:  cpu time      0.0142: real time      0.0142
    MIXING:  cpu time      0.0004: real time      0.0005
    --------------------------------------------
      LOOP:  cpu time      0.2906: real time      0.2909

 eigenvalue-minimisations  :   976
 total energy-change (2. order) : 0.6583977E+00  (-0.1734921E+00)
 number of electron      30.9999895 magnetization 
 augmentation part       10.9214201 magnetization 

 Broyden mixing:
  rms(total) = 0.62239E+00    rms(broyden)= 0.62237E+00
  rms(prec ) = 0.65221E+00
  weight for this iteration     100.00

 eigenvalues of (default mixing * dielectric matrix)
  average eigenvalue GAMMA=   1.0493
  1.0493

 Free energy of the ion-electron system (eV)
  ---------------------------------------------------
  alpha Z        PSCENC =        92.80534813
  Ewald energy   TEWEN  =     -1831.03953168
  -Hartree energ DENC   =     -1001.22838081
  -exchange      EXHF   =         0.00000000
  -V(xc)+E(xc)   XCENC  =       106.28960905
  PAW double counting   =      2554.09236267    -2809.37031471
  entropy T*S    EENTRO =        -0.00194550
  eigenvalues    EBANDS =      -192.96949955
  atomic energy  EATOM  =      3068.49415586
  Solvation  Ediel_sol  =         0.00000000
  ---------------------------------------------------
  free energy    TOTEN  =       -12.92819655 eV

  energy without entropy =      -12.92625105  energy(sigma->0) =      -12.92722380


--------------------------------------------------------------------------------------------------------




--------------------------------------- Iteration      1(   7)  ---------------------------------------


    POTLOK:  cpu time      0.0086: real time      0.0088
    SETDIJ:  cpu time      0.0015: real time      0.0015
     EDDAV:  cpu time      0.2711: real time      0.2711
       DOS:  cpu time      0.0003: real time      0.0004
    CHARGE:  cpu time      0.0139: real time      0.0139
    MIXING:  cpu time      0.0004: real time      0.0004
    --------------------------------------------
      LOOP:  cpu time      0.2957: real time      0.2960

 eigenvalue-minimisations  :  1008
 total energy-change (2. order) : 0.3606237E-01  (-0.6567518E-01)
 number of electron      30.9999895 magnetization 
 augmentation part       10.8797732 magnetization 

 Broyden mixing:
  rms(total) = 0.35463E+00    rms(broyden)= 0.35463E+00
  rms(prec ) = 0.36593E+00
  weight for this iteration     100.00

 eigenvalues of (default mixing * dielectric matrix)
  average eigenvalue GAMMA=   1.6892
  0.7452  2.6331

 Free energy of the ion-electron system (eV)
  ---------------------------------------------------
  alpha Z        PSCENC =        92.80534813
  Ewald energy   TEWEN  =     -1831.03953168
  -Hartree energ DENC   =     -1004.41551408
  -exchange      EXHF   =         0.00000000
  -V(xc)+E(xc)   XCENC  =       106.62742540
  PAW double counting   =      2718.67183653    -2977.44991822
  entropy T*S    EENTRO =        -0.00204580
  eigenvalues    EBANDS =      -186.58389032
  atomic energy  EATOM  =      3068.49415586
  Solvation  Ediel_sol  =         0.00000000
  ---------------------------------------------------
  free energy    TOTEN  =       -12.89213419 eV

  energy without entropy =      -12.89008838  energy(sigma->0) =      -12.89111129


--------------------------------------------------------------------------------------------------------




--------------------------------------- Iteration      1(   8)  ---------------------------------------


    POTLOK:  cpu time      0.0083: real time      0.0085
    SETDIJ:  cpu time      0.0015: real time      0.0015
     EDDAV:  cpu time      0.2705: real time      0.2706
       DOS:  cpu time      0.0003: real time      0.0003
    CHARGE:  cpu time      0.0139: real time      0.0139
    MIXING:  cpu time      0.0003: real time      0.0003
    --------------------------------------------
      LOOP:  cpu time      0.2949: real time      0.2952

 eigenvalue-minimisations  :   992
 total energy-change (2. order) :-0.1027149E-02  (-0.5450200E-02)
 number of electron      30.9999895 magnetization 
 augmentation part       10.8739369 magnetization 

 Broyden mixing:
  rms(total) = 0.68993E-01    rms(broyden)= 0.68993E-01
  rms(prec ) = 0.75536E-01
  weight for this iteration     100.00

 eigenvalues of (default mixing * dielectric matrix)
  average eigenvalue GAMMA=   1.4640
  2.4385  0.9767  0.9767

 Free energy of the ion-electron system (eV)
  ---------------------------------------------------
  alpha Z        PSCENC =        92.80534813
  Ewald energy   TEWEN  =     -1831.03953168
  -Hartree energ DENC   =     -1003.29623719
  -exchange      EXHF   =         0.00000000
  -V(xc)+E(xc)   XCENC  =       106.75879230
  PAW double counting   =      2956.49441294    -3216.73704356
  entropy T*S    EENTRO =        -0.00206171
  eigenvalues    EBANDS =      -186.37099643
  atomic energy  EATOM  =      3068.49415586
  Solvation  Ediel_sol  =         0.00000000
  ---------------------------------------------------
  free energy    TOTEN  =       -12.89316134 eV

  energy without entropy =      -12.89109963  energy(sigma->0) =      -12.89213048


--------------------------------------------------------------------------------------------------------




--------------------------------------- Iteration      1(   9)  ---------------------------------------


    POTLOK:  cpu time      0.0085: real time      0.0087
    SETDIJ:  cpu time      0.0015: real time      0.0015
     EDDAV:  cpu time      0.2671: real time      0.2672
       DOS:  cpu time      0.0003: real time      0.0003
    CHARGE:  cpu time      0.0138: real time      0.0138
    MIXING:  cpu time      0.0003: real time      0.0003
    --------------------------------------------
      LOOP:  cpu time      0.2915: real time      0.2919

 eigenvalue-minimisations  :   984
 total energy-change (2. order) : 0.3008946E-03  (-0.4356145E-03)
 number of electron      30.9999895 magnetization 
 augmentation part       10.8807678 magnetization 

 Broyden mixing:
  rms(total) = 0.10007E-01    rms(broyden)= 0.10007E-01
  rms(prec ) = 0.14937E-01
  weight for this iteration     100.00

 eigenvalues of (default mixing * dielectric matrix)
  average eigenvalue GAMMA=   1.4781
  2.3483  0.9294  0.9294  1.7052

 Free energy of the ion-electron system (eV)
  ---------------------------------------------------
  alpha Z        PSCENC =        92.80534813
  Ewald energy   TEWEN  =     -1831.03953168
  -Hartree energ DENC   =     -1002.28514136
  -exchange      EXHF   =         0.00000000
  -V(xc)+E(xc)   XCENC  =       106.73590847
  PAW double counting   =      3005.77859217    -3265.89365002
  entropy T*S    EENTRO =        -0.00202106
  eigenvalues    EBANDS =      -187.48652095
  atomic energy  EATOM  =      3068.49415586
  Solvation  Ediel_sol  =         0.00000000
  ---------------------------------------------------
  free energy    TOTEN  =       -12.89286044 eV

  energy without entropy =      -12.89083938  energy(sigma->0) =      -12.89184991


--------------------------------------------------------------------------------------------------------




--------------------------------------- Iteration      1(  10)  ---------------------------------------


    POTLOK:  cpu time      0.0082: real time      0.0084
    SETDIJ:  cpu time      0.0015: real time      0.0015
     EDDAV:  cpu time      0.2509: real time      0.2509
       DOS:  cpu time      0.0003: real time      0.0003
    CHARGE:  cpu time      0.0139: real time      0.0139
    MIXING:  cpu time      0.0004: real time      0.0004
    --------------------------------------------
      LOOP:  cpu time      0.2752: real time      0.2754

 eigenvalue-minimisations  :   920
 total energy-change (2. order) :-0.1631274E-03  (-0.1267848E-03)
 number of electron      30.9999895 magnetization 
 augmentation part       10.8800768 magnetization 

 Broyden mixing:
  rms(total) = 0.62674E-02    rms(broyden)= 0.62673E-02
  rms(prec ) = 0.74562E-02
  weight for this iteration     100.00

 eigenvalues of (default mixing * dielectric matrix)
  average eigenvalue GAMMA=   1.6364
  2.4517  2.4517  0.9188  0.9188  1.4409

 Free energy of the ion-electron system (eV)
  ---------------------------------------------------
  alpha Z        PSCENC =        92.80534813
  Ewald energy   TEWEN  =     -1831.03953168
  -Hartree energ DENC   =     -1002.19305510
  -exchange      EXHF   =         0.00000000
  -V(xc)+E(xc)   XCENC  =       106.72515728
  PAW double counting   =      3005.69536802    -3265.79732431
  entropy T*S    EENTRO =        -0.00202372
  eigenvalues    EBANDS =      -187.58111805
  atomic energy  EATOM  =      3068.49415586
  Solvation  Ediel_sol  =         0.00000000
  ---------------------------------------------------
  free energy    TOTEN  =       -12.89302357 eV

  energy without entropy =      -12.89099985  energy(sigma->0) =      -12.89201171


--------------------------------------------------------------------------------------------------------




--------------------------------------- Iteration      1(  11)  ---------------------------------------


    POTLOK:  cpu time      0.0083: real time      0.0085
    SETDIJ:  cpu time      0.0015: real time      0.0015
     EDDAV:  cpu time      0.2741: real time      0.2743
       DOS:  cpu time      0.0003: real time      0.0003
    CHARGE:  cpu time      0.0138: real time      0.0138
    MIXING:  cpu time      0.0004: real time      0.0004
    --------------------------------------------
      LOOP:  cpu time      0.2983: real time      0.2988

 eigenvalue-minimisations  :  1008
 total energy-change (2. order) :-0.7838018E-04  (-0.1575203E-04)
 number of electron      30.9999895 magnetization 
 augmentation part       10.8796000 magnetization 

 Broyden mixing:
  rms(total) = 0.20232E-02    rms(broyden)= 0.20232E-02
  rms(prec ) = 0.26161E-02
  weight for this iteration     100.00

 eigenvalues of (default mixing * dielectric matrix)
  average eigenvalue GAMMA=   1.6321
  2.8189  2.3960  0.9387  0.9387  1.3500  1.3500

 Free energy of the ion-electron system (eV)
  ---------------------------------------------------
  alpha Z        PSCENC =        92.80534813
  Ewald energy   TEWEN  =     -1831.03953168
  -Hartree energ DENC   =     -1002.27475614
  -exchange      EXHF   =         0.00000000
  -V(xc)+E(xc)   XCENC  =       106.73166992
  PAW double counting   =      2998.12804823    -3258.24880912
  entropy T*S    EENTRO =        -0.00202675
  eigenvalues    EBANDS =      -187.48720040
  atomic energy  EATOM  =      3068.49415586
  Solvation  Ediel_sol  =         0.00000000
  ---------------------------------------------------
  free energy    TOTEN  =       -12.89310195 eV

  energy without entropy =      -12.89107520  energy(sigma->0) =      -12.89208857


--------------------------------------------------------------------------------------------------------




--------------------------------------- Iteration      1(  12)  ---------------------------------------


    POTLOK:  cpu time      0.0083: real time      0.0086
    SETDIJ:  cpu time      0.0015: real time      0.0015
     EDDAV:  cpu time      0.2684: real time      0.2685
       DOS:  cpu time      0.0003: real time      0.0003
    CHARGE:  cpu time      0.0138: real time      0.0138
    MIXING:  cpu time      0.0004: real time      0.0004
    --------------------------------------------
      LOOP:  cpu time      0.2926: real time      0.2930

 eigenvalue-minimisations  :   992
 total energy-change (2. order) :-0.6353956E-05  (-0.4104816E-05)
 number of electron      30.9999895 magnetization 
 augmentation part       10.8801088 magnetization 

 Broyden mixing:
  rms(total) = 0.19173E-02    rms(broyden)= 0.19173E-02
  rms(prec ) = 0.20512E-02
  weight for this iteration     100.00

 eigenvalues of (default mixing * dielectric matrix)
  average eigenvalue GAMMA=   1.5270
  2.8590  2.4663  1.3561  1.3561  0.9544  0.9544  0.7426

 Free energy of the ion-electron system (eV)
  ---------------------------------------------------
  alpha Z        PSCENC =        92.80534813
  Ewald energy   TEWEN  =     -1831.03953168
  -Hartree energ DENC   =     -1002.23272355
  -exchange      EXHF   =         0.00000000
  -V(xc)+E(xc)   XCENC  =       106.73173001
  PAW double counting   =      2999.75536086    -3259.87212880
  entropy T*S    EENTRO =        -0.00202386
  eigenvalues    EBANDS =      -187.53329526
  atomic energy  EATOM  =      3068.49415586
  Solvation  Ediel_sol  =         0.00000000
  ---------------------------------------------------
  free energy    TOTEN  =       -12.89310830 eV

  energy without entropy =      -12.89108444  energy(sigma->0) =      -12.89209637


--------------------------------------------------------------------------------------------------------




--------------------------------------- Iteration      1(  13)  ---------------------------------------


    POTLOK:  cpu time      0.0083: real time      0.0086
    SETDIJ:  cpu time      0.0015: real time      0.0015
     EDDAV:  cpu time      0.2750: real time      0.2751
       DOS:  cpu time      0.0003: real time      0.0004
    --------------------------------------------
      LOOP:  cpu time      0.2851: real time      0.2855

 eigenvalue-minimisations  :  1016
 total energy-change (2. order) :-0.8045799E-07  (-0.5135440E-06)
 number of electron      30.9999895 magnetization 
 augmentation part       10.8801088 magnetization 

 Free energy of the ion-electron system (eV)
  ---------------------------------------------------
  alpha Z        PSCENC =        92.80534813
  Ewald energy   TEWEN  =     -1831.03953168
  -Hartree energ DENC   =     -1002.25083791
  -exchange      EXHF   =         0.00000000
  -V(xc)+E(xc)   XCENC  =       106.73274182
  PAW double counting   =      2998.76225169    -3258.88394791
  entropy T*S    EENTRO =        -0.00202418
  eigenvalues    EBANDS =      -187.51126420
  atomic energy  EATOM  =      3068.49415586
  Solvation  Ediel_sol  =         0.00000000
  ---------------------------------------------------
  free energy    TOTEN  =       -12.89310838 eV

  energy without entropy =      -12.89108421  energy(sigma->0) =      -12.89209630


--------------------------------------------------------------------------------------------------------




 average (electrostatic) potential at core
  the test charge radii are     0.9254  0.9521  0.9698
  (the norm of the test charge is              1.0000)
       1 -46.0448       2 -35.8913       3 -88.0640       4 -88.0640



 E-fermi :   2.5355     XC(G=0):  -9.5894     alpha+bet : -9.2421

 Fermi energy:         2.5355211077

 k-point     1 :       0.0000    0.0000    0.0000
  band No.  band energies     occupation 
      1     -20.2342      2.00000
      2     -20.2342      2.00000
      3     -20.2309      2.00000
      4     -10.4178      2.00000
      5      -9.2472      2.00000
      6      -3.6747      2.00000
      7      -3.6314      2.00000
      8      -3.6314      2.00000
      9      -3.3312      2.00000
     10      -3.3312      2.00000
     11      -1.7978      2.00000
     12       1.7385      2.00000
     13       2.6441      0.00212
     14       2.6442      0.00212
     15       2.9148      0.00000
     16       2.9148      0.00000
     17       5.5695      0.00000
     18       8.0671      0.00000
     19       9.2957      0.00000
     20      10.3554      0.00000
     21      10.3555      0.00000
     22      12.6597      0.00000
     23      12.7426      0.00000
     24      12.7426      0.00000

 k-point     2 :       0.1667    0.0000    0.0000
  band No.  band energies     occupation 
      1     -20.2471      2.00000
      2     -20.2372      2.00000
      3     -20.2279      2.00000
      4     -10.1490      2.00000
      5      -9.1150      2.00000
      6      -3.6284      2.00000
      7      -3.5999      2.00000
      8      -3.5633      2.00000
      9      -3.3575      2.00000
     10      -3.3290      2.00000
     11      -1.6404      2.00000
     12       1.0508      2.00000
     13       1.7730      2.00000
     14       1.9102      2.00000
     15       2.1223      2.00000
     16       2.9035      0.00000
     17       6.5824      0.00000
     18       8.1205      0.00000
     19       9.4610      0.00000
     20      10.8299      0.00000
     21      10.8616      0.00000
     22      11.5334      0.00000
     23      11.6588      0.00000
     24      12.3071      0.00000

 k-point     3 :       0.3333    0.0000    0.0000
  band No.  band energies     occupation 
      1     -20.2728      2.00000
      2     -20.2430      2.00000
      3     -20.2218      2.00000
      4      -9.4785      2.00000
      5      -8.8561      2.00000
      6      -3.5866      2.00000
      7      -3.5761      2.00000
      8      -3.4618      2.00000
      9      -3.3459      2.00000
     10      -3.2743      2.00000
     11      -1.5664      2.00000
     12      -0.6609      2.00000
     13       0.2869      2.00000
     14       1.4056      2.00000
     15       1.9964      2.00000
     16       2.6925      0.00001
     17       6.4089      0.00000
     18       7.6911      0.00000
     19       9.3234      0.00000
     20       9.9201      0.00000
     21      10.5210      0.00000
     22      10.7557      0.00000
     23      12.0266      0.00000
     24      14.5626      0.00000

 k-point     4 :       0.5000    0.0000    0.0000
  band No.  band energies     occupation 
      1     -20.2854      2.00000
      2     -20.2460      2.00000
      3     -20.2189      2.00000
      4      -8.9335      2.00000
      5      -8.8406      2.00000
      6      -3.7204      2.00000
      7      -3.5827      2.00000
      8      -3.4709      2.00000
      9      -3.2217      2.00000
     10      -3.1637      2.00000
     11      -1.9690      2.00000
     12      -1.3017      2.00000
     13       0.2912      2.00000
     14       1.1008      2.00000
     15       1.7965      2.00000
     16       2.5809      0.19898
     17       5.7137      0.00000
     18       7.8570      0.00000
     19       8.9379      0.00000
     20       9.8990      0.00000
     21      10.4948      0.00000
     22      10.8467      0.00000
     23      10.9345      0.00000
     24      14.7273      0.00000

 k-point     5 :       0.1667    0.1667    0.0000
  band No.  band energies     occupation 
      1     -20.2639      2.00000
      2     -20.2439      2.00000
      3     -20.2234      2.00000
      4      -9.6755      2.00000
      5      -8.9134      2.00000
      6      -3.5986      2.00000
      7      -3.5597      2.00000
      8      -3.4507      2.00000
      9      -3.3698      2.00000
     10      -3.3136      2.00000
     11      -1.4677      2.00000
     12       0.0856      2.00000
     13       0.1765      2.00000
     14       1.6232      2.00000
     15       1.8910      2.00000
     16       2.3563      2.00000
     17       7.4328      0.00000
     18       7.7159      0.00000
     19       9.4553      0.00000
     20      10.4464      0.00000
     21      10.6887      0.00000
     22      10.8714      0.00000
     23      11.5637      0.00000
     24      12.9788      0.00000

 k-point     6 :       0.3333    0.1667    0.0000
  band No.  band energies     occupation 
      1     -20.2787      2.00000
      2     -20.2525      2.00000
      3     -20.2188      2.00000
      4      -9.0347      2.00000
      5      -8.7507      2.00000
      6      -3.6225      2.00000
      7      -3.5449      2.00000
      8      -3.4231      2.00000
      9      -3.2957      2.00000
     10      -3.2402      2.00000
     11      -1.8468      2.00000
     12      -0.8824      2.00000
     13       0.1252      2.00000
     14       0.5993      2.00000
     15       1.5979      2.00000
     16       2.0603      2.00000
     17       6.4022      0.00000
     18       8.8165      0.00000
     19       9.3652      0.00000
     20       9.8004      0.00000
     21      10.4105      0.00000
     22      10.7464      0.00000
     23      11.7561      0.00000
     24      13.6908      0.00000

 k-point     7 :       0.3333    0.3333    0.0000
  band No.  band energies     occupation 
      1     -20.2694      2.00000
      2     -20.2693      2.00000
      3     -20.2174      2.00000
      4      -8.7425      2.00000
      5      -8.7425      2.00000
      6      -3.5203      2.00000
      7      -3.5203      2.00000
      8      -3.3925      2.00000
      9      -3.3106      2.00000
     10      -3.3106      2.00000
     11      -1.9883      2.00000
     12      -0.3531      2.00000
     13      -0.3531      2.00000
     14      -0.1573      2.00000
     15       1.5391      2.00000
     16       1.5391      2.00000
     17       6.2557      0.00000
     18       9.5814      0.00000
     19       9.5814      0.00000
     20      10.5386      0.00000
     21      10.5387      0.00000
     22      10.9595      0.00000
     23      12.0448      0.00000
     24      12.9320      0.00000

 k-point     8 :       0.0000    0.0000    0.3333
  band No.  band energies     occupation 
      1     -20.2343      2.00000
      2     -20.2342      2.00000
      3     -20.2310      2.00000
      4     -10.3562      2.00000
      5      -9.3484      2.00000
      6      -3.6312      2.00000
      7      -3.6312      2.00000
      8      -3.6260      2.00000
      9      -3.3312      2.00000
     10      -3.3312      2.00000
     11      -1.3849      2.00000
     12       0.7745      2.00000
     13       2.6098      0.03572
     14       2.6098      0.03568
     15       2.9530      0.00000
     16       2.9530      0.00000
     17       6.8079      0.00000
     18       8.0715      0.00000
     19       8.7670      0.00000
     20      10.2461      0.00000
     21      10.2462      0.00000
     22      12.1134      0.00000
     23      12.6390      0.00000
     24      12.6390      0.00000

 k-point     9 :       0.1667    0.0000    0.3333
  band No.  band energies     occupation 
      1     -20.2471      2.00000
      2     -20.2371      2.00000
      3     -20.2279      2.00000
      4     -10.0941      2.00000
      5      -9.1992      2.00000
      6      -3.6434      2.00000
      7      -3.5997      2.00000
      8      -3.5333      2.00000
      9      -3.3590      2.00000
     10      -3.3290      2.00000
     11      -1.3119      2.00000
     12       0.9736      2.00000
     13       1.2153      2.00000
     14       1.8971      2.00000
     15       2.1472      2.00000
     16       2.8669      0.00000
     17       7.2769      0.00000
     18       8.3654      0.00000
     19       9.1687      0.00000
     20      10.1775      0.00000
     21      10.9368      0.00000
     22      11.5205      0.00000
     23      11.6547      0.00000
     24      13.0461      0.00000

 k-point    10 :       0.0000    0.1667    0.3333
  band No.  band energies     occupation 
      1     -20.2471      2.00000
      2     -20.2371      2.00000
      3     -20.2279      2.00000
      4     -10.0945      2.00000
      5      -9.1989      2.00000
      6      -3.6299      2.00000
      7      -3.5996      2.00000
      8      -3.5442      2.00000
      9      -3.3583      2.00000
     10      -3.3289      2.00000
     11      -1.2978      2.00000
     12       0.7082      2.00000
     13       1.4686      2.00000
     14       1.9156      2.00000
     15       2.1164      2.00000
     16       2.9095      0.00000
     17       7.4416      0.00000
     18       7.9375      0.00000
     19       9.3402      0.00000
     20      10.5528      0.00000
     21      10.7594      0.00000
     22      11.1985      0.00000
     23      11.9151      0.00000
     24      12.7496      0.00000

 k-point    11 :       0.3333    0.0000    0.3333
  band No.  band energies     occupation 
      1     -20.2727      2.00000
      2     -20.2430      2.00000
      3     -20.2218      2.00000
      4      -9.4431      2.00000
      5      -8.8993      2.00000
      6      -3.6038      2.00000
      7      -3.5760      2.00000
      8      -3.4651      2.00000
      9      -3.3541      2.00000
     10      -3.2742      2.00000
     11      -1.5995      2.00000
     12      -0.5378      2.00000
     13       0.6123      2.00000
     14       1.4313      2.00000
     15       1.5560      2.00000
     16       2.6462      0.00175
     17       6.1381      0.00000
     18       8.1652      0.00000
     19       8.7953      0.00000
     20       9.9315      0.00000
     21      11.1062      0.00000
     22      11.1186      0.00000
     23      12.3389      0.00000
     24      13.8247      0.00000

 k-point    12 :       0.0000    0.3333    0.3333
  band No.  band energies     occupation 
      1     -20.2727      2.00000
      2     -20.2430      2.00000
      3     -20.2218      2.00000
      4      -9.4453      2.00000
      5      -8.8974      2.00000
      6      -3.5901      2.00000
      7      -3.5758      2.00000
      8      -3.4503      2.00000
      9      -3.3622      2.00000
     10      -3.2742      2.00000
     11      -1.5155      2.00000
     12      -0.7577      2.00000
     13       0.5062      2.00000
     14       1.4186      2.00000
     15       1.8671      2.00000
     16       2.6668      0.00020
     17       6.2551      0.00000
     18       7.6895      0.00000
     19       9.0247      0.00000
     20       9.8456      0.00000
     21      10.7831      0.00000
     22      10.9743      0.00000
     23      12.9719      0.00000
     24      13.8496      0.00000

 k-point    13 :       0.5000    0.0000    0.3333
  band No.  band energies     occupation 
      1     -20.2854      2.00000
      2     -20.2459      2.00000
      3     -20.2189      2.00000
      4      -8.9292      2.00000
      5      -8.8423      2.00000
      6      -3.7196      2.00000
      7      -3.5828      2.00000
      8      -3.4615      2.00000
      9      -3.2217      2.00000
     10      -3.1679      2.00000
     11      -2.0018      2.00000
     12      -1.4588      2.00000
     13       0.5713      2.00000
     14       1.1207      2.00000
     15       1.9236      2.00000
     16       2.5411      0.87404
     17       5.4807      0.00000
     18       7.9385      0.00000
     19       8.2915      0.00000
     20       9.1415      0.00000
     21      10.8434      0.00000
     22      10.8555      0.00000
     23      13.2798      0.00000
     24      14.1830      0.00000

 k-point    14 :       0.1667    0.1667    0.3333
  band No.  band energies     occupation 
      1     -20.2638      2.00000
      2     -20.2439      2.00000
      3     -20.2234      2.00000
      4      -9.6344      2.00000
      5      -8.9684      2.00000
      6      -3.5964      2.00000
      7      -3.5799      2.00000
      8      -3.4415      2.00000
      9      -3.3763      2.00000
     10      -3.3133      2.00000
     11      -1.3581      2.00000
     12       0.0532      2.00000
     13       0.4206      2.00000
     14       1.3084      2.00000
     15       1.9641      2.00000
     16       2.1813      2.00000
     17       7.3197      0.00000
     18       7.6908      0.00000
     19      10.2107      0.00000
     20      10.5212      0.00000
     21      10.5989      0.00000
     22      11.2214      0.00000
     23      11.4169      0.00000
     24      12.0767      0.00000

 k-point    15 :       0.3333    0.1667    0.3333
  band No.  band energies     occupation 
      1     -20.2787      2.00000
      2     -20.2526      2.00000
      3     -20.2189      2.00000
      4      -9.0175      2.00000
      5      -8.7676      2.00000
      6      -3.6176      2.00000
      7      -3.5485      2.00000
      8      -3.4227      2.00000
      9      -3.3010      2.00000
     10      -3.2452      2.00000
     11      -1.8660      2.00000
     12      -0.9568      2.00000
     13       0.1503      2.00000
     14       0.7105      2.00000
     15       1.6370      2.00000
     16       2.1378      2.00000
     17       6.3665      0.00000
     18       7.9860      0.00000
     19       9.1158      0.00000
     20      10.0337      0.00000
     21      10.3613      0.00000
     22      11.8007      0.00000
     23      12.1815      0.00000
     24      12.7608      0.00000

 k-point    16 :      -0.1667    0.5000    0.3333
  band No.  band energies     occupation 
      1     -20.2787      2.00000
      2     -20.2525      2.00000
      3     -20.2189      2.00000
      4      -9.0191      2.00000
      5      -8.7662      2.00000
      6      -3.6206      2.00000
      7      -3.5436      2.00000
      8      -3.4148      2.00000
      9      -3.3016      2.00000
     10      -3.2424      2.00000
     11      -1.8410      2.00000
     12      -1.0509      2.00000
     13       0.2882      2.00000
     14       0.5264      2.00000
     15       1.8055      2.00000
     16       2.1072      2.00000
     17       6.3840      0.00000
     18       7.8798      0.00000
     19       9.2097      0.00000
     20       9.9621      0.00000
     21      10.2024      0.00000
     22      11.7809      0.00000
     23      12.1795      0.00000
     24      12.9906      0.00000

 k-point    17 :       0.3333    0.3333    0.3333
  band No.  band energies     occupation 
      1     -20.2695      2.00000
      2     -20.2695      2.00000
      3     -20.2175      2.00000
      4      -8.7419      2.00000
      5      -8.7419      2.00000
      6      -3.5173      2.00000
      7      -3.5173      2.00000
      8      -3.3850      2.00000
      9      -3.3096      2.00000
     10      -3.3095      2.00000
     11      -1.9392      2.00000
     12      -0.4905      2.00000
     13      -0.4905      2.00000
     14      -0.2871      2.00000
     15       1.8295      2.00000
     16       1.8296      2.00000
     17       6.7314      0.00000
     18       8.2304      0.00000
     19       8.2305      0.00000
     20      10.3103      0.00000
     21      11.9719      0.00000
     22      12.1611      0.00000
     23      12.1611      0.00000
     24      12.2572      0.00000


--------------------------------------------------------------------------------------------------------


 soft charge-density along one line, spin component           1
         0         1         2         3         4         5         6         7         8         9
 total charge-density along one line

 pseudopotential strength for first ion, spin component:           1
-24.594   0.000   0.000   2.194  -0.000  -0.000   0.000   0.000
  0.000 -24.571  -0.000  -0.000   2.184   0.000   0.000   0.000
  0.000  -0.000 -24.594  -0.000   0.000   2.194   0.000   0.000
  2.194  -0.000  -0.000   6.704  -0.000  -0.000  -0.000   0.000
 -0.000   2.184   0.000  -0.000   6.705   0.000  -0.000   0.000
 -0.000   0.000   2.194  -0.000   0.000   6.704  -0.000   0.000
  0.000   0.000   0.000  -0.000  -0.000  -0.000   1.434   6.995
  0.000   0.000   0.000   0.000   0.000   0.000   6.995  33.901
 total augmentation occupancy for first ion, spin component:           1
  2.001  -0.000  -0.000   0.000   0.000  -0.000   0.000   0.000
 -0.000   2.001   0.000   0.000  -0.003  -0.000   0.000   0.000
 -0.000   0.000   2.001  -0.000   0.000   0.000   0.000   0.000
  0.000   0.000  -0.000   0.018   0.000  -0.000   0.000   0.000
  0.000  -0.003  -0.000  -0.000   0.025   0.000   0.000   0.000
 -0.000  -0.000   0.000  -0.000   0.000   0.018   0.000   0.000
  0.000   0.000   0.000   0.000   0.000   0.000   0.516  -0.001
  0.000   0.000   0.000   0.000   0.000   0.000  -0.001   0.000


------------------------ aborting loop because EDIFF is reached ----------------------------------------


    CHARGE:  cpu time      0.0139: real time      0.0139
    FORLOC:  cpu time      0.0007: real time      0.0007
    FORNL :  cpu time      0.0723: real time      0.0724
    STRESS:  cpu time      0.2214: real time      0.2214
    FORCOR:  cpu time      0.0091: real time      0.0091
    FORHAR:  cpu time      0.0026: real time      0.0026
    MIXING:  cpu time      0.0004: real time      0.0004
    OFIELD:  cpu time      0.0000: real time      0.0000

  FORCE on cell =-STRESS in cart. coord.  units (eV):
  Direction    XX          YY          ZZ          XY          YZ          ZX
  --------------------------------------------------------------------------------------
  Alpha Z    92.80535    92.80535    92.80535
  Ewald    -513.61999  -513.61954  -803.80059     0.00036    -0.00010     0.00016
  Hartree   423.57023   423.57018   155.11593    -0.00004     0.00001    -0.00001
  E(xc)    -152.31843  -152.31854  -152.39836    -0.00010     0.00001    -0.00001
  Local    -265.09868  -265.09998   284.73238    -0.00110     0.00006    -0.00011
  n-local    88.84699    88.10284    92.56837    -0.61582    -0.43607     0.61145
  augment    47.56603    47.56695    46.70258     0.00079     0.00002    -0.00004
  Kinetic   278.78558   278.47859   284.23080     1.29132    -0.87051     0.58307
  Fock        0.00000     0.00000     0.00000     0.00000     0.00000     0.00000
  -------------------------------------------------------------------------------------
  Total       0.01146     0.01146    -0.04355    -0.00000     0.00000     0.00000
  in kB       0.24347     0.24347    -0.92516    -0.00000     0.00000     0.00000
  external pressure =       -0.15 kB  Pullay stress =        0.00 kB


 VOLUME and BASIS-vectors are now :
 -----------------------------------------------------------------------------
  energy-cutoff  :      400.00
  volume of cell :       75.41
      direct lattice vectors                 reciprocal lattice vectors
     3.547339549 -0.000000000  0.000000000     0.281901404  0.162755852  0.000000000
    -1.773669774  3.072086165 -0.000000000     0.000000000  0.325511703  0.000000000
    -0.000000000  0.000000000  6.920210147     0.000000000  0.000000000  0.144504282

  length of vectors
     3.547339549  3.547339549  6.920210147     0.325511703  0.325511703  0.144504282


 FORCES acting on ions
    electron-ion (+dipol)            ewald-force                    non-local-force                 convergence-correction
 -----------------------------------------------------------------------------------------------
   -.423E-05 -.792E-05 0.198E-03   -.303E-04 -.568E-04 -.478E-03   0.269E-21 0.155E-21 0.602E-21   0.922E-07 0.173E-06 -.606E-05
   -.197E-04 -.369E-04 -.286E-03   -.143E-03 -.267E-03 0.620E-03   0.106E-20 -.215E-20 0.216E-20   0.230E-06 0.430E-06 0.832E-05
   0.698E-06 0.128E-02 0.188E+03   -.543E-05 0.219E-03 -.189E+03   0.179E-17 0.157E-16 0.597E+00   0.198E-07 -.145E-06 0.664E-03
   0.102E-02 0.637E-03 -.188E+03   0.179E-03 0.105E-03 0.189E+03   0.549E-16 -.589E-16 -.597E+00   -.126E-06 -.538E-07 -.661E-03
 -----------------------------------------------------------------------------------------------
   0.100E-02 0.187E-02 -.249E-02   -.920E-14 0.745E-14 -.284E-13   0.567E-16 -.432E-16 0.000E+00   0.216E-06 0.404E-06 0.501E-05


 POSITION                                       TOTAL-FORCE (eV/Angst)
 -----------------------------------------------------------------------------------
      0.00000      0.00000      3.46011        -0.000000     -0.000000     -0.000000
      0.00000      0.00000      0.00000         0.000000     -0.000000     -0.000000
     -0.00000      2.04805      5.48105         0.000000      0.000000      0.003063
      1.77367      1.02403      1.43917        -0.000000      0.000000     -0.003063
 -----------------------------------------------------------------------------------
    total drift:                                0.001000      0.001874     -0.002490


--------------------------------------------------------------------------------------------------------



  FREE ENERGIE OF THE ION-ELECTRON SYSTEM (eV)
  ---------------------------------------------------
  free  energy   TOTEN  =       -12.89310838 eV

  energy  without entropy=      -12.89108421  energy(sigma->0) =      -12.89209630



--------------------------------------------------------------------------------------------------------


    POTLOK:  cpu time      0.0102: real time      0.0105


--------------------------------------------------------------------------------------------------------




Found     6 degrees of freedom:


        Directions for atom     1:
        --------------------------

              1.0000000000000000      0.0000000000000000      0.0000000000000000
              0.0000000000000000      0.0000000000000000      1.0000000000000000


        Directions for atom     2:
        --------------------------

              1.0000000000000000      0.0000000000000000      0.0000000000000000
              0.0000000000000000      0.0000000000000000      1.0000000000000000


        Directions for atom     3:
        --------------------------

              1.0000000000000000      0.0000000000000000      0.0000000000000000
              0.0000000000000000      0.0000000000000000      1.0000000000000000
        Strain: 6 additional degrees of freedom
        ---------------------------------------
 Finite differences:
   Step               POTIM =    1.4999999999999999E-002
   Degrees of freedom DOF   =           12
  Warning from LATTYP: Monoclinic adjustment (A1->A3, A2->A1, A3->A2)!
  LATTYP: Found a base centered orthorhombic cell.
 ALAT       =     3.6537597351
 B/A-ratio  =     1.6816027258
 C/A-ratio  =     1.8939970465
  
  Lattice vectors:
  
 A1 = (   1.8268798676,  -3.0720861650,   0.0000000000)
 A2 = (   1.8268798675,   3.0720861650,   0.0000000000)
 A3 = (   0.0000000000,   0.0000000000,   6.9202101470)


Analysis of symmetry for initial positions (statically):
=====================================================================
 Subroutine PRICEL returns:
 Original cell was already a primitive cell.
 

 Routine SETGRP: Setting up the symmetry group for a 
 base centered orthorhombic supercell.


 Subroutine GETGRP returns: Found  4 space group operations
 (whereof  4 operations were pure point group operations)
 out of a pool of  8 trial point group operations.


The static configuration has the point symmetry C_2h.


Analysis of symmetry for dynamics (positions and initial velocities):
=====================================================================
 Subroutine PRICEL returns:
 Original cell was already a primitive cell.
 

 Routine SETGRP: Setting up the symmetry group for a 
 base centered orthorhombic supercell.


 Subroutine GETGRP returns: Found  4 space group operations
 (whereof  4 operations were pure point group operations)
 out of a pool of  8 trial point group operations.


The dynamic configuration has the point symmetry C_2h.


 Subroutine INISYM returns: Found  4 space group operations
 (whereof  4 operations are pure point group operations),
 and found     1 'primitive' translations


 KPOINTS: pymatgen with grid density = 600 / numbe

Automatic generation of k-mesh.
 Grid dimensions read from file:
 generate k-points for:    6    6    3

 Generating k-lattice:

  Cartesian coordinates                     Fractional coordinates (reciprocal lattice)
     0.045615114  0.027125975 -0.000000000     0.166666667  0.000000000  0.000000000
     0.000000000  0.054251951 -0.000000000    -0.000000000  0.166666667  0.000000000
    -0.000000000 -0.000000000  0.048168094     0.000000000  0.000000000  0.333333333

  Length of vectors
     0.053071246  0.054251951  0.048168094

  Shift w.r.t. Gamma in fractional coordinates (k-lattice)
     0.000000000  0.000000000  0.000000000

 
 Subroutine IBZKPT returns following result:
 ===========================================
 
 Found     34 irreducible k-points:
 
 Following reciprocal coordinates:
            Coordinates               Weight
  0.000000  0.000000  0.000000      1.000000
  0.166667  0.000000  0.000000      4.000000
  0.333333  0.000000  0.000000      4.000000
  0.500000  0.000000  0.000000      2.000000
  0.000000  0.166667  0.000000      2.000000
  0.166667  0.166667  0.000000      4.000000
  0.333333  0.166667  0.000000      4.000000
  0.500000  0.166667  0.000000      4.000000
 -0.333333  0.166667  0.000000      2.000000
  0.000000  0.333333  0.000000      2.000000
  0.166667  0.333333  0.000000      4.000000
  0.333333  0.333333  0.000000      2.000000
  0.000000  0.500000  0.000000      1.000000
  0.000000  0.000000  0.333333      2.000000
  0.166667  0.000000  0.333333      4.000000
 -0.166667  0.000000  0.333333      4.000000
  0.333333  0.000000  0.333333      4.000000
 -0.333333  0.000000  0.333333      4.000000
  0.500000  0.000000  0.333333      4.000000
  0.000000  0.166667  0.333333      2.000000
  0.000000 -0.166667  0.333333      2.000000
  0.166667  0.166667  0.333333      4.000000
 -0.166667 -0.166667  0.333333      4.000000
  0.333333  0.166667  0.333333      4.000000
 -0.333333 -0.166667  0.333333      4.000000
  0.500000  0.166667  0.333333      4.000000
  0.500000 -0.166667  0.333333      4.000000
 -0.333333  0.166667  0.333333      4.000000
  0.000000  0.333333  0.333333      2.000000
  0.000000 -0.333333  0.333333      2.000000
  0.166667  0.333333  0.333333      4.000000
 -0.166667 -0.333333  0.333333      4.000000
  0.333333  0.333333  0.333333      4.000000
  0.000000  0.500000  0.333333      2.000000
 
 Following cartesian coordinates:
            Coordinates               Weight
  0.000000  0.000000  0.000000      1.000000
  0.045615  0.027126  0.000000      4.000000
  0.091230  0.054252  0.000000      4.000000
  0.136845  0.081378  0.000000      2.000000
  0.000000  0.054252  0.000000      2.000000
  0.045615  0.081378  0.000000      4.000000
  0.091230  0.108504  0.000000      4.000000
  0.136845  0.135630  0.000000      4.000000
 -0.091230 -0.000000  0.000000      2.000000
  0.000000  0.108504  0.000000      2.000000
  0.045615  0.135630  0.000000      4.000000
  0.091230  0.162756  0.000000      2.000000
  0.000000  0.162756  0.000000      1.000000
  0.000000  0.000000  0.048168      2.000000
  0.045615  0.027126  0.048168      4.000000
 -0.045615 -0.027126  0.048168      4.000000
  0.091230  0.054252  0.048168      4.000000
 -0.091230 -0.054252  0.048168      4.000000
  0.136845  0.081378  0.048168      4.000000
  0.000000  0.054252  0.048168      2.000000
 -0.000000 -0.054252  0.048168      2.000000
  0.045615  0.081378  0.048168      4.000000
 -0.045615 -0.081378  0.048168      4.000000
  0.091230  0.108504  0.048168      4.000000
 -0.091230 -0.108504  0.048168      4.000000
  0.136845  0.135630  0.048168      4.000000
  0.136845  0.027126  0.048168      4.000000
 -0.091230 -0.000000  0.048168      4.000000
  0.000000  0.108504  0.048168      2.000000
 -0.000000 -0.108504  0.048168      2.000000
  0.045615  0.135630  0.048168      4.000000
 -0.045615 -0.135630  0.048168      4.000000
  0.091230  0.162756  0.048168      4.000000
  0.000000  0.162756  0.048168      2.000000
 
