 140 140   0   0
  0.1238883E+02  0.1201488E-08  0.1201488E-08  0.1201488E-08  0.5000000E-15
   1.0000000000000000E-004
  CAR 
 relax                                   
     13.84082616    -50.34444853  301      5.77600751      1.00000000
    -50.344  0.0000E+00  0.0000E+00
    -50.130  0.0000E+00  0.0000E+00
    -49.917  0.0000E+00  0.0000E+00
    -49.703  0.0000E+00  0.0000E+00
    -49.489  0.0000E+00  0.0000E+00
    -49.275  0.0000E+00  0.0000E+00
    -49.061  0.0000E+00  0.0000E+00
    -48.847  0.0000E+00  0.0000E+00
    -48.633  0.0000E+00  0.0000E+00
    -48.419  0.0000E+00  0.0000E+00
    -48.205  0.0000E+00  0.0000E+00
    -47.991  0.0000E+00  0.0000E+00
    -47.777  0.0000E+00  0.0000E+00
    -47.563  0.2053E-04  0.4391E-05
    -47.349  0.3685E+00  0.7884E-01
    -47.135  0.5429E-02  0.8000E-01
    -46.921  0.3642E+00  0.1579E+00
    -46.707  0.9687E-02  0.1600E+00
    -46.493  0.0000E+00  0.1600E+00
    -46.279  0.0000E+00  0.1600E+00
    -46.065  0.0000E+00  0.1600E+00
    -45.851  0.1011E-13  0.1600E+00
    -45.638  0.2645E-01  0.1657E+00
    -45.424  0.3475E+00  0.2400E+00
    -45.210  0.8648E-06  0.2400E+00
    -44.996  0.0000E+00  0.2400E+00
    -44.782  0.0000E+00  0.2400E+00
    -44.568  0.0000E+00  0.2400E+00
    -44.354  0.0000E+00  0.2400E+00
    -44.140  0.0000E+00  0.2400E+00
    -43.926  0.0000E+00  0.2400E+00
    -43.712  0.0000E+00  0.2400E+00
    -43.498  0.0000E+00  0.2400E+00
    -43.284  0.0000E+00  0.2400E+00
    -43.070  0.0000E+00  0.2400E+00
    -42.856  0.0000E+00  0.2400E+00
    -42.642  0.0000E+00  0.2400E+00
    -42.428  0.0000E+00  0.2400E+00
    -42.214  0.0000E+00  0.2400E+00
    -42.000  0.0000E+00  0.2400E+00
    -41.786  0.0000E+00  0.2400E+00
    -41.572  0.0000E+00  0.2400E+00
    -41.359  0.0000E+00  0.2400E+00
    -41.145  0.0000E+00  0.2400E+00
    -40.931  0.0000E+00  0.2400E+00
    -40.717  0.0000E+00  0.2400E+00
    -40.503  0.0000E+00  0.2400E+00
    -40.289  0.0000E+00  0.2400E+00
    -40.075  0.0000E+00  0.2400E+00
    -39.861  0.0000E+00  0.2400E+00
    -39.647  0.0000E+00  0.2400E+00
    -39.433  0.0000E+00  0.2400E+00
    -39.219  0.0000E+00  0.2400E+00
    -39.005  0.0000E+00  0.2400E+00
    -38.791  0.0000E+00  0.2400E+00
    -38.577  0.0000E+00  0.2400E+00
    -38.363  0.0000E+00  0.2400E+00
    -38.149  0.0000E+00  0.2400E+00
    -37.935  0.0000E+00  0.2400E+00
    -37.721  0.0000E+00  0.2400E+00
    -37.507  0.0000E+00  0.2400E+00
    -37.293  0.0000E+00  0.2400E+00
    -37.079  0.0000E+00  0.2400E+00
    -36.866  0.0000E+00  0.2400E+00
    -36.652  0.0000E+00  0.2400E+00
    -36.438  0.0000E+00  0.2400E+00
    -36.224  0.0000E+00  0.2400E+00
    -36.010  0.0000E+00  0.2400E+00
    -35.796  0.0000E+00  0.2400E+00
    -35.582  0.0000E+00  0.2400E+00
    -35.368  0.0000E+00  0.2400E+00
    -35.154  0.0000E+00  0.2400E+00
    -34.940  0.0000E+00  0.2400E+00
    -34.726  0.0000E+00  0.2400E+00
    -34.512  0.0000E+00  0.2400E+00
    -34.298  0.0000E+00  0.2400E+00
    -34.084  0.0000E+00  0.2400E+00
    -33.870  0.0000E+00  0.2400E+00
    -33.656  0.0000E+00  0.2400E+00
    -33.442  0.0000E+00  0.2400E+00
    -33.228  0.0000E+00  0.2400E+00
    -33.014  0.0000E+00  0.2400E+00
    -32.800  0.0000E+00  0.2400E+00
    -32.587  0.0000E+00  0.2400E+00
    -32.373  0.0000E+00  0.2400E+00
    -32.159  0.0000E+00  0.2400E+00
    -31.945  0.0000E+00  0.2400E+00
    -31.731  0.0000E+00  0.2400E+00
    -31.517  0.0000E+00  0.2400E+00
    -31.303  0.0000E+00  0.2400E+00
    -31.089  0.0000E+00  0.2400E+00
    -30.875  0.0000E+00  0.2400E+00
    -30.661  0.0000E+00  0.2400E+00
    -30.447  0.0000E+00  0.2400E+00
    -30.233  0.0000E+00  0.2400E+00
    -30.019  0.0000E+00  0.2400E+00
    -29.805  0.0000E+00  0.2400E+00
    -29.591  0.0000E+00  0.2400E+00
    -29.377  0.0000E+00  0.2400E+00
    -29.163  0.0000E+00  0.2400E+00
    -28.949  0.0000E+00  0.2400E+00
    -28.735  0.0000E+00  0.2400E+00
    -28.521  0.0000E+00  0.2400E+00
    -28.308  0.0000E+00  0.2400E+00
    -28.094  0.0000E+00  0.2400E+00
    -27.880  0.0000E+00  0.2400E+00
    -27.666  0.0000E+00  0.2400E+00
    -27.452  0.0000E+00  0.2400E+00
    -27.238  0.0000E+00  0.2400E+00
    -27.024  0.0000E+00  0.2400E+00
    -26.810  0.0000E+00  0.2400E+00
    -26.596  0.0000E+00  0.2400E+00
    -26.382  0.0000E+00  0.2400E+00
    -26.168  0.0000E+00  0.2400E+00
    -25.954  0.0000E+00  0.2400E+00
    -25.740  0.0000E+00  0.2400E+00
    -25.526  0.0000E+00  0.2400E+00
    -25.312  0.0000E+00  0.2400E+00
    -25.098  0.0000E+00  0.2400E+00
    -24.884  0.0000E+00  0.2400E+00
    -24.670  0.0000E+00  0.2400E+00
    -24.456  0.0000E+00  0.2400E+00
    -24.242  0.0000E+00  0.2400E+00
    -24.028  0.0000E+00  0.2400E+00
    -23.815  0.0000E+00  0.2400E+00
    -23.601  0.0000E+00  0.2400E+00
    -23.387  0.0000E+00  0.2400E+00
    -23.173  0.0000E+00  0.2400E+00
    -22.959  0.0000E+00  0.2400E+00
    -22.745  0.0000E+00  0.2400E+00
    -22.531  0.0000E+00  0.2400E+00
    -22.317  0.0000E+00  0.2400E+00
    -22.103  0.0000E+00  0.2400E+00
    -21.889  0.0000E+00  0.2400E+00
    -21.675  0.0000E+00  0.2400E+00
    -21.461  0.0000E+00  0.2400E+00
    -21.247  0.0000E+00  0.2400E+00
    -21.033  0.0000E+00  0.2400E+00
    -20.819  0.0000E+00  0.2400E+00
    -20.605  0.0000E+00  0.2400E+00
    -20.391  0.0000E+00  0.2400E+00
    -20.177  0.0000E+00  0.2400E+00
    -19.963  0.0000E+00  0.2400E+00
    -19.749  0.0000E+00  0.2400E+00
    -19.536  0.0000E+00  0.2400E+00
    -19.322  0.2083E-07  0.2400E+00
    -19.108  0.3642E+00  0.3179E+00
    -18.894  0.7576E+00  0.4800E+00
    -18.680  0.2628E+00  0.5362E+00
    -18.466  0.8589E+00  0.7200E+00
    -18.252  0.2910E-06  0.7200E+00
    -18.038  0.0000E+00  0.7200E+00
    -17.824  0.0000E+00  0.7200E+00
    -17.610  0.0000E+00  0.7200E+00
    -17.396  0.3530E-02  0.7208E+00
    -17.182  0.1117E+01  0.9598E+00
    -16.968  0.8124E-03  0.9600E+00
    -16.754  0.0000E+00  0.9600E+00
    -16.540  0.0000E+00  0.9600E+00
    -16.326  0.0000E+00  0.9600E+00
    -16.112  0.0000E+00  0.9600E+00
    -15.898  0.0000E+00  0.9600E+00
    -15.684  0.0000E+00  0.9600E+00
    -15.470  0.8083E-04  0.9600E+00
    -15.256  0.5324E+00  0.1074E+01
    -15.043  0.5893E+00  0.1200E+01
    -14.829  0.5336E-06  0.1200E+01
    -14.615  0.0000E+00  0.1200E+01
    -14.401  0.0000E+00  0.1200E+01
    -14.187  0.0000E+00  0.1200E+01
    -13.973  0.0000E+00  0.1200E+01
    -13.759  0.0000E+00  0.1200E+01
    -13.545  0.0000E+00  0.1200E+01
    -13.331  0.3162E-10  0.1200E+01
    -13.117  0.1354E+00  0.1229E+01
    -12.903  0.2385E+00  0.1280E+01
    -12.689  0.0000E+00  0.1280E+01
    -12.475  0.0000E+00  0.1280E+01
    -12.261  0.0000E+00  0.1280E+01
    -12.047  0.5658E-15  0.1280E+01
    -11.833  0.1789E-02  0.1280E+01
    -11.619  0.2616E+00  0.1336E+01
    -11.405  0.2866E+00  0.1398E+01
    -11.191  0.5523E+00  0.1516E+01
    -10.977  0.1951E-01  0.1520E+01
    -10.764  0.1115E+00  0.1544E+01
    -10.550  0.4210E+00  0.1634E+01
    -10.336  0.5855E+00  0.1759E+01
    -10.122  0.3798E-02  0.1760E+01
     -9.908  0.2910E+00  0.1822E+01
     -9.694  0.8069E+00  0.1995E+01
     -9.480  0.2387E-01  0.2000E+01
     -9.266  0.0000E+00  0.2000E+01
     -9.052  0.0000E+00  0.2000E+01
     -8.838  0.0000E+00  0.2000E+01
     -8.624  0.0000E+00  0.2000E+01
     -8.410  0.0000E+00  0.2000E+01
     -8.196  0.0000E+00  0.2000E+01
     -7.982  0.0000E+00  0.2000E+01
     -7.768  0.0000E+00  0.2000E+01
     -7.554  0.3368E-03  0.2000E+01
     -7.340  0.3757E+00  0.2080E+01
     -7.126  0.3982E+00  0.2166E+01
     -6.912  0.2645E+00  0.2222E+01
     -6.698  0.8311E-01  0.2240E+01
     -6.485  0.3837E+00  0.2322E+01
     -6.271  0.3683E+00  0.2401E+01
     -6.057  0.3383E+00  0.2473E+01
     -5.843  0.7190E-01  0.2489E+01
     -5.629  0.4765E+00  0.2591E+01
     -5.415  0.5222E+00  0.2702E+01
     -5.201  0.8254E-01  0.2720E+01
     -4.987  0.0000E+00  0.2720E+01
     -4.773  0.0000E+00  0.2720E+01
     -4.559  0.0000E+00  0.2720E+01
     -4.345  0.6028E-14  0.2720E+01
     -4.131  0.9194E-02  0.2722E+01
     -3.917  0.3639E+00  0.2800E+01
     -3.703  0.8631E-03  0.2800E+01
     -3.489  0.5617E-10  0.2800E+01
     -3.275  0.1054E+00  0.2823E+01
     -3.061  0.2685E+00  0.2880E+01
     -2.847  0.1330E-01  0.2883E+01
     -2.633  0.1710E+00  0.2919E+01
     -2.419  0.1965E+00  0.2961E+01
     -2.205  0.3616E+00  0.3039E+01
     -1.992  0.5659E+00  0.3160E+01
     -1.778  0.2371E+00  0.3211E+01
     -1.564  0.6798E+00  0.3356E+01
     -1.350  0.7416E+00  0.3515E+01
     -1.136  0.7451E+00  0.3674E+01
     -0.922  0.4528E+00  0.3771E+01
     -0.708  0.5006E+00  0.3878E+01
     -0.494  0.5325E+00  0.3992E+01
     -0.280  0.4440E+00  0.4087E+01
     -0.066  0.4540E+00  0.4184E+01
      0.148  0.3848E+00  0.4267E+01
      0.362  0.7705E+00  0.4431E+01
      0.576  0.4981E+00  0.4538E+01
      0.790  0.6404E+00  0.4675E+01
      1.004  0.2094E+00  0.4720E+01
      1.218  0.1599E+00  0.4754E+01
      1.432  0.6351E+00  0.4890E+01
      1.646  0.5078E+00  0.4999E+01
      1.860  0.6348E+00  0.5134E+01
      2.074  0.5816E+00  0.5259E+01
      2.287  0.5255E+00  0.5371E+01
      2.501  0.4996E+00  0.5478E+01
      2.715  0.4286E+00  0.5570E+01
      2.929  0.5863E+00  0.5695E+01
      3.143  0.7523E+00  0.5856E+01
      3.357  0.8726E+00  0.6043E+01
      3.571  0.6900E+00  0.6191E+01
      3.785  0.7638E+00  0.6354E+01
      3.999  0.7442E+00  0.6513E+01
      4.213  0.2247E+00  0.6561E+01
      4.427  0.2365E+00  0.6612E+01
      4.641  0.2091E+00  0.6657E+01
      4.855  0.3280E+00  0.6727E+01
      5.069  0.3823E+00  0.6809E+01
      5.283  0.3221E+00  0.6878E+01
      5.497  0.1165E-01  0.6880E+01
      5.711  0.1353E+00  0.6909E+01
      5.925  0.1705E+00  0.6945E+01
      6.139  0.3882E+00  0.7028E+01
      6.353  0.3962E+00  0.7113E+01
      6.566  0.2124E+00  0.7159E+01
      6.780  0.1206E+00  0.7185E+01
      6.994  0.6624E+00  0.7326E+01
      7.208  0.2002E+00  0.7369E+01
      7.422  0.1048E+00  0.7391E+01
      7.636  0.2747E+00  0.7450E+01
      7.850  0.6060E+00  0.7580E+01
      8.064  0.4764E+00  0.7682E+01
      8.278  0.3359E+00  0.7754E+01
      8.492  0.5518E+00  0.7872E+01
      8.706  0.5856E+00  0.7997E+01
      8.920  0.4887E+00  0.8102E+01
      9.134  0.5481E+00  0.8219E+01
      9.348  0.1876E+00  0.8259E+01
      9.562  0.3749E+00  0.8339E+01
      9.776  0.5013E+00  0.8446E+01
      9.990  0.5712E+00  0.8569E+01
     10.204  0.3552E+00  0.8645E+01
     10.418  0.4537E+00  0.8742E+01
     10.632  0.5456E+00  0.8858E+01
     10.846  0.4160E+00  0.8947E+01
     11.059  0.5853E-01  0.8960E+01
     11.273  0.2136E-06  0.8960E+01
     11.487  0.0000E+00  0.8960E+01
     11.701  0.0000E+00  0.8960E+01
     11.915  0.0000E+00  0.8960E+01
     12.129  0.0000E+00  0.8960E+01
     12.343  0.0000E+00  0.8960E+01
     12.557  0.0000E+00  0.8960E+01
     12.771  0.0000E+00  0.8960E+01
     12.985  0.0000E+00  0.8960E+01
     13.199  0.0000E+00  0.8960E+01
     13.413  0.0000E+00  0.8960E+01
     13.627  0.0000E+00  0.8960E+01
     13.841  0.0000E+00  0.8960E+01
