       N       E                     dE             d eps       ncg     rms          rms(c)
DAV:   1     0.532874022719E+04    0.53287E+04   -0.33160E+05  3584   0.141E+03
DAV:   2     0.259969534585E+02   -0.53027E+04   -0.50876E+04  4480   0.313E+02
DAV:   3    -0.550802702817E+03   -0.57680E+03   -0.56597E+03  4640   0.120E+02
DAV:   4    -0.568930925812E+03   -0.18128E+02   -0.17956E+02  4800   0.224E+01
DAV:   5    -0.569838214682E+03   -0.90729E+00   -0.90616E+00  5888   0.447E+00    0.118E+02
DAV:   6    -0.529988998970E+03    0.39849E+02   -0.14018E+02  4224   0.275E+01    0.654E+01
DAV:   7    -0.533253369233E+03   -0.32644E+01   -0.54995E+01  4896   0.137E+01    0.288E+01
DAV:   8    -0.529120995021E+03    0.41324E+01   -0.14849E+01  5280   0.925E+00    0.105E+01
DAV:   9    -0.529255660110E+03   -0.13467E+00   -0.50265E+00  4160   0.324E+00    0.517E+00
DAV:  10    -0.529269282703E+03   -0.13623E-01   -0.10802E+00  4352   0.158E+00    0.307E+00
DAV:  11    -0.529233801641E+03    0.35481E-01   -0.14831E-01  4960   0.888E-01    0.148E+00
DAV:  12    -0.529237959979E+03   -0.41583E-02   -0.44906E-02  4192   0.331E-01    0.500E-01
DAV:  13    -0.529236441513E+03    0.15185E-02   -0.58511E-03  4256   0.163E-01    0.236E-01
DAV:  14    -0.529236343244E+03    0.98269E-04   -0.19789E-03  4512   0.737E-02    0.139E-01
DAV:  15    -0.529236389472E+03   -0.46228E-04   -0.72942E-04  4224   0.404E-02    0.716E-02
DAV:  16    -0.529236387906E+03    0.15657E-05   -0.82936E-05  4256   0.175E-02    0.356E-02
DAV:  17    -0.529236383423E+03    0.44831E-05   -0.40452E-05  3936   0.131E-02    0.145E-02
DAV:  18    -0.529236385271E+03   -0.18479E-05   -0.14585E-05  4032   0.584E-03    0.579E-03
DAV:  19    -0.529236385118E+03    0.15323E-06   -0.88484E-07  2208   0.187E-03
   1 F= -.56228575E+03 E0= -.56227897E+03  d E =-.562286E+03
       N       E                     dE             d eps       ncg     rms          rms(c)
DAV:   1    -0.530051351904E+03   -0.81497E+00   -0.22161E+01  3840   0.849E+00    0.551E+00
DAV:   2    -0.529752184163E+03    0.29917E+00   -0.10892E+00  4256   0.210E+00    0.213E+00
DAV:   3    -0.529702692563E+03    0.49492E-01   -0.21741E-01  4672   0.919E-01    0.870E-01
DAV:   4    -0.529692386966E+03    0.10306E-01   -0.34902E-02  5120   0.429E-01    0.407E-01
DAV:   5    -0.529691344743E+03    0.10422E-02   -0.10200E-02  4192   0.163E-01    0.274E-01
DAV:   6    -0.529691130008E+03    0.21474E-03   -0.19852E-03  4384   0.799E-02    0.188E-01
DAV:   7    -0.529691023727E+03    0.10628E-03   -0.40361E-04  4832   0.432E-02    0.680E-02
DAV:   8    -0.529690961905E+03    0.61822E-04   -0.11932E-04  5120   0.202E-02    0.234E-02
DAV:   9    -0.529690948369E+03    0.13536E-04   -0.30438E-05  4960   0.923E-03    0.139E-02
DAV:  10    -0.529690945138E+03    0.32307E-05   -0.35758E-06  3488   0.322E-03    0.586E-03
DAV:  11    -0.529690945478E+03   -0.33988E-06   -0.89862E-07  2176   0.174E-03
   2 F= -.56236644E+03 E0= -.56235905E+03  d E =-.806928E-01
       N       E                     dE             d eps       ncg     rms          rms(c)
DAV:   1    -0.529653950921E+03    0.36994E-01   -0.29814E-01  3840   0.982E-01    0.647E-01
DAV:   2    -0.529649849356E+03    0.41016E-02   -0.14838E-02  4256   0.245E-01    0.247E-01
DAV:   3    -0.529649172189E+03    0.67717E-03   -0.29584E-03  4704   0.107E-01    0.983E-02
DAV:   4    -0.529649054262E+03    0.11793E-03   -0.46605E-04  5184   0.489E-02    0.467E-02
DAV:   5    -0.529649055871E+03   -0.16085E-05   -0.13283E-04  4224   0.188E-02    0.321E-02
DAV:   6    -0.529649065672E+03   -0.98012E-05   -0.26477E-05  4416   0.918E-03    0.223E-02
DAV:   7    -0.529649079306E+03   -0.13634E-04   -0.54461E-06  4320   0.511E-03    0.814E-03
DAV:   8    -0.529649085220E+03   -0.59135E-05   -0.12968E-06  2432   0.251E-03    0.226E-03
DAV:   9    -0.529649087032E+03   -0.18123E-05   -0.65300E-07  2176   0.143E-03    0.153E-03
DAV:  10    -0.529649087353E+03   -0.32130E-06   -0.21725E-07  2176   0.918E-04
   3 F= -.56236778E+03 E0= -.56236046E+03  d E =-.820296E-01
       N       E                     dE             d eps       ncg     rms          rms(c)
DAV:   1    -0.529840429289E+03   -0.19134E+00   -0.22212E+01  3584   0.788E+00    0.273E+00
DAV:   2    -0.529846076522E+03   -0.56472E-02   -0.72118E-01  4288   0.145E+00    0.946E-01
DAV:   3    -0.529836650518E+03    0.94260E-02   -0.42231E-02  4448   0.413E-01    0.451E-01
DAV:   4    -0.529834067927E+03    0.25826E-02   -0.10806E-02  4672   0.211E-01    0.246E-01
DAV:   5    -0.529833900829E+03    0.16710E-03   -0.27135E-03  4416   0.881E-02    0.183E-01
DAV:   6    -0.529833866219E+03    0.34609E-04   -0.61228E-04  4352   0.375E-02    0.125E-01
DAV:   7    -0.529833837211E+03    0.29008E-04   -0.11861E-04  4096   0.220E-02    0.571E-02
DAV:   8    -0.529833813679E+03    0.23531E-04   -0.36830E-05  5184   0.121E-02    0.127E-02
DAV:   9    -0.529833811703E+03    0.19767E-05   -0.13960E-05  4000   0.579E-03    0.151E-02
DAV:  10    -0.529833811993E+03   -0.28998E-06   -0.10408E-06  2176   0.195E-03
   4 F= -.56242604E+03 E0= -.56241821E+03  d E =-.582611E-01
       N       E                     dE             d eps       ncg     rms          rms(c)
DAV:   1    -0.529852657652E+03   -0.18846E-01   -0.43564E-01  3776   0.110E+00    0.380E-01
DAV:   2    -0.529852774883E+03   -0.11723E-03   -0.14206E-02  4320   0.203E-01    0.133E-01
DAV:   3    -0.529852593366E+03    0.18152E-03   -0.82131E-04  4448   0.580E-02    0.635E-02
DAV:   4    -0.529852543030E+03    0.50336E-04   -0.21213E-04  4544   0.294E-02    0.353E-02
DAV:   5    -0.529852535107E+03    0.79228E-05   -0.53964E-05  4544   0.124E-02    0.268E-02
DAV:   6    -0.529852530525E+03    0.45819E-05   -0.11900E-05  4128   0.524E-03    0.181E-02
DAV:   7    -0.529852525874E+03    0.46514E-05   -0.22580E-06  2720   0.324E-03    0.778E-03
DAV:   8    -0.529852522669E+03    0.32055E-05   -0.71258E-07  2176   0.184E-03    0.175E-03
DAV:   9    -0.529852522550E+03    0.11834E-06   -0.49224E-07  2176   0.123E-03
   5 F= -.56242706E+03 E0= -.56241917E+03  d E =-.592864E-01
       N       E                     dE             d eps       ncg     rms          rms(c)
DAV:   1    -0.529861233249E+03   -0.87106E-02   -0.10031E+01  3584   0.465E+00    0.107E+00
DAV:   2    -0.529879042261E+03   -0.17809E-01   -0.19679E-01  4416   0.675E-01    0.441E-01
DAV:   3    -0.529878487899E+03    0.55436E-03   -0.39072E-03  4800   0.120E-01    0.311E-01
DAV:   4    -0.529878425872E+03    0.62026E-04   -0.13628E-03  4512   0.613E-02    0.117E-01
DAV:   5    -0.529878453762E+03   -0.27890E-04   -0.30601E-04  5152   0.372E-02    0.505E-02
DAV:   6    -0.529878442512E+03    0.11251E-04   -0.64139E-05  4896   0.174E-02    0.346E-02
DAV:   7    -0.529878442619E+03   -0.10789E-06   -0.17037E-05  3968   0.650E-03    0.263E-02
DAV:   8    -0.529878440331E+03    0.22887E-05   -0.59789E-06  3712   0.466E-03    0.133E-02
DAV:   9    -0.529878440191E+03    0.14005E-06   -0.28213E-06  3168   0.261E-03
   6 F= -.56245732E+03 E0= -.56244943E+03  d E =-.302535E-01
       N       E                     dE             d eps       ncg     rms          rms(c)
DAV:   1    -0.529839646488E+03    0.38794E-01   -0.29973E+01  3584   0.804E+00    0.188E+00
DAV:   2    -0.529893433411E+03   -0.53787E-01   -0.59452E-01  4416   0.117E+00    0.759E-01
DAV:   3    -0.529891912468E+03    0.15209E-02   -0.12480E-02  4704   0.207E-01    0.536E-01
DAV:   4    -0.529891706797E+03    0.20567E-03   -0.40088E-03  4672   0.106E-01    0.198E-01
DAV:   5    -0.529891788836E+03   -0.82039E-04   -0.90204E-04  5120   0.631E-02    0.867E-02
DAV:   6    -0.529891757289E+03    0.31547E-04   -0.17650E-04  5024   0.287E-02    0.610E-02
DAV:   7    -0.529891755359E+03    0.19302E-05   -0.47036E-05  4224   0.109E-02    0.459E-02
DAV:   8    -0.529891748364E+03    0.69953E-05   -0.18222E-05  4288   0.805E-03    0.225E-02
DAV:   9    -0.529891747975E+03    0.38860E-06   -0.76004E-06  3744   0.425E-03
   7 F= -.56247810E+03 E0= -.56247023E+03  d E =-.510415E-01
       N       E                     dE             d eps       ncg     rms          rms(c)
DAV:   1    -0.529895268524E+03   -0.35202E-02   -0.50801E+00  3584   0.349E+00    0.774E-01
DAV:   2    -0.529903396550E+03   -0.81280E-02   -0.91995E-02  4224   0.472E-01    0.264E-01
DAV:   3    -0.529903161357E+03    0.23519E-03   -0.20034E-03  4768   0.845E-02    0.143E-01
DAV:   4    -0.529903140608E+03    0.20749E-04   -0.76662E-04  4576   0.510E-02    0.563E-02
DAV:   5    -0.529903131094E+03    0.95136E-05   -0.15071E-04  4416   0.258E-02    0.363E-02
DAV:   6    -0.529903134937E+03   -0.38426E-05   -0.58575E-05  4064   0.111E-02    0.171E-02
DAV:   7    -0.529903134137E+03    0.79953E-06   -0.66777E-06  3904   0.539E-03
   8 F= -.56249693E+03 E0= -.56248902E+03  d E =-.188213E-01
       N       E                     dE             d eps       ncg     rms          rms(c)
DAV:   1    -0.529842044876E+03    0.61090E-01   -0.45795E+01  3584   0.105E+01    0.241E+00
DAV:   2    -0.529916056075E+03   -0.74011E-01   -0.84030E-01  4224   0.143E+00    0.768E-01
DAV:   3    -0.529914372442E+03    0.16836E-02   -0.20163E-02  4640   0.253E-01    0.422E-01
DAV:   4    -0.529914129970E+03    0.24247E-03   -0.65374E-03  4704   0.153E-01    0.171E-01
DAV:   5    -0.529914074113E+03    0.55857E-04   -0.13376E-03  4768   0.748E-02    0.105E-01
DAV:   6    -0.529914104167E+03   -0.30054E-04   -0.43695E-04  4192   0.315E-02    0.508E-02
DAV:   7    -0.529914094140E+03    0.10026E-04   -0.53002E-05  4384   0.150E-02    0.359E-02
DAV:   8    -0.529914096427E+03   -0.22869E-05   -0.26165E-05  4384   0.827E-03    0.140E-02
DAV:   9    -0.529914096698E+03   -0.27051E-06   -0.75164E-06  3808   0.460E-03
   9 F= -.56253022E+03 E0= -.56252221E+03  d E =-.521107E-01
       N       E                     dE             d eps       ncg     rms          rms(c)
DAV:   1    -0.529895890859E+03    0.18206E-01   -0.79193E+00  3584   0.436E+00    0.976E-01
DAV:   2    -0.529908521107E+03   -0.12630E-01   -0.14285E-01  4224   0.590E-01    0.324E-01
DAV:   3    -0.529908165805E+03    0.35530E-03   -0.31336E-03  4768   0.105E-01    0.176E-01
DAV:   4    -0.529908129488E+03    0.36317E-04   -0.11793E-03  4608   0.637E-02    0.698E-02
DAV:   5    -0.529908115706E+03    0.13782E-04   -0.23409E-04  4384   0.319E-02    0.454E-02
DAV:   6    -0.529908121592E+03   -0.58855E-05   -0.91643E-05  4000   0.140E-02    0.214E-02
DAV:   7    -0.529908120113E+03    0.14789E-05   -0.10164E-05  4096   0.670E-03    0.152E-02
DAV:   8    -0.529908120981E+03   -0.86847E-06   -0.49328E-06  3712   0.345E-03
  10 F= -.56253354E+03 E0= -.56252549E+03  d E =-.554328E-01
       N       E                     dE             d eps       ncg     rms          rms(c)
DAV:   1    -0.529916819701E+03   -0.86996E-02   -0.99078E+00  3584   0.492E+00    0.806E-01
DAV:   2    -0.529933378252E+03   -0.16559E-01   -0.18444E-01  4256   0.665E-01    0.344E-01
DAV:   3    -0.529933040848E+03    0.33740E-03   -0.37247E-03  4736   0.113E-01    0.231E-01
DAV:   4    -0.529932948233E+03    0.92615E-04   -0.11887E-03  4512   0.585E-02    0.989E-02
DAV:   5    -0.529932964482E+03   -0.16249E-04   -0.25306E-04  4672   0.319E-02    0.439E-02
DAV:   6    -0.529932965506E+03   -0.10240E-05   -0.57457E-05  4320   0.156E-02    0.260E-02
DAV:   7    -0.529932965563E+03   -0.57604E-07   -0.14583E-05  4096   0.569E-03    0.214E-02
DAV:   8    -0.529932962408E+03    0.31553E-05   -0.53150E-06  3488   0.484E-03    0.958E-03
DAV:   9    -0.529932962178E+03    0.23020E-06   -0.46917E-06  3456   0.327E-03
  11 F= -.56255882E+03 E0= -.56255080E+03  d E =-.252869E-01
       N       E                     dE             d eps       ncg     rms          rms(c)
DAV:   1    -0.529820745144E+03    0.11222E+00   -0.89427E+01  3584   0.148E+01    0.239E+00
DAV:   2    -0.529975660308E+03   -0.15492E+00   -0.17247E+00  4256   0.205E+00    0.104E+00
DAV:   3    -0.529973723620E+03    0.19367E-02   -0.40046E-02  4608   0.339E-01    0.743E-01
DAV:   4    -0.529972611850E+03    0.11118E-02   -0.98189E-03  4704   0.174E-01    0.308E-01
DAV:   5    -0.529972773466E+03   -0.16162E-03   -0.20397E-03  4480   0.859E-02    0.130E-01
DAV:   6    -0.529972803385E+03   -0.29919E-04   -0.40829E-04  4640   0.406E-02    0.807E-02
DAV:   7    -0.529972794362E+03    0.90230E-05   -0.10438E-04  4256   0.156E-02    0.652E-02
DAV:   8    -0.529972769917E+03    0.24445E-04   -0.56782E-05  4448   0.156E-02    0.275E-02
DAV:   9    -0.529972768115E+03    0.18023E-05   -0.29320E-05  4352   0.863E-03    0.975E-03
DAV:  10    -0.529972768490E+03   -0.37537E-06   -0.44502E-06  3456   0.343E-03
  12 F= -.56260004E+03 E0= -.56259209E+03  d E =-.665006E-01
       N       E                     dE             d eps       ncg     rms          rms(c)
DAV:   1    -0.529961684169E+03    0.11084E-01   -0.78952E+00  3584   0.439E+00    0.719E-01
DAV:   2    -0.529974873208E+03   -0.13189E-01   -0.14673E-01  4256   0.594E-01    0.303E-01
DAV:   3    -0.529974605920E+03    0.26729E-03   -0.29041E-03  4704   0.998E-02    0.201E-01
DAV:   4    -0.529974534403E+03    0.71517E-04   -0.90853E-04  4544   0.510E-02    0.841E-02
DAV:   5    -0.529974548287E+03   -0.13885E-04   -0.19311E-04  4480   0.275E-02    0.380E-02
DAV:   6    -0.529974549482E+03   -0.11945E-05   -0.40476E-05  4224   0.132E-02    0.232E-02
DAV:   7    -0.529974549493E+03   -0.11423E-07   -0.10643E-05  3968   0.476E-03    0.188E-02
DAV:   8    -0.529974546999E+03    0.24937E-05   -0.45771E-06  3392   0.449E-03    0.810E-03
DAV:   9    -0.529974546883E+03    0.11604E-06   -0.34730E-06  3296   0.281E-03
  13 F= -.56260225E+03 E0= -.56259434E+03  d E =-.687175E-01
       N       E                     dE             d eps       ncg     rms          rms(c)
DAV:   1    -0.529963099251E+03    0.11448E-01   -0.16851E+01  3584   0.662E+00    0.969E-01
DAV:   2    -0.529989881737E+03   -0.26782E-01   -0.29536E-01  4224   0.861E-01    0.381E-01
DAV:   3    -0.529989206747E+03    0.67499E-03   -0.57272E-03  4768   0.142E-01    0.252E-01
DAV:   4    -0.529989037727E+03    0.16902E-03   -0.17986E-03  4448   0.745E-02    0.101E-01
DAV:   5    -0.529989065417E+03   -0.27690E-04   -0.37038E-04  4800   0.384E-02    0.401E-02
DAV:   6    -0.529989068401E+03   -0.29844E-05   -0.70914E-05  4512   0.173E-02    0.272E-02
DAV:   7    -0.529989069711E+03   -0.13097E-05   -0.13648E-05  4192   0.603E-03    0.212E-02
DAV:   8    -0.529989069650E+03    0.61300E-07   -0.71398E-06  3936   0.531E-03
  14 F= -.56263162E+03 E0= -.56262368E+03  d E =-.293682E-01
       N       E                     dE             d eps       ncg     rms          rms(c)
DAV:   1    -0.529746721668E+03    0.24235E+00   -0.15222E+02  3584   0.199E+01    0.299E+00
DAV:   2    -0.529998385509E+03   -0.25166E+00   -0.27992E+00  4224   0.267E+00    0.116E+00
DAV:   3    -0.529994921795E+03    0.34637E-02   -0.64759E-02  4672   0.423E-01    0.816E-01
DAV:   4    -0.529992943393E+03    0.19784E-02   -0.13756E-02  4480   0.214E-01    0.316E-01
DAV:   5    -0.529993224204E+03   -0.28081E-03   -0.30594E-03  4896   0.105E-01    0.122E-01
DAV:   6    -0.529993231821E+03   -0.76171E-05   -0.47234E-04  4768   0.453E-02    0.891E-02
DAV:   7    -0.529993226159E+03    0.56614E-05   -0.87727E-05  4448   0.169E-02    0.627E-02
DAV:   8    -0.529993216148E+03    0.10011E-04   -0.78822E-05  4480   0.168E-02    0.189E-02
DAV:   9    -0.529993216097E+03    0.51397E-07   -0.19250E-05  4160   0.805E-03    0.556E-03
DAV:  10    -0.529993216747E+03   -0.64980E-06   -0.41437E-06  3424   0.321E-03
  15 F= -.56268040E+03 E0= -.56267240E+03  d E =-.781421E-01
       N       E                     dE             d eps       ncg     rms          rms(c)
DAV:   1    -0.529963604705E+03    0.29611E-01   -0.12619E+01  3584   0.573E+00    0.825E-01
DAV:   2    -0.529983716537E+03   -0.20112E-01   -0.22150E-01  4192   0.746E-01    0.330E-01
DAV:   3    -0.529983217158E+03    0.49938E-03   -0.42111E-03  4768   0.123E-01    0.217E-01
DAV:   4    -0.529983085223E+03    0.13194E-03   -0.12896E-03  4448   0.628E-02    0.838E-02
DAV:   5    -0.529983110036E+03   -0.24814E-04   -0.27394E-04  4736   0.321E-02    0.345E-02
DAV:   6    -0.529983112117E+03   -0.20813E-05   -0.46626E-05  4256   0.144E-02    0.236E-02
DAV:   7    -0.529983113203E+03   -0.10856E-05   -0.94831E-06  4224   0.512E-03    0.181E-02
DAV:   8    -0.529983113387E+03   -0.18397E-06   -0.56176E-06  3712   0.469E-03
  16 F= -.56268318E+03 E0= -.56267517E+03  d E =-.809267E-01
       N       E                     dE             d eps       ncg     rms          rms(c)
DAV:   1    -0.529973263782E+03    0.98494E-02   -0.47472E+01  3584   0.114E+01    0.170E+00
DAV:   2    -0.530052059920E+03   -0.78796E-01   -0.87208E-01  4224   0.153E+00    0.647E-01
DAV:   3    -0.530049785067E+03    0.22749E-02   -0.18476E-02  4640   0.256E-01    0.452E-01
DAV:   4    -0.530049005405E+03    0.77966E-03   -0.68807E-03  4704   0.157E-01    0.190E-01
DAV:   5    -0.530049022822E+03   -0.17417E-04   -0.13400E-03  4480   0.732E-02    0.817E-02
DAV:   6    -0.530049055877E+03   -0.33054E-04   -0.31452E-04  4256   0.299E-02    0.570E-02
DAV:   7    -0.530049053562E+03    0.23141E-05   -0.51488E-05  4448   0.116E-02    0.511E-02
DAV:   8    -0.530049039001E+03    0.14562E-04   -0.20407E-05  4576   0.988E-03    0.230E-02
DAV:   9    -0.530049035165E+03    0.38359E-05   -0.22171E-05  4384   0.825E-03    0.836E-03
DAV:  10    -0.530049035353E+03   -0.18808E-06   -0.34043E-06  3392   0.350E-03
  17 F= -.56273339E+03 E0= -.56272518E+03  d E =-.502089E-01
       N       E                     dE             d eps       ncg     rms          rms(c)
DAV:   1    -0.529568223323E+03    0.48081E+00   -0.32977E+02  3584   0.302E+01    0.453E+00
DAV:   2    -0.530156682261E+03   -0.58846E+00   -0.64268E+00  4224   0.412E+00    0.172E+00
DAV:   3    -0.530148652951E+03    0.80293E-02   -0.16827E-01  4640   0.660E-01    0.131E+00
DAV:   4    -0.530141936718E+03    0.67162E-02   -0.38051E-02  4672   0.380E-01    0.562E-01
DAV:   5    -0.530142175342E+03   -0.23862E-03   -0.89802E-03  4384   0.177E-01    0.207E-01
DAV:   6    -0.530142394779E+03   -0.21944E-03   -0.18590E-03  4096   0.696E-02    0.159E-01
DAV:   7    -0.530142354228E+03    0.40551E-04   -0.22129E-04  5088   0.251E-02    0.139E-01
DAV:   8    -0.530142263499E+03    0.90729E-04   -0.18028E-04  4800   0.283E-02    0.541E-02
DAV:   9    -0.530142252062E+03    0.11437E-04   -0.98455E-05  4768   0.182E-02    0.208E-02
DAV:  10    -0.530142252850E+03   -0.78792E-06   -0.16429E-05  3936   0.674E-03    0.125E-02
DAV:  11    -0.530142253265E+03   -0.41485E-06   -0.26439E-06  2880   0.254E-03
  18 F= -.56278568E+03 E0= -.56277686E+03  d E =-.102496E+00
       N       E                     dE             d eps       ncg     rms          rms(c)
DAV:   1    -0.530156181869E+03   -0.13929E-01   -0.44965E+01  3584   0.105E+01    0.172E+00
DAV:   2    -0.530222325393E+03   -0.66144E-01   -0.79747E-01  4320   0.148E+00    0.726E-01
DAV:   3    -0.530218689085E+03    0.36363E-02   -0.19563E-02  4608   0.287E-01    0.454E-01
DAV:   4    -0.530217944509E+03    0.74458E-03   -0.83822E-03  4704   0.161E-01    0.203E-01
DAV:   5    -0.530217927874E+03    0.16635E-04   -0.11174E-03  4608   0.699E-02    0.100E-01
DAV:   6    -0.530217965043E+03   -0.37168E-04   -0.30742E-04  4320   0.310E-02    0.544E-02
DAV:   7    -0.530217957941E+03    0.71012E-05   -0.66434E-05  4416   0.139E-02    0.457E-02
DAV:   8    -0.530217941890E+03    0.16052E-04   -0.22860E-05  5088   0.991E-03    0.177E-02
DAV:   9    -0.530217936795E+03    0.50943E-05   -0.17140E-05  4416   0.706E-03    0.716E-03
DAV:  10    -0.530217937282E+03   -0.48624E-06   -0.17821E-06  2720   0.261E-03
  19 F= -.56282037E+03 E0= -.56281121E+03  d E =-.346949E-01
       N       E                     dE             d eps       ncg     rms          rms(c)
DAV:   1    -0.530224715345E+03   -0.67785E-02   -0.20187E+01  3584   0.705E+00    0.115E+00
DAV:   2    -0.530253978528E+03   -0.29263E-01   -0.35404E-01  4320   0.989E-01    0.486E-01
DAV:   3    -0.530252254609E+03    0.17239E-02   -0.81714E-03  4608   0.192E-01    0.298E-01
DAV:   4    -0.530251948051E+03    0.30656E-03   -0.38156E-03  4608   0.108E-01    0.133E-01
DAV:   5    -0.530251935939E+03    0.12112E-04   -0.51074E-04  4576   0.474E-02    0.672E-02
DAV:   6    -0.530251950151E+03   -0.14212E-04   -0.13672E-04  4384   0.205E-02    0.363E-02
DAV:   7    -0.530251945803E+03    0.43483E-05   -0.28366E-05  4480   0.909E-03    0.304E-02
DAV:   8    -0.530251936957E+03    0.88455E-05   -0.99049E-06  4640   0.656E-03    0.114E-02
DAV:   9    -0.530251933900E+03    0.30577E-05   -0.74303E-06  3744   0.464E-03    0.458E-03
DAV:  10    -0.530251934206E+03   -0.30662E-06   -0.72591E-07  2208   0.171E-03
  20 F= -.56282695E+03 E0= -.56281754E+03  d E =-.412760E-01
       N       E                     dE             d eps       ncg     rms          rms(c)
DAV:   1    -0.530277096070E+03   -0.25162E-01   -0.29229E+01  3584   0.767E+00    0.152E+00
DAV:   2    -0.530312535241E+03   -0.35439E-01   -0.43380E-01  4352   0.110E+00    0.513E-01
DAV:   3    -0.530310955601E+03    0.15796E-02   -0.12128E-02  4576   0.215E-01    0.342E-01
DAV:   4    -0.530310734710E+03    0.22089E-03   -0.41132E-03  4608   0.114E-01    0.171E-01
DAV:   5    -0.530310744445E+03   -0.97347E-05   -0.56141E-04  4736   0.524E-02    0.810E-02
DAV:   6    -0.530310767787E+03   -0.23342E-04   -0.17640E-04  4224   0.240E-02    0.369E-02
DAV:   7    -0.530310760919E+03    0.68681E-05   -0.39182E-05  4480   0.118E-02    0.295E-02
DAV:   8    -0.530310754100E+03    0.68193E-05   -0.11012E-05  4928   0.672E-03    0.139E-02
DAV:   9    -0.530310751843E+03    0.22569E-05   -0.61081E-06  3712   0.401E-03    0.326E-03
DAV:  10    -0.530310751965E+03   -0.12212E-06   -0.49104E-07  2176   0.153E-03
  21 F= -.56285964E+03 E0= -.56285026E+03  d E =-.326862E-01
       N       E                     dE             d eps       ncg     rms          rms(c)
DAV:   1    -0.530296970821E+03    0.13781E-01   -0.60498E+01  3584   0.110E+01    0.220E+00
DAV:   2    -0.530372757300E+03   -0.75786E-01   -0.92027E-01  4352   0.159E+00    0.734E-01
DAV:   3    -0.530369839683E+03    0.29176E-02   -0.27659E-02  4544   0.311E-01    0.498E-01
DAV:   4    -0.530369335121E+03    0.50456E-03   -0.84792E-03  4544   0.167E-01    0.252E-01
DAV:   5    -0.530369367780E+03   -0.32659E-04   -0.11880E-03  4736   0.765E-02    0.115E-01
DAV:   6    -0.530369424341E+03   -0.56561E-04   -0.36710E-04  4256   0.353E-02    0.532E-02
DAV:   7    -0.530369412059E+03    0.12282E-04   -0.86414E-05  4480   0.175E-02    0.426E-02
DAV:   8    -0.530369400640E+03    0.11419E-04   -0.22754E-05  5184   0.972E-03    0.208E-02
DAV:   9    -0.530369397203E+03    0.34369E-05   -0.13321E-05  4064   0.592E-03    0.488E-03
DAV:  10    -0.530369397400E+03   -0.19678E-06   -0.10936E-06  2464   0.230E-03
  22 F= -.56288078E+03 E0= -.56287144E+03  d E =-.538251E-01
       N       E                     dE             d eps       ncg     rms          rms(c)
DAV:   1    -0.530372474003E+03   -0.30768E-02   -0.17015E+01  3584   0.588E+00    0.917E-01
DAV:   2    -0.530395388340E+03   -0.22914E-01   -0.25684E-01  4288   0.798E-01    0.386E-01
DAV:   3    -0.530394824560E+03    0.56378E-03   -0.51854E-03  4736   0.137E-01    0.279E-01
DAV:   4    -0.530394749400E+03    0.75160E-04   -0.18040E-03  4576   0.682E-02    0.139E-01
DAV:   5    -0.530394783586E+03   -0.34186E-04   -0.29884E-04  4832   0.366E-02    0.454E-02
DAV:   6    -0.530394793055E+03   -0.94687E-05   -0.77127E-05  4224   0.177E-02    0.200E-02
DAV:   7    -0.530394795157E+03   -0.21019E-05   -0.26358E-05  3936   0.782E-03    0.199E-02
DAV:   8    -0.530394793435E+03    0.17224E-05   -0.28649E-06  3040   0.380E-03    0.118E-02
DAV:   9    -0.530394793251E+03    0.18359E-06   -0.28197E-06  2848   0.275E-03
  23 F= -.56290918E+03 E0= -.56289987E+03  d E =-.283984E-01
       N       E                     dE             d eps       ncg     rms          rms(c)
DAV:   1    -0.530299636720E+03    0.95157E-01   -0.89981E+01  3584   0.135E+01    0.215E+00
DAV:   2    -0.530427122844E+03   -0.12749E+00   -0.14276E+00  4256   0.189E+00    0.886E-01
DAV:   3    -0.530425462375E+03    0.16605E-02   -0.36822E-02  4512   0.328E-01    0.659E-01
DAV:   4    -0.530424886746E+03    0.57563E-03   -0.90989E-03  4352   0.161E-01    0.336E-01
DAV:   5    -0.530425064319E+03   -0.17757E-03   -0.16548E-03  4928   0.847E-02    0.106E-01
DAV:   6    -0.530425112645E+03   -0.48326E-04   -0.41709E-04  4416   0.406E-02    0.513E-02
DAV:   7    -0.530425120802E+03   -0.81570E-05   -0.13894E-04  4192   0.180E-02    0.485E-02
DAV:   8    -0.530425110078E+03    0.10724E-04   -0.26714E-05  4640   0.111E-02    0.258E-02
DAV:   9    -0.530425109578E+03    0.50019E-06   -0.12560E-05  4000   0.600E-03    0.603E-03
DAV:  10    -0.530425109970E+03   -0.39223E-06   -0.17152E-06  2528   0.213E-03
  24 F= -.56294631E+03 E0= -.56293710E+03  d E =-.655272E-01
       N       E                     dE             d eps       ncg     rms          rms(c)
DAV:   1    -0.530398608878E+03    0.26501E-01   -0.21028E+01  3584   0.655E+00    0.103E+00
DAV:   2    -0.530426998420E+03   -0.28390E-01   -0.31777E-01  4288   0.893E-01    0.428E-01
DAV:   3    -0.530426374466E+03    0.62395E-03   -0.67733E-03  4736   0.155E-01    0.309E-01
DAV:   4    -0.530426274139E+03    0.10033E-03   -0.21979E-03  4544   0.761E-02    0.153E-01
DAV:   5    -0.530426316579E+03   -0.42441E-04   -0.37214E-04  4864   0.403E-02    0.500E-02
DAV:   6    -0.530426329330E+03   -0.12751E-04   -0.92542E-05  4192   0.192E-02    0.227E-02
DAV:   7    -0.530426331466E+03   -0.21353E-05   -0.30481E-05  4000   0.850E-03    0.220E-02
DAV:   8    -0.530426329291E+03    0.21752E-05   -0.41534E-06  3328   0.449E-03    0.124E-02
DAV:   9    -0.530426329208E+03    0.82349E-07   -0.29454E-06  2944   0.283E-03
  25 F= -.56295070E+03 E0= -.56294163E+03  d E =-.699235E-01
       N       E                     dE             d eps       ncg     rms          rms(c)
DAV:   1    -0.530419312005E+03    0.70173E-02   -0.36840E+01  3584   0.846E+00    0.157E+00
DAV:   2    -0.530465616280E+03   -0.46304E-01   -0.54263E-01  4384   0.120E+00    0.586E-01
DAV:   3    -0.530464337974E+03    0.12783E-02   -0.14193E-02  4608   0.220E-01    0.397E-01
DAV:   4    -0.530464192427E+03    0.14555E-03   -0.43838E-03  4672   0.122E-01    0.199E-01
DAV:   5    -0.530464214493E+03   -0.22066E-04   -0.66995E-04  4832   0.592E-02    0.844E-02
DAV:   6    -0.530464249492E+03   -0.34999E-04   -0.24080E-04  4384   0.264E-02    0.407E-02
DAV:   7    -0.530464243507E+03    0.59844E-05   -0.42884E-05  4576   0.119E-02    0.366E-02
DAV:   8    -0.530464237910E+03    0.55970E-05   -0.99612E-06  4768   0.619E-03    0.217E-02
DAV:   9    -0.530464234189E+03    0.37213E-05   -0.11905E-05  4320   0.613E-03    0.497E-03
DAV:  10    -0.530464234456E+03   -0.26681E-06   -0.17146E-06  2624   0.270E-03
  26 F= -.56297257E+03 E0= -.56296375E+03  d E =-.218722E-01
       N       E                     dE             d eps       ncg     rms          rms(c)
DAV:   1    -0.530452707356E+03    0.11527E-01   -0.21846E+01  3584   0.652E+00    0.120E+00
DAV:   2    -0.530479678534E+03   -0.26971E-01   -0.31704E-01  4384   0.921E-01    0.450E-01
DAV:   3    -0.530478851366E+03    0.82717E-03   -0.77846E-03  4608   0.168E-01    0.300E-01
DAV:   4    -0.530478786094E+03    0.65272E-04   -0.26372E-03  4704   0.934E-02    0.150E-01
DAV:   5    -0.530478795932E+03   -0.98383E-05   -0.39607E-04  4800   0.457E-02    0.651E-02
DAV:   6    -0.530478815353E+03   -0.19421E-04   -0.14564E-04  4256   0.204E-02    0.308E-02
DAV:   7    -0.530478811540E+03    0.38127E-05   -0.25136E-05  4320   0.921E-03    0.278E-02
DAV:   8    -0.530478807948E+03    0.35921E-05   -0.57077E-06  4160   0.468E-03    0.166E-02
DAV:   9    -0.530478805205E+03    0.27428E-05   -0.71569E-06  3744   0.473E-03    0.393E-03
DAV:  10    -0.530478805449E+03   -0.24362E-06   -0.10338E-06  2304   0.214E-03
  27 F= -.56297477E+03 E0= -.56296617E+03  d E =-.240698E-01
       N       E                     dE             d eps       ncg     rms          rms(c)
DAV:   1    -0.530472847866E+03    0.59573E-02   -0.23237E+00  3648   0.213E+00    0.391E-01
DAV:   2    -0.530475628512E+03   -0.27806E-02   -0.32954E-02  4384   0.295E-01    0.146E-01
DAV:   3    -0.530475523409E+03    0.10510E-03   -0.70354E-04  4608   0.551E-02    0.924E-02
DAV:   4    -0.530475526519E+03   -0.31095E-05   -0.27776E-04  4480   0.288E-02    0.477E-02
DAV:   5    -0.530475532265E+03   -0.57467E-05   -0.40868E-05  4576   0.147E-02    0.220E-02
DAV:   6    -0.530475538709E+03   -0.64437E-05   -0.16702E-05  3968   0.665E-03    0.930E-03
DAV:   7    -0.530475539225E+03   -0.51592E-06   -0.26394E-06  3008   0.306E-03
  28 F= -.56297554E+03 E0= -.56296687E+03  d E =-.248427E-01
       N       E                     dE             d eps       ncg     rms          rms(c)
DAV:   1    -0.530480758264E+03   -0.52196E-02   -0.37335E+00  3648   0.297E+00    0.770E-01
DAV:   2    -0.530487022478E+03   -0.62642E-02   -0.70554E-02  4480   0.425E-01    0.235E-01
DAV:   3    -0.530486690537E+03    0.33194E-03   -0.14108E-03  4768   0.799E-02    0.136E-01
DAV:   4    -0.530486669784E+03    0.20753E-04   -0.52899E-04  4800   0.419E-02    0.752E-02
DAV:   5    -0.530486659630E+03    0.10154E-04   -0.11665E-04  4224   0.216E-02    0.319E-02
DAV:   6    -0.530486664938E+03   -0.53077E-05   -0.50396E-05  3936   0.957E-03    0.205E-02
DAV:   7    -0.530486663013E+03    0.19244E-05   -0.48459E-06  3584   0.425E-03    0.155E-02
DAV:   8    -0.530486662461E+03    0.55281E-06   -0.17566E-06  2624   0.249E-03
  29 F= -.56298712E+03 E0= -.56297842E+03  d E =-.115728E-01
       N       E                     dE             d eps       ncg     rms          rms(c)
DAV:   1    -0.530464372224E+03    0.22291E-01   -0.20628E+01  3648   0.699E+00    0.184E+00
DAV:   2    -0.530499179666E+03   -0.34807E-01   -0.39242E-01  4448   0.100E+00    0.546E-01
DAV:   3    -0.530497458541E+03    0.17211E-02   -0.83420E-03  4800   0.188E-01    0.322E-01
DAV:   4    -0.530497343568E+03    0.11497E-03   -0.29192E-03  4800   0.991E-02    0.175E-01
DAV:   5    -0.530497304416E+03    0.39152E-04   -0.62650E-04  4640   0.502E-02    0.740E-02
DAV:   6    -0.530497337119E+03   -0.32703E-04   -0.25746E-04  3936   0.218E-02    0.476E-02
DAV:   7    -0.530497327542E+03    0.95766E-05   -0.25614E-05  4256   0.976E-03    0.361E-02
DAV:   8    -0.530497324944E+03    0.25980E-05   -0.10189E-05  4320   0.584E-03    0.129E-02
DAV:   9    -0.530497324401E+03    0.54382E-06   -0.49728E-06  3712   0.357E-03
  30 F= -.56299884E+03 E0= -.56299006E+03  d E =-.232934E-01
       N       E                     dE             d eps       ncg     rms          rms(c)
DAV:   1    -0.530509188691E+03   -0.11864E-01   -0.34495E+00  3648   0.304E+00    0.532E-01
DAV:   2    -0.530515556943E+03   -0.63683E-02   -0.71330E-02  4128   0.407E-01    0.243E-01
DAV:   3    -0.530515316460E+03    0.24048E-03   -0.14403E-03  4736   0.729E-02    0.165E-01
DAV:   4    -0.530515240229E+03    0.76232E-04   -0.54376E-04  4512   0.388E-02    0.639E-02
DAV:   5    -0.530515239398E+03    0.83108E-06   -0.11207E-04  4224   0.202E-02    0.194E-02
DAV:   6    -0.530515239783E+03   -0.38544E-06   -0.20906E-05  4000   0.731E-03    0.139E-02
DAV:   7    -0.530515238691E+03    0.10918E-05   -0.33192E-06  3136   0.317E-03    0.918E-03
DAV:   8    -0.530515237711E+03    0.98025E-06   -0.10111E-06  2368   0.236E-03
  31 F= -.56301008E+03 E0= -.56300128E+03  d E =-.112448E-01
       N       E                     dE             d eps       ncg     rms          rms(c)
DAV:   1    -0.530518543310E+03   -0.33046E-02   -0.12078E+01  3584   0.569E+00    0.999E-01
DAV:   2    -0.530540854310E+03   -0.22311E-01   -0.24985E-01  4128   0.764E-01    0.451E-01
DAV:   3    -0.530540044351E+03    0.80996E-03   -0.51210E-03  4736   0.135E-01    0.308E-01
DAV:   4    -0.530539761569E+03    0.28278E-03   -0.19396E-03  4416   0.727E-02    0.113E-01
DAV:   5    -0.530539771657E+03   -0.10087E-04   -0.37575E-04  4192   0.358E-02    0.369E-02
DAV:   6    -0.530539774596E+03   -0.29389E-05   -0.60917E-05  4096   0.127E-02    0.253E-02
DAV:   7    -0.530539771381E+03    0.32145E-05   -0.11343E-05  4096   0.569E-03    0.169E-02
DAV:   8    -0.530539769155E+03    0.22261E-05   -0.36404E-06  3520   0.435E-03    0.719E-03
DAV:   9    -0.530539768434E+03    0.72129E-06   -0.24815E-06  3040   0.273E-03
  32 F= -.56302215E+03 E0= -.56301329E+03  d E =-.233140E-01
       N       E                     dE             d eps       ncg     rms          rms(c)
DAV:   1    -0.530468417647E+03    0.71352E-01   -0.48385E+01  3584   0.114E+01    0.202E+00
DAV:   2    -0.530558489855E+03   -0.90072E-01   -0.10061E+00  4128   0.154E+00    0.889E-01
DAV:   3    -0.530555531626E+03    0.29582E-02   -0.21151E-02  4704   0.264E-01    0.617E-01
DAV:   4    -0.530554302777E+03    0.12288E-02   -0.80297E-03  4448   0.147E-01    0.204E-01
DAV:   5    -0.530554389047E+03   -0.86270E-04   -0.14524E-03  4096   0.659E-02    0.778E-02
DAV:   6    -0.530554400280E+03   -0.11233E-04   -0.15518E-04  4352   0.229E-02    0.480E-02
DAV:   7    -0.530554384842E+03    0.15438E-04   -0.46729E-05  4288   0.125E-02    0.282E-02
DAV:   8    -0.530554380790E+03    0.40518E-05   -0.13121E-05  4352   0.759E-03    0.122E-02
DAV:   9    -0.530554379692E+03    0.10984E-05   -0.75251E-06  3776   0.449E-03    0.460E-03
DAV:  10    -0.530554379763E+03   -0.70941E-07   -0.12119E-06  2720   0.196E-03
  33 F= -.56301188E+03 E0= -.56300289E+03  d E =-.130407E-01
       N       E                     dE             d eps       ncg     rms          rms(c)
DAV:   1    -0.530504505918E+03    0.49874E-01   -0.24853E+01  3584   0.815E+00    0.144E+00
DAV:   2    -0.530551223737E+03   -0.46718E-01   -0.53074E-01  4160   0.110E+00    0.657E-01
DAV:   3    -0.530548988053E+03    0.22357E-02   -0.11025E-02  4544   0.215E-01    0.428E-01
DAV:   4    -0.530548567143E+03    0.42091E-03   -0.40833E-03  4672   0.102E-01    0.197E-01
DAV:   5    -0.530548580588E+03   -0.13446E-04   -0.96158E-04  4256   0.568E-02    0.511E-02
DAV:   6    -0.530548599972E+03   -0.19384E-04   -0.19848E-04  4096   0.216E-02    0.366E-02
DAV:   7    -0.530548598189E+03    0.17833E-05   -0.31764E-05  4160   0.967E-03    0.258E-02
DAV:   8    -0.530548596307E+03    0.18818E-05   -0.75975E-06  4512   0.620E-03    0.129E-02
DAV:   9    -0.530548596905E+03   -0.59792E-06   -0.71837E-06  3776   0.432E-03
  34 F= -.56302396E+03 E0= -.56301506E+03  d E =-.251174E-01
       N       E                     dE             d eps       ncg     rms          rms(c)
DAV:   1    -0.530563428916E+03   -0.14833E-01   -0.18561E+00  3584   0.229E+00    0.406E-01
DAV:   2    -0.530566483859E+03   -0.30549E-02   -0.37192E-02  4256   0.312E-01    0.164E-01
DAV:   3    -0.530566314575E+03    0.16928E-03   -0.79667E-04  4672   0.585E-02    0.106E-01
DAV:   4    -0.530566269867E+03    0.44708E-04   -0.25849E-04  4608   0.311E-02    0.551E-02
DAV:   5    -0.530566259216E+03    0.10651E-04   -0.85965E-05  4352   0.167E-02    0.199E-02
DAV:   6    -0.530566258598E+03    0.61750E-06   -0.23514E-05  4000   0.673E-03    0.134E-02
DAV:   7    -0.530566256781E+03    0.18171E-05   -0.17481E-06  2784   0.288E-03    0.792E-03
DAV:   8    -0.530566255226E+03    0.15551E-05   -0.83224E-07  2432   0.188E-03    0.259E-03
DAV:   9    -0.530566254714E+03    0.51231E-06   -0.52340E-07  2176   0.127E-03
  35 F= -.56303288E+03 E0= -.56302394E+03  d E =-.892165E-02
       N       E                     dE             d eps       ncg     rms          rms(c)
DAV:   1    -0.530586779826E+03   -0.20525E-01   -0.16714E+01  3584   0.688E+00    0.122E+00
DAV:   2    -0.530614257954E+03   -0.27478E-01   -0.33322E-01  4224   0.936E-01    0.489E-01
DAV:   3    -0.530612846135E+03    0.14118E-02   -0.72341E-03  4608   0.172E-01    0.322E-01
DAV:   4    -0.530612449754E+03    0.39638E-03   -0.23484E-03  4544   0.946E-02    0.160E-01
DAV:   5    -0.530612408563E+03    0.41191E-04   -0.74478E-04  4352   0.493E-02    0.596E-02
DAV:   6    -0.530612420529E+03   -0.11967E-04   -0.19639E-04  4064   0.198E-02    0.411E-02
DAV:   7    -0.530612412839E+03    0.76909E-05   -0.16602E-05  4160   0.856E-03    0.243E-02
DAV:   8    -0.530612407644E+03    0.51949E-05   -0.73546E-06  4320   0.563E-03    0.804E-03
DAV:   9    -0.530612405992E+03    0.16516E-05   -0.39868E-06  3648   0.354E-03    0.323E-03
DAV:  10    -0.530612406071E+03   -0.78588E-07   -0.66656E-07  2304   0.159E-03
  36 F= -.56305283E+03 E0= -.56304378E+03  d E =-.288743E-01
       N       E                     dE             d eps       ncg     rms          rms(c)
DAV:   1    -0.530569985745E+03    0.42420E-01   -0.66962E+01  3584   0.138E+01    0.244E+00
DAV:   2    -0.530681284261E+03   -0.11130E+00   -0.13382E+00  4224   0.188E+00    0.970E-01
DAV:   3    -0.530676274768E+03    0.50095E-02   -0.30345E-02  4608   0.336E-01    0.657E-01
DAV:   4    -0.530674592624E+03    0.16821E-02   -0.94663E-03  4480   0.191E-01    0.307E-01
DAV:   5    -0.530674499491E+03    0.93133E-04   -0.27396E-03  4384   0.964E-02    0.118E-01
DAV:   6    -0.530674555888E+03   -0.56397E-04   -0.72092E-04  4288   0.386E-02    0.832E-02
DAV:   7    -0.530674533520E+03    0.22368E-04   -0.66896E-05  4480   0.169E-02    0.492E-02
DAV:   8    -0.530674520918E+03    0.12603E-04   -0.30903E-05  4608   0.114E-02    0.154E-02
DAV:   9    -0.530674517825E+03    0.30925E-05   -0.14568E-05  4256   0.678E-03    0.667E-03
DAV:  10    -0.530674517830E+03   -0.53915E-08   -0.24424E-06  3104   0.287E-03
  37 F= -.56306258E+03 E0= -.56305335E+03  d E =-.386277E-01
       N       E                     dE             d eps       ncg     rms          rms(c)
DAV:   1    -0.530653545815E+03    0.20972E-01   -0.51552E+00  3584   0.382E+00    0.680E-01
DAV:   2    -0.530661964380E+03   -0.84186E-02   -0.10349E-01  4224   0.517E-01    0.273E-01
DAV:   3    -0.530661479271E+03    0.48511E-03   -0.22164E-03  4512   0.992E-02    0.173E-01
DAV:   4    -0.530661389210E+03    0.90061E-04   -0.73404E-04  4576   0.518E-02    0.922E-02
DAV:   5    -0.530661392230E+03   -0.30196E-05   -0.23874E-04  4416   0.275E-02    0.334E-02
DAV:   6    -0.530661405800E+03   -0.13571E-04   -0.64004E-05  3968   0.110E-02    0.219E-02
DAV:   7    -0.530661407331E+03   -0.15306E-05   -0.50613E-06  3680   0.472E-03    0.130E-02
DAV:   8    -0.530661409149E+03   -0.18184E-05   -0.19206E-06  2816   0.303E-03    0.446E-03
DAV:   9    -0.530661410038E+03   -0.88904E-06   -0.14067E-06  2336   0.203E-03
  38 F= -.56306402E+03 E0= -.56305484E+03  d E =-.400666E-01
       N       E                     dE             d eps       ncg     rms          rms(c)
DAV:   1    -0.530649280161E+03    0.12129E-01   -0.35041E+00  3584   0.329E+00    0.667E-01
DAV:   2    -0.530655614229E+03   -0.63341E-02   -0.75200E-02  4256   0.444E-01    0.242E-01
DAV:   3    -0.530655250781E+03    0.36345E-03   -0.17754E-03  4608   0.789E-02    0.148E-01
DAV:   4    -0.530655140730E+03    0.11005E-03   -0.43207E-04  4800   0.392E-02    0.634E-02
DAV:   5    -0.530655139878E+03    0.85142E-06   -0.14013E-04  4320   0.203E-02    0.256E-02
DAV:   6    -0.530655144779E+03   -0.49009E-05   -0.27343E-05  4000   0.842E-03    0.213E-02
DAV:   7    -0.530655147555E+03   -0.27752E-05   -0.52320E-06  3712   0.379E-03    0.996E-03
DAV:   8    -0.530655149657E+03   -0.21020E-05   -0.11756E-06  2528   0.254E-03    0.261E-03
DAV:   9    -0.530655149971E+03   -0.31454E-06   -0.33341E-07  2176   0.150E-03
  39 F= -.56307491E+03 E0= -.56306565E+03  d E =-.108913E-01
       N       E                     dE             d eps       ncg     rms          rms(c)
DAV:   1    -0.530617759155E+03    0.37391E-01   -0.98607E+00  3584   0.552E+00    0.112E+00
DAV:   2    -0.530635464638E+03   -0.17705E-01   -0.21086E-01  4256   0.744E-01    0.405E-01
DAV:   3    -0.530634468457E+03    0.99618E-03   -0.50051E-03  4608   0.131E-01    0.248E-01
DAV:   4    -0.530634159033E+03    0.30942E-03   -0.11963E-03  4800   0.648E-02    0.105E-01
DAV:   5    -0.530634155848E+03    0.31850E-05   -0.37602E-04  4288   0.330E-02    0.432E-02
DAV:   6    -0.530634165940E+03   -0.10092E-04   -0.71875E-05  4000   0.137E-02    0.357E-02
DAV:   7    -0.530634170564E+03   -0.46239E-05   -0.13031E-05  4000   0.601E-03    0.164E-02
DAV:   8    -0.530634174471E+03   -0.39066E-05   -0.36546E-06  3648   0.389E-03    0.410E-03
DAV:   9    -0.530634174834E+03   -0.36340E-06   -0.63678E-07  2336   0.226E-03
  40 F= -.56308274E+03 E0= -.56307338E+03  d E =-.187153E-01
       N       E                     dE             d eps       ncg     rms          rms(c)
DAV:   1    -0.530623713696E+03    0.10461E-01   -0.52992E+00  3584   0.395E+00    0.779E-01
DAV:   2    -0.530635342340E+03   -0.11629E-01   -0.13162E-01  4160   0.564E-01    0.348E-01
DAV:   3    -0.530634902218E+03    0.44012E-03   -0.31957E-03  4640   0.103E-01    0.227E-01
DAV:   4    -0.530634743879E+03    0.15834E-03   -0.67773E-04  4544   0.465E-02    0.905E-02
DAV:   5    -0.530634761227E+03   -0.17348E-04   -0.22018E-04  4288   0.220E-02    0.381E-02
DAV:   6    -0.530634766466E+03   -0.52391E-05   -0.36117E-05  4224   0.999E-03    0.260E-02
DAV:   7    -0.530634765229E+03    0.12371E-05   -0.81727E-06  4128   0.564E-03    0.142E-02
DAV:   8    -0.530634766210E+03   -0.98101E-06   -0.35304E-06  3840   0.344E-03
  41 F= -.56309647E+03 E0= -.56308710E+03  d E =-.137341E-01
       N       E                     dE             d eps       ncg     rms          rms(c)
DAV:   1    -0.530563843829E+03    0.70921E-01   -0.25529E+01  3584   0.868E+00    0.173E+00
DAV:   2    -0.530619583506E+03   -0.55740E-01   -0.63318E-01  4128   0.124E+00    0.757E-01
DAV:   3    -0.530617589943E+03    0.19936E-02   -0.15387E-02  4672   0.222E-01    0.495E-01
DAV:   4    -0.530616812212E+03    0.77773E-03   -0.31776E-03  4672   0.102E-01    0.197E-01
DAV:   5    -0.530616878264E+03   -0.66051E-04   -0.10004E-03  4192   0.490E-02    0.863E-02
DAV:   6    -0.530616892294E+03   -0.14030E-04   -0.17460E-04  4672   0.230E-02    0.561E-02
DAV:   7    -0.530616883798E+03    0.84965E-05   -0.34231E-05  4128   0.113E-02    0.323E-02
DAV:   8    -0.530616885002E+03   -0.12048E-05   -0.18285E-05  4128   0.673E-03    0.835E-03
DAV:   9    -0.530616885711E+03   -0.70906E-06   -0.31412E-06  3264   0.359E-03
  42 F= -.56310743E+03 E0= -.56309805E+03  d E =-.246885E-01
       N       E                     dE             d eps       ncg     rms          rms(c)
DAV:   1    -0.530618670208E+03   -0.17852E-02   -0.28153E+00  3584   0.286E+00    0.489E-01
DAV:   2    -0.530624345871E+03   -0.56757E-02   -0.64163E-02  4384   0.397E-01    0.206E-01
DAV:   3    -0.530624107140E+03    0.23873E-03   -0.10660E-03  4640   0.658E-02    0.137E-01
DAV:   4    -0.530624053643E+03    0.53497E-04   -0.36600E-04  4544   0.322E-02    0.720E-02
DAV:   5    -0.530624050087E+03    0.35557E-05   -0.89050E-05  4320   0.192E-02    0.245E-02
DAV:   6    -0.530624051262E+03   -0.11750E-05   -0.28257E-05  4160   0.928E-03    0.111E-02
DAV:   7    -0.530624051235E+03    0.26987E-07   -0.60665E-06  3712   0.378E-03
  43 F= -.56311538E+03 E0= -.56310603E+03  d E =-.795045E-02
       N       E                     dE             d eps       ncg     rms          rms(c)
DAV:   1    -0.530585255319E+03    0.38796E-01   -0.25355E+01  3584   0.857E+00    0.148E+00
DAV:   2    -0.530636172937E+03   -0.50918E-01   -0.57534E-01  4384   0.119E+00    0.614E-01
DAV:   3    -0.530634192659E+03    0.19803E-02   -0.94279E-03  4640   0.193E-01    0.412E-01
DAV:   4    -0.530633723217E+03    0.46944E-03   -0.30941E-03  4416   0.942E-02    0.212E-01
DAV:   5    -0.530633727530E+03   -0.43130E-05   -0.76636E-04  4576   0.555E-02    0.692E-02
DAV:   6    -0.530633744868E+03   -0.17338E-04   -0.22468E-04  4288   0.268E-02    0.335E-02
DAV:   7    -0.530633744130E+03    0.73715E-06   -0.48790E-05  3968   0.106E-02    0.288E-02
DAV:   8    -0.530633740006E+03    0.41244E-05   -0.85047E-06  4416   0.608E-03    0.143E-02
DAV:   9    -0.530633739179E+03    0.82680E-06   -0.76627E-06  3712   0.427E-03
  44 F= -.56312736E+03 E0= -.56311811E+03  d E =-.199372E-01
       N       E                     dE             d eps       ncg     rms          rms(c)
DAV:   1    -0.530632256783E+03    0.14832E-02   -0.69503E-01  3584   0.142E+00    0.241E-01
DAV:   2    -0.530633657757E+03   -0.14010E-02   -0.15820E-02  4384   0.197E-01    0.102E-01
DAV:   3    -0.530633599281E+03    0.58476E-04   -0.26030E-04  4640   0.325E-02    0.679E-02
DAV:   4    -0.530633584994E+03    0.14287E-04   -0.89323E-05  4544   0.159E-02    0.357E-02
DAV:   5    -0.530633583243E+03    0.17514E-05   -0.22103E-05  4256   0.945E-03    0.119E-02
DAV:   6    -0.530633583198E+03    0.45089E-07   -0.67429E-06  3968   0.455E-03
  45 F= -.56312758E+03 E0= -.56311834E+03  d E =-.201540E-01
       N       E                     dE             d eps       ncg     rms          rms(c)
DAV:   1    -0.530641522272E+03   -0.79390E-02   -0.92332E-01  3584   0.158E+00    0.506E-01
DAV:   2    -0.530643730325E+03   -0.22081E-02   -0.25934E-02  4288   0.251E-01    0.138E-01
DAV:   3    -0.530643616447E+03    0.11388E-03   -0.65601E-04  4448   0.494E-02    0.855E-02
DAV:   4    -0.530643597349E+03    0.19098E-04   -0.31189E-04  4448   0.294E-02    0.395E-02
DAV:   5    -0.530643590572E+03    0.67773E-05   -0.53278E-05  4320   0.163E-02    0.284E-02
DAV:   6    -0.530643590387E+03    0.18501E-06   -0.12427E-05  4000   0.580E-03    0.147E-02
DAV:   7    -0.530643589560E+03    0.82646E-06   -0.23499E-06  2720   0.290E-03
  46 F= -.56313392E+03 E0= -.56312474E+03  d E =-.634033E-02
       N       E                     dE             d eps       ncg     rms          rms(c)
DAV:   1    -0.530648304825E+03   -0.47144E-02   -0.15873E+00  3584   0.208E+00    0.666E-01
DAV:   2    -0.530652106341E+03   -0.38015E-02   -0.44593E-02  4320   0.328E-01    0.181E-01
DAV:   3    -0.530651905679E+03    0.20066E-03   -0.11146E-03  4480   0.645E-02    0.113E-01
DAV:   4    -0.530651873086E+03    0.32593E-04   -0.54136E-04  4384   0.387E-02    0.517E-02
DAV:   5    -0.530651862959E+03    0.10127E-04   -0.92419E-05  4416   0.215E-02    0.373E-02
DAV:   6    -0.530651863395E+03   -0.43643E-06   -0.21557E-05  4000   0.761E-03    0.192E-02
DAV:   7    -0.530651862107E+03    0.12882E-05   -0.43517E-06  3616   0.377E-03    0.153E-02
DAV:   8    -0.530651861405E+03    0.70137E-06   -0.97285E-07  2176   0.182E-03
  47 F= -.56313738E+03 E0= -.56312829E+03  d E =-.979990E-02
       N       E                     dE             d eps       ncg     rms          rms(c)
DAV:   1    -0.530671548294E+03   -0.19686E-01   -0.59129E-01  3584   0.130E+00    0.404E-01
DAV:   2    -0.530672521256E+03   -0.97296E-03   -0.19878E-02  4416   0.233E-01    0.167E-01
DAV:   3    -0.530672366550E+03    0.15471E-03   -0.62143E-04  4352   0.540E-02    0.106E-01
DAV:   4    -0.530672329004E+03    0.37546E-04   -0.35263E-04  4256   0.304E-02    0.454E-02
DAV:   5    -0.530672316514E+03    0.12490E-04   -0.54199E-05  4832   0.174E-02    0.167E-02
DAV:   6    -0.530672314283E+03    0.22310E-05   -0.10847E-05  4192   0.599E-03    0.104E-02
DAV:   7    -0.530672312070E+03    0.22136E-05   -0.39958E-06  3456   0.314E-03    0.552E-03
DAV:   8    -0.530672311275E+03    0.79489E-06   -0.52236E-07  2176   0.205E-03
  48 F= -.56314226E+03 E0= -.56313320E+03  d E =-.488552E-02
       N       E                     dE             d eps       ncg     rms          rms(c)
DAV:   1    -0.530697392084E+03   -0.25080E-01   -0.12871E+00  3584   0.192E+00    0.596E-01
DAV:   2    -0.530699499970E+03   -0.21079E-02   -0.43150E-02  4416   0.343E-01    0.247E-01
DAV:   3    -0.530699160831E+03    0.33914E-03   -0.13398E-03  4352   0.793E-02    0.156E-01
DAV:   4    -0.530699078816E+03    0.82016E-04   -0.76596E-04  4256   0.447E-02    0.664E-02
DAV:   5    -0.530699057658E+03    0.21158E-04   -0.11682E-04  4896   0.255E-02    0.246E-02
DAV:   6    -0.530699054401E+03    0.32568E-05   -0.23314E-05  4320   0.875E-03    0.154E-02
DAV:   7    -0.530699051321E+03    0.30799E-05   -0.83461E-06  3872   0.449E-03    0.815E-03
DAV:   8    -0.530699050019E+03    0.13020E-05   -0.11902E-06  2400   0.295E-03    0.234E-03
DAV:   9    -0.530699049573E+03    0.44661E-06   -0.75715E-07  2176   0.159E-03
  49 F= -.56314605E+03 E0= -.56313702E+03  d E =-.866889E-02
       N       E                     dE             d eps       ncg     rms          rms(c)
DAV:   1    -0.530708668711E+03   -0.96187E-02   -0.22157E-01  3648   0.798E-01    0.248E-01
DAV:   2    -0.530709038265E+03   -0.36955E-03   -0.74252E-03  4416   0.142E-01    0.102E-01
DAV:   3    -0.530708981393E+03    0.56872E-04   -0.23171E-04  4416   0.329E-02    0.643E-02
DAV:   4    -0.530708967193E+03    0.14200E-04   -0.12762E-04  4288   0.182E-02    0.275E-02
DAV:   5    -0.530708960669E+03    0.65240E-05   -0.19547E-05  4576   0.104E-02    0.101E-02
DAV:   6    -0.530708959349E+03    0.13199E-05   -0.39851E-06  3616   0.369E-03    0.640E-03
DAV:   7    -0.530708957899E+03    0.14498E-05   -0.14179E-06  2368   0.198E-03    0.297E-03
DAV:   8    -0.530708957451E+03    0.44814E-06   -0.22800E-07  2176   0.131E-03
  50 F= -.56314644E+03 E0= -.56313742E+03  d E =-.905619E-02
       N       E                     dE             d eps       ncg     rms          rms(c)
DAV:   1    -0.530722412506E+03   -0.13455E-01   -0.51520E-01  3584   0.124E+00    0.334E-01
DAV:   2    -0.530723412434E+03   -0.99993E-03   -0.17193E-02  4416   0.211E-01    0.137E-01
DAV:   3    -0.530723307494E+03    0.10494E-03   -0.55171E-04  4480   0.489E-02    0.793E-02
DAV:   4    -0.530723278036E+03    0.29458E-04   -0.23870E-04  4320   0.273E-02    0.401E-02
DAV:   5    -0.530723269907E+03    0.81292E-05   -0.35470E-05  4480   0.126E-02    0.226E-02
DAV:   6    -0.530723267735E+03    0.21718E-05   -0.97316E-06  4192   0.505E-03    0.973E-03
DAV:   7    -0.530723265662E+03    0.20734E-05   -0.14053E-06  2176   0.254E-03    0.571E-03
DAV:   8    -0.530723263798E+03    0.18640E-05   -0.47521E-07  2176   0.150E-03    0.184E-03
DAV:   9    -0.530723263389E+03    0.40908E-06   -0.47457E-07  2176   0.127E-03
  51 F= -.56315017E+03 E0= -.56314118E+03  d E =-.373546E-02
       N       E                     dE             d eps       ncg     rms          rms(c)
DAV:   1    -0.530750933557E+03   -0.27670E-01   -0.34015E+00  3584   0.320E+00    0.863E-01
DAV:   2    -0.530757472717E+03   -0.65392E-02   -0.11304E-01  4416   0.541E-01    0.351E-01
DAV:   3    -0.530756781893E+03    0.69082E-03   -0.36278E-03  4480   0.125E-01    0.204E-01
DAV:   4    -0.530756594655E+03    0.18724E-03   -0.15515E-03  4320   0.699E-02    0.103E-01
DAV:   5    -0.530756564206E+03    0.30449E-04   -0.23357E-04  4608   0.322E-02    0.572E-02
DAV:   6    -0.530756563250E+03    0.95546E-06   -0.64613E-05  4320   0.129E-02    0.248E-02
DAV:   7    -0.530756557810E+03    0.54407E-05   -0.10507E-05  4224   0.636E-03    0.152E-02
DAV:   8    -0.530756552988E+03    0.48222E-05   -0.26369E-06  3008   0.330E-03    0.488E-03
DAV:   9    -0.530756551594E+03    0.13933E-05   -0.27109E-06  3264   0.255E-03    0.261E-03
DAV:  10    -0.530756551528E+03    0.66364E-07   -0.18673E-07  2176   0.887E-04
  52 F= -.56315632E+03 E0= -.56314738E+03  d E =-.988554E-02
       N       E                     dE             d eps       ncg     rms          rms(c)
DAV:   1    -0.530785494023E+03   -0.28942E-01   -0.13617E+01  3584   0.639E+00    0.174E+00
DAV:   2    -0.530811594593E+03   -0.26101E-01   -0.44964E-01  4416   0.108E+00    0.700E-01
DAV:   3    -0.530808857624E+03    0.27370E-02   -0.14390E-02  4480   0.248E-01    0.407E-01
DAV:   4    -0.530808109762E+03    0.74786E-03   -0.60598E-03  4448   0.139E-01    0.207E-01
DAV:   5    -0.530808018008E+03    0.91754E-04   -0.92565E-04  4576   0.636E-02    0.112E-01
DAV:   6    -0.530808030292E+03   -0.12284E-04   -0.26263E-04  4320   0.259E-02    0.486E-02
DAV:   7    -0.530808018690E+03    0.11602E-04   -0.41816E-05  4160   0.128E-02    0.297E-02
DAV:   8    -0.530808007928E+03    0.10762E-04   -0.11818E-05  4672   0.662E-03    0.977E-03
DAV:   9    -0.530808005105E+03    0.28234E-05   -0.86347E-06  3712   0.455E-03    0.523E-03
DAV:  10    -0.530808004963E+03    0.14214E-06   -0.55673E-07  2176   0.149E-03
  53 F= -.56315356E+03 E0= -.56314468E+03  d E =-.712697E-02
       N       E                     dE             d eps       ncg     rms          rms(c)
DAV:   1    -0.530768210071E+03    0.39795E-01   -0.55549E+00  3584   0.408E+00    0.109E+00
DAV:   2    -0.530778878491E+03   -0.10668E-01   -0.18732E-01  4416   0.694E-01    0.454E-01
DAV:   3    -0.530777699406E+03    0.11791E-02   -0.60050E-03  4480   0.162E-01    0.261E-01
DAV:   4    -0.530777417665E+03    0.28174E-03   -0.26851E-03  4384   0.907E-02    0.132E-01
DAV:   5    -0.530777409206E+03    0.84594E-05   -0.39140E-04  4544   0.420E-02    0.771E-02
DAV:   6    -0.530777433325E+03   -0.24119E-04   -0.10363E-04  4352   0.166E-02    0.333E-02
DAV:   7    -0.530777439707E+03   -0.63825E-05   -0.17545E-05  4256   0.817E-03    0.206E-02
DAV:   8    -0.530777443873E+03   -0.41656E-05   -0.46085E-06  3712   0.427E-03    0.699E-03
DAV:   9    -0.530777445682E+03   -0.18096E-05   -0.41321E-06  3584   0.314E-03    0.345E-03
DAV:  10    -0.530777445834E+03   -0.15208E-06   -0.21902E-07  2176   0.897E-04
  54 F= -.56315765E+03 E0= -.56314873E+03  d E =-.112161E-01
       N       E                     dE             d eps       ncg     rms          rms(c)
DAV:   1    -0.530774990977E+03    0.24547E-02   -0.12222E+00  3584   0.192E+00    0.520E-01
DAV:   2    -0.530778414039E+03   -0.34231E-02   -0.40453E-02  4512   0.315E-01    0.197E-01
DAV:   3    -0.530778225426E+03    0.18861E-03   -0.78140E-04  4608   0.566E-02    0.130E-01
DAV:   4    -0.530778189857E+03    0.35570E-04   -0.38912E-04  4384   0.298E-02    0.625E-02
DAV:   5    -0.530778190671E+03   -0.81422E-06   -0.71927E-05  4608   0.186E-02    0.261E-02
DAV:   6    -0.530778191110E+03   -0.43934E-06   -0.24850E-05  4576   0.102E-02    0.945E-03
DAV:   7    -0.530778192055E+03   -0.94430E-06   -0.73859E-06  3712   0.394E-03
  55 F= -.56316290E+03 E0= -.56315408E+03  d E =-.524984E-02
       N       E                     dE             d eps       ncg     rms          rms(c)
DAV:   1    -0.530767540930E+03    0.10650E-01   -0.26362E+00  3584   0.282E+00    0.768E-01
DAV:   2    -0.530774940854E+03   -0.73999E-02   -0.87395E-02  4512   0.463E-01    0.289E-01
DAV:   3    -0.530774533543E+03    0.40731E-03   -0.16802E-03  4544   0.832E-02    0.191E-01
DAV:   4    -0.530774457616E+03    0.75927E-04   -0.83540E-04  4384   0.435E-02    0.919E-02
DAV:   5    -0.530774459902E+03   -0.22861E-05   -0.15535E-04  4960   0.272E-02    0.383E-02
DAV:   6    -0.530774459761E+03    0.14067E-06   -0.53212E-05  4384   0.150E-02    0.137E-02
DAV:   7    -0.530774461354E+03   -0.15926E-05   -0.16055E-05  4000   0.583E-03    0.138E-02
DAV:   8    -0.530774460943E+03    0.41083E-06   -0.19715E-06  2656   0.299E-03
  56 F= -.56316578E+03 E0= -.56315711E+03  d E =-.813045E-02
       N       E                     dE             d eps       ncg     rms          rms(c)
DAV:   1    -0.530759955262E+03    0.14506E-01   -0.53564E-01  3584   0.121E+00    0.394E-01
DAV:   2    -0.530760606880E+03   -0.65162E-03   -0.18952E-02  4384   0.230E-01    0.209E-01
DAV:   3    -0.530760434785E+03    0.17209E-03   -0.81348E-04  4576   0.569E-02    0.132E-01
DAV:   4    -0.530760380625E+03    0.54160E-04   -0.19430E-04  4768   0.304E-02    0.530E-02
DAV:   5    -0.530760383398E+03   -0.27733E-05   -0.68964E-05  4448   0.136E-02    0.263E-02
DAV:   6    -0.530760389070E+03   -0.56717E-05   -0.23952E-05  4032   0.797E-03    0.160E-02
DAV:   7    -0.530760391300E+03   -0.22298E-05   -0.43509E-06  3392   0.441E-03    0.719E-03
DAV:   8    -0.530760393924E+03   -0.26241E-05   -0.10936E-06  2176   0.187E-03    0.180E-03
DAV:   9    -0.530760394068E+03   -0.14462E-06   -0.38783E-07  2176   0.119E-03
  57 F= -.56316974E+03 E0= -.56316119E+03  d E =-.396068E-02
       N       E                     dE             d eps       ncg     rms          rms(c)
DAV:   1    -0.530719005716E+03    0.41388E-01   -0.30216E+00  3584   0.287E+00    0.939E-01
DAV:   2    -0.530722700519E+03   -0.36948E-02   -0.10684E-01  4384   0.547E-01    0.496E-01
DAV:   3    -0.530721737848E+03    0.96267E-03   -0.45436E-03  4544   0.134E-01    0.311E-01
DAV:   4    -0.530721417809E+03    0.32004E-03   -0.10846E-03  4672   0.717E-02    0.126E-01
DAV:   5    -0.530721410063E+03    0.77460E-05   -0.39187E-04  4480   0.324E-02    0.633E-02
DAV:   6    -0.530721423753E+03   -0.13690E-04   -0.13075E-04  4320   0.187E-02    0.386E-02
DAV:   7    -0.530721428148E+03   -0.43943E-05   -0.24480E-05  3968   0.104E-02    0.172E-02
DAV:   8    -0.530721434532E+03   -0.63847E-05   -0.62914E-06  3712   0.429E-03    0.442E-03
DAV:   9    -0.530721434716E+03   -0.18348E-06   -0.20851E-06  2720   0.247E-03
  58 F= -.56317362E+03 E0= -.56316536E+03  d E =-.784082E-02
       N       E                     dE             d eps       ncg     rms          rms(c)
DAV:   1    -0.530713426683E+03    0.80078E-02   -0.46414E-01  3616   0.111E+00    0.303E-01
DAV:   2    -0.530714214987E+03   -0.78830E-03   -0.12170E-02  4544   0.183E-01    0.128E-01
DAV:   3    -0.530714129932E+03    0.85055E-04   -0.32549E-04  4512   0.357E-02    0.813E-02
DAV:   4    -0.530714109067E+03    0.20865E-04   -0.10331E-04  4480   0.166E-02    0.335E-02
DAV:   5    -0.530714114494E+03   -0.54272E-05   -0.16574E-05  4512   0.612E-03    0.126E-02
DAV:   6    -0.530714116377E+03   -0.18828E-05   -0.23156E-06  2944   0.300E-03    0.762E-03
DAV:   7    -0.530714117840E+03   -0.14632E-05   -0.56199E-07  2176   0.193E-03    0.255E-03
DAV:   8    -0.530714118399E+03   -0.55930E-06   -0.24162E-07  2176   0.949E-04
  59 F= -.56317677E+03 E0= -.56316854E+03  d E =-.315002E-02
       N       E                     dE             d eps       ncg     rms          rms(c)
DAV:   1    -0.530681770087E+03    0.32348E-01   -0.39303E+00  3584   0.322E+00    0.892E-01
DAV:   2    -0.530688470871E+03   -0.67008E-02   -0.10302E-01  4544   0.532E-01    0.370E-01
DAV:   3    -0.530687768093E+03    0.70278E-03   -0.27711E-03  4544   0.104E-01    0.235E-01
DAV:   4    -0.530687591243E+03    0.17685E-03   -0.85392E-04  4480   0.480E-02    0.978E-02
DAV:   5    -0.530687613070E+03   -0.21827E-04   -0.14071E-04  4608   0.179E-02    0.368E-02
DAV:   6    -0.530687619029E+03   -0.59586E-05   -0.22622E-05  4768   0.861E-03    0.231E-02
DAV:   7    -0.530687623084E+03   -0.40557E-05   -0.59198E-06  4416   0.521E-03    0.857E-03
DAV:   8    -0.530687624972E+03   -0.18880E-05   -0.13519E-06  2208   0.254E-03    0.228E-03
DAV:   9    -0.530687625122E+03   -0.14970E-06   -0.53339E-07  2176   0.127E-03
  60 F= -.56318071E+03 E0= -.56317257E+03  d E =-.709064E-02
       N       E                     dE             d eps       ncg     rms          rms(c)
DAV:   1    -0.530700116334E+03   -0.12491E-01   -0.10008E+00  3584   0.150E+00    0.301E-01
DAV:   2    -0.530701362310E+03   -0.12460E-02   -0.17580E-02  4416   0.220E-01    0.131E-01
DAV:   3    -0.530701279386E+03    0.82925E-04   -0.41121E-04  4480   0.408E-02    0.856E-02
DAV:   4    -0.530701257574E+03    0.21812E-04   -0.16270E-04  4512   0.219E-02    0.367E-02
DAV:   5    -0.530701251638E+03    0.59355E-05   -0.23959E-05  4512   0.101E-02    0.137E-02
DAV:   6    -0.530701250316E+03    0.13222E-05   -0.44943E-06  3936   0.382E-03    0.700E-03
DAV:   7    -0.530701248587E+03    0.17287E-05   -0.85288E-07  2176   0.212E-03    0.350E-03
DAV:   8    -0.530701247746E+03    0.84151E-06   -0.27107E-07  2176   0.128E-03
  61 F= -.56318435E+03 E0= -.56317616E+03  d E =-.363705E-02
       N       E                     dE             d eps       ncg     rms          rms(c)
DAV:   1    -0.530719887204E+03   -0.18639E-01   -0.35757E+00  3584   0.283E+00    0.569E-01
DAV:   2    -0.530724342454E+03   -0.44552E-02   -0.62844E-02  4416   0.415E-01    0.248E-01
DAV:   3    -0.530724045266E+03    0.29719E-03   -0.14586E-03  4480   0.767E-02    0.163E-01
DAV:   4    -0.530723968969E+03    0.76297E-04   -0.58346E-04  4480   0.414E-02    0.692E-02
DAV:   5    -0.530723959059E+03    0.99104E-05   -0.85828E-05  4544   0.190E-02    0.256E-02
DAV:   6    -0.530723957438E+03    0.16207E-05   -0.15999E-05  4096   0.738E-03    0.132E-02
DAV:   7    -0.530723954428E+03    0.30101E-05   -0.39326E-06  3968   0.408E-03    0.749E-03
DAV:   8    -0.530723952838E+03    0.15897E-05   -0.64572E-07  2176   0.206E-03    0.319E-03
DAV:   9    -0.530723952030E+03    0.80833E-06   -0.73101E-07  2176   0.148E-03
  62 F= -.56318819E+03 E0= -.56317992E+03  d E =-.747762E-02
       N       E                     dE             d eps       ncg     rms          rms(c)
DAV:   1    -0.530732185685E+03   -0.82328E-02   -0.75365E-01  3648   0.130E+00    0.262E-01
DAV:   2    -0.530733127015E+03   -0.94133E-03   -0.13223E-02  4416   0.190E-01    0.114E-01
DAV:   3    -0.530733064780E+03    0.62235E-04   -0.30768E-04  4480   0.353E-02    0.745E-02
DAV:   4    -0.530733048209E+03    0.16571E-04   -0.12338E-04  4480   0.190E-02    0.316E-02
DAV:   5    -0.530733043048E+03    0.51610E-05   -0.18194E-05  4416   0.870E-03    0.118E-02
DAV:   6    -0.530733041842E+03    0.12055E-05   -0.33055E-06  3712   0.338E-03    0.608E-03
DAV:   7    -0.530733040345E+03    0.14970E-05   -0.64004E-07  2176   0.186E-03    0.308E-03
DAV:   8    -0.530733039620E+03    0.72543E-06   -0.21258E-07  2176   0.111E-03
  63 F= -.56318862E+03 E0= -.56318031E+03  d E =-.790574E-02
       N       E                     dE             d eps       ncg     rms          rms(c)
DAV:   1    -0.530745474395E+03   -0.12434E-01   -0.16481E+00  3584   0.170E+00    0.365E-01
DAV:   2    -0.530747299906E+03   -0.18255E-02   -0.24204E-02  4448   0.255E-01    0.157E-01
DAV:   3    -0.530747186474E+03    0.11343E-03   -0.49693E-04  4544   0.488E-02    0.101E-01
DAV:   4    -0.530747173258E+03    0.13216E-04   -0.19612E-04  4480   0.236E-02    0.425E-02
DAV:   5    -0.530747169736E+03    0.35226E-05   -0.26468E-05  4640   0.109E-02    0.164E-02
DAV:   6    -0.530747168092E+03    0.16442E-05   -0.59104E-06  4032   0.427E-03    0.943E-03
DAV:   7    -0.530747166383E+03    0.17081E-05   -0.13794E-06  2400   0.229E-03    0.506E-03
DAV:   8    -0.530747165357E+03    0.10269E-05   -0.47859E-07  2176   0.171E-03    0.175E-03
DAV:   9    -0.530747165049E+03    0.30718E-06   -0.35156E-07  2176   0.102E-03
  64 F= -.56319239E+03 E0= -.56318405E+03  d E =-.376930E-02
       N       E                     dE             d eps       ncg     rms          rms(c)
DAV:   1    -0.530763710247E+03   -0.16545E-01   -0.53225E+00  3584   0.305E+00    0.654E-01
DAV:   2    -0.530769599178E+03   -0.58889E-02   -0.78203E-02  4448   0.459E-01    0.283E-01
DAV:   3    -0.530769228541E+03    0.37064E-03   -0.15947E-03  4544   0.874E-02    0.183E-01
DAV:   4    -0.530769187447E+03    0.41094E-04   -0.63360E-04  4480   0.424E-02    0.762E-02
DAV:   5    -0.530769185237E+03    0.22103E-05   -0.85123E-05  4608   0.194E-02    0.293E-02
DAV:   6    -0.530769183743E+03    0.14932E-05   -0.18841E-05  4128   0.761E-03    0.169E-02
DAV:   7    -0.530769180768E+03    0.29756E-05   -0.55822E-06  4032   0.412E-03    0.969E-03
DAV:   8    -0.530769178855E+03    0.19122E-05   -0.13131E-06  2336   0.290E-03    0.352E-03
DAV:   9    -0.530769178177E+03    0.67857E-06   -0.98625E-07  2176   0.166E-03
  65 F= -.56319581E+03 E0= -.56318741E+03  d E =-.718636E-02
       N       E                     dE             d eps       ncg     rms          rms(c)
DAV:   1    -0.530773288199E+03   -0.41093E-02   -0.28084E-01  3648   0.700E-01    0.150E-01
DAV:   2    -0.530773601878E+03   -0.31368E-03   -0.41028E-03  4448   0.105E-01    0.648E-02
DAV:   3    -0.530773583637E+03    0.18241E-04   -0.85060E-05  4544   0.201E-02    0.416E-02
DAV:   4    -0.530773580846E+03    0.27909E-05   -0.33251E-05  4480   0.969E-03    0.175E-02
DAV:   5    -0.530773578716E+03    0.21307E-05   -0.43905E-06  4000   0.444E-03    0.675E-03
DAV:   6    -0.530773577809E+03    0.90645E-06   -0.92189E-07  2208   0.184E-03
  66 F= -.56319593E+03 E0= -.56318753E+03  d E =-.731500E-02
       N       E                     dE             d eps       ncg     rms          rms(c)
DAV:   1    -0.530774103373E+03   -0.52466E-03   -0.17947E+00  3584   0.162E+00    0.357E-01
DAV:   2    -0.530775947601E+03   -0.18442E-02   -0.20781E-02  4448   0.215E-01    0.115E-01
DAV:   3    -0.530775912437E+03    0.35164E-04   -0.35228E-04  4512   0.359E-02    0.712E-02
DAV:   4    -0.530775916125E+03   -0.36880E-05   -0.92712E-05  4864   0.183E-02    0.344E-02
DAV:   5    -0.530775916542E+03   -0.41658E-06   -0.21919E-05  4768   0.105E-02    0.134E-02
DAV:   6    -0.530775916512E+03    0.29060E-07   -0.73181E-06  3936   0.427E-03
  67 F= -.56319900E+03 E0= -.56319061E+03  d E =-.306559E-02
       N       E                     dE             d eps       ncg     rms          rms(c)
DAV:   1    -0.530761838170E+03    0.14078E-01   -0.16171E+01  3584   0.486E+00    0.108E+00
DAV:   2    -0.530778575471E+03   -0.16737E-01   -0.18846E-01  4448   0.650E-01    0.344E-01
DAV:   3    -0.530778270508E+03    0.30496E-03   -0.32356E-03  4480   0.108E-01    0.214E-01
DAV:   4    -0.530778313828E+03   -0.43320E-04   -0.83450E-04  4736   0.561E-02    0.103E-01
DAV:   5    -0.530778330121E+03   -0.16292E-04   -0.19557E-04  4832   0.314E-02    0.404E-02
DAV:   6    -0.530778334727E+03   -0.46064E-05   -0.65483E-05  4128   0.129E-02    0.287E-02
DAV:   7    -0.530778332701E+03    0.20257E-05   -0.11618E-05  4768   0.573E-03    0.198E-02
DAV:   8    -0.530778332023E+03    0.67799E-06   -0.23191E-06  2976   0.332E-03
  68 F= -.56320359E+03 E0= -.56319525E+03  d E =-.765846E-02
       N       E                     dE             d eps       ncg     rms          rms(c)
DAV:   1    -0.530777964723E+03    0.36798E-03   -0.53991E-01  3648   0.900E-01    0.140E-01
DAV:   2    -0.530778523382E+03   -0.55866E-03   -0.62701E-03  4352   0.118E-01    0.647E-02
DAV:   3    -0.530778517631E+03    0.57505E-05   -0.10224E-04  4704   0.180E-02    0.440E-02
DAV:   4    -0.530778518130E+03   -0.49862E-06   -0.20994E-05  4416   0.749E-03    0.182E-02
DAV:   5    -0.530778520569E+03   -0.24390E-05   -0.67161E-06  3968   0.411E-03    0.551E-03
DAV:   6    -0.530778520974E+03   -0.40521E-06   -0.61612E-07  2368   0.160E-03
  69 F= -.56320558E+03 E0= -.56319725E+03  d E =-.198400E-02
       N       E                     dE             d eps       ncg     rms          rms(c)
DAV:   1    -0.530773365744E+03    0.51548E-02   -0.48592E+00  3584   0.270E+00    0.423E-01
DAV:   2    -0.530778369458E+03   -0.50037E-02   -0.56358E-02  4352   0.352E-01    0.192E-01
DAV:   3    -0.530778319664E+03    0.49794E-04   -0.93304E-04  4704   0.548E-02    0.129E-01
DAV:   4    -0.530778321377E+03   -0.17127E-05   -0.18181E-04  4288   0.221E-02    0.537E-02
DAV:   5    -0.530778338933E+03   -0.17557E-04   -0.58848E-05  4256   0.121E-02    0.164E-02
DAV:   6    -0.530778340362E+03   -0.14288E-05   -0.58445E-06  4256   0.468E-03    0.118E-02
DAV:   7    -0.530778340518E+03   -0.15552E-06   -0.17373E-06  2240   0.228E-03
  70 F= -.56321078E+03 E0= -.56320252E+03  d E =-.718842E-02
       N       E                     dE             d eps       ncg     rms          rms(c)
DAV:   1    -0.530754667191E+03    0.23673E-01   -0.19455E+01  3584   0.540E+00    0.849E-01
DAV:   2    -0.530774754713E+03   -0.20088E-01   -0.22649E-01  4384   0.708E-01    0.383E-01
DAV:   3    -0.530774563143E+03    0.19157E-03   -0.38270E-03  4736   0.110E-01    0.260E-01
DAV:   4    -0.530774556599E+03    0.65440E-05   -0.70859E-04  4288   0.448E-02    0.110E-01
DAV:   5    -0.530774623914E+03   -0.67315E-04   -0.24051E-04  4256   0.241E-02    0.331E-02
DAV:   6    -0.530774626799E+03   -0.28853E-05   -0.24155E-05  4544   0.948E-03    0.241E-02
DAV:   7    -0.530774626212E+03    0.58716E-06   -0.71042E-06  4000   0.453E-03
  71 F= -.56321783E+03 E0= -.56320968E+03  d E =-.142419E-01
       N       E                     dE             d eps       ncg     rms          rms(c)
DAV:   1    -0.530672035172E+03    0.10259E+00   -0.78138E+01  3584   0.108E+01    0.172E+00
DAV:   2    -0.530753940861E+03   -0.81906E-01   -0.92560E-01  4384   0.144E+00    0.764E-01
DAV:   3    -0.530753371187E+03    0.56967E-03   -0.16990E-02  4704   0.222E-01    0.529E-01
DAV:   4    -0.530753253731E+03    0.11746E-03   -0.28047E-03  4320   0.911E-02    0.231E-01
DAV:   5    -0.530753526285E+03   -0.27255E-03   -0.10024E-03  4224   0.495E-02    0.683E-02
DAV:   6    -0.530753530045E+03   -0.37603E-05   -0.10597E-04  4640   0.201E-02    0.496E-02
DAV:   7    -0.530753524749E+03    0.52961E-05   -0.27556E-05  4480   0.927E-03    0.305E-02
DAV:   8    -0.530753524471E+03    0.27777E-06   -0.11869E-05  4416   0.615E-03    0.105E-02
DAV:   9    -0.530753525378E+03   -0.90624E-06   -0.21383E-06  3136   0.319E-03
  72 F= -.56321826E+03 E0= -.56321033E+03  d E =-.146660E-01
       N       E                     dE             d eps       ncg     rms          rms(c)
DAV:   1    -0.530748244136E+03    0.52803E-02   -0.16656E+01  3584   0.499E+00    0.785E-01
DAV:   2    -0.530765588975E+03   -0.17345E-01   -0.19448E-01  4352   0.659E-01    0.354E-01
DAV:   3    -0.530765384006E+03    0.20497E-03   -0.32736E-03  4736   0.102E-01    0.238E-01
DAV:   4    -0.530765360422E+03    0.23584E-04   -0.65132E-04  4288   0.441E-02    0.100E-01
DAV:   5    -0.530765407723E+03   -0.47301E-04   -0.21182E-04  4288   0.232E-02    0.308E-02
DAV:   6    -0.530765406524E+03    0.11986E-05   -0.22982E-05  4448   0.905E-03    0.223E-02
DAV:   7    -0.530765404232E+03    0.22927E-05   -0.71165E-06  4000   0.440E-03    0.138E-02
DAV:   8    -0.530765403435E+03    0.79713E-06   -0.19253E-06  2624   0.294E-03
  73 F= -.56322018E+03 E0= -.56321215E+03  d E =-.165893E-01
       N       E                     dE             d eps       ncg     rms          rms(c)
DAV:   1    -0.530761310346E+03    0.40939E-02   -0.46374E+00  3584   0.272E+00    0.467E-01
DAV:   2    -0.530766017729E+03   -0.47074E-02   -0.53596E-02  4416   0.356E-01    0.195E-01
DAV:   3    -0.530765948803E+03    0.68926E-04   -0.92571E-04  4704   0.567E-02    0.130E-01
DAV:   4    -0.530765956900E+03   -0.80967E-05   -0.19909E-04  4480   0.243E-02    0.588E-02
DAV:   5    -0.530765969651E+03   -0.12751E-04   -0.58068E-05  4960   0.156E-02    0.200E-02
DAV:   6    -0.530765970168E+03   -0.51779E-06   -0.11783E-05  4384   0.737E-03    0.136E-02
DAV:   7    -0.530765970620E+03   -0.45161E-06   -0.35699E-06  3552   0.292E-03
  74 F= -.56322476E+03 E0= -.56321679E+03  d E =-.457346E-02
       N       E                     dE             d eps       ncg     rms          rms(c)
DAV:   1    -0.530719549028E+03    0.46421E-01   -0.41841E+01  3584   0.816E+00    0.141E+00
DAV:   2    -0.530762489884E+03   -0.42941E-01   -0.48923E-01  4448   0.108E+00    0.584E-01
DAV:   3    -0.530761941948E+03    0.54794E-03   -0.88529E-03  4608   0.172E-01    0.393E-01
DAV:   4    -0.530761987598E+03   -0.45650E-04   -0.17815E-03  4448   0.748E-02    0.180E-01
DAV:   5    -0.530762108271E+03   -0.12067E-03   -0.53310E-04  4992   0.463E-02    0.604E-02
DAV:   6    -0.530762109018E+03   -0.74777E-06   -0.10337E-04  4640   0.220E-02    0.418E-02
DAV:   7    -0.530762109407E+03   -0.38896E-06   -0.31779E-05  4576   0.883E-03    0.315E-02
DAV:   8    -0.530762107660E+03    0.17471E-05   -0.10994E-05  4544   0.674E-03    0.118E-02
DAV:   9    -0.530762108059E+03   -0.39856E-06   -0.35202E-06  3328   0.340E-03
  75 F= -.56323291E+03 E0= -.56322515E+03  d E =-.127243E-01
       N       E                     dE             d eps       ncg     rms          rms(c)
DAV:   1    -0.530747688426E+03    0.14419E-01   -0.96311E+00  3584   0.391E+00    0.667E-01
DAV:   2    -0.530757493159E+03   -0.98047E-02   -0.11142E-01  4416   0.515E-01    0.282E-01
DAV:   3    -0.530757360728E+03    0.13243E-03   -0.19690E-03  4704   0.823E-02    0.188E-01
DAV:   4    -0.530757374731E+03   -0.14003E-04   -0.41009E-04  4416   0.353E-02    0.859E-02
DAV:   5    -0.530757402200E+03   -0.27470E-04   -0.12308E-04  5120   0.224E-02    0.288E-02
DAV:   6    -0.530757402861E+03   -0.66044E-06   -0.24013E-05  4416   0.105E-02    0.200E-02
DAV:   7    -0.530757403432E+03   -0.57123E-06   -0.74933E-06  3968   0.419E-03
  76 F= -.56323397E+03 E0= -.56322631E+03  d E =-.137855E-01
       N       E                     dE             d eps       ncg     rms          rms(c)
DAV:   1    -0.530767429363E+03   -0.10027E-01   -0.12838E+01  3584   0.514E+00    0.827E-01
DAV:   2    -0.530781466204E+03   -0.14037E-01   -0.17296E-01  4416   0.686E-01    0.368E-01
DAV:   3    -0.530780865347E+03    0.60086E-03   -0.32534E-03  4512   0.121E-01    0.238E-01
DAV:   4    -0.530780818755E+03    0.46592E-04   -0.15575E-03  4224   0.705E-02    0.106E-01
DAV:   5    -0.530780821917E+03   -0.31618E-05   -0.25647E-04  4800   0.361E-02    0.447E-02
DAV:   6    -0.530780827453E+03   -0.55363E-05   -0.62540E-05  4160   0.134E-02    0.189E-02
DAV:   7    -0.530780824878E+03    0.25748E-05   -0.14054E-05  4928   0.677E-03    0.144E-02
DAV:   8    -0.530780822401E+03    0.24770E-05   -0.19256E-06  2560   0.297E-03    0.791E-03
DAV:   9    -0.530780820709E+03    0.16925E-05   -0.33300E-06  3232   0.288E-03    0.179E-03
DAV:  10    -0.530780820839E+03   -0.13001E-06   -0.32875E-07  2176   0.117E-03
  77 F= -.56324287E+03 E0= -.56323529E+03  d E =-.890244E-02
       N       E                     dE             d eps       ncg     rms          rms(c)
DAV:   1    -0.530719407268E+03    0.61413E-01   -0.11621E+02  3584   0.155E+01    0.247E+00
DAV:   2    -0.530850515210E+03   -0.13111E+00   -0.15900E+00  4480   0.208E+00    0.109E+00
DAV:   3    -0.530845361516E+03    0.51537E-02   -0.30669E-02  4576   0.354E-01    0.735E-01
DAV:   4    -0.530844663464E+03    0.69805E-03   -0.13582E-02  4256   0.214E-01    0.322E-01
DAV:   5    -0.530844805114E+03   -0.14165E-03   -0.22161E-03  4736   0.104E-01    0.130E-01
DAV:   6    -0.530844883513E+03   -0.78399E-04   -0.52151E-04  4352   0.399E-02    0.593E-02
DAV:   7    -0.530844869844E+03    0.13668E-04   -0.12905E-04  4864   0.207E-02    0.441E-02
DAV:   8    -0.530844856865E+03    0.12979E-04   -0.21161E-05  5024   0.947E-03    0.233E-02
DAV:   9    -0.530844851193E+03    0.56725E-05   -0.24597E-05  4128   0.820E-03    0.596E-03
DAV:  10    -0.530844851484E+03   -0.29141E-06   -0.23775E-06  3168   0.312E-03
  78 F= -.56326349E+03 E0= -.56325616E+03  d E =-.295177E-01
       N       E                     dE             d eps       ncg     rms          rms(c)
DAV:   1    -0.530414409027E+03    0.43044E+00   -0.47327E+02  3584   0.312E+01    0.495E+00
DAV:   2    -0.530969343325E+03   -0.55493E+00   -0.65764E+00  4480   0.415E+00    0.217E+00
DAV:   3    -0.530952783444E+03    0.16560E-01   -0.13830E-01  4480   0.701E-01    0.151E+00
DAV:   4    -0.530949198832E+03    0.35846E-02   -0.52202E-02  4224   0.421E-01    0.660E-01
DAV:   5    -0.530949974512E+03   -0.77568E-03   -0.85428E-03  4800   0.200E-01    0.253E-01
DAV:   6    -0.530950301533E+03   -0.32702E-03   -0.18704E-03  4288   0.778E-02    0.120E-01
DAV:   7    -0.530950245384E+03    0.56150E-04   -0.51434E-04  4928   0.404E-02    0.894E-02
DAV:   8    -0.530950206333E+03    0.39051E-04   -0.74485E-05  5024   0.178E-02    0.472E-02
DAV:   9    -0.530950193461E+03    0.12873E-04   -0.87773E-05  4128   0.155E-02    0.115E-02
DAV:  10    -0.530950193803E+03   -0.34198E-06   -0.78775E-06  4032   0.538E-03
  79 F= -.56327990E+03 E0= -.56327304E+03  d E =-.459356E-01
       N       E                     dE             d eps       ncg     rms          rms(c)
DAV:   1    -0.530954295016E+03   -0.41016E-02   -0.10174E+00  3712   0.146E+00    0.221E-01
DAV:   2    -0.530955436521E+03   -0.11415E-02   -0.13335E-02  4448   0.188E-01    0.104E-01
DAV:   3    -0.530955394619E+03    0.41901E-04   -0.22154E-04  4608   0.313E-02    0.693E-02
DAV:   4    -0.530955394044E+03    0.57553E-06   -0.11092E-04  4128   0.175E-02    0.300E-02
DAV:   5    -0.530955393491E+03    0.55280E-06   -0.19250E-05  4800   0.980E-03    0.108E-02
DAV:   6    -0.530955393243E+03    0.24802E-06   -0.39068E-06  3968   0.406E-03
  80 F= -.56328274E+03 E0= -.56327591E+03  d E =-.284097E-02
       N       E                     dE             d eps       ncg     rms          rms(c)
DAV:   1    -0.530960722601E+03   -0.53291E-02   -0.91625E+00  3584   0.438E+00    0.666E-01
DAV:   2    -0.530971010519E+03   -0.10288E-01   -0.12070E-01  4448   0.568E-01    0.310E-01
DAV:   3    -0.530970630758E+03    0.37976E-03   -0.20010E-03  4544   0.939E-02    0.206E-01
DAV:   4    -0.530970623368E+03    0.73900E-05   -0.10194E-03  4096   0.537E-02    0.892E-02
DAV:   5    -0.530970633761E+03   -0.10394E-04   -0.17815E-04  5248   0.297E-02    0.327E-02
DAV:   6    -0.530970634951E+03   -0.11897E-05   -0.34877E-05  4224   0.120E-02    0.147E-02
DAV:   7    -0.530970634441E+03    0.51010E-06   -0.12231E-05  4448   0.547E-03    0.126E-02
DAV:   8    -0.530970632791E+03    0.16500E-05   -0.12832E-06  2496   0.270E-03    0.734E-03
DAV:   9    -0.530970631639E+03    0.11524E-05   -0.37105E-06  3424   0.305E-03    0.190E-03
DAV:  10    -0.530970631748E+03   -0.10974E-06   -0.36603E-07  2176   0.120E-03
  81 F= -.56329091E+03 E0= -.56328415E+03  d E =-.110116E-01
       N       E                     dE             d eps       ncg     rms          rms(c)
DAV:   1    -0.530960528407E+03    0.10103E-01   -0.36703E+01  3648   0.876E+00    0.133E+00
DAV:   2    -0.531002009318E+03   -0.41481E-01   -0.48447E-01  4416   0.114E+00    0.619E-01
DAV:   3    -0.531000569964E+03    0.14394E-02   -0.83187E-03  4512   0.191E-01    0.415E-01
DAV:   4    -0.531000503016E+03    0.66948E-04   -0.42525E-03  4096   0.112E-01    0.176E-01
DAV:   5    -0.531000557026E+03   -0.54011E-04   -0.74252E-04  5216   0.595E-02    0.660E-02
DAV:   6    -0.531000567364E+03   -0.10337E-04   -0.14173E-04  4448   0.242E-02    0.301E-02
DAV:   7    -0.531000565241E+03    0.21223E-05   -0.42393E-05  4576   0.105E-02    0.247E-02
DAV:   8    -0.531000560236E+03    0.50053E-05   -0.61314E-06  4000   0.544E-03    0.131E-02
DAV:   9    -0.531000558080E+03    0.21563E-05   -0.85534E-06  3744   0.472E-03    0.278E-03
DAV:  10    -0.531000558159E+03   -0.78704E-07   -0.56145E-07  2176   0.145E-03
  82 F= -.56330674E+03 E0= -.56330011E+03  d E =-.268364E-01
       N       E                     dE             d eps       ncg     rms          rms(c)
DAV:   1    -0.530890950228E+03    0.10961E+00   -0.14758E+02  3584   0.176E+01    0.266E+00
DAV:   2    -0.531061917813E+03   -0.17097E+00   -0.19787E+00  4416   0.231E+00    0.123E+00
DAV:   3    -0.531056872362E+03    0.50455E-02   -0.37241E-02  4512   0.382E-01    0.845E-01
DAV:   4    -0.531056314228E+03    0.55813E-03   -0.16766E-02  4096   0.226E-01    0.357E-01
DAV:   5    -0.531056596361E+03   -0.28213E-03   -0.28646E-03  5152   0.113E-01    0.132E-01
DAV:   6    -0.531056647049E+03   -0.50688E-04   -0.54012E-04  4544   0.483E-02    0.633E-02
DAV:   7    -0.531056635178E+03    0.11871E-04   -0.16431E-04  4320   0.216E-02    0.493E-02
DAV:   8    -0.531056618927E+03    0.16251E-04   -0.26322E-05  5248   0.110E-02    0.263E-02
DAV:   9    -0.531056613662E+03    0.52652E-05   -0.27168E-05  4064   0.850E-03    0.616E-03
[...]
DAV:   8    -0.532200119444E+03    0.48341E-05   -0.54319E-05  5280   0.146E-02    0.247E-02
DAV:   9    -0.532200121057E+03   -0.16131E-05   -0.10034E-05  4512   0.557E-03    0.994E-03
DAV:  10    -0.532200121140E+03   -0.82720E-07   -0.25283E-06  2656   0.302E-03
 161 F= -.56437675E+03 E0= -.56436291E+03  d E =-.386542E-02
       N       E                     dE             d eps       ncg     rms          rms(c)
DAV:   1    -0.532130325615E+03    0.69795E-01   -0.89490E+01  3584   0.979E+00    0.107E+00
DAV:   2    -0.532191891952E+03   -0.61566E-01   -0.66476E-01  4384   0.999E-01    0.393E-01
DAV:   3    -0.532194674560E+03   -0.27826E-02   -0.25576E-02  4960   0.153E-01    0.315E-01
DAV:   4    -0.532195200354E+03   -0.52579E-03   -0.13790E-03  4448   0.633E-02    0.176E-01
DAV:   5    -0.532195895068E+03   -0.69471E-03   -0.63953E-04  4416   0.527E-02    0.475E-02
DAV:   6    -0.532195901985E+03   -0.69167E-05   -0.76723E-05  5216   0.192E-02    0.325E-02
DAV:   7    -0.532195901180E+03    0.80488E-06   -0.29507E-05  4320   0.888E-03    0.221E-02
DAV:   8    -0.532195900976E+03    0.20426E-06   -0.47737E-06  3744   0.470E-03
 162 F= -.56437872E+03 E0= -.56436512E+03  d E =-.583346E-02
       N       E                     dE             d eps       ncg     rms          rms(c)
DAV:   1    -0.532195902876E+03   -0.16958E-05   -0.94636E-01  3648   0.100E+00    0.901E-02
DAV:   2    -0.532196417842E+03   -0.51497E-03   -0.54549E-03  4320   0.937E-02    0.405E-02
DAV:   3    -0.532196424780E+03   -0.69371E-05   -0.67419E-05  5248   0.128E-02    0.251E-02
DAV:   4    -0.532196436993E+03   -0.12213E-04   -0.11824E-05  4224   0.627E-03    0.967E-03
DAV:   5    -0.532196439299E+03   -0.23066E-05   -0.14008E-06  2688   0.274E-03    0.263E-03
DAV:   6    -0.532196439475E+03   -0.17570E-06   -0.33636E-07  2176   0.129E-03
 163 F= -.56437926E+03 E0= -.56436564E+03  d E =-.541884E-03
       N       E                     dE             d eps       ncg     rms          rms(c)
DAV:   1    -0.532193071207E+03    0.33681E-02   -0.85225E+00  3584   0.301E+00    0.279E-01
DAV:   2    -0.532197831924E+03   -0.47607E-02   -0.50733E-02  4320   0.287E-01    0.121E-01
DAV:   3    -0.532197933984E+03   -0.10206E-03   -0.92175E-04  5248   0.403E-02    0.800E-02
DAV:   4    -0.532198035635E+03   -0.10165E-03   -0.11121E-04  4256   0.193E-02    0.348E-02
DAV:   5    -0.532198072812E+03   -0.37178E-04   -0.21285E-05  4736   0.922E-03    0.101E-02
DAV:   6    -0.532198074214E+03   -0.14019E-05   -0.22101E-06  3168   0.357E-03    0.571E-03
DAV:   7    -0.532198074372E+03   -0.15782E-06   -0.10494E-06  2336   0.183E-03
 164 F= -.56438090E+03 E0= -.56436722E+03  d E =-.218251E-02
       N       E                     dE             d eps       ncg     rms          rms(c)
DAV:   1    -0.532179866543E+03    0.18208E-01   -0.34157E+01  3584   0.603E+00    0.585E-01
DAV:   2    -0.532200661395E+03   -0.20795E-01   -0.22249E-01  4352   0.596E-01    0.242E-01
DAV:   3    -0.532201344737E+03   -0.68334E-03   -0.63902E-03  5216   0.864E-02    0.179E-01
DAV:   4    -0.532201665753E+03   -0.32102E-03   -0.49824E-04  4320   0.399E-02    0.859E-02
DAV:   5    -0.532201880605E+03   -0.21485E-03   -0.13722E-04  4512   0.239E-02    0.246E-02
DAV:   6    -0.532201886108E+03   -0.55028E-05   -0.16386E-05  5152   0.897E-03    0.146E-02
DAV:   7    -0.532201886176E+03   -0.68372E-07   -0.57977E-06  4192   0.408E-03
 165 F= -.56438470E+03 E0= -.56437091E+03  d E =-.598734E-02
       N       E                     dE             d eps       ncg     rms          rms(c)
DAV:   1    -0.532096650360E+03    0.10524E+00   -0.13777E+02  3584   0.122E+01    0.125E+00
DAV:   2    -0.532201957934E+03   -0.10531E+00   -0.11233E+00  4352   0.127E+00    0.476E-01
DAV:   3    -0.532207372606E+03   -0.54147E-02   -0.50604E-02  4960   0.190E-01    0.417E-01
DAV:   4    -0.532207813007E+03   -0.44040E-03   -0.19046E-03  4544   0.729E-02    0.261E-01
DAV:   5    -0.532209281562E+03   -0.14686E-02   -0.15336E-03  4192   0.816E-02    0.726E-02
DAV:   6    -0.532209282064E+03   -0.50214E-06   -0.14454E-04  5536   0.267E-02    0.524E-02
DAV:   7    -0.532209277518E+03    0.45460E-05   -0.65524E-05  4320   0.134E-02    0.317E-02
DAV:   8    -0.532209275530E+03    0.19877E-05   -0.17146E-05  4768   0.849E-03    0.140E-02
DAV:   9    -0.532209275936E+03   -0.40542E-06   -0.39231E-06  3584   0.352E-03
 166 F= -.56439200E+03 E0= -.56437796E+03  d E =-.132858E-01
       N       E                     dE             d eps       ncg     rms          rms(c)
DAV:   1    -0.531525558598E+03    0.68372E+00   -0.57108E+02  3584   0.250E+01    0.261E+00
DAV:   2    -0.532180108609E+03   -0.65455E+00   -0.68556E+00  4320   0.279E+00    0.100E+00
DAV:   3    -0.532215226454E+03   -0.35118E-01   -0.33926E-01  5184   0.414E-01    0.972E-01
DAV:   4    -0.532213385453E+03    0.18410E-02   -0.67073E-03  4320   0.148E-01    0.689E-01
DAV:   5    -0.532221586066E+03   -0.82006E-02   -0.10661E-02  4256   0.217E-01    0.198E-01
DAV:   6    -0.532221577976E+03    0.80896E-05   -0.89391E-04  5312   0.632E-02    0.162E-01
DAV:   7    -0.532221542312E+03    0.35664E-04   -0.45727E-04  4352   0.360E-02    0.101E-01
DAV:   8    -0.532221544947E+03   -0.26347E-05   -0.13947E-04  5408   0.227E-02    0.457E-02
DAV:   9    -0.532221555988E+03   -0.11041E-04   -0.29893E-05  5056   0.983E-03    0.179E-02
DAV:  10    -0.532221559022E+03   -0.30343E-05   -0.77441E-06  4160   0.497E-03    0.544E-03
DAV:  11    -0.532221559386E+03   -0.36413E-06   -0.74295E-07  2432   0.121E-03
 167 F= -.56440379E+03 E0= -.56438921E+03  d E =-.250748E-01
       N       E                     dE             d eps       ncg     rms          rms(c)
DAV:   1    -0.526348355050E+03    0.58732E+01   -0.26081E+03  3584   0.549E+01    0.627E+00
DAV:   2    -0.532027617150E+03   -0.56793E+01   -0.59172E+01  4192   0.681E+00    0.258E+00
DAV:   3    -0.532225990251E+03   -0.19837E+00   -0.20763E+00  5280   0.916E-01    0.216E+00
DAV:   4    -0.532229437246E+03   -0.34470E-02   -0.69750E-02  4448   0.379E-01    0.147E+00
DAV:   5    -0.532245641979E+03   -0.16205E-01   -0.58514E-02  4384   0.439E-01    0.546E-01
DAV:   6    -0.532245593465E+03    0.48513E-04   -0.46422E-03  5184   0.142E-01    0.385E-01
DAV:   7    -0.532245465696E+03    0.12777E-03   -0.16399E-03  4416   0.701E-02    0.238E-01
DAV:   8    -0.532245553074E+03   -0.87378E-04   -0.61646E-04  5408   0.470E-02    0.118E-01
DAV:   9    -0.532245632346E+03   -0.79272E-04   -0.12796E-04  5024   0.209E-02    0.584E-02
DAV:  10    -0.532245658746E+03   -0.26399E-04   -0.60778E-05  5472   0.146E-02    0.155E-02
DAV:  11    -0.532245663090E+03   -0.43446E-05   -0.50985E-06  4544   0.418E-03    0.483E-03
DAV:  12    -0.532245663087E+03    0.33178E-08   -0.56055E-07  2464   0.166E-03
 168 F= -.56442567E+03 E0= -.56440986E+03  d E =-.469518E-01
       N       E                     dE             d eps       ncg     rms          rms(c)
DAV:   1    -0.475841765005E+03    0.56404E+02   -0.11526E+04  3584   0.113E+02    0.226E+01
DAV:   2    -0.525854097905E+03   -0.50012E+02   -0.54468E+02  3680   0.192E+01    0.759E+00
DAV:   3    -0.532746019005E+03   -0.68919E+01   -0.72264E+01  5984   0.327E+00    0.929E+00
DAV:   4    -0.532499287099E+03    0.24673E+00   -0.66477E-01  4320   0.130E+00    0.634E+00
DAV:   5    -0.532221336609E+03    0.27795E+00   -0.15277E+00  5120   0.217E+00    0.181E+00
DAV:   6    -0.532232935265E+03   -0.11599E-01   -0.14202E-01  5024   0.527E-01    0.172E+00
DAV:   7    -0.532232728768E+03    0.20650E-03   -0.18649E-02  4576   0.219E-01    0.103E+00
DAV:   8    -0.532236524262E+03   -0.37955E-02   -0.10672E-02  4640   0.169E-01    0.415E-01
DAV:   9    -0.532237533814E+03   -0.10096E-02   -0.17853E-03  5344   0.640E-02    0.188E-01
DAV:  10    -0.532237783380E+03   -0.24957E-03   -0.25318E-04  5248   0.293E-02    0.866E-02
DAV:  11    -0.532237824399E+03   -0.41019E-04   -0.12968E-04  5280   0.193E-02    0.155E-02
DAV:  12    -0.532237828341E+03   -0.39416E-05   -0.96473E-06  4960   0.482E-03    0.365E-03
DAV:  13    -0.532237829131E+03   -0.79058E-06   -0.45082E-07  2592   0.125E-03
 169 F= -.56440905E+03 E0= -.56439031E+03  d E =-.303335E-01
       N       E                     dE             d eps       ncg     rms          rms(c)
DAV:   1    -0.508583346885E+03    0.23654E+02   -0.72046E+03  3584   0.907E+01    0.126E+01
DAV:   2    -0.531049114919E+03   -0.22466E+02   -0.23809E+02  4064   0.133E+01    0.470E+00
DAV:   3    -0.532286705525E+03   -0.12376E+01   -0.13388E+01  4704   0.188E+00    0.437E+00
DAV:   4    -0.532272825267E+03    0.13880E-01   -0.40345E-01  5472   0.857E-01    0.277E+00
DAV:   5    -0.532244550114E+03    0.28275E-01   -0.30682E-01  4512   0.838E-01    0.101E+00
DAV:   6    -0.532249564709E+03   -0.50146E-02   -0.19473E-02  5504   0.266E-01    0.804E-01
DAV:   7    -0.532251181091E+03   -0.16164E-02   -0.78203E-03  4352   0.157E-01    0.524E-01
DAV:   8    -0.532251995936E+03   -0.81484E-03   -0.28892E-03  4992   0.930E-02    0.235E-01
DAV:   9    -0.532252367926E+03   -0.37199E-03   -0.73958E-04  5376   0.442E-02    0.819E-02
DAV:  10    -0.532252430143E+03   -0.62217E-04   -0.66279E-05  5504   0.150E-02    0.361E-02
DAV:  11    -0.532252438961E+03   -0.88185E-05   -0.22078E-05  4960   0.923E-03    0.921E-03
DAV:  12    -0.532252439132E+03   -0.17136E-06   -0.26505E-06  3008   0.297E-03
 170 F= -.56443094E+03 E0= -.56441452E+03  d E =-.522186E-01
       N       E                     dE             d eps       ncg     rms          rms(c)
DAV:   1    -0.532248040355E+03    0.43986E-02   -0.16673E+01  3584   0.416E+00    0.377E-01
DAV:   2    -0.532257648779E+03   -0.96084E-02   -0.10224E-01  4416   0.402E-01    0.173E-01
DAV:   3    -0.532257868940E+03   -0.22016E-03   -0.23008E-03  5312   0.590E-02    0.119E-01
DAV:   4    -0.532258033274E+03   -0.16433E-03   -0.23406E-04  4288   0.269E-02    0.539E-02
DAV:   5    -0.532258117503E+03   -0.84230E-04   -0.62575E-05  4672   0.150E-02    0.167E-02
DAV:   6    -0.532258119087E+03   -0.15836E-05   -0.64143E-06  4672   0.589E-03    0.976E-03
DAV:   7    -0.532258119022E+03    0.64923E-07   -0.24536E-06  2624   0.270E-03
 171 F= -.56443426E+03 E0= -.56441773E+03  d E =-.332204E-02
       N       E                     dE             d eps       ncg     rms          rms(c)
DAV:   1    -0.532227323283E+03    0.30796E-01   -0.60442E+01  3584   0.793E+00    0.758E-01
DAV:   2    -0.532267226186E+03   -0.39903E-01   -0.42501E-01  4384   0.799E-01    0.327E-01
DAV:   3    -0.532268668933E+03   -0.14427E-02   -0.14695E-02  5216   0.121E-01    0.259E-01
DAV:   4    -0.532269044283E+03   -0.37535E-03   -0.97550E-04  4288   0.515E-02    0.136E-01
DAV:   5    -0.532269490625E+03   -0.44634E-03   -0.41023E-04  4448   0.404E-02    0.398E-02
DAV:   6    -0.532269496721E+03   -0.60962E-05   -0.56630E-05  5344   0.148E-02    0.272E-02
DAV:   7    -0.532269494811E+03    0.19101E-05   -0.15273E-05  4384   0.640E-03    0.175E-02
DAV:   8    -0.532269493465E+03    0.13457E-05   -0.51562E-06  3680   0.457E-03    0.799E-03
DAV:   9    -0.532269493300E+03    0.16518E-06   -0.10185E-06  2304   0.209E-03
 172 F= -.56444112E+03 E0= -.56442437E+03  d E =-.101844E-01
       N       E                     dE             d eps       ncg     rms          rms(c)
DAV:   1    -0.532057540458E+03    0.21195E+00   -0.24553E+02  3584   0.160E+01    0.161E+00
DAV:   2    -0.532277087426E+03   -0.21955E+00   -0.23170E+00  4384   0.171E+00    0.653E-01
DAV:   3    -0.532288709047E+03   -0.11622E-01   -0.11412E-01  5376   0.263E-01    0.615E-01
DAV:   4    -0.532288471652E+03    0.23740E-03   -0.29167E-03  4320   0.929E-02    0.417E-01
DAV:   5    -0.532291261045E+03   -0.27894E-02   -0.45000E-03  4384   0.132E-01    0.125E-01
DAV:   6    -0.532291236642E+03    0.24402E-04   -0.35484E-04  5440   0.402E-02    0.969E-02
DAV:   7    -0.532291216446E+03    0.20196E-04   -0.17634E-04  4224   0.221E-02    0.603E-02
DAV:   8    -0.532291210435E+03    0.60110E-05   -0.53775E-05  5440   0.140E-02    0.258E-02
DAV:   9    -0.532291211710E+03   -0.12746E-05   -0.11182E-05  4480   0.599E-03    0.904E-03
DAV:  10    -0.532291211856E+03   -0.14687E-06   -0.26015E-06  2720   0.288E-03
 173 F= -.56445370E+03 E0= -.56443650E+03  d E =-.227673E-01
       N       E                     dE             d eps       ncg     rms          rms(c)
DAV:   1    -0.530783857450E+03    0.15074E+01   -0.10473E+03  3584   0.336E+01    0.344E+00
DAV:   2    -0.532252778882E+03   -0.14689E+01   -0.15324E+01  4320   0.385E+00    0.145E+00
DAV:   3    -0.532318812883E+03   -0.66034E-01   -0.65862E-01  5408   0.579E-01    0.138E+00
DAV:   4    -0.532315698711E+03    0.31142E-02   -0.18165E-02  4448   0.211E-01    0.970E-01
DAV:   5    -0.532327511238E+03   -0.11813E-01   -0.23957E-02  4448   0.305E-01    0.311E-01
DAV:   6    -0.532327259026E+03    0.25221E-03   -0.18749E-03  5248   0.905E-02    0.245E-01
DAV:   7    -0.532327176657E+03    0.82369E-04   -0.87710E-04  4352   0.495E-02    0.156E-01
DAV:   8    -0.532327181669E+03   -0.50117E-05   -0.28852E-04  5312   0.318E-02    0.739E-02
DAV:   9    -0.532327204869E+03   -0.23200E-04   -0.67432E-05  5120   0.145E-02    0.291E-02
DAV:  10    -0.532327211300E+03   -0.64305E-05   -0.20499E-05  5280   0.777E-03    0.728E-03
DAV:  11    -0.532327212031E+03   -0.73198E-06   -0.10580E-06  2528   0.187E-03
 174 F= -.56447103E+03 E0= -.56445287E+03  d E =-.400915E-01
       N       E                     dE             d eps       ncg     rms          rms(c)
DAV:   1    -0.517469645506E+03    0.14858E+02   -0.50869E+03  3584   0.758E+01    0.105E+01
DAV:   2    -0.531450622887E+03   -0.13981E+02   -0.14787E+02  4160   0.105E+01    0.430E+00
DAV:   3    -0.532330173999E+03   -0.87955E+00   -0.93188E+00  4832   0.154E+00    0.368E+00
DAV:   4    -0.532339310004E+03   -0.91360E-02   -0.19038E-01  4704   0.642E-01    0.235E+00
DAV:   5    -0.532334173027E+03    0.51370E-02   -0.17730E-01  4640   0.620E-01    0.919E-01
DAV:   6    -0.532337268683E+03   -0.30957E-02   -0.11596E-02  5152   0.207E-01    0.722E-01
DAV:   7    -0.532338084668E+03   -0.81599E-03   -0.50671E-03  4480   0.114E-01    0.491E-01
DAV:   8    -0.532338507703E+03   -0.42303E-03   -0.17911E-03  5184   0.731E-02    0.264E-01
DAV:   9    -0.532338765097E+03   -0.25739E-03   -0.10544E-03  4832   0.518E-02    0.805E-02
DAV:  10    -0.532338829476E+03   -0.64379E-04   -0.10015E-04  5312   0.163E-02    0.300E-02
DAV:  11    -0.532338835931E+03   -0.64555E-05   -0.13680E-05  4384   0.649E-03    0.948E-03
DAV:  12    -0.532338836305E+03   -0.37431E-06   -0.19170E-06  2944   0.261E-03
 175 F= -.56444410E+03 E0= -.56442391E+03  d E =-.131606E-01
       N       E                     dE             d eps       ncg     rms          rms(c)
DAV:   1    -0.525790040778E+03    0.65488E+01   -0.29342E+03  3584   0.572E+01    0.671E+00
DAV:   2    -0.532033661951E+03   -0.62436E+01   -0.65520E+01  4224   0.730E+00    0.277E+00
DAV:   3    -0.532312596154E+03   -0.27893E+00   -0.30184E+00  5152   0.107E+00    0.219E+00
DAV:   4    -0.532322524591E+03   -0.99284E-02   -0.74692E-02  4288   0.439E-01    0.135E+00
DAV:   5    -0.532335824119E+03   -0.13300E-01   -0.54742E-02  4512   0.400E-01    0.543E-01
DAV:   6    -0.532336931399E+03   -0.11073E-02   -0.41616E-03  5344   0.149E-01    0.398E-01
DAV:   7    -0.532337224218E+03   -0.29282E-03   -0.22189E-03  4320   0.812E-02    0.263E-01
DAV:   8    -0.532337402426E+03   -0.17821E-03   -0.76062E-04  4992   0.502E-02    0.123E-01
DAV:   9    -0.532337496927E+03   -0.94501E-04   -0.16577E-04  5472   0.221E-02    0.506E-02
DAV:  10    -0.532337521555E+03   -0.24627E-04   -0.39076E-05  4896   0.121E-02    0.142E-02
DAV:  11    -0.532337523963E+03   -0.24078E-05   -0.47864E-06  4320   0.410E-03    0.354E-03
DAV:  12    -0.532337524032E+03   -0.69733E-07   -0.33326E-07  2176   0.116E-03
 176 F= -.56447339E+03 E0= -.56445482E+03  d E =-.424503E-01
       N       E                     dE             d eps       ncg     rms          rms(c)
DAV:   1    -0.532346449016E+03   -0.89251E-02   -0.90811E+00  3648   0.295E+00    0.322E-01
DAV:   2    -0.532351624072E+03   -0.51751E-02   -0.54947E-02  4448   0.292E-01    0.130E-01
DAV:   3    -0.532351719026E+03   -0.94954E-04   -0.10589E-03  5504   0.450E-02    0.851E-02
DAV:   4    -0.532351802523E+03   -0.83497E-04   -0.11616E-04  4800   0.195E-02    0.355E-02
DAV:   5    -0.532351835315E+03   -0.32793E-04   -0.26376E-05  4704   0.104E-02    0.130E-02
DAV:   6    -0.532351836581E+03   -0.12660E-05   -0.33116E-06  3776   0.376E-03    0.101E-02
DAV:   7    -0.532351836268E+03    0.31335E-06   -0.14596E-06  2496   0.212E-03
 177 F= -.56448638E+03 E0= -.56446779E+03  d E =-.129929E-01
       N       E                     dE             d eps       ncg     rms          rms(c)
DAV:   1    -0.532325763786E+03    0.26073E-01   -0.82224E+01  3584   0.889E+00    0.103E+00
DAV:   2    -0.532384623206E+03   -0.58859E-01   -0.62583E-01  4480   0.944E-01    0.385E-01
DAV:   3    -0.532386915205E+03   -0.22920E-02   -0.23963E-02  5280   0.148E-01    0.311E-01
DAV:   4    -0.532387268769E+03   -0.35356E-03   -0.13557E-03  4480   0.602E-02    0.167E-01
DAV:   5    -0.532387794077E+03   -0.52531E-03   -0.68359E-04  4480   0.517E-02    0.466E-02
DAV:   6    -0.532387790147E+03    0.39301E-05   -0.84299E-05  5152   0.169E-02    0.372E-02
DAV:   7    -0.532387787771E+03    0.23759E-05   -0.16382E-05  4448   0.666E-03    0.262E-02
DAV:   8    -0.532387785587E+03    0.21843E-05   -0.85207E-06  3936   0.561E-03    0.131E-02
DAV:   9    -0.532387785345E+03    0.24113E-06   -0.12095E-06  2464   0.233E-03
 178 F= -.56451834E+03 E0= -.56449966E+03  d E =-.449563E-01
       N       E                     dE             d eps       ncg     rms          rms(c)
DAV:   1    -0.532067831470E+03    0.31995E+00   -0.33626E+02  3584   0.180E+01    0.212E+00
DAV:   2    -0.532405386183E+03   -0.33755E+00   -0.35548E+00  4448   0.205E+00    0.769E-01
DAV:   3    -0.532423296581E+03   -0.17910E-01   -0.17849E-01  5440   0.327E-01    0.734E-01
DAV:   4    -0.532422657647E+03    0.63893E-03   -0.42062E-03  4480   0.105E-01    0.505E-01
DAV:   5    -0.532425735886E+03   -0.30782E-02   -0.67741E-03  4416   0.154E-01    0.146E-01
DAV:   6    -0.532425732311E+03    0.35753E-05   -0.52553E-04  5216   0.394E-02    0.102E-01
DAV:   7    -0.532425693882E+03    0.38429E-04   -0.15788E-04  4480   0.216E-02    0.645E-02
DAV:   8    -0.532425683549E+03    0.10333E-04   -0.70065E-05  5120   0.155E-02    0.279E-02
DAV:   9    -0.532425683353E+03    0.19600E-06   -0.11234E-05  4768   0.625E-03    0.114E-02
DAV:  10    -0.532425683570E+03   -0.21717E-06   -0.47386E-06  3712   0.384E-03
 179 F= -.56454816E+03 E0= -.56452926E+03  d E =-.747685E-01
       N       E                     dE             d eps       ncg     rms          rms(c)
DAV:   1    -0.532383898609E+03    0.41785E-01   -0.55681E+01  3648   0.748E+00    0.102E+00
DAV:   2    -0.532413892278E+03   -0.29994E-01   -0.39792E-01  4352   0.808E-01    0.407E-01
DAV:   3    -0.532414615742E+03   -0.72346E-03   -0.17788E-02  4800   0.173E-01    0.220E-01
DAV:   4    -0.532414795555E+03   -0.17981E-03   -0.11147E-03  5216   0.689E-02    0.115E-01
DAV:   5    -0.532414986121E+03   -0.19057E-03   -0.31265E-04  4640   0.349E-02    0.451E-02
DAV:   6    -0.532415032747E+03   -0.46626E-04   -0.59185E-05  4448   0.136E-02    0.236E-02
DAV:   7    -0.532415052052E+03   -0.19305E-04   -0.10736E-05  5088   0.831E-03    0.945E-03
DAV:   8    -0.532415057225E+03   -0.51730E-05   -0.24701E-06  3328   0.386E-03    0.419E-03
DAV:   9    -0.532415058908E+03   -0.16825E-05   -0.16313E-06  2560   0.222E-03    0.204E-03
DAV:  10    -0.532415058896E+03    0.12013E-07   -0.20742E-07  2176   0.110E-03
 180 F= -.56458514E+03 E0= -.56456649E+03  d E =-.369839E-01
