       N       E                     dE             d eps       ncg     rms          rms(c)
DAV:   1     0.640328273541E+04    0.64033E+04   -0.34582E+05  3584   0.143E+03
DAV:   2     0.535517519560E+03   -0.58678E+04   -0.56512E+04  4480   0.342E+02
DAV:   3    -0.731669719958E+02   -0.60868E+03   -0.59302E+03  4800   0.124E+02
DAV:   4    -0.942040511463E+02   -0.21037E+02   -0.20859E+02  4672   0.239E+01
DAV:   5    -0.951390545916E+02   -0.93500E+00   -0.93397E+00  5888   0.467E+00    0.343E+02
DAV:   6     0.861158162109E+01    0.10375E+03   -0.37309E+02  3872   0.291E+01    0.215E+02
DAV:   7    -0.107277011847E+03   -0.11589E+03   -0.75139E+02  4608   0.451E+01    0.770E+01
DAV:   8     0.259194053117E+02    0.13320E+03   -0.26390E+02  5152   0.369E+01    0.401E+01
DAV:   9     0.357591675485E+02    0.98398E+01   -0.21262E+02  3872   0.205E+01    0.192E+01
DAV:  10     0.355087182514E+02   -0.25045E+00   -0.18037E+01  4192   0.630E+00    0.899E+00
DAV:  11     0.357966089386E+02    0.28789E+00   -0.25208E+00  4864   0.237E+00    0.741E+00
DAV:  12     0.359803720877E+02    0.18376E+00   -0.94035E-01  4416   0.158E+00    0.444E+00
DAV:  13     0.359513080004E+02   -0.29064E-01   -0.42579E-01  3904   0.106E+00    0.304E+00
DAV:  14     0.360176944413E+02    0.66386E-01   -0.29770E-01  4800   0.687E-01    0.143E+00
DAV:  15     0.360283621216E+02    0.10668E-01   -0.51369E-02  3904   0.297E-01    0.856E-01
DAV:  16     0.360345228939E+02    0.61608E-02   -0.12349E-02  4288   0.157E-01    0.426E-01
DAV:  17     0.360355562980E+02    0.10334E-02   -0.19288E-03  4448   0.609E-02    0.243E-01
DAV:  18     0.360357724276E+02    0.21613E-03   -0.45562E-04  4512   0.282E-02    0.127E-01
DAV:  19     0.360358254318E+02    0.53004E-04   -0.35824E-04  4224   0.233E-02    0.806E-02
DAV:  20     0.360358674068E+02    0.41975E-04   -0.85620E-05  4224   0.127E-02    0.498E-02
DAV:  21     0.360358690284E+02    0.16216E-05   -0.15780E-05  4288   0.524E-03    0.289E-02
DAV:  22     0.360358722613E+02    0.32329E-05   -0.81346E-06  3648   0.335E-03    0.169E-02
DAV:  23     0.360358724322E+02    0.17093E-06   -0.15068E-06  2656   0.165E-03
   1 F= 0.36035872E+02 E0= 0.36083918E+02  d E =0.360359E+02
       N       E                     dE             d eps       ncg     rms          rms(c)
DAV:   1     0.475851990878E+04    0.47225E+04   -0.10543E+05  6592   0.422E+02    0.387E+03
DAV:   2     0.373840320285E+04   -0.10201E+04   -0.27903E+04  4736   0.210E+02    0.437E+03
DAV:   3     0.257233068814E+04   -0.11661E+04   -0.41122E+03  4448   0.758E+01    0.621E+03
DAV:   4     0.381973025068E+04    0.12474E+04   -0.24941E+03  4448   0.921E+01    0.328E+03
DAV:   5     0.481980226015E+04    0.10001E+04   -0.21345E+03  4800   0.619E+01    0.150E+03
DAV:   6     0.482882194028E+04    0.90197E+01   -0.45929E+02  4192   0.204E+01    0.135E+03
DAV:   7     0.476260410540E+04   -0.66218E+02   -0.30601E+02  4288   0.144E+01    0.136E+03
DAV:   8     0.490828630025E+04    0.14568E+03   -0.89788E+01  4576   0.104E+01    0.101E+03
DAV:   9     0.492363374435E+04    0.15347E+02   -0.37073E+01  4224   0.502E+00    0.869E+02
DAV:  10     0.493482429621E+04    0.11191E+02   -0.64615E+01  4320   0.936E+00    0.552E+02
DAV:  11     0.494867660174E+04    0.13852E+02   -0.22958E+01  4352   0.455E+00    0.391E+02
DAV:  12     0.495924607284E+04    0.10569E+02   -0.99037E+01  4736   0.328E+00    0.363E+02
DAV:  13     0.495985154195E+04    0.60547E+00   -0.12617E+00  3968   0.114E+00    0.345E+02
DAV:  14     0.496269295781E+04    0.28414E+01   -0.43780E+00  4352   0.762E-01    0.311E+02
DAV:  15     0.495779680910E+04   -0.48961E+01   -0.33118E+01  4224   0.351E+00    0.156E+02
DAV:  16     0.496480094397E+04    0.70041E+01   -0.42031E+01  4576   0.238E+00    0.147E+02
DAV:  17     0.496417082132E+04   -0.63012E+00   -0.18595E+01  4480   0.193E+00    0.607E+01
DAV:  18     0.496733035412E+04    0.31595E+01   -0.15431E+00  4448   0.104E+00    0.320E+01
DAV:  19     0.496562938191E+04   -0.17010E+01   -0.71287E+00  4736   0.722E-01    0.264E+01
DAV:  20     0.496555429346E+04   -0.75088E-01   -0.74166E-02  3840   0.347E-01    0.264E+01
DAV:  21     0.496554005131E+04   -0.14242E-01   -0.43000E-03  4736   0.833E-02    0.268E+01
DAV:  22     0.496725795344E+04    0.17179E+01   -0.29868E+00  4352   0.729E-01    0.195E+01
DAV:  23     0.496578363499E+04   -0.14743E+01   -0.10903E+01  4480   0.751E-01    0.276E+01
DAV:  24     0.496672860157E+04    0.94497E+00   -0.74504E-01  4128   0.404E-01    0.242E+01
DAV:  25     0.496729865972E+04    0.57006E+00   -0.14051E+00  4224   0.284E-01    0.145E+01
DAV:  26     0.496707489341E+04   -0.22377E+00   -0.22739E-01  4352   0.278E-01    0.145E+01
DAV:  27     0.496697793143E+04   -0.96962E-01   -0.75577E-02  4224   0.246E-01    0.122E+01
DAV:  28     0.496742481420E+04    0.44688E+00   -0.20467E-01  4352   0.211E-01    0.776E+00
DAV:  29     0.496764820880E+04    0.22339E+00   -0.31121E-01  4352   0.236E-01    0.478E+00
DAV:  30     0.496763333429E+04   -0.14875E-01   -0.33244E-02  3936   0.151E-01    0.467E+00
DAV:  31     0.496762853199E+04   -0.48023E-02   -0.22204E-02  4480   0.575E-02    0.383E+00
DAV:  32     0.496764878562E+04    0.20254E-01   -0.42596E-02  4384   0.120E-01    0.140E+00
DAV:  33     0.496764977661E+04    0.99099E-03   -0.36420E-02  4320   0.106E-01    0.111E+00
DAV:  34     0.496764929154E+04   -0.48507E-03   -0.33720E-03  4192   0.443E-02    0.108E+00
DAV:  35     0.496765074468E+04    0.14531E-02   -0.45110E-03  4064   0.401E-02    0.544E-01
DAV:  36     0.496765065697E+04   -0.87708E-04   -0.87084E-04  4288   0.231E-02    0.329E-01
DAV:  37     0.496765059943E+04   -0.57548E-04   -0.24768E-04  4800   0.129E-02    0.300E-01
DAV:  38     0.496765050764E+04   -0.91787E-04   -0.22182E-04  4512   0.970E-03    0.252E-01
DAV:  39     0.496765054939E+04    0.41753E-04   -0.34899E-04  4416   0.950E-03    0.140E-01
DAV:  40     0.496765057899E+04    0.29601E-04   -0.23778E-05  3872   0.433E-03    0.110E-01
DAV:  41     0.496765059833E+04    0.19342E-04   -0.11109E-04  3776   0.643E-03    0.485E-02
DAV:  42     0.496765059872E+04    0.38743E-06   -0.26848E-05  3360   0.292E-03    0.278E-02
DAV:  43     0.496765059512E+04   -0.36061E-05   -0.12366E-05  2720   0.168E-03    0.249E-02
DAV:  44     0.496765059525E+04    0.13784E-06   -0.16427E-05  2976   0.176E-03    0.195E-02
DAV:  45     0.496765059607E+04    0.81584E-06   -0.27233E-06  2560   0.134E-03
   2 F= 0.49676506E+04 E0= 0.49677730E+04  d E =0.493161E+04
       N       E                     dE             d eps       ncg     rms          rms(c)
DAV:   1    -0.354008512321E+04   -0.85077E+04   -0.23182E+05  4736   0.725E+02    0.444E+03
DAV:   2    -0.464466201849E+03    0.30756E+04   -0.24718E+04  4448   0.201E+02    0.319E+03
DAV:   3    -0.279805567545E+03    0.18466E+03   -0.85604E+03  5632   0.133E+02    0.164E+03
DAV:   4    -0.316997258025E+03   -0.37192E+02   -0.26786E+03  4640   0.820E+01    0.198E+02
DAV:   5    -0.235772152637E+03    0.81225E+02   -0.51872E+02  4288   0.340E+01    0.212E+02
DAV:   6    -0.234525769563E+03    0.12464E+01   -0.22914E+02  4704   0.202E+01    0.897E+01
DAV:   7    -0.243961522485E+03   -0.94358E+01   -0.81586E+01  4448   0.112E+01    0.403E+01
DAV:   8    -0.229569230142E+03    0.14392E+02   -0.17286E+01  4544   0.677E+00    0.850E+00
DAV:   9    -0.229388101137E+03    0.18113E+00   -0.12603E+01  4224   0.343E+00    0.778E+00
DAV:  10    -0.228950205269E+03    0.43790E+00   -0.24051E+00  4096   0.145E+00    0.438E+00
DAV:  11    -0.228942953635E+03    0.72516E-02   -0.35827E-01  3968   0.706E-01    0.251E+00
DAV:  12    -0.228923515874E+03    0.19438E-01   -0.17237E-01  4320   0.478E-01    0.219E+00
DAV:  13    -0.228916400086E+03    0.71158E-02   -0.19942E-02  4224   0.299E-01    0.418E-01
DAV:  14    -0.228917650620E+03   -0.12505E-02   -0.15499E-02  4000   0.170E-01    0.321E-01
DAV:  15    -0.228917244777E+03    0.40584E-03   -0.19397E-03  3968   0.804E-02    0.281E-01
DAV:  16    -0.228917264949E+03   -0.20171E-04   -0.35177E-04  4096   0.265E-02    0.927E-02
DAV:  17    -0.228917209642E+03    0.55307E-04   -0.27762E-04  4160   0.127E-02    0.214E-02
DAV:  18    -0.228917224200E+03   -0.14558E-04   -0.26910E-05  3712   0.641E-03    0.205E-02
DAV:  19    -0.228917222644E+03    0.15558E-05   -0.45702E-05  3616   0.475E-03    0.712E-03
DAV:  20    -0.228917223390E+03   -0.74573E-06   -0.33591E-06  3168   0.227E-03
   3 F= -.22891722E+03 E0= -.22888245E+03  d E =-.264953E+03
       N       E                     dE             d eps       ncg     rms          rms(c)
DAV:   1    -0.282552097652E+03   -0.53635E+02   -0.76863E+02  3584   0.422E+01    0.366E+01
DAV:   2    -0.281389671952E+03    0.11624E+01   -0.56924E+01  4224   0.112E+01    0.281E+01
DAV:   3    -0.280523199223E+03    0.86647E+00   -0.44131E+00  4384   0.305E+00    0.245E+01
DAV:   4    -0.280920175035E+03   -0.39698E+00   -0.36295E+00  4704   0.163E+00    0.173E+01
DAV:   5    -0.280166138638E+03    0.75404E+00   -0.32948E+00  4416   0.180E+00    0.291E+00
DAV:   6    -0.280094408115E+03    0.71731E-01   -0.26566E-01  4064   0.876E-01    0.159E+00
DAV:   7    -0.280090452262E+03    0.39559E-02   -0.90223E-02  4288   0.449E-01    0.868E-01
DAV:   8    -0.280089379211E+03    0.10731E-02   -0.84889E-03  4384   0.176E-01    0.495E-01
DAV:   9    -0.280089148126E+03    0.23108E-03   -0.42088E-03  4224   0.844E-02    0.127E-01
DAV:  10    -0.280089177765E+03   -0.29639E-04   -0.72233E-04  4224   0.432E-02    0.109E-01
DAV:  11    -0.280089175292E+03    0.24733E-05   -0.13011E-04  4160   0.179E-02    0.822E-02
DAV:  12    -0.280089193206E+03   -0.17914E-04   -0.42852E-05  3840   0.105E-02    0.406E-02
DAV:  13    -0.280089201320E+03   -0.81145E-05   -0.26423E-05  3968   0.799E-03    0.151E-02
DAV:  14    -0.280089203706E+03   -0.23861E-05   -0.72972E-06  4096   0.376E-03    0.136E-02
DAV:  15    -0.280089204080E+03   -0.37334E-06   -0.62664E-07  2336   0.155E-03
   4 F= -.28008920E+03 E0= -.28006072E+03  d E =-.316125E+03
       N       E                     dE             d eps       ncg     rms          rms(c)
DAV:   1    -0.398101097635E+03   -0.11801E+03   -0.79256E+03  3584   0.137E+02    0.367E+02
DAV:   2    -0.390549722671E+03    0.75514E+01   -0.72908E+02  4128   0.404E+01    0.154E+02
DAV:   3    -0.386679842854E+03    0.38699E+01   -0.54468E+01  4480   0.124E+01    0.128E+02
DAV:   4    -0.384601120155E+03    0.20787E+01   -0.51633E+00  4384   0.477E+00    0.769E+01
DAV:   5    -0.383535032509E+03    0.10661E+01   -0.66165E+00  4288   0.392E+00    0.768E+00
DAV:   6    -0.383362107485E+03    0.17293E+00   -0.13492E+00  4288   0.212E+00    0.455E+00
DAV:   7    -0.383320416826E+03    0.41691E-01   -0.38811E-01  4128   0.926E-01    0.298E+00
DAV:   8    -0.383316964655E+03    0.34522E-02   -0.48393E-02  5184   0.420E-01    0.171E+00
DAV:   9    -0.383310977706E+03    0.59869E-02   -0.21488E-02  4096   0.233E-01    0.482E-01
DAV:  10    -0.383310401968E+03    0.57574E-03   -0.88322E-03  4288   0.156E-01    0.233E-01
DAV:  11    -0.383310312149E+03    0.89820E-04   -0.11086E-03  4128   0.586E-02    0.181E-01
DAV:  12    -0.383310310741E+03    0.14078E-05   -0.31465E-04  4064   0.256E-02    0.129E-01
DAV:  13    -0.383310320488E+03   -0.97467E-05   -0.11126E-04  4160   0.188E-02    0.829E-02
DAV:  14    -0.383310330269E+03   -0.97813E-05   -0.24757E-05  4352   0.797E-03    0.190E-02
DAV:  15    -0.383310331171E+03   -0.90214E-06   -0.40119E-06  3712   0.385E-03
   5 F= -.38331033E+03 E0= -.38329463E+03  d E =-.419346E+03
       N       E                     dE             d eps       ncg     rms          rms(c)
DAV:   1    -0.409400219141E+03   -0.26090E+02   -0.19751E+03  3584   0.694E+01    0.862E+01
DAV:   2    -0.406346212258E+03    0.30540E+01   -0.14285E+02  4256   0.194E+01    0.282E+01
DAV:   3    -0.404843579081E+03    0.15026E+01   -0.10082E+01  4480   0.538E+00    0.207E+01
DAV:   4    -0.404177586864E+03    0.66599E+00   -0.14148E+00  4576   0.257E+00    0.103E+01
DAV:   5    -0.403975734141E+03    0.20185E+00   -0.83090E-01  4384   0.158E+00    0.326E+00
DAV:   6    -0.403968637631E+03    0.70965E-02   -0.26287E-01  4384   0.862E-01    0.142E+00
DAV:   7    -0.403967475467E+03    0.11622E-02   -0.33223E-02  5312   0.342E-01    0.815E-01
DAV:   8    -0.403967410505E+03    0.64962E-04   -0.98099E-03  4608   0.170E-01    0.329E-01
DAV:   9    -0.403967186562E+03    0.22394E-03   -0.32788E-03  4384   0.937E-02    0.120E-01
DAV:  10    -0.403967213332E+03   -0.26770E-04   -0.60202E-04  4896   0.360E-02    0.664E-02
DAV:  11    -0.403967196726E+03    0.16606E-04   -0.94249E-05  4832   0.165E-02    0.564E-02
DAV:  12    -0.403967208051E+03   -0.11325E-04   -0.29578E-05  3872   0.794E-03    0.233E-02
DAV:  13    -0.403967211657E+03   -0.36065E-05   -0.55567E-06  4000   0.385E-03    0.660E-03
DAV:  14    -0.403967212075E+03   -0.41722E-06   -0.10798E-06  2400   0.195E-03
   6 F= -.40396721E+03 E0= -.40393897E+03  d E =-.440003E+03
       N       E                     dE             d eps       ncg     rms          rms(c)
DAV:   1    -0.408112268345E+03   -0.41451E+01   -0.49534E+02  3584   0.350E+01    0.338E+01
DAV:   2    -0.407508639416E+03    0.60363E+00   -0.34295E+01  4224   0.983E+00    0.984E+00
DAV:   3    -0.407008828711E+03    0.49981E+00   -0.26344E+00  4480   0.281E+00    0.478E+00
DAV:   4    -0.406851460135E+03    0.15737E+00   -0.42669E-01  4736   0.140E+00    0.208E+00
DAV:   5    -0.406821003909E+03    0.30456E-01   -0.19240E-01  4544   0.791E-01    0.119E+00
DAV:   6    -0.406818697952E+03    0.23060E-02   -0.65723E-02  4384   0.440E-01    0.847E-01
DAV:   7    -0.406818741918E+03   -0.43966E-04   -0.95006E-03  4512   0.183E-01    0.542E-01
DAV:   8    -0.406819405456E+03   -0.66354E-03   -0.28211E-03  5280   0.872E-02    0.134E-01
DAV:   9    -0.406819455162E+03   -0.49705E-04   -0.32206E-04  4512   0.335E-02    0.481E-02
DAV:  10    -0.406819448567E+03    0.65948E-05   -0.46678E-05  4352   0.151E-02    0.268E-02
DAV:  11    -0.406819451339E+03   -0.27723E-05   -0.18074E-05  4000   0.742E-03    0.151E-02
DAV:  12    -0.406819452426E+03   -0.10865E-05   -0.54611E-06  3872   0.365E-03    0.566E-03
DAV:  13    -0.406819452555E+03   -0.12971E-06   -0.75818E-07  2400   0.174E-03
   7 F= -.40681945E+03 E0= -.40679316E+03  d E =-.442855E+03
       N       E                     dE             d eps       ncg     rms          rms(c)
DAV:   1    -0.452485772004E+03   -0.45666E+02   -0.43214E+03  3584   0.120E+02    0.852E+01
DAV:   2    -0.438136907971E+03    0.14349E+02   -0.31966E+02  4128   0.321E+01    0.527E+01
DAV:   3    -0.432068728007E+03    0.60682E+01   -0.24419E+01  4352   0.967E+00    0.412E+01
DAV:   4    -0.430861729764E+03    0.12070E+01   -0.82236E+00  5056   0.641E+00    0.273E+01
DAV:   5    -0.428839069752E+03    0.20227E+01   -0.62815E+00  5088   0.632E+00    0.871E+00
DAV:   6    -0.428351286099E+03    0.48778E+00   -0.31562E+00  4832   0.344E+00    0.480E+00
DAV:   7    -0.428247278630E+03    0.10401E+00   -0.10524E+00  4064   0.159E+00    0.306E+00
DAV:   8    -0.428241628240E+03    0.56504E-02   -0.21414E-01  4032   0.689E-01    0.110E+00
DAV:   9    -0.428234304418E+03    0.73238E-02   -0.37062E-02  5472   0.456E-01    0.410E-01
DAV:  10    -0.428233558454E+03    0.74596E-03   -0.10807E-02  4288   0.178E-01    0.237E-01
DAV:  11    -0.428233454774E+03    0.10368E-03   -0.29022E-03  4000   0.816E-02    0.108E-01
DAV:  12    -0.428233431453E+03    0.23320E-04   -0.35669E-04  4704   0.327E-02    0.679E-02
DAV:  13    -0.428233450149E+03   -0.18696E-04   -0.11522E-04  4000   0.153E-02    0.397E-02
DAV:  14    -0.428233438981E+03    0.11168E-04   -0.16960E-05  4704   0.757E-03    0.839E-03
DAV:  15    -0.428233439875E+03   -0.89378E-06   -0.34790E-06  3104   0.302E-03
   8 F= -.42823344E+03 E0= -.42820753E+03  d E =-.214140E+02
       N       E                     dE             d eps       ncg     rms          rms(c)
DAV:   1    -0.431755365959E+03   -0.35219E+01   -0.26358E+02  3584   0.294E+01    0.204E+01
DAV:   2    -0.430170232106E+03    0.15851E+01   -0.16048E+01  4096   0.789E+00    0.597E+00
DAV:   3    -0.429700650269E+03    0.46958E+00   -0.19826E+00  4544   0.337E+00    0.314E+00
DAV:   4    -0.429560669225E+03    0.13998E+00   -0.48538E-01  4384   0.140E+00    0.173E+00
DAV:   5    -0.429559381008E+03    0.12882E-02   -0.15672E-01  4384   0.597E-01    0.114E+00
DAV:   6    -0.429558738663E+03    0.64235E-03   -0.15137E-02  4512   0.293E-01    0.708E-01
DAV:   7    -0.429558572781E+03    0.16588E-03   -0.81852E-03  4832   0.224E-01    0.311E-01
DAV:   8    -0.429557928793E+03    0.64399E-03   -0.32016E-03  4640   0.110E-01    0.118E-01
DAV:   9    -0.429557939863E+03   -0.11069E-04   -0.80071E-04  4128   0.431E-02    0.826E-02
DAV:  10    -0.429557915803E+03    0.24059E-04   -0.15424E-04  4320   0.190E-02    0.456E-02
DAV:  11    -0.429557923877E+03   -0.80738E-05   -0.45360E-05  4672   0.117E-02    0.128E-02
DAV:  12    -0.429557928490E+03   -0.46125E-05   -0.91720E-06  3808   0.475E-03    0.798E-03
DAV:  13    -0.429557927653E+03    0.83681E-06   -0.81214E-07  2176   0.189E-03
   9 F= -.42955793E+03 E0= -.42953182E+03  d E =-.227385E+02
       N       E                     dE             d eps       ncg     rms          rms(c)
DAV:   1    -0.438621698788E+03   -0.90638E+01   -0.13479E+03  3584   0.651E+01    0.300E+01
DAV:   2    -0.440686771552E+03   -0.20651E+01   -0.69848E+01  4224   0.135E+01    0.841E+00
DAV:   3    -0.439839440542E+03    0.84733E+00   -0.36544E+00  4544   0.429E+00    0.397E+00
DAV:   4    -0.439694401609E+03    0.14504E+00   -0.14001E+00  4512   0.194E+00    0.213E+00
DAV:   5    -0.439639270483E+03    0.55131E-01   -0.43167E-01  4384   0.113E+00    0.120E+00
DAV:   6    -0.439633617416E+03    0.56531E-02   -0.77986E-02  4448   0.522E-01    0.842E-01
DAV:   7    -0.439634177917E+03   -0.56050E-03   -0.14233E-02  4640   0.200E-01    0.584E-01
DAV:   8    -0.439635194036E+03   -0.10161E-02   -0.45908E-03  4736   0.126E-01    0.139E-01
DAV:   9    -0.439635187685E+03    0.63517E-05   -0.10211E-03  4608   0.631E-02    0.543E-02
DAV:  10    -0.439635178756E+03    0.89287E-05   -0.23805E-04  4896   0.247E-02    0.370E-02
DAV:  11    -0.439635187856E+03   -0.90998E-05   -0.35882E-05  4448   0.952E-03    0.221E-02
DAV:  12    -0.439635192413E+03   -0.45579E-05   -0.54210E-06  3936   0.538E-03    0.952E-03
DAV:  13    -0.439635192669E+03   -0.25589E-06   -0.16930E-06  2432   0.274E-03
  10 F= -.43963519E+03 E0= -.43960434E+03  d E =-.100773E+02
       N       E                     dE             d eps       ncg     rms          rms(c)
DAV:   1    -0.442347275568E+03   -0.27121E+01   -0.24521E+03  3584   0.879E+01    0.486E+01
DAV:   2    -0.447059255567E+03   -0.47120E+01   -0.13903E+02  4224   0.187E+01    0.123E+01
DAV:   3    -0.445534933327E+03    0.15243E+01   -0.80985E+00  4384   0.608E+00    0.647E+00
DAV:   4    -0.445256254995E+03    0.27868E+00   -0.30569E+00  4512   0.283E+00    0.354E+00
DAV:   5    -0.445121318552E+03    0.13494E+00   -0.93162E-01  4416   0.179E+00    0.181E+00
DAV:   6    -0.445100649603E+03    0.20669E-01   -0.17520E-01  4416   0.826E-01    0.116E+00
DAV:   7    -0.445102168928E+03   -0.15193E-02   -0.35401E-02  4512   0.295E-01    0.875E-01
DAV:   8    -0.445103541573E+03   -0.13726E-02   -0.84045E-03  4992   0.152E-01    0.272E-01
DAV:   9    -0.445103630184E+03   -0.88611E-04   -0.18019E-03  4864   0.800E-02    0.762E-02
DAV:  10    -0.445103647754E+03   -0.17570E-04   -0.31582E-04  4320   0.308E-02    0.454E-02
DAV:  11    -0.445103637241E+03    0.10513E-04   -0.43186E-05  4704   0.110E-02    0.242E-02
DAV:  12    -0.445103640566E+03   -0.33251E-05   -0.10921E-05  3968   0.519E-03    0.673E-03
DAV:  13    -0.445103642168E+03   -0.16022E-05   -0.12560E-06  2272   0.221E-03    0.272E-03
DAV:  14    -0.445103641771E+03    0.39701E-06   -0.29219E-07  2176   0.110E-03
  11 F= -.44510364E+03 E0= -.44506664E+03  d E =-.155457E+02
       N       E                     dE             d eps       ncg     rms          rms(c)
DAV:   1    -0.446827051166E+03   -0.17234E+01   -0.77946E+02  3584   0.470E+01    0.139E+01
DAV:   2    -0.449529666759E+03   -0.27026E+01   -0.28586E+01  4288   0.764E+00    0.491E+00
DAV:   3    -0.449467687160E+03    0.61980E-01   -0.15566E+00  4992   0.274E+00    0.378E+00
DAV:   4    -0.449276962438E+03    0.19072E+00   -0.55658E-01  4960   0.151E+00    0.162E+00
DAV:   5    -0.449270987538E+03    0.59749E-02   -0.15619E-01  4160   0.667E-01    0.671E-01
DAV:   6    -0.449271414045E+03   -0.42651E-03   -0.27990E-02  4128   0.273E-01    0.450E-01
DAV:   7    -0.449271616079E+03   -0.20203E-03   -0.46816E-03  4224   0.104E-01    0.241E-01
DAV:   8    -0.449271164297E+03    0.45178E-03   -0.97811E-04  4160   0.630E-02    0.116E-01
DAV:   9    -0.449271176528E+03   -0.12231E-04   -0.52155E-04  4288   0.328E-02    0.308E-02
DAV:  10    -0.449271174141E+03    0.23861E-05   -0.29496E-05  4928   0.960E-03    0.154E-02
DAV:  11    -0.449271173798E+03    0.34316E-06   -0.49083E-06  3776   0.345E-03
  12 F= -.44927117E+03 E0= -.44923810E+03  d E =-.416753E+01
       N       E                     dE             d eps       ncg     rms          rms(c)
DAV:   1    -0.437828955269E+03    0.11442E+02   -0.36918E+03  3584   0.103E+02    0.350E+01
DAV:   2    -0.454956394096E+03   -0.17127E+02   -0.17779E+02  4352   0.179E+01    0.127E+01
DAV:   3    -0.454139977446E+03    0.81642E+00   -0.94518E+00  4608   0.701E+00    0.917E+00
DAV:   4    -0.453032581715E+03    0.11074E+01   -0.41378E+00  4832   0.383E+00    0.399E+00
DAV:   5    -0.452983354530E+03    0.49227E-01   -0.78894E-01  4000   0.147E+00    0.216E+00
DAV:   6    -0.452980936701E+03    0.24178E-02   -0.17695E-01  4288   0.646E-01    0.106E+00
DAV:   7    -0.452983440436E+03   -0.25037E-02   -0.31060E-02  4480   0.277E-01    0.522E-01
DAV:   8    -0.452982115634E+03    0.13248E-02   -0.38027E-03  4608   0.112E-01    0.305E-01
DAV:   9    -0.452981879082E+03    0.23655E-03   -0.23391E-03  4000   0.766E-02    0.857E-02
DAV:  10    -0.452981895750E+03   -0.16668E-04   -0.31696E-04  4320   0.279E-02    0.316E-02
DAV:  11    -0.452981896922E+03   -0.11722E-05   -0.27027E-05  5344   0.871E-03    0.229E-02
DAV:  12    -0.452981896957E+03   -0.35725E-07   -0.55712E-06  3936   0.400E-03
  13 F= -.45298190E+03 E0= -.45295802E+03  d E =-.787826E+01
       N       E                     dE             d eps       ncg     rms          rms(c)
DAV:   1    -0.458900191194E+03   -0.59183E+01   -0.79525E+02  3584   0.485E+01    0.200E+01
DAV:   2    -0.460554709963E+03   -0.16545E+01   -0.27795E+01  4320   0.834E+00    0.836E+00
DAV:   3    -0.460554475691E+03    0.23427E-03   -0.21386E+00  5120   0.363E+00    0.656E+00
DAV:   4    -0.460121294320E+03    0.43318E+00   -0.12186E+00  5216   0.252E+00    0.345E+00
DAV:   5    -0.460090841599E+03    0.30453E-01   -0.48543E-01  4096   0.102E+00    0.131E+00
DAV:   6    -0.460085657661E+03    0.51839E-02   -0.76154E-02  4032   0.497E-01    0.807E-01
DAV:   7    -0.460083108654E+03    0.25490E-02   -0.11330E-02  4384   0.218E-01    0.370E-01
DAV:   8    -0.460082852084E+03    0.25657E-03   -0.30876E-03  4288   0.975E-02    0.152E-01
DAV:   9    -0.460082846756E+03    0.53276E-05   -0.72109E-04  4064   0.430E-02    0.651E-02
DAV:  10    -0.460082841726E+03    0.50300E-05   -0.95564E-05  5248   0.164E-02    0.378E-02
DAV:  11    -0.460082845585E+03   -0.38584E-05   -0.24080E-05  4288   0.724E-03    0.109E-02
DAV:  12    -0.460082845297E+03    0.28795E-06   -0.34095E-06  3136   0.329E-03
  14 F= -.46008285E+03 E0= -.46005657E+03  d E =-.710095E+01
       N       E                     dE             d eps       ncg     rms          rms(c)
DAV:   1    -0.460978597932E+03   -0.89575E+00   -0.12656E+03  3584   0.608E+01    0.228E+01
DAV:   2    -0.464062585950E+03   -0.30840E+01   -0.48219E+01  4352   0.108E+01    0.942E+00
DAV:   3    -0.464002011518E+03    0.60574E-01   -0.33421E+00  5024   0.435E+00    0.774E+00
DAV:   4    -0.463403789075E+03    0.59822E+00   -0.16642E+00  5408   0.299E+00    0.414E+00
DAV:   5    -0.463346578195E+03    0.57211E-01   -0.78310E-01  4128   0.130E+00    0.167E+00
DAV:   6    -0.463337452452E+03    0.91257E-02   -0.12504E-01  4032   0.618E-01    0.962E-01
DAV:   7    -0.463333767147E+03    0.36853E-02   -0.19262E-02  4384   0.294E-01    0.513E-01
DAV:   8    -0.463333100895E+03    0.66625E-03   -0.51046E-03  4448   0.135E-01    0.211E-01
DAV:   9    -0.463333104087E+03   -0.31928E-05   -0.16184E-03  4192   0.635E-02    0.802E-02
DAV:  10    -0.463333089457E+03    0.14631E-04   -0.21008E-04  5216   0.246E-02    0.441E-02
DAV:  11    -0.463333093080E+03   -0.36233E-05   -0.51366E-05  4256   0.107E-02    0.137E-02
DAV:  12    -0.463333093424E+03   -0.34383E-06   -0.74002E-06  4224   0.475E-03
  15 F= -.46333309E+03 E0= -.46329957E+03  d E =-.103512E+02
       N       E                     dE             d eps       ncg     rms          rms(c)
DAV:   1    -0.465380059461E+03   -0.20470E+01   -0.15341E+02  3584   0.198E+01    0.750E+00
DAV:   2    -0.465903194644E+03   -0.52314E+00   -0.58165E+00  4352   0.352E+00    0.261E+00
DAV:   3    -0.465904396957E+03   -0.12023E-02   -0.39603E-01  5056   0.123E+00    0.234E+00
DAV:   4    -0.465850830907E+03    0.53566E-01   -0.14297E-01  5088   0.749E-01    0.128E+00
DAV:   5    -0.465850257377E+03    0.57353E-03   -0.50202E-02  4320   0.395E-01    0.521E-01
DAV:   6    -0.465849125569E+03    0.11318E-02   -0.10798E-02  4480   0.207E-01    0.290E-01
DAV:   7    -0.465848888256E+03    0.23731E-03   -0.27859E-03  3968   0.843E-02    0.158E-01
DAV:   8    -0.465848712861E+03    0.17540E-03   -0.59485E-04  4800   0.431E-02    0.962E-02
DAV:   9    -0.465848712950E+03   -0.89334E-07   -0.19051E-04  4096   0.201E-02    0.418E-02
DAV:  10    -0.465848712766E+03    0.18410E-06   -0.29985E-05  4736   0.931E-03    0.144E-02
DAV:  11    -0.465848711362E+03    0.14037E-05   -0.64374E-06  3840   0.440E-03    0.633E-03
DAV:  12    -0.465848711134E+03    0.22830E-06   -0.15061E-06  2400   0.192E-03
  16 F= -.46584871E+03 E0= -.46581554E+03  d E =-.251562E+01
       N       E                     dE             d eps       ncg     rms          rms(c)
DAV:   1    -0.464681537630E+03    0.11672E+01   -0.13947E+03  3584   0.599E+01    0.283E+01
DAV:   2    -0.469877785637E+03   -0.51962E+01   -0.57901E+01  4320   0.111E+01    0.840E+00
DAV:   3    -0.469760680669E+03    0.11710E+00   -0.37400E+00  4896   0.390E+00    0.702E+00
DAV:   4    -0.469353463333E+03    0.40722E+00   -0.12323E+00  4896   0.214E+00    0.424E+00
DAV:   5    -0.469336397092E+03    0.17066E-01   -0.39983E-01  4256   0.113E+00    0.176E+00
DAV:   6    -0.469334437630E+03    0.19595E-02   -0.91794E-02  4512   0.590E-01    0.785E-01
DAV:   7    -0.469331551091E+03    0.28865E-02   -0.19109E-02  4256   0.251E-01    0.455E-01
DAV:   8    -0.469330073179E+03    0.14779E-02   -0.53735E-03  4832   0.128E-01    0.267E-01
DAV:   9    -0.469330071804E+03    0.13748E-05   -0.19140E-03  4128   0.656E-02    0.758E-02
DAV:  10    -0.469330058643E+03    0.13160E-04   -0.20357E-04  4832   0.249E-02    0.260E-02
DAV:  11    -0.469330055268E+03    0.33750E-05   -0.30032E-05  4064   0.833E-03    0.142E-02
DAV:  12    -0.469330054100E+03    0.11680E-05   -0.56466E-06  3840   0.378E-03    0.698E-03
DAV:  13    -0.469330053490E+03    0.60999E-06   -0.56857E-07  2176   0.173E-03
  17 F= -.46933005E+03 E0= -.46930117E+03  d E =-.599696E+01
       N       E                     dE             d eps       ncg     rms          rms(c)
DAV:   1    -0.470497775884E+03   -0.11677E+01   -0.11322E+02  3584   0.176E+01    0.552E+00
DAV:   2    -0.470805314113E+03   -0.30754E+00   -0.45980E+00  4384   0.330E+00    0.280E+00
DAV:   3    -0.470773332018E+03    0.31982E-01   -0.21492E-01  4448   0.954E-01    0.184E+00
DAV:   4    -0.470763500508E+03    0.98315E-02   -0.86244E-02  5120   0.661E-01    0.138E+00
DAV:   5    -0.470749565706E+03    0.13935E-01   -0.53374E-02  4576   0.425E-01    0.339E-01
DAV:   6    -0.470750758286E+03   -0.11926E-02   -0.14847E-02  4288   0.185E-01    0.286E-01
DAV:   7    -0.470750570621E+03    0.18767E-03   -0.99230E-04  4960   0.573E-02    0.188E-01
DAV:   8    -0.470750558013E+03    0.12608E-04   -0.35524E-04  4224   0.287E-02    0.101E-01
DAV:   9    -0.470750538897E+03    0.19116E-04   -0.15489E-04  4160   0.212E-02    0.354E-02
DAV:  10    -0.470750545336E+03   -0.64392E-05   -0.34560E-05  3840   0.910E-03    0.199E-02
DAV:  11    -0.470750545517E+03   -0.18117E-06   -0.40269E-06  3648   0.317E-03
  18 F= -.47075055E+03 E0= -.47072253E+03  d E =-.142049E+01
       N       E                     dE             d eps       ncg     rms          rms(c)
DAV:   1    -0.470148089788E+03    0.60246E+00   -0.93098E+02  3584   0.506E+01    0.190E+01
DAV:   2    -0.472735198037E+03   -0.25871E+01   -0.39964E+01  4352   0.968E+00    0.807E+00
DAV:   3    -0.472465564020E+03    0.26963E+00   -0.16204E+00  4352   0.266E+00    0.548E+00
DAV:   4    -0.472430697594E+03    0.34866E-01   -0.53106E-01  5120   0.166E+00    0.407E+00
DAV:   5    -0.472330704349E+03    0.99993E-01   -0.38252E-01  4608   0.120E+00    0.113E+00
DAV:   6    -0.472338020986E+03   -0.73166E-02   -0.10409E-01  4256   0.469E-01    0.734E-01
DAV:   7    -0.472337517399E+03    0.50359E-03   -0.82392E-03  4832   0.143E-01    0.538E-01
DAV:   8    -0.472337073162E+03    0.44424E-03   -0.23268E-03  4480   0.816E-02    0.259E-01
DAV:   9    -0.472336892558E+03    0.18060E-03   -0.10372E-03  4736   0.586E-02    0.101E-01
DAV:  10    -0.472336914226E+03   -0.21668E-04   -0.31535E-04  3872   0.269E-02    0.573E-02
DAV:  11    -0.472336902168E+03    0.12059E-04   -0.18997E-05  4512   0.931E-03    0.408E-02
DAV:  12    -0.472336897626E+03    0.45416E-05   -0.13008E-05  3872   0.617E-03    0.212E-02
DAV:  13    -0.472336899459E+03   -0.18325E-05   -0.88822E-06  3680   0.471E-03    0.581E-03
DAV:  14    -0.472336899091E+03    0.36734E-06   -0.73571E-07  2176   0.147E-03
  19 F= -.47233690E+03 E0= -.47230703E+03  d E =-.300685E+01
       N       E                     dE             d eps       ncg     rms          rms(c)
DAV:   1    -0.473002144182E+03   -0.66524E+00   -0.26326E+01  3584   0.817E+00    0.261E+00
DAV:   2    -0.473096325498E+03   -0.94181E-01   -0.11046E+00  4320   0.151E+00    0.101E+00
DAV:   3    -0.473091131008E+03    0.51945E-02   -0.36900E-02  4544   0.391E-01    0.718E-01
DAV:   4    -0.473089242844E+03    0.18882E-02   -0.80826E-03  4768   0.193E-01    0.510E-01
DAV:   5    -0.473088376798E+03    0.86605E-03   -0.63395E-03  4352   0.121E-01    0.159E-01
DAV:   6    -0.473088492596E+03   -0.11580E-03   -0.16847E-03  3968   0.621E-02    0.888E-02
DAV:   7    -0.473088453736E+03    0.38860E-04   -0.10500E-04  4576   0.212E-02    0.611E-02
DAV:   8    -0.473088450717E+03    0.30186E-05   -0.45335E-05  3936   0.977E-03    0.344E-02
DAV:   9    -0.473088449812E+03    0.90528E-06   -0.10654E-05  4352   0.564E-03    0.136E-02
DAV:  10    -0.473088449897E+03   -0.84547E-07   -0.28177E-06  3040   0.283E-03
  20 F= -.47308845E+03 E0= -.47305831E+03  d E =-.751551E+00
       N       E                     dE             d eps       ncg     rms          rms(c)
DAV:   1    -0.474289527459E+03   -0.12011E+01   -0.23745E+02  3584   0.246E+01    0.896E+00
DAV:   2    -0.475145570628E+03   -0.85604E+00   -0.10057E+01  4352   0.452E+00    0.321E+00
DAV:   3    -0.475101516911E+03    0.44054E-01   -0.32994E-01  4800   0.115E+00    0.250E+00
DAV:   4    -0.475085763701E+03    0.15753E-01   -0.67705E-02  4832   0.553E-01    0.187E+00
DAV:   5    -0.475077161383E+03    0.86023E-02   -0.47139E-02  4352   0.341E-01    0.626E-01
DAV:   6    -0.475078264985E+03   -0.11036E-02   -0.14436E-02  4064   0.172E-01    0.245E-01
DAV:   7    -0.475078037993E+03    0.22699E-03   -0.94641E-04  4896   0.580E-02    0.180E-01
DAV:   8    -0.475077986427E+03    0.51566E-04   -0.27584E-04  4128   0.241E-02    0.107E-01
DAV:   9    -0.475077970976E+03    0.15451E-04   -0.86868E-05  4320   0.150E-02    0.396E-02
DAV:  10    -0.475077972093E+03   -0.11169E-05   -0.17875E-05  4032   0.684E-03    0.123E-02
DAV:  11    -0.475077971796E+03    0.29700E-06   -0.36631E-06  3328   0.300E-03
  21 F= -.47507797E+03 E0= -.47504973E+03  d E =-.274107E+01
       N       E                     dE             d eps       ncg     rms          rms(c)
DAV:   1    -0.473983179049E+03    0.10948E+01   -0.95293E+02  3584   0.494E+01    0.253E+01
DAV:   2    -0.477573103435E+03   -0.35899E+01   -0.42309E+01  4320   0.927E+00    0.809E+00
DAV:   3    -0.477408697118E+03    0.16441E+00   -0.13486E+00  4608   0.222E+00    0.684E+00
DAV:   4    -0.477365868234E+03    0.42829E-01   -0.27013E-01  4864   0.109E+00    0.524E+00
DAV:   5    -0.477325657875E+03    0.40210E-01   -0.17274E-01  4480   0.742E-01    0.175E+00
DAV:   6    -0.477327631695E+03   -0.19738E-02   -0.61329E-02  4224   0.375E-01    0.459E-01
DAV:   7    -0.477327357921E+03    0.27377E-03   -0.61309E-03  4192   0.121E-01    0.364E-01
DAV:   8    -0.477327102778E+03    0.25514E-03   -0.10304E-03  4992   0.461E-02    0.226E-01
DAV:   9    -0.477327056580E+03    0.46198E-04   -0.21557E-04  4320   0.219E-02    0.596E-02
DAV:  10    -0.477327044157E+03    0.12423E-04   -0.63268E-05  4224   0.121E-02    0.201E-02
DAV:  11    -0.477327044004E+03    0.15288E-06   -0.12923E-05  3936   0.522E-03    0.199E-02
DAV:  12    -0.477327042964E+03    0.10399E-05   -0.16736E-06  2464   0.205E-03    0.810E-03
DAV:  13    -0.477327042459E+03    0.50484E-06   -0.20137E-06  2720   0.213E-03
  22 F= -.47732704E+03 E0= -.47729986E+03  d E =-.499014E+01
       N       E                     dE             d eps       ncg     rms          rms(c)
DAV:   1    -0.479600229133E+03   -0.22732E+01   -0.77784E+01  3584   0.153E+01    0.855E+00
DAV:   2    -0.479612381542E+03   -0.12152E-01   -0.41173E+00  4320   0.335E+00    0.341E+00
DAV:   3    -0.479553305347E+03    0.59076E-01   -0.30643E-01  5088   0.120E+00    0.215E+00
DAV:   4    -0.479538203921E+03    0.15101E-01   -0.13442E-01  5312   0.836E-01    0.136E+00
DAV:   5    -0.479518935092E+03    0.19269E-01   -0.62521E-02  4960   0.484E-01    0.464E-01
DAV:   6    -0.479519649396E+03   -0.71430E-03   -0.20977E-02  4192   0.211E-01    0.326E-01
DAV:   7    -0.479519293528E+03    0.35587E-03   -0.13198E-03  4448   0.610E-02    0.184E-01
DAV:   8    -0.479519181519E+03    0.11201E-03   -0.57906E-04  4128   0.390E-02    0.552E-02
DAV:   9    -0.479519151061E+03    0.30458E-04   -0.10366E-04  4736   0.201E-02    0.219E-02
DAV:  10    -0.479519145577E+03    0.54844E-05   -0.32449E-05  3968   0.895E-03    0.146E-02
DAV:  11    -0.479519147284E+03   -0.17066E-05   -0.61363E-06  3840   0.411E-03    0.839E-03
DAV:  12    -0.479519145846E+03    0.14381E-05   -0.10628E-06  2176   0.215E-03    0.353E-03
DAV:  13    -0.479519146130E+03   -0.28413E-06   -0.43271E-07  2176   0.129E-03
  23 F= -.47951915E+03 E0= -.47949066E+03  d E =-.219210E+01
       N       E                     dE             d eps       ncg     rms          rms(c)
DAV:   1    -0.481747599298E+03   -0.22285E+01   -0.35346E+02  3584   0.325E+01    0.208E+01
DAV:   2    -0.481832269697E+03   -0.84670E-01   -0.18567E+01  4320   0.711E+00    0.731E+00
DAV:   3    -0.481633426300E+03    0.19884E+00   -0.17629E+00  5280   0.275E+00    0.517E+00
DAV:   4    -0.481485440223E+03    0.14799E+00   -0.77496E-01  5376   0.192E+00    0.320E+00
DAV:   5    -0.481397675679E+03    0.87765E-01   -0.33981E-01  4608   0.102E+00    0.114E+00
DAV:   6    -0.481398932078E+03   -0.12564E-02   -0.92639E-02  4192   0.461E-01    0.724E-01
DAV:   7    -0.481397873370E+03    0.10587E-02   -0.87175E-03  4192   0.145E-01    0.349E-01
DAV:   8    -0.481397599063E+03    0.27431E-03   -0.25378E-03  4096   0.902E-02    0.142E-01
DAV:   9    -0.481397521399E+03    0.77665E-04   -0.35617E-04  4832   0.435E-02    0.472E-02
DAV:  10    -0.481397511834E+03    0.95642E-05   -0.12113E-04  4096   0.176E-02    0.233E-02
DAV:  11    -0.481397511907E+03   -0.72396E-07   -0.22828E-05  4352   0.746E-03    0.148E-02
DAV:  12    -0.481397510067E+03    0.18400E-05   -0.40007E-06  3680   0.372E-03    0.516E-03
DAV:  13    -0.481397510041E+03    0.25721E-07   -0.89143E-07  2176   0.168E-03
  24 F= -.48139751E+03 E0= -.48136519E+03  d E =-.407047E+01
       N       E                     dE             d eps       ncg     rms          rms(c)
DAV:   1    -0.482573920222E+03   -0.11764E+01   -0.89912E+01  3584   0.156E+01    0.787E+00
DAV:   2    -0.482837034144E+03   -0.26311E+00   -0.41510E+00  4384   0.323E+00    0.327E+00
DAV:   3    -0.482798550147E+03    0.38484E-01   -0.17033E-01  4640   0.104E+00    0.217E+00
DAV:   4    -0.482799571245E+03   -0.10211E-02   -0.10008E-01  5056   0.699E-01    0.121E+00
DAV:   5    -0.482789399638E+03    0.10172E-01   -0.55411E-02  5280   0.486E-01    0.539E-01
DAV:   6    -0.482785955254E+03    0.34444E-02   -0.14391E-02  4352   0.214E-01    0.334E-01
DAV:   7    -0.482786010923E+03   -0.55669E-04   -0.34093E-03  3872   0.895E-02    0.174E-01
DAV:   8    -0.482785858447E+03    0.15248E-03   -0.59703E-04  4160   0.419E-02    0.776E-02
DAV:   9    -0.482785834882E+03    0.23565E-04   -0.16925E-04  4608   0.229E-02    0.246E-02
DAV:  10    -0.482785834358E+03    0.52439E-06   -0.29752E-05  3968   0.837E-03    0.142E-02
DAV:  11    -0.482785835350E+03   -0.99253E-06   -0.44335E-06  3520   0.363E-03
  25 F= -.48278584E+03 E0= -.48275119E+03  d E =-.138833E+01
       N       E                     dE             d eps       ncg     rms          rms(c)
DAV:   1    -0.483085794389E+03   -0.29996E+00   -0.20494E+02  3648   0.234E+01    0.112E+01
DAV:   2    -0.483696654502E+03   -0.61086E+00   -0.95461E+00  4384   0.487E+00    0.458E+00
DAV:   3    -0.483608225580E+03    0.88429E-01   -0.36638E-01  4448   0.146E+00    0.317E+00
DAV:   4    -0.483604419441E+03    0.38061E-02   -0.18105E-01  5024   0.894E-01    0.168E+00
DAV:   5    -0.483596945154E+03    0.74743E-02   -0.11106E-01  5440   0.687E-01    0.929E-01
DAV:   6    -0.483584793178E+03    0.12152E-01   -0.34132E-02  5248   0.357E-01    0.430E-01
DAV:   7    -0.483585147428E+03   -0.35425E-03   -0.87900E-03  3968   0.143E-01    0.243E-01
DAV:   8    -0.483584848088E+03    0.29934E-03   -0.10878E-03  4224   0.587E-02    0.115E-01
DAV:   9    -0.483584801586E+03    0.46502E-04   -0.39161E-04  4576   0.341E-02    0.344E-02
DAV:  10    -0.483584799498E+03    0.20880E-05   -0.67747E-05  4000   0.129E-02    0.217E-02
DAV:  11    -0.483584799776E+03   -0.27788E-06   -0.11535E-05  4512   0.557E-03    0.109E-02
DAV:  12    -0.483584801378E+03   -0.16021E-05   -0.25252E-06  2912   0.310E-03    0.545E-03
DAV:  13    -0.483584801864E+03   -0.48658E-06   -0.59889E-07  2176   0.141E-03
  26 F= -.48358480E+03 E0= -.48354615E+03  d E =-.218729E+01
       N       E                     dE             d eps       ncg     rms          rms(c)
DAV:   1    -0.484667967126E+03   -0.10832E+01   -0.12721E+02  3584   0.190E+01    0.758E+00
DAV:   2    -0.484973606316E+03   -0.30564E+00   -0.47046E+00  4352   0.334E+00    0.221E+00
DAV:   3    -0.484941532983E+03    0.32073E-01   -0.17723E-01  4480   0.794E-01    0.130E+00
DAV:   4    -0.484937518355E+03    0.40146E-02   -0.56881E-02  5376   0.450E-01    0.899E-01
DAV:   5    -0.484930899159E+03    0.66192E-02   -0.30288E-02  5280   0.357E-01    0.332E-01
DAV:   6    -0.484930114116E+03    0.78504E-03   -0.79813E-03  4640   0.154E-01    0.185E-01
DAV:   7    -0.484930185065E+03   -0.70949E-04   -0.15849E-03  4096   0.573E-02    0.143E-01
DAV:   8    -0.484930222040E+03   -0.36974E-04   -0.20178E-04  5312   0.242E-02    0.637E-02
DAV:   9    -0.484930256554E+03   -0.34515E-04   -0.49383E-05  4544   0.130E-02    0.152E-02
DAV:  10    -0.484930263695E+03   -0.71413E-05   -0.94026E-06  4000   0.532E-03    0.103E-02
DAV:  11    -0.484930263301E+03    0.39458E-06   -0.14826E-06  2272   0.210E-03
  27 F= -.48493026E+03 E0= -.48489089E+03  d E =-.134546E+01
       N       E                     dE             d eps       ncg     rms          rms(c)
DAV:   1    -0.484406350283E+03    0.52391E+00   -0.85427E+02  3584   0.494E+01    0.224E+01
DAV:   2    -0.486502094183E+03   -0.20957E+01   -0.33036E+01  4352   0.889E+00    0.569E+00
DAV:   3    -0.486305733731E+03    0.19636E+00   -0.11748E+00  4672   0.202E+00    0.335E+00
DAV:   4    -0.486257162665E+03    0.48571E-01   -0.27715E-01  4896   0.909E-01    0.167E+00
DAV:   5    -0.486245043807E+03    0.12119E-01   -0.12499E-01  5024   0.675E-01    0.864E-01
DAV:   6    -0.486239325302E+03    0.57185E-02   -0.30458E-02  5184   0.348E-01    0.485E-01
DAV:   7    -0.486239647664E+03   -0.32236E-03   -0.64105E-03  4192   0.121E-01    0.316E-01
DAV:   8    -0.486239888031E+03   -0.24037E-03   -0.13118E-03  5184   0.609E-02    0.108E-01
DAV:   9    -0.486239946807E+03   -0.58777E-04   -0.28379E-04  4480   0.330E-02    0.347E-02
DAV:  10    -0.486239948938E+03   -0.21304E-05   -0.72869E-05  4448   0.137E-02    0.322E-02
DAV:  11    -0.486239948178E+03    0.75948E-06   -0.12273E-05  4544   0.566E-03    0.170E-02
DAV:  12    -0.486239952383E+03   -0.42048E-05   -0.49827E-06  3808   0.356E-03    0.427E-03
DAV:  13    -0.486239952169E+03    0.21413E-06   -0.40629E-07  2176   0.140E-03
  28 F= -.48623995E+03 E0= -.48620229E+03  d E =-.265515E+01
       N       E                     dE             d eps       ncg     rms          rms(c)
DAV:   1    -0.486886108225E+03   -0.64616E+00   -0.18144E+02  3584   0.225E+01    0.713E+00
DAV:   2    -0.487442734729E+03   -0.55663E+00   -0.63724E+00  4384   0.382E+00    0.211E+00
DAV:   3    -0.487421371712E+03    0.21363E-01   -0.14388E-01  4768   0.754E-01    0.146E+00
DAV:   4    -0.487417540780E+03    0.38309E-02   -0.46439E-02  4800   0.379E-01    0.858E-01
DAV:   5    -0.487413582300E+03    0.39585E-02   -0.21553E-02  5344   0.287E-01    0.340E-01
DAV:   6    -0.487413315602E+03    0.26670E-03   -0.47248E-03  4352   0.127E-01    0.148E-01
DAV:   7    -0.487413274681E+03    0.40921E-04   -0.99177E-04  4256   0.474E-02    0.122E-01
DAV:   8    -0.487413244019E+03    0.30662E-04   -0.18472E-04  4992   0.199E-02    0.600E-02
DAV:   9    -0.487413241321E+03    0.26976E-05   -0.45394E-05  4768   0.120E-02    0.113E-02
DAV:  10    -0.487413241230E+03    0.91532E-07   -0.69205E-06  4000   0.461E-03
  29 F= -.48741324E+03 E0= -.48737715E+03  d E =-.117329E+01
       N       E                     dE             d eps       ncg     rms          rms(c)
DAV:   1    -0.486788501113E+03    0.62474E+00   -0.43307E+02  3584   0.349E+01    0.116E+01
DAV:   2    -0.488145174644E+03   -0.13567E+01   -0.15509E+01  4384   0.597E+00    0.332E+00
DAV:   3    -0.488099582573E+03    0.45592E-01   -0.34585E-01  4672   0.113E+00    0.233E+00
DAV:   4    -0.488088102999E+03    0.11480E-01   -0.98035E-02  4768   0.541E-01    0.129E+00
DAV:   5    -0.488081875735E+03    0.62273E-02   -0.41399E-02  5184   0.412E-01    0.585E-01
DAV:   6    -0.488080574915E+03    0.13008E-02   -0.10455E-02  4640   0.208E-01    0.243E-01
DAV:   7    -0.488080496983E+03    0.77932E-04   -0.25659E-03  4192   0.814E-02    0.199E-01
DAV:   8    -0.488080416844E+03    0.80139E-04   -0.47948E-04  4960   0.325E-02    0.100E-01
DAV:   9    -0.488080412714E+03    0.41303E-05   -0.16339E-04  4576   0.223E-02    0.235E-02
DAV:  10    -0.488080412287E+03    0.42759E-06   -0.26108E-05  4256   0.956E-03    0.128E-02
DAV:  11    -0.488080412739E+03   -0.45217E-06   -0.58737E-06  3968   0.355E-03
  30 F= -.48808041E+03 E0= -.48804693E+03  d E =-.184046E+01
       N       E                     dE             d eps       ncg     rms          rms(c)
DAV:   1    -0.489269558247E+03   -0.11891E+01   -0.95502E+01  3584   0.162E+01    0.851E+00
DAV:   2    -0.489336873331E+03   -0.67315E-01   -0.40354E+00  4416   0.346E+00    0.351E+00
DAV:   3    -0.489289563303E+03    0.47310E-01   -0.25108E-01  4736   0.110E+00    0.221E+00
DAV:   4    -0.489280971285E+03    0.85920E-02   -0.77650E-02  5216   0.594E-01    0.119E+00
DAV:   5    -0.489277213571E+03    0.37577E-02   -0.33535E-02  5280   0.418E-01    0.671E-01
DAV:   6    -0.489273060691E+03    0.41529E-02   -0.13913E-02  4896   0.232E-01    0.301E-01
DAV:   7    -0.489273016423E+03    0.44269E-04   -0.46137E-03  4032   0.993E-02    0.172E-01
DAV:   8    -0.489272931609E+03    0.84814E-04   -0.60565E-04  4544   0.413E-02    0.719E-02
DAV:   9    -0.489272902274E+03    0.29335E-04   -0.10161E-04  4928   0.202E-02    0.313E-02
DAV:  10    -0.489272901283E+03    0.99096E-06   -0.29672E-05  4096   0.796E-03    0.170E-02
DAV:  11    -0.489272904454E+03   -0.31711E-05   -0.36272E-06  3648   0.323E-03    0.936E-03
DAV:  12    -0.489272904942E+03   -0.48769E-06   -0.78314E-07  2176   0.184E-03
  31 F= -.48927290E+03 E0= -.48924086E+03  d E =-.119249E+01
       N       E                     dE             d eps       ncg     rms          rms(c)
DAV:   1    -0.489690930649E+03   -0.41803E+00   -0.96587E+01  3584   0.162E+01    0.834E+00
DAV:   2    -0.489757215255E+03   -0.66285E-01   -0.40974E+00  4448   0.349E+00    0.337E+00
DAV:   3    -0.489709713472E+03    0.47502E-01   -0.26660E-01  4800   0.112E+00    0.213E+00
DAV:   4    -0.489699230970E+03    0.10483E-01   -0.73716E-02  5120   0.572E-01    0.118E+00
DAV:   5    -0.489696530347E+03    0.27006E-02   -0.28831E-02  5280   0.397E-01    0.685E-01
DAV:   6    -0.489692576688E+03    0.39537E-02   -0.13435E-02  4800   0.233E-01    0.295E-01
DAV:   7    -0.489692467307E+03    0.10938E-03   -0.48184E-03  4000   0.101E-01    0.166E-01
DAV:   8    -0.489692386230E+03    0.81077E-04   -0.62232E-04  4544   0.411E-02    0.696E-02
DAV:   9    -0.489692359459E+03    0.26770E-04   -0.10885E-04  4928   0.193E-02    0.312E-02
DAV:  10    -0.489692357986E+03    0.14735E-05   -0.24979E-05  4064   0.728E-03    0.164E-02
DAV:  11    -0.489692361345E+03   -0.33596E-05   -0.35627E-06  3520   0.301E-03    0.899E-03
DAV:  12    -0.489692361500E+03   -0.15460E-06   -0.65575E-07  2176   0.181E-03
  32 F= -.48969236E+03 E0= -.48966241E+03  d E =-.161195E+01
       N       E                     dE             d eps       ncg     rms          rms(c)
DAV:   1    -0.490598456410E+03   -0.90610E+00   -0.86416E+01  3584   0.144E+01    0.445E+00
DAV:   2    -0.490811806720E+03   -0.21335E+00   -0.25496E+00  4448   0.241E+00    0.158E+00
DAV:   3    -0.490804585789E+03    0.72209E-02   -0.58561E-02  4640   0.453E-01    0.992E-01
DAV:   4    -0.490804130283E+03    0.45551E-03   -0.14041E-02  5152   0.256E-01    0.626E-01
DAV:   5    -0.490802804780E+03    0.13255E-02   -0.78255E-03  5184   0.198E-01    0.370E-01
DAV:   6    -0.490802542701E+03    0.26208E-03   -0.38992E-03  4192   0.103E-01    0.906E-02
DAV:   7    -0.490802535535E+03    0.71653E-05   -0.96047E-04  4064   0.481E-02    0.859E-02
DAV:   8    -0.490802514363E+03    0.21173E-04   -0.15946E-04  4416   0.196E-02    0.550E-02
DAV:   9    -0.490802504004E+03    0.10359E-04   -0.43507E-05  4640   0.135E-02    0.243E-02
DAV:  10    -0.490802504728E+03   -0.72438E-06   -0.18389E-05  3904   0.632E-03    0.965E-03
DAV:  11    -0.490802504937E+03   -0.20898E-06   -0.18340E-06  2336   0.236E-03
  33 F= -.49080250E+03 E0= -.49077535E+03  d E =-.111014E+01
       N       E                     dE             d eps       ncg     rms          rms(c)
DAV:   1    -0.491325434315E+03   -0.52293E+00   -0.78520E+02  3584   0.435E+01    0.156E+01
DAV:   2    -0.493305816304E+03   -0.19804E+01   -0.23527E+01  4480   0.734E+00    0.483E+00
DAV:   3    -0.493251316413E+03    0.54500E-01   -0.57813E-01  4480   0.136E+00    0.336E+00
DAV:   4    -0.493240841286E+03    0.10475E-01   -0.10996E-01  4640   0.643E-01    0.213E+00
DAV:   5    -0.493239041792E+03    0.17995E-02   -0.47104E-02  5088   0.486E-01    0.111E+00
DAV:   6    -0.493236532806E+03    0.25090E-02   -0.25461E-02  4736   0.315E-01    0.277E-01
DAV:   7    -0.493236252030E+03    0.28078E-03   -0.72303E-03  4160   0.139E-01    0.260E-01
DAV:   8    -0.493236091529E+03    0.16050E-03   -0.12752E-03  4224   0.534E-02    0.165E-01
DAV:   9    -0.493235998178E+03    0.93351E-04   -0.38774E-04  4480   0.401E-02    0.699E-02
DAV:  10    -0.493236001775E+03   -0.35964E-05   -0.14259E-04  4064   0.182E-02    0.287E-02
DAV:  11    -0.493236001749E+03    0.26012E-07   -0.15198E-05  4000   0.626E-03    0.149E-02
DAV:  12    -0.493236002188E+03   -0.43914E-06   -0.23094E-06  2528   0.256E-03
  34 F= -.49323600E+03 E0= -.49321028E+03  d E =-.354364E+01
       N       E                     dE             d eps       ncg     rms          rms(c)
DAV:   1    -0.484625666406E+03    0.86103E+01   -0.32553E+03  3584   0.886E+01    0.443E+01
DAV:   2    -0.493055114898E+03   -0.84294E+01   -0.10045E+02  4480   0.149E+01    0.121E+01
DAV:   3    -0.492872072699E+03    0.18304E+00   -0.28780E+00  4480   0.294E+00    0.973E+00
DAV:   4    -0.492817924170E+03    0.54149E-01   -0.41280E-01  4288   0.107E+00    0.690E+00
DAV:   5    -0.492805636355E+03    0.12288E-01   -0.15376E-01  4320   0.608E-01    0.185E+00
DAV:   6    -0.492811208270E+03   -0.55719E-02   -0.48307E-02  4448   0.332E-01    0.744E-01
DAV:   7    -0.492810578383E+03    0.62989E-03   -0.43385E-03  4736   0.143E-01    0.513E-01
DAV:   8    -0.492810086841E+03    0.49154E-03   -0.16924E-03  4576   0.793E-02    0.270E-01
DAV:   9    -0.492809930275E+03    0.15657E-03   -0.12907E-03  4576   0.598E-02    0.894E-02
DAV:  10    -0.492809939390E+03   -0.91143E-05   -0.28148E-04  4064   0.246E-02    0.423E-02
DAV:  11    -0.492809936158E+03    0.32311E-05   -0.48163E-05  4256   0.122E-02    0.213E-02
DAV:  12    -0.492809935283E+03    0.87541E-06   -0.10643E-05  4512   0.647E-03    0.124E-02
DAV:  13    -0.492809934888E+03    0.39538E-06   -0.26361E-06  2752   0.265E-03
  35 F= -.49280993E+03 E0= -.49277752E+03  d E =-.311757E+01
       N       E                     dE             d eps       ncg     rms          rms(c)
DAV:   1    -0.491544762716E+03    0.12652E+01   -0.10398E+03  3584   0.496E+01    0.166E+01
DAV:   2    -0.494193929538E+03   -0.26492E+01   -0.32911E+01  4480   0.887E+00    0.636E+00
DAV:   3    -0.494027221392E+03    0.16671E+00   -0.10089E+00  4544   0.206E+00    0.410E+00
DAV:   4    -0.494015086894E+03    0.12134E-01   -0.23645E-01  4320   0.908E-01    0.280E+00
DAV:   5    -0.494009003924E+03    0.60830E-02   -0.72572E-02  4992   0.602E-01    0.141E+00
DAV:   6    -0.494008434347E+03    0.56958E-03   -0.38188E-02  4512   0.341E-01    0.324E-01
DAV:   7    -0.494007599681E+03    0.83467E-03   -0.11596E-02  4192   0.182E-01    0.316E-01
DAV:   8    -0.494007454752E+03    0.14493E-03   -0.24883E-03  4192   0.718E-02    0.237E-01
DAV:   9    -0.494007244160E+03    0.21059E-03   -0.52751E-04  4352   0.416E-02    0.128E-01
DAV:  10    -0.494007226704E+03    0.17456E-04   -0.18133E-04  4480   0.201E-02    0.431E-02
DAV:  11    -0.494007218357E+03    0.83466E-05   -0.40027E-05  4320   0.120E-02    0.177E-02
DAV:  12    -0.494007218514E+03   -0.15671E-06   -0.12254E-05  3840   0.535E-03    0.105E-02
DAV:  13    -0.494007218113E+03    0.40095E-06   -0.14749E-06  2656   0.233E-03
  36 F= -.49400722E+03 E0= -.49397875E+03  d E =-.431486E+01
       N       E                     dE             d eps       ncg     rms          rms(c)
DAV:   1    -0.495323011635E+03   -0.13158E+01   -0.18282E+02  3584   0.198E+01    0.621E+00
DAV:   2    -0.495584391347E+03   -0.26138E+00   -0.42394E+00  4448   0.335E+00    0.230E+00
DAV:   3    -0.495560105946E+03    0.24285E-01   -0.16880E-01  4704   0.801E-01    0.140E+00
DAV:   4    -0.495555693568E+03    0.44124E-02   -0.35246E-02  4864   0.367E-01    0.785E-01
DAV:   5    -0.495553299902E+03    0.23937E-02   -0.15109E-02  4992   0.247E-01    0.359E-01
DAV:   6    -0.495553083338E+03    0.21656E-03   -0.44509E-03  4640   0.126E-01    0.140E-01
DAV:   7    -0.495553142945E+03   -0.59607E-04   -0.10638E-03  4224   0.474E-02    0.105E-01
DAV:   8    -0.495553164389E+03   -0.21443E-04   -0.17711E-04  4576   0.206E-02    0.432E-02
DAV:   9    -0.495553186987E+03   -0.22599E-04   -0.37681E-05  4896   0.110E-02    0.160E-02
DAV:  10    -0.495553187856E+03   -0.86880E-06   -0.59262E-06  3904   0.426E-03
  37 F= -.49555319E+03 E0= -.49552320E+03  d E =-.154597E+01
       N       E                     dE             d eps       ncg     rms          rms(c)
DAV:   1    -0.495144190152E+03    0.40900E+00   -0.16363E+03  3584   0.589E+01    0.224E+01
DAV:   2    -0.497541795034E+03   -0.23976E+01   -0.39068E+01  4416   0.992E+00    0.686E+00
DAV:   3    -0.497352062017E+03    0.18973E+00   -0.13197E+00  4640   0.225E+00    0.463E+00
DAV:   4    -0.497323786909E+03    0.28275E-01   -0.25519E-01  4928   0.991E-01    0.268E+00
DAV:   5    -0.497304939923E+03    0.18847E-01   -0.13565E-01  5216   0.769E-01    0.136E+00
DAV:   6    -0.497295082909E+03    0.98570E-02   -0.46863E-02  4992   0.431E-01    0.485E-01
DAV:   7    -0.497296136532E+03   -0.10536E-02   -0.14987E-02  4128   0.171E-01    0.333E-01
DAV:   8    -0.497296137544E+03   -0.10126E-05   -0.17348E-03  4704   0.682E-02    0.144E-01
DAV:   9    -0.497296236152E+03   -0.98608E-04   -0.34985E-04  4960   0.372E-02    0.537E-02
DAV:  10    -0.497296237157E+03   -0.10042E-05   -0.75492E-05  4320   0.164E-02    0.319E-02
DAV:  11    -0.497296238318E+03   -0.11615E-05   -0.18855E-05  4768   0.661E-03    0.194E-02
DAV:  12    -0.497296236242E+03    0.20766E-05   -0.38388E-06  3648   0.432E-03    0.780E-03
DAV:  13    -0.497296236361E+03   -0.11943E-06   -0.21853E-06  2624   0.224E-03
  38 F= -.49729624E+03 E0= -.49726345E+03  d E =-.328902E+01
       N       E                     dE             d eps       ncg     rms          rms(c)
DAV:   1    -0.498330479094E+03   -0.10342E+01   -0.21903E+02  3584   0.207E+01    0.697E+00
DAV:   2    -0.498731759715E+03   -0.40128E+00   -0.45273E+00  4512   0.336E+00    0.223E+00
DAV:   3    -0.498720091853E+03    0.11668E-01   -0.10604E-01  4672   0.591E-01    0.169E+00
DAV:   4    -0.498718072141E+03    0.20197E-02   -0.28491E-02  4640   0.317E-01    0.651E-01
DAV:   5    -0.498719046960E+03   -0.97482E-03   -0.14483E-02  4992   0.253E-01    0.367E-01
DAV:   6    -0.498717455922E+03    0.15910E-02   -0.45828E-03  5216   0.136E-01    0.189E-01
DAV:   7    -0.498717457783E+03   -0.18617E-05   -0.95410E-04  4224   0.457E-02    0.140E-01
DAV:   8    -0.498717426528E+03    0.31255E-04   -0.15229E-04  4384   0.191E-02    0.761E-02
DAV:   9    -0.498717422555E+03    0.39728E-05   -0.43098E-05  4320   0.101E-02    0.269E-02
DAV:  10    -0.498717423961E+03   -0.14060E-05   -0.48894E-06  3904   0.407E-03    0.849E-03
DAV:  11    -0.498717423706E+03    0.25528E-06   -0.66690E-07  2176   0.153E-03
  39 F= -.49871742E+03 E0= -.49868674E+03  d E =-.142119E+01
       N       E                     dE             d eps       ncg     rms          rms(c)
DAV:   1    -0.497986255967E+03    0.73117E+00   -0.10902E+03  3584   0.462E+01    0.160E+01
DAV:   2    -0.500028090624E+03   -0.20418E+01   -0.22734E+01  4480   0.733E+00    0.497E+00
DAV:   3    -0.499973204262E+03    0.54886E-01   -0.43749E-01  4640   0.125E+00    0.389E+00
DAV:   4    -0.499963667101E+03    0.95372E-02   -0.10998E-01  4800   0.630E-01    0.152E+00
DAV:   5    -0.499967992736E+03   -0.43256E-02   -0.71171E-02  4864   0.549E-01    0.781E-01
DAV:   6    -0.499960017600E+03    0.79751E-02   -0.21804E-02  5440   0.284E-01    0.369E-01
DAV:   7    -0.499960198460E+03   -0.18086E-03   -0.43145E-03  4096   0.919E-02    0.304E-01
DAV:   8    -0.499960074343E+03    0.12412E-03   -0.62119E-04  4864   0.419E-02    0.154E-01
DAV:   9    -0.499960073381E+03    0.96175E-06   -0.17005E-04  4416   0.211E-02    0.325E-02
DAV:  10    -0.499960074853E+03   -0.14714E-05   -0.30740E-05  4192   0.879E-03    0.126E-02
DAV:  11    -0.499960074369E+03    0.48413E-06   -0.21898E-06  2784   0.261E-03
  40 F= -.49996007E+03 E0= -.49993858E+03  d E =-.266384E+01
       N       E                     dE             d eps       ncg     rms          rms(c)
DAV:   1    -0.500740795453E+03   -0.78072E+00   -0.43282E+02  3584   0.295E+01    0.132E+01
DAV:   2    -0.501714725340E+03   -0.97393E+00   -0.11020E+01  4480   0.507E+00    0.376E+00
DAV:   3    -0.501673545495E+03    0.41180E-01   -0.26289E-01  4512   0.934E-01    0.219E+00
DAV:   4    -0.501668982903E+03    0.45626E-02   -0.77338E-02  4512   0.509E-01    0.771E-01
DAV:   5    -0.501669877563E+03   -0.89466E-03   -0.20127E-02  4960   0.268E-01    0.493E-01
DAV:   6    -0.501669429213E+03    0.44835E-03   -0.40931E-03  4704   0.133E-01    0.324E-01
DAV:   7    -0.501669130573E+03    0.29864E-03   -0.10663E-03  4576   0.581E-02    0.173E-01
DAV:   8    -0.501669105823E+03    0.24751E-04   -0.46084E-04  4096   0.319E-02    0.790E-02
DAV:   9    -0.501669110886E+03   -0.50636E-05   -0.46846E-05  4800   0.133E-02    0.203E-02
DAV:  10    -0.501669111276E+03   -0.38951E-06   -0.11638E-05  4128   0.551E-03    0.116E-02
DAV:  11    -0.501669111128E+03    0.14764E-06   -0.19252E-06  2496   0.247E-03
  41 F= -.50166911E+03 E0= -.50165062E+03  d E =-.170904E+01
       N       E                     dE             d eps       ncg     rms          rms(c)
DAV:   1    -0.501685853635E+03   -0.16742E-01   -0.99991E+01  3648   0.142E+01    0.665E+00
DAV:   2    -0.501904696073E+03   -0.21884E+00   -0.25013E+00  4448   0.243E+00    0.204E+00
DAV:   3    -0.501893873014E+03    0.10823E-01   -0.59886E-02  4480   0.462E-01    0.115E+00
DAV:   4    -0.501892976511E+03    0.89650E-03   -0.20279E-02  4512   0.264E-01    0.397E-01
DAV:   5    -0.501893064284E+03   -0.87773E-04   -0.52757E-03  4896   0.138E-01    0.265E-01
DAV:   6    -0.501892916595E+03    0.14769E-03   -0.99333E-04  4480   0.658E-02    0.176E-01
DAV:   7    -0.501892844756E+03    0.71840E-04   -0.32026E-04  4384   0.299E-02    0.902E-02
DAV:   8    -0.501892840461E+03    0.42949E-05   -0.13220E-04  4128   0.178E-02    0.365E-02
DAV:   9    -0.501892841569E+03   -0.11084E-05   -0.11058E-05  4320   0.673E-03    0.980E-03
DAV:  10    -0.501892841401E+03    0.16856E-06   -0.31010E-06  3008   0.281E-03
  42 F= -.50189284E+03 E0= -.50187493E+03  d E =-.193277E+01
       N       E                     dE             d eps       ncg     rms          rms(c)
DAV:   1    -0.503524585184E+03   -0.16317E+01   -0.37066E+02  3584   0.274E+01    0.996E+00
DAV:   2    -0.503500728313E+03    0.23857E-01   -0.88064E+00  4352   0.510E+00    0.387E+00
DAV:   3    -0.503386725833E+03    0.11400E+00   -0.51837E-01  4608   0.138E+00    0.239E+00
DAV:   4    -0.503354128061E+03    0.32598E-01   -0.13682E-01  4864   0.836E-01    0.135E+00
DAV:   5    -0.503341908976E+03    0.12219E-01   -0.53326E-02  5024   0.454E-01    0.615E-01
DAV:   6    -0.503340834457E+03    0.10745E-02   -0.14121E-02  4320   0.226E-01    0.414E-01
DAV:   7    -0.503340875018E+03   -0.40560E-04   -0.33082E-03  4000   0.967E-02    0.220E-01
DAV:   8    -0.503340823935E+03    0.51082E-04   -0.59737E-04  4800   0.431E-02    0.639E-02
DAV:   9    -0.503340805353E+03    0.18582E-04   -0.84464E-05  4384   0.148E-02    0.275E-02
DAV:  10    -0.503340802855E+03    0.24982E-05   -0.17967E-05  4704   0.647E-03    0.180E-02
DAV:  11    -0.503340802958E+03   -0.10240E-06   -0.33681E-06  3456   0.336E-03
  43 F= -.50334080E+03 E0= -.50332302E+03  d E =-.144796E+01
       N       E                     dE             d eps       ncg     rms          rms(c)
DAV:   1    -0.504400226962E+03   -0.10594E+01   -0.62106E+02  3584   0.353E+01    0.130E+01
DAV:   2    -0.504338953062E+03    0.61274E-01   -0.14160E+01  4352   0.645E+00    0.503E+00
DAV:   3    -0.504146934152E+03    0.19202E+00   -0.79629E-01  4640   0.174E+00    0.313E+00
DAV:   4    -0.504099548103E+03    0.47386E-01   -0.22789E-01  5024   0.108E+00    0.188E+00
DAV:   5    -0.504072492591E+03    0.27056E-01   -0.10353E-01  5248   0.617E-01    0.823E-01
DAV:   6    -0.504070710873E+03    0.17817E-02   -0.27359E-02  4160   0.301E-01    0.548E-01
DAV:   7    -0.504070891148E+03   -0.18027E-03   -0.62367E-03  4000   0.128E-01    0.288E-01
DAV:   8    -0.504070842191E+03    0.48957E-04   -0.10325E-03  4800   0.563E-02    0.853E-02
DAV:   9    -0.504070824068E+03    0.18123E-04   -0.15333E-04  4320   0.195E-02    0.342E-02
DAV:  10    -0.504070819170E+03    0.48979E-05   -0.27646E-05  4832   0.809E-03    0.219E-02
DAV:  11    -0.504070819146E+03    0.23967E-07   -0.60967E-06  4096   0.414E-03
  44 F= -.50407082E+03 E0= -.50405287E+03  d E =-.217798E+01
       N       E                     dE             d eps       ncg     rms          rms(c)
DAV:   1    -0.504604786809E+03   -0.53397E+00   -0.22707E+02  3584   0.190E+01    0.818E+00
DAV:   2    -0.505091048049E+03   -0.48626E+00   -0.55706E+00  4384   0.348E+00    0.225E+00
DAV:   3    -0.505076749390E+03    0.14299E-01   -0.13028E-01  4576   0.611E-01    0.137E+00
DAV:   4    -0.505074264043E+03    0.24853E-02   -0.34923E-02  4704   0.332E-01    0.708E-01
DAV:   5    -0.505073287788E+03    0.97625E-03   -0.89609E-03  5248   0.196E-01    0.336E-01
DAV:   6    -0.505073396031E+03   -0.10824E-03   -0.22562E-03  4288   0.856E-02    0.235E-01
DAV:   7    -0.505073293034E+03    0.10300E-03   -0.47555E-04  4128   0.372E-02    0.140E-01
DAV:   8    -0.505073261103E+03    0.31931E-04   -0.26041E-04  4608   0.243E-02    0.527E-02
DAV:   9    -0.505073263374E+03   -0.22713E-05   -0.61967E-05  4384   0.124E-02    0.218E-02
DAV:  10    -0.505073262420E+03    0.95481E-06   -0.58700E-06  3872   0.414E-03
  45 F= -.50507326E+03 E0= -.50505351E+03  d E =-.100244E+01
       N       E                     dE             d eps       ncg     rms          rms(c)
DAV:   1    -0.505044586919E+03    0.28676E-01   -0.13982E+02  3584   0.149E+01    0.663E+00
DAV:   2    -0.505342295114E+03   -0.29771E+00   -0.34137E+00  4416   0.272E+00    0.174E+00
DAV:   3    -0.505332011516E+03    0.10284E-01   -0.76498E-02  4544   0.474E-01    0.104E+00
DAV:   4    -0.505330239247E+03    0.17723E-02   -0.20625E-02  4704   0.245E-01    0.495E-01
DAV:   5    -0.505330093171E+03    0.14608E-03   -0.44731E-03  4928   0.137E-01    0.258E-01
DAV:   6    -0.505330137795E+03   -0.44624E-04   -0.10603E-03  4384   0.625E-02    0.184E-01
DAV:   7    -0.505330084872E+03    0.52922E-04   -0.22378E-04  4128   0.272E-02    0.112E-01
DAV:   8    -0.505330067660E+03    0.17212E-04   -0.16007E-04  4448   0.189E-02    0.385E-02
DAV:   9    -0.505330069423E+03   -0.17629E-05   -0.38882E-05  4096   0.992E-03    0.174E-02
DAV:  10    -0.505330068955E+03    0.46771E-06   -0.37446E-06  3552   0.335E-03
  46 F= -.50533007E+03 E0= -.50530874E+03  d E =-.125925E+01
       N       E                     dE             d eps       ncg     rms          rms(c)
DAV:   1    -0.505739998813E+03   -0.40993E+00   -0.10759E+02  3584   0.139E+01    0.437E+00
DAV:   2    -0.505974539751E+03   -0.23454E+00   -0.27085E+00  4352   0.237E+00    0.161E+00
DAV:   3    -0.505964203127E+03    0.10337E-01   -0.57126E-02  4544   0.484E-01    0.110E+00
DAV:   4    -0.505962802478E+03    0.14006E-02   -0.13522E-02  4480   0.226E-01    0.726E-01
DAV:   5    -0.505962030202E+03    0.77228E-03   -0.92198E-03  4160   0.165E-01    0.176E-01
DAV:   6    -0.505962195984E+03   -0.16578E-03   -0.22415E-03  4192   0.695E-02    0.132E-01
DAV:   7    -0.505962171504E+03    0.24481E-04   -0.15039E-04  4480   0.185E-02    0.965E-02
DAV:   8    -0.505962137694E+03    0.33810E-04   -0.94176E-05  4288   0.163E-02    0.411E-02
DAV:   9    -0.505962135805E+03    0.18889E-05   -0.27846E-05  4128   0.801E-03    0.130E-02
DAV:  10    -0.505962135815E+03   -0.10405E-07   -0.75464E-06  3744   0.387E-03
  47 F= -.50596214E+03 E0= -.50594002E+03  d E =-.632067E+00
       N       E                     dE             d eps       ncg     rms          rms(c)
DAV:   1    -0.505317971299E+03    0.64416E+00   -0.54364E+02  3584   0.313E+01    0.993E+00
DAV:   2    -0.506570823930E+03   -0.12529E+01   -0.14269E+01  4352   0.536E+00    0.396E+00
DAV:   3    -0.506511757701E+03    0.59066E-01   -0.34349E-01  4704   0.120E+00    0.279E+00
DAV:   4    -0.506503085635E+03    0.86721E-02   -0.69823E-02  4928   0.544E-01    0.207E+00
DAV:   5    -0.506495658746E+03    0.74269E-02   -0.59064E-02  4384   0.415E-01    0.547E-01
DAV:   6    -0.506497202099E+03   -0.15434E-02   -0.15058E-02  4096   0.172E-01    0.293E-01
DAV:   7    -0.506497132199E+03    0.69900E-04   -0.88285E-04  4640   0.468E-02    0.215E-01
DAV:   8    -0.506496944930E+03    0.18727E-03   -0.46002E-04  4288   0.385E-02    0.106E-01
DAV:   9    -0.506496934061E+03    0.10868E-04   -0.17140E-04  4384   0.191E-02    0.391E-02
DAV:  10    -0.506496930883E+03    0.31784E-05   -0.44397E-05  4000   0.971E-03    0.199E-02
DAV:  11    -0.506496931101E+03   -0.21863E-06   -0.17408E-06  2592   0.270E-03
  48 F= -.50649693E+03 E0= -.50647430E+03  d E =-.116686E+01
       N       E                     dE             d eps       ncg     rms          rms(c)
DAV:   1    -0.506959765063E+03   -0.46283E+00   -0.67267E+01  3584   0.119E+01    0.536E+00
DAV:   2    -0.507062214725E+03   -0.10245E+00   -0.22473E+00  4416   0.243E+00    0.175E+00
DAV:   3    -0.507046858225E+03    0.15356E-01   -0.10405E-01  4736   0.665E-01    0.111E+00
DAV:   4    -0.507042009573E+03    0.48487E-02   -0.22073E-02  5344   0.341E-01    0.774E-01
DAV:   5    -0.507039401218E+03    0.26084E-02   -0.12221E-02  4672   0.202E-01    0.384E-01
DAV:   6    -0.507039550908E+03   -0.14969E-03   -0.40962E-03  4352   0.110E-01    0.216E-01
DAV:   7    -0.507039600426E+03   -0.49518E-04   -0.57993E-04  4320   0.446E-02    0.132E-01
DAV:   8    -0.507039632465E+03   -0.32039E-04   -0.21641E-04  4576   0.245E-02    0.413E-02
DAV:   9    -0.507039634853E+03   -0.23885E-05   -0.30772E-05  4192   0.125E-02    0.128E-02
DAV:  10    -0.507039633058E+03    0.17958E-05   -0.77689E-06  3968   0.448E-03    0.973E-03
DAV:  11    -0.507039633400E+03   -0.34186E-06   -0.12211E-06  2176   0.222E-03
  49 F= -.50703963E+03 E0= -.50701773E+03  d E =-.542702E+00
       N       E                     dE             d eps       ncg     rms          rms(c)
DAV:   1    -0.507169340284E+03   -0.12971E+00   -0.17175E+02  3584   0.190E+01    0.886E+00
DAV:   2    -0.507428864474E+03   -0.25952E+00   -0.57657E+00  4416   0.390E+00    0.285E+00
DAV:   3    -0.507390620363E+03    0.38244E-01   -0.26528E-01  4768   0.105E+00    0.183E+00
DAV:   4    -0.507379728737E+03    0.10892E-01   -0.54072E-02  5280   0.536E-01    0.128E+00
DAV:   5    -0.507373114549E+03    0.66142E-02   -0.29385E-02  4672   0.319E-01    0.649E-01
DAV:   6    -0.507373429600E+03   -0.31505E-03   -0.10732E-02  4352   0.174E-01    0.336E-01
DAV:   7    -0.507373531659E+03   -0.10206E-03   -0.14639E-03  4320   0.710E-02    0.200E-01
DAV:   8    -0.507373589319E+03   -0.57660E-04   -0.52277E-04  4768   0.383E-02    0.592E-02
DAV:   9    -0.507373588151E+03    0.11679E-05   -0.83434E-05  4320   0.212E-02    0.204E-02
DAV:  10    -0.507373585421E+03    0.27296E-05   -0.21297E-05  4128   0.758E-03    0.162E-02
DAV:  11    -0.507373585268E+03    0.15339E-06   -0.41744E-06  3456   0.354E-03
  50 F= -.50737359E+03 E0= -.50735310E+03  d E =-.876654E+00
       N       E                     dE             d eps       ncg     rms          rms(c)
DAV:   1    -0.507622072374E+03   -0.24849E+00   -0.34574E+01  3584   0.919E+00    0.497E+00
DAV:   2    -0.507766795970E+03   -0.14472E+00   -0.16393E+00  4352   0.184E+00    0.186E+00
DAV:   3    -0.507759627162E+03    0.71688E-02   -0.35516E-02  4544   0.365E-01    0.113E+00
DAV:   4    -0.507760039773E+03   -0.41261E-03   -0.17431E-02  4992   0.277E-01    0.445E-01
DAV:   5    -0.507758109348E+03    0.19304E-02   -0.78309E-03  5664   0.193E-01    0.224E-01
DAV:   6    -0.507758019264E+03    0.90084E-04   -0.20328E-03  4352   0.744E-02    0.153E-01
DAV:   7    -0.507757984380E+03    0.34884E-04   -0.31240E-04  3968   0.285E-02    0.110E-01
DAV:   8    -0.507757953196E+03    0.31183E-04   -0.12660E-04  4224   0.172E-02    0.548E-02
DAV:   9    -0.507757949020E+03    0.41769E-05   -0.37831E-05  4192   0.111E-02    0.880E-03
DAV:  10    -0.507757949431E+03   -0.41102E-06   -0.80865E-06  3712   0.469E-03
  51 F= -.50775795E+03 E0= -.50773754E+03  d E =-.384364E+00
       N       E                     dE             d eps       ncg     rms          rms(c)
DAV:   1    -0.507727310161E+03    0.30639E-01   -0.45222E+01  3584   0.105E+01    0.567E+00
DAV:   2    -0.507918642894E+03   -0.19133E+00   -0.21649E+00  4352   0.211E+00    0.211E+00
DAV:   3    -0.507909238410E+03    0.94045E-02   -0.46405E-02  4544   0.417E-01    0.128E+00
DAV:   4    -0.507910056788E+03   -0.81838E-03   -0.23655E-02  4960   0.320E-01    0.528E-01
DAV:   5    -0.507907214213E+03    0.28426E-02   -0.10855E-02  5632   0.225E-01    0.262E-01
DAV:   6    -0.507907114050E+03    0.10016E-03   -0.27777E-03  4288   0.858E-02    0.178E-01
DAV:   7    -0.507907065194E+03    0.48856E-04   -0.41645E-04  4000   0.335E-02    0.128E-01
DAV:   8    -0.507907024620E+03    0.40574E-04   -0.17077E-04  4192   0.197E-02    0.628E-02
DAV:   9    -0.507907019505E+03    0.51153E-05   -0.53251E-05  4160   0.131E-02    0.102E-02
DAV:  10    -0.507907019937E+03   -0.43248E-06   -0.10901E-05  3936   0.553E-03    0.930E-03
DAV:  11    -0.507907019989E+03   -0.52140E-07   -0.77709E-07  2176   0.153E-03
  52 F= -.50790702E+03 E0= -.50788660E+03  d E =-.533435E+00
       N       E                     dE             d eps       ncg     rms          rms(c)
DAV:   1    -0.508110947912E+03   -0.20393E+00   -0.21363E+01  3584   0.703E+00    0.346E+00
DAV:   2    -0.508186912917E+03   -0.75965E-01   -0.88420E-01  4320   0.137E+00    0.115E+00
DAV:   3    -0.508184131474E+03    0.27814E-02   -0.19353E-02  4544   0.253E-01    0.777E-01
DAV:   4    -0.508183211852E+03    0.91962E-03   -0.81580E-03  4192   0.139E-01    0.221E-01
DAV:   5    -0.508183196834E+03    0.15018E-04   -0.16339E-03  4704   0.827E-02    0.124E-01
DAV:   6    -0.508183199288E+03   -0.24546E-05   -0.34338E-04  4768   0.365E-02    0.857E-02
DAV:   7    -0.508183187178E+03    0.12110E-04   -0.61795E-05  4704   0.152E-02    0.609E-02
DAV:   8    -0.508183176394E+03    0.10785E-04   -0.25822E-05  4160   0.851E-03    0.337E-02
DAV:   9    -0.508183175032E+03    0.13621E-05   -0.19465E-05  4096   0.650E-03    0.672E-03
DAV:  10    -0.508183174865E+03    0.16628E-06   -0.23386E-06  2720   0.272E-03
  53 F= -.50818317E+03 E0= -.50816318E+03  d E =-.276155E+00
       N       E                     dE             d eps       ncg     rms          rms(c)
DAV:   1    -0.508158867827E+03    0.24307E-01   -0.71583E+01  3584   0.129E+01    0.670E+00
DAV:   2    -0.508412088498E+03   -0.25322E+00   -0.29545E+00  4352   0.252E+00    0.214E+00
DAV:   3    -0.508401924332E+03    0.10164E-01   -0.63843E-02  4480   0.470E-01    0.145E+00
DAV:   4    -0.508398736665E+03    0.31877E-02   -0.27031E-02  4224   0.254E-01    0.413E-01
DAV:   5    -0.508398740090E+03   -0.34256E-05   -0.49743E-03  4448   0.133E-01    0.209E-01
DAV:   6    -0.508398771703E+03   -0.31613E-04   -0.81076E-04  4256   0.492E-02    0.146E-01
DAV:   7    -0.508398734491E+03    0.37213E-04   -0.19843E-04  4448   0.241E-02    0.913E-02
DAV:   8    -0.508398716069E+03    0.18421E-04   -0.56342E-05  4672   0.155E-02    0.385E-02
DAV:   9    -0.508398714656E+03    0.14137E-05   -0.42761E-05  4320   0.108E-02    0.118E-02
DAV:  10    -0.508398713323E+03    0.13321E-05   -0.67203E-06  4160   0.494E-03    0.482E-03
DAV:  11    -0.508398713256E+03    0.67739E-07   -0.13439E-06  2592   0.173E-03
  54 F= -.50839871E+03 E0= -.50837953E+03  d E =-.491693E+00
       N       E                     dE             d eps       ncg     rms          rms(c)
DAV:   1    -0.508689079647E+03   -0.29037E+00   -0.30320E+01  3584   0.840E+00    0.339E+00
DAV:   2    -0.508747370162E+03   -0.58291E-01   -0.11241E+00  4320   0.167E+00    0.155E+00
DAV:   3    -0.508739190585E+03    0.81796E-02   -0.36381E-02  4608   0.365E-01    0.100E+00
DAV:   4    -0.508736137019E+03    0.30536E-02   -0.13307E-02  4384   0.210E-01    0.393E-01
DAV:   5    -0.508735799745E+03    0.33727E-03   -0.33842E-03  5184   0.122E-01    0.206E-01
DAV:   6    -0.508735675395E+03    0.12435E-03   -0.85721E-04  4928   0.567E-02    0.135E-01
DAV:   7    -0.508735633680E+03    0.41714E-04   -0.20284E-04  4352   0.255E-02    0.839E-02
DAV:   8    -0.508735606365E+03    0.27316E-04   -0.96994E-05  4640   0.144E-02    0.252E-02
DAV:   9    -0.508735603315E+03    0.30491E-05   -0.17394E-05  4416   0.746E-03    0.155E-02
DAV:  10    -0.508735603462E+03   -0.14653E-06   -0.22091E-06  3008   0.282E-03
  55 F= -.50873560E+03 E0= -.50871713E+03  d E =-.336890E+00
       N       E                     dE             d eps       ncg     rms          rms(c)
DAV:   1    -0.508817653192E+03   -0.82050E-01   -0.12712E+02  3584   0.172E+01    0.689E+00
DAV:   2    -0.509071148380E+03   -0.25350E+00   -0.47246E+00  4320   0.342E+00    0.324E+00
DAV:   3    -0.509037335962E+03    0.33812E-01   -0.15184E-01  4576   0.747E-01    0.220E+00
DAV:   4    -0.509022832200E+03    0.14504E-01   -0.55783E-02  4384   0.417E-01    0.858E-01
DAV:   5    -0.509021834416E+03    0.99778E-03   -0.12973E-02  5152   0.232E-01    0.414E-01
DAV:   6    -0.509021587946E+03    0.24647E-03   -0.35109E-03  4960   0.115E-01    0.286E-01
DAV:   7    -0.509021381892E+03    0.20605E-03   -0.77993E-04  4416   0.549E-02    0.184E-01
DAV:   8    -0.509021301955E+03    0.79937E-04   -0.46572E-04  4352   0.324E-02    0.527E-02
DAV:   9    -0.509021297652E+03    0.43030E-05   -0.89756E-05  4480   0.166E-02    0.319E-02
DAV:  10    -0.509021297207E+03    0.44546E-06   -0.10285E-05  4064   0.575E-03    0.190E-02
DAV:  11    -0.509021296789E+03    0.41779E-06   -0.58908E-06  3680   0.356E-03
  56 F= -.50902130E+03 E0= -.50900396E+03  d E =-.622584E+00
       N       E                     dE             d eps       ncg     rms          rms(c)
DAV:   1    -0.509174884735E+03   -0.15359E+00   -0.22783E+01  3584   0.738E+00    0.273E+00
DAV:   2    -0.509237693947E+03   -0.62809E-01   -0.77154E-01  4352   0.133E+00    0.107E+00
DAV:   3    -0.509234513355E+03    0.31806E-02   -0.15896E-02  4608   0.255E-01    0.746E-01
DAV:   4    -0.509234244238E+03    0.26912E-03   -0.76840E-03  5280   0.174E-01    0.371E-01
DAV:   5    -0.509233564112E+03    0.68013E-03   -0.34165E-03  5216   0.118E-01    0.106E-01
DAV:   6    -0.509233494615E+03    0.69498E-04   -0.71608E-04  4192   0.462E-02    0.927E-02
DAV:   7    -0.509233507721E+03   -0.13106E-04   -0.16333E-04  4128   0.188E-02    0.571E-02
DAV:   8    -0.509233503025E+03    0.46961E-05   -0.39579E-05  4736   0.115E-02    0.236E-02
DAV:   9    -0.509233505599E+03   -0.25741E-05   -0.12203E-05  4128   0.628E-03    0.525E-03
DAV:  10    -0.509233504914E+03    0.68501E-06   -0.17074E-06  2240   0.273E-03
  57 F= -.50923350E+03 E0= -.50921632E+03  d E =-.212208E+00
       N       E                     dE             d eps       ncg     rms          rms(c)
DAV:   1    -0.508960542300E+03    0.27296E+00   -0.20531E+02  3584   0.222E+01    0.861E+00
DAV:   2    -0.509532529731E+03   -0.57199E+00   -0.70612E+00  4320   0.400E+00    0.336E+00
DAV:   3    -0.509503372894E+03    0.29157E-01   -0.14954E-01  4608   0.792E-01    0.239E+00
DAV:   4    -0.509502180765E+03    0.11921E-02   -0.64359E-02  5248   0.519E-01    0.134E+00
DAV:   5    -0.509494225057E+03    0.79557E-02   -0.36118E-02  5248   0.385E-01    0.354E-01
DAV:   6    -0.509493687700E+03    0.53736E-03   -0.77492E-03  4320   0.145E-01    0.263E-01
DAV:   7    -0.509493742381E+03   -0.54681E-04   -0.17078E-03  4352   0.585E-02    0.174E-01
DAV:   8    -0.509493672298E+03    0.70083E-04   -0.39103E-04  4864   0.357E-02    0.839E-02
DAV:   9    -0.509493679689E+03   -0.73903E-05   -0.11681E-04  4352   0.194E-02    0.204E-02
DAV:  10    -0.509493675227E+03    0.44617E-05   -0.19937E-05  4224   0.890E-03    0.150E-02
DAV:  11    -0.509493674870E+03    0.35736E-06   -0.81258E-06  3648   0.400E-03
  58 F= -.50949367E+03 E0= -.50947634E+03  d E =-.472378E+00
       N       E                     dE             d eps       ncg     rms          rms(c)
DAV:   1    -0.509579728061E+03   -0.86053E-01   -0.67508E+00  3648   0.414E+00    0.124E+00
DAV:   2    -0.509597824809E+03   -0.18097E-01   -0.23759E-01  4384   0.724E-01    0.577E-01
DAV:   3    -0.509596764932E+03    0.10599E-02   -0.49582E-03  4704   0.144E-01    0.409E-01
DAV:   4    -0.509596587600E+03    0.17733E-03   -0.21475E-03  5184   0.996E-02    0.232E-01
DAV:   5    -0.509596304761E+03    0.28284E-03   -0.14511E-03  5056   0.770E-02    0.652E-02
DAV:   6    -0.509596305779E+03   -0.10176E-05   -0.43106E-04  4032   0.338E-02    0.439E-02
DAV:   7    -0.509596300953E+03    0.48265E-05   -0.52446E-05  4192   0.113E-02    0.275E-02
DAV:   8    -0.509596302212E+03   -0.12593E-05   -0.17483E-05  4096   0.662E-03    0.106E-02
DAV:   9    -0.509596304226E+03   -0.20139E-05   -0.28078E-06  3136   0.317E-03    0.330E-03
DAV:  10    -0.509596304526E+03   -0.30032E-06   -0.44135E-07  2176   0.144E-03
  59 F= -.50959630E+03 E0= -.50957867E+03  d E =-.102630E+00
       N       E                     dE             d eps       ncg     rms          rms(c)
DAV:   1    -0.509677293282E+03   -0.80989E-01   -0.60744E+01  3584   0.124E+01    0.369E+00
DAV:   2    -0.509840674848E+03   -0.16338E+00   -0.21614E+00  4384   0.218E+00    0.175E+00
DAV:   3    -0.509831164114E+03    0.95107E-02   -0.44842E-02  4704   0.434E-01    0.126E+00
DAV:   4    -0.509829299985E+03    0.18641E-02   -0.18050E-02  5344   0.286E-01    0.732E-01
DAV:   5    -0.509826981229E+03    0.23188E-02   -0.12658E-02  4992   0.230E-01    0.208E-01
DAV:   6    -0.509826883029E+03    0.98200E-04   -0.37723E-03  4160   0.993E-02    0.126E-01
DAV:   7    -0.509826834357E+03    0.48672E-04   -0.49757E-04  4352   0.334E-02    0.828E-02
DAV:   8    -0.509826825928E+03    0.84286E-05   -0.13346E-04  4448   0.194E-02    0.339E-02
DAV:   9    -0.509826831708E+03   -0.57805E-05   -0.28560E-05  4288   0.937E-03    0.106E-02
DAV:  10    -0.509826831690E+03    0.18597E-07   -0.47108E-06  3776   0.443E-03
  60 F= -.50982683E+03 E0= -.50980804E+03  d E =-.333157E+00
       N       E                     dE             d eps       ncg     rms          rms(c)
DAV:   1    -0.509282650707E+03    0.54418E+00   -0.24309E+02  3584   0.248E+01    0.757E+00
DAV:   2    -0.509945481390E+03   -0.66283E+00   -0.88835E+00  4384   0.439E+00    0.355E+00
DAV:   3    -0.509906792870E+03    0.38689E-01   -0.18311E-01  4608   0.886E-01    0.265E+00
DAV:   4    -0.509897794215E+03    0.89987E-02   -0.59760E-02  5088   0.519E-01    0.163E+00
DAV:   5    -0.509890578401E+03    0.72158E-02   -0.46072E-02  4928   0.446E-01    0.460E-01
DAV:   6    -0.509889776254E+03    0.80215E-03   -0.13960E-02  4384   0.195E-01    0.224E-01
DAV:   7    -0.509889678789E+03    0.97466E-04   -0.23636E-03  4384   0.677E-02    0.168E-01
DAV:   8    -0.509889624767E+03    0.54022E-04   -0.44011E-04  4992   0.398E-02    0.758E-02
DAV:   9    -0.509889628158E+03   -0.33915E-05   -0.15299E-04  4256   0.196E-02    0.281E-02
DAV:  10    -0.509889622663E+03    0.54950E-05   -0.25965E-05  4160   0.938E-03    0.184E-02
DAV:  11    -0.509889622211E+03    0.45202E-06   -0.10758E-05  3936   0.475E-03    0.106E-02
DAV:  12    -0.509889622825E+03   -0.61365E-06   -0.16797E-06  2592   0.226E-03
  61 F= -.50988962E+03 E0= -.50986742E+03  d E =-.395948E+00
       N       E                     dE             d eps       ncg     rms          rms(c)
DAV:   1    -0.509832410383E+03    0.57212E-01   -0.40801E+01  3584   0.102E+01    0.321E+00
[...]
DAV:  15    -0.515441471526E+03   -0.31439E-07   -0.59392E-07  2176   0.127E-03
  82 F= -.51544147E+03 E0= -.51543281E+03  d E =-.220045E+00
       N       E                     dE             d eps       ncg     rms          rms(c)
DAV:   1    -0.511396722327E+03    0.40447E+01   -0.18892E+03  3584   0.719E+01    0.209E+01
DAV:   2    -0.516769467435E+03   -0.53727E+01   -0.61067E+01  4448   0.119E+01    0.756E+00
DAV:   3    -0.516581129623E+03    0.18834E+00   -0.15776E+00  4640   0.232E+00    0.564E+00
DAV:   4    -0.516545882608E+03    0.35247E-01   -0.21684E-01  4576   0.956E-01    0.407E+00
DAV:   5    -0.516510289757E+03    0.35593E-01   -0.13855E-01  4288   0.705E-01    0.156E+00
DAV:   6    -0.516514942682E+03   -0.46529E-02   -0.63514E-02  4096   0.372E-01    0.444E-01
DAV:   7    -0.516514881020E+03    0.61662E-04   -0.75832E-03  4256   0.141E-01    0.318E-01
DAV:   8    -0.516514343759E+03    0.53726E-03   -0.12858E-03  4736   0.640E-02    0.168E-01
DAV:   9    -0.516514340331E+03    0.34286E-05   -0.59182E-04  4480   0.397E-02    0.442E-02
DAV:  10    -0.516514340831E+03   -0.50047E-06   -0.79739E-05  4288   0.160E-02    0.228E-02
DAV:  11    -0.516514339733E+03    0.10977E-05   -0.17240E-05  4320   0.690E-03    0.137E-02
DAV:  12    -0.516514338976E+03    0.75709E-06   -0.33460E-06  3264   0.354E-03
  83 F= -.51651434E+03 E0= -.51650021E+03  d E =-.129291E+01
       N       E                     dE             d eps       ncg     rms          rms(c)
DAV:   1    -0.516708005252E+03   -0.19367E+00   -0.48404E+01  3584   0.113E+01    0.247E+00
DAV:   2    -0.516833537179E+03   -0.12553E+00   -0.14865E+00  4352   0.189E+00    0.117E+00
DAV:   3    -0.516828652737E+03    0.48844E-02   -0.29487E-02  4768   0.333E-01    0.811E-01
DAV:   4    -0.516826870751E+03    0.17820E-02   -0.75219E-03  4672   0.172E-01    0.444E-01
DAV:   5    -0.516826270528E+03    0.60022E-03   -0.41540E-03  4608   0.121E-01    0.167E-01
DAV:   6    -0.516826381872E+03   -0.11134E-03   -0.14322E-03  4224   0.544E-02    0.893E-02
DAV:   7    -0.516826349628E+03    0.32244E-04   -0.11446E-04  4096   0.186E-02    0.587E-02
DAV:   8    -0.516826324291E+03    0.25337E-04   -0.59441E-05  4256   0.125E-02    0.273E-02
DAV:   9    -0.516826318509E+03    0.57817E-05   -0.22796E-05  4128   0.836E-03    0.927E-03
DAV:  10    -0.516826318912E+03   -0.40343E-06   -0.34416E-06  3328   0.325E-03
  84 F= -.51682632E+03 E0= -.51681274E+03  d E =-.311980E+00
       N       E                     dE             d eps       ncg     rms          rms(c)
DAV:   1    -0.516315529658E+03    0.51079E+00   -0.43784E+02  3584   0.341E+01    0.766E+00
DAV:   2    -0.517500887153E+03   -0.11854E+01   -0.13792E+01  4384   0.574E+00    0.374E+00
DAV:   3    -0.517462417521E+03    0.38470E-01   -0.29178E-01  4576   0.986E-01    0.274E+00
DAV:   4    -0.517442540238E+03    0.19877E-01   -0.66915E-02  4512   0.505E-01    0.139E+00
DAV:   5    -0.517439141722E+03    0.33985E-02   -0.35361E-02  4544   0.353E-01    0.499E-01
DAV:   6    -0.517439663989E+03   -0.52227E-03   -0.10732E-02  4320   0.165E-01    0.263E-01
DAV:   7    -0.517439488287E+03    0.17570E-03   -0.11604E-03  3968   0.576E-02    0.192E-01
DAV:   8    -0.517439308961E+03    0.17933E-03   -0.51338E-04  4256   0.384E-02    0.878E-02
DAV:   9    -0.517439281546E+03    0.27415E-04   -0.18272E-04  4864   0.235E-02    0.290E-02
DAV:  10    -0.517439283039E+03   -0.14927E-05   -0.22758E-05  3968   0.781E-03    0.183E-02
DAV:  11    -0.517439282285E+03    0.75364E-06   -0.19489E-06  2496   0.263E-03
  85 F= -.51743928E+03 E0= -.51742753E+03  d E =-.924943E+00
       N       E                     dE             d eps       ncg     rms          rms(c)
DAV:   1    -0.512093432012E+03    0.53459E+01   -0.17745E+03  3584   0.689E+01    0.188E+01
DAV:   2    -0.517352896529E+03   -0.52595E+01   -0.59967E+01  4352   0.117E+01    0.887E+00
DAV:   3    -0.517209065963E+03    0.14383E+00   -0.13545E+00  4448   0.205E+00    0.676E+00
DAV:   4    -0.517120574078E+03    0.88492E-01   -0.22324E-01  4544   0.863E-01    0.355E+00
DAV:   5    -0.517108936917E+03    0.11637E-01   -0.13053E-01  4384   0.580E-01    0.844E-01
DAV:   6    -0.517110336056E+03   -0.13991E-02   -0.27242E-02  4480   0.288E-01    0.516E-01
DAV:   7    -0.517110021804E+03    0.31425E-03   -0.23044E-03  4640   0.978E-02    0.377E-01
DAV:   8    -0.517109513406E+03    0.50840E-03   -0.17647E-03  4288   0.766E-02    0.202E-01
DAV:   9    -0.517109418884E+03    0.94522E-04   -0.72045E-04  4832   0.475E-02    0.569E-02
DAV:  10    -0.517109425543E+03   -0.66591E-05   -0.12873E-04  3872   0.158E-02    0.385E-02
DAV:  11    -0.517109423998E+03    0.15451E-05   -0.11160E-05  4544   0.546E-03    0.228E-02
DAV:  12    -0.517109421406E+03    0.25912E-05   -0.31135E-06  3136   0.371E-03    0.797E-03
DAV:  13    -0.517109420473E+03    0.93388E-06   -0.14559E-06  2176   0.196E-03
  86 F= -.51710942E+03 E0= -.51710095E+03  d E =-.595081E+00
       N       E                     dE             d eps       ncg     rms          rms(c)
DAV:   1    -0.515590964801E+03    0.15185E+01   -0.76875E+02  3584   0.449E+01    0.124E+01
DAV:   2    -0.517702701467E+03   -0.21117E+01   -0.25776E+01  4416   0.769E+00    0.485E+00
DAV:   3    -0.517592237689E+03    0.11046E+00   -0.62631E-01  4640   0.164E+00    0.324E+00
DAV:   4    -0.517576579303E+03    0.15658E-01   -0.12168E-01  4704   0.706E-01    0.225E+00
DAV:   5    -0.517561912264E+03    0.14667E-01   -0.69615E-02  4352   0.463E-01    0.989E-01
DAV:   6    -0.517565173989E+03   -0.32617E-02   -0.30230E-02  4256   0.236E-01    0.338E-01
DAV:   7    -0.517565041401E+03    0.13259E-03   -0.21650E-03  4480   0.899E-02    0.213E-01
DAV:   8    -0.517564932656E+03    0.10875E-03   -0.67446E-04  4672   0.442E-02    0.104E-01
DAV:   9    -0.517564948496E+03   -0.15840E-04   -0.35066E-04  4128   0.289E-02    0.313E-02
DAV:  10    -0.517564935506E+03    0.12990E-04   -0.54268E-05  4096   0.146E-02    0.224E-02
DAV:  11    -0.517564936854E+03   -0.13486E-05   -0.10323E-05  3968   0.502E-03    0.133E-02
DAV:  12    -0.517564937648E+03   -0.79330E-06   -0.32083E-06  3360   0.350E-03
  87 F= -.51756494E+03 E0= -.51755436E+03  d E =-.105060E+01
       N       E                     dE             d eps       ncg     rms          rms(c)
DAV:   1    -0.517760770206E+03   -0.19583E+00   -0.93554E+01  3584   0.156E+01    0.412E+00
DAV:   2    -0.518017984035E+03   -0.25721E+00   -0.29974E+00  4320   0.258E+00    0.143E+00
DAV:   3    -0.518009624110E+03    0.83599E-02   -0.59140E-02  4672   0.438E-01    0.970E-01
DAV:   4    -0.518005836234E+03    0.37879E-02   -0.14755E-02  4448   0.181E-01    0.459E-01
DAV:   5    -0.518006065715E+03   -0.22948E-03   -0.39256E-03  4544   0.942E-02    0.150E-01
DAV:   6    -0.518006091464E+03   -0.25749E-04   -0.40740E-04  5056   0.412E-02    0.967E-02
DAV:   7    -0.518006055536E+03    0.35928E-04   -0.12404E-04  4832   0.227E-02    0.625E-02
DAV:   8    -0.518006052890E+03    0.26469E-05   -0.62667E-05  4192   0.134E-02    0.307E-02
DAV:   9    -0.518006057313E+03   -0.44233E-05   -0.16581E-05  3968   0.641E-03    0.847E-03
DAV:  10    -0.518006058417E+03   -0.11037E-05   -0.40750E-06  3392   0.323E-03    0.566E-03
DAV:  11    -0.518006058251E+03    0.16580E-06   -0.55117E-07  2176   0.149E-03
  88 F= -.51800606E+03 E0= -.51799596E+03  d E =-.441121E+00
       N       E                     dE             d eps       ncg     rms          rms(c)
DAV:   1    -0.516427973064E+03    0.15781E+01   -0.77883E+02  3584   0.449E+01    0.144E+01
DAV:   2    -0.518710246240E+03   -0.22823E+01   -0.26708E+01  4288   0.763E+00    0.434E+00
DAV:   3    -0.518650121854E+03    0.60124E-01   -0.59598E-01  4704   0.133E+00    0.305E+00
DAV:   4    -0.518620937115E+03    0.29185E-01   -0.96580E-02  4576   0.555E-01    0.166E+00
DAV:   5    -0.518617421340E+03    0.35158E-02   -0.43754E-02  4576   0.364E-01    0.560E-01
DAV:   6    -0.518617948862E+03   -0.52752E-03   -0.99850E-03  4288   0.153E-01    0.285E-01
DAV:   7    -0.518617900941E+03    0.47922E-04   -0.14984E-03  4416   0.594E-02    0.170E-01
DAV:   8    -0.518617860637E+03    0.40304E-04   -0.43103E-04  4992   0.396E-02    0.562E-02
DAV:   9    -0.518617872029E+03   -0.11393E-04   -0.11159E-04  4096   0.161E-02    0.245E-02
DAV:  10    -0.518617871470E+03    0.55891E-06   -0.10911E-05  3936   0.516E-03    0.114E-02
DAV:  11    -0.518617871755E+03   -0.28504E-06   -0.18625E-06  2528   0.214E-03
  89 F= -.51861787E+03 E0= -.51860867E+03  d E =-.105293E+01
       N       E                     dE             d eps       ncg     rms          rms(c)
DAV:   1    -0.518817161724E+03   -0.19929E+00   -0.11337E+02  3584   0.158E+01    0.528E+00
DAV:   2    -0.519154065009E+03   -0.33690E+00   -0.39839E+00  4224   0.303E+00    0.211E+00
DAV:   3    -0.519144241770E+03    0.98232E-02   -0.95310E-02  4672   0.547E-01    0.160E+00
DAV:   4    -0.519139910994E+03    0.43308E-02   -0.21464E-02  4512   0.241E-01    0.794E-01
DAV:   5    -0.519140013431E+03   -0.10244E-03   -0.74158E-03  4768   0.164E-01    0.190E-01
DAV:   6    -0.519139909968E+03    0.10346E-03   -0.15983E-03  4640   0.812E-02    0.133E-01
DAV:   7    -0.519139881928E+03    0.28040E-04   -0.30230E-04  4448   0.288E-02    0.118E-01
DAV:   8    -0.519139829394E+03    0.52534E-04   -0.13476E-04  4480   0.211E-02    0.608E-02
DAV:   9    -0.519139823500E+03    0.58942E-05   -0.51303E-05  4224   0.106E-02    0.133E-02
DAV:  10    -0.519139823709E+03   -0.20920E-06   -0.90569E-06  3936   0.495E-03
  90 F= -.51913982E+03 E0= -.51913168E+03  d E =-.521952E+00
       N       E                     dE             d eps       ncg     rms          rms(c)
DAV:   1    -0.518785428162E+03    0.35440E+00   -0.21176E+02  3584   0.216E+01    0.768E+00
DAV:   2    -0.519426706678E+03   -0.64128E+00   -0.75340E+00  4288   0.419E+00    0.292E+00
DAV:   3    -0.519409231548E+03    0.17475E-01   -0.18392E-01  4608   0.754E-01    0.218E+00
DAV:   4    -0.519401215496E+03    0.80161E-02   -0.39958E-02  4448   0.336E-01    0.109E+00
DAV:   5    -0.519401456265E+03   -0.24077E-03   -0.14771E-02  4640   0.230E-01    0.267E-01
DAV:   6    -0.519401192159E+03    0.26411E-03   -0.29402E-03  4512   0.110E-01    0.191E-01
DAV:   7    -0.519401144123E+03    0.48036E-04   -0.61375E-04  4576   0.395E-02    0.158E-01
DAV:   8    -0.519401057641E+03    0.86482E-04   -0.25950E-04  4608   0.311E-02    0.757E-02
DAV:   9    -0.519401050349E+03    0.72929E-05   -0.88694E-05  4384   0.147E-02    0.162E-02
DAV:  10    -0.519401050902E+03   -0.55306E-06   -0.23435E-05  4000   0.775E-03    0.916E-03
DAV:  11    -0.519401049972E+03    0.92967E-06   -0.17053E-06  2592   0.268E-03
  91 F= -.51940105E+03 E0= -.51939391E+03  d E =-.783178E+00
       N       E                     dE             d eps       ncg     rms          rms(c)
DAV:   1    -0.519591287700E+03   -0.19024E+00   -0.38416E+01  3712   0.876E+00    0.327E+00
DAV:   2    -0.519699601852E+03   -0.10831E+00   -0.13439E+00  4352   0.170E+00    0.106E+00
DAV:   3    -0.519694234464E+03    0.53674E-02   -0.29674E-02  4480   0.334E-01    0.705E-01
DAV:   4    -0.519692791479E+03    0.14430E-02   -0.11946E-02  4672   0.180E-01    0.295E-01
DAV:   5    -0.519692798759E+03   -0.72800E-05   -0.22517E-03  4672   0.886E-02    0.171E-01
DAV:   6    -0.519692832166E+03   -0.33407E-04   -0.42745E-04  4288   0.342E-02    0.115E-01
DAV:   7    -0.519692803886E+03    0.28280E-04   -0.92479E-05  4288   0.181E-02    0.833E-02
DAV:   8    -0.519692774707E+03    0.29179E-04   -0.47342E-05  4736   0.131E-02    0.255E-02
DAV:   9    -0.519692773676E+03    0.10304E-05   -0.30067E-05  4096   0.752E-03    0.770E-03
DAV:  10    -0.519692773882E+03   -0.20571E-06   -0.18590E-06  2624   0.256E-03
  92 F= -.51969277E+03 E0= -.51968598E+03  d E =-.291724E+00
       N       E                     dE             d eps       ncg     rms          rms(c)
DAV:   1    -0.519467353060E+03    0.22542E+00   -0.17843E+02  3776   0.189E+01    0.747E+00
DAV:   2    -0.519975887477E+03   -0.50853E+00   -0.62664E+00  4352   0.367E+00    0.234E+00
DAV:   3    -0.519953545242E+03    0.22342E-01   -0.14724E-01  4576   0.710E-01    0.157E+00
DAV:   4    -0.519945979199E+03    0.75660E-02   -0.53932E-02  4544   0.381E-01    0.650E-01
DAV:   5    -0.519946196390E+03   -0.21719E-03   -0.10050E-02  4576   0.179E-01    0.353E-01
DAV:   6    -0.519946455653E+03   -0.25926E-03   -0.17912E-03  4288   0.660E-02    0.231E-01
DAV:   7    -0.519946296507E+03    0.15915E-03   -0.46467E-04  4352   0.397E-02    0.163E-01
DAV:   8    -0.519946223070E+03    0.73437E-04   -0.18172E-04  4768   0.253E-02    0.471E-02
DAV:   9    -0.519946223349E+03   -0.27887E-06   -0.84224E-05  4384   0.132E-02    0.138E-02
DAV:  10    -0.519946223711E+03   -0.36228E-06   -0.51380E-06  4032   0.429E-03
  93 F= -.51994622E+03 E0= -.51993972E+03  d E =-.545174E+00
       N       E                     dE             d eps       ncg     rms          rms(c)
DAV:   1    -0.519997533679E+03   -0.51310E-01   -0.31154E+01  3584   0.881E+00    0.364E+00
DAV:   2    -0.520102723571E+03   -0.10519E+00   -0.12447E+00  4352   0.163E+00    0.178E+00
DAV:   3    -0.520097820549E+03    0.49030E-02   -0.35800E-02  4608   0.347E-01    0.110E+00
DAV:   4    -0.520096893007E+03    0.92754E-03   -0.98490E-03  4960   0.210E-01    0.248E-01
DAV:   5    -0.520096696709E+03    0.19630E-03   -0.32037E-03  5216   0.118E-01    0.179E-01
DAV:   6    -0.520096685792E+03    0.10917E-04   -0.80995E-04  4288   0.489E-02    0.999E-02
DAV:   7    -0.520096662086E+03    0.23706E-04   -0.12029E-04  4160   0.185E-02    0.687E-02
DAV:   8    -0.520096652100E+03    0.99856E-05   -0.79176E-05  4160   0.132E-02    0.242E-02
DAV:   9    -0.520096652890E+03   -0.78959E-06   -0.16709E-05  4256   0.758E-03    0.758E-03
DAV:  10    -0.520096653162E+03   -0.27256E-06   -0.33325E-06  3520   0.314E-03
  94 F= -.52009665E+03 E0= -.52009030E+03  d E =-.150429E+00
       N       E                     dE             d eps       ncg     rms          rms(c)
DAV:   1    -0.520096113638E+03    0.53925E-03   -0.29556E+00  3584   0.271E+00    0.112E+00
DAV:   2    -0.520106083415E+03   -0.99698E-02   -0.11753E-01  4352   0.503E-01    0.530E-01
DAV:   3    -0.520105626848E+03    0.45657E-03   -0.33463E-03  4480   0.106E-01    0.325E-01
DAV:   4    -0.520105545603E+03    0.81245E-04   -0.92436E-04  5152   0.637E-02    0.753E-02
DAV:   5    -0.520105533726E+03    0.11878E-04   -0.27534E-04  4672   0.339E-02    0.538E-02
DAV:   6    -0.520105537218E+03   -0.34920E-05   -0.72053E-05  4096   0.142E-02    0.303E-02
DAV:   7    -0.520105534799E+03    0.24184E-05   -0.98526E-06  4032   0.566E-03    0.207E-02
DAV:   8    -0.520105534371E+03    0.42832E-06   -0.70947E-06  3744   0.390E-03
  95 F= -.52010553E+03 E0= -.52009922E+03  d E =-.159311E+00
       N       E                     dE             d eps       ncg     rms          rms(c)
DAV:   1    -0.520167092974E+03   -0.61558E-01   -0.15580E+01  3584   0.658E+00    0.277E+00
DAV:   2    -0.520203099466E+03   -0.36006E-01   -0.56163E-01  4384   0.116E+00    0.812E-01
DAV:   3    -0.520199122998E+03    0.39765E-02   -0.18107E-02  4512   0.276E-01    0.447E-01
DAV:   4    -0.520198415939E+03    0.70706E-03   -0.45317E-03  4672   0.109E-01    0.215E-01
DAV:   5    -0.520198388622E+03    0.27317E-04   -0.82554E-04  4288   0.468E-02    0.110E-01
DAV:   6    -0.520198403585E+03   -0.14963E-04   -0.12344E-04  4800   0.208E-02    0.682E-02
DAV:   7    -0.520198417333E+03   -0.13748E-04   -0.32617E-05  4160   0.103E-02    0.272E-02
DAV:   8    -0.520198424436E+03   -0.71027E-05   -0.97727E-06  4224   0.504E-03    0.940E-03
DAV:   9    -0.520198424643E+03   -0.20713E-06   -0.95190E-07  2176   0.241E-03
  96 F= -.52019842E+03 E0= -.52019193E+03  d E =-.928903E-01
       N       E                     dE             d eps       ncg     rms          rms(c)
DAV:   1    -0.520202213188E+03   -0.37888E-02   -0.62432E+00  3584   0.417E+00    0.175E+00
DAV:   2    -0.520216694369E+03   -0.14481E-01   -0.22504E-01  4384   0.732E-01    0.517E-01
DAV:   3    -0.520215081943E+03    0.16124E-02   -0.72308E-03  4544   0.176E-01    0.286E-01
DAV:   4    -0.520214801433E+03    0.28051E-03   -0.18525E-03  4704   0.702E-02    0.136E-01
DAV:   5    -0.520214793052E+03    0.83808E-05   -0.34379E-04  4352   0.306E-02    0.687E-02
DAV:   6    -0.520214801927E+03   -0.88750E-05   -0.50235E-05  4768   0.134E-02    0.430E-02
DAV:   7    -0.520214810133E+03   -0.82059E-05   -0.13463E-05  4288   0.671E-03    0.182E-02
DAV:   8    -0.520214814676E+03   -0.45433E-05   -0.41852E-06  3776   0.373E-03    0.585E-03
DAV:   9    -0.520214814829E+03   -0.15270E-06   -0.56793E-07  2176   0.179E-03
  97 F= -.52021481E+03 E0= -.52020818E+03  d E =-.109280E+00
       N       E                     dE             d eps       ncg     rms          rms(c)
DAV:   1    -0.520249371631E+03   -0.34557E-01   -0.14257E+01  3584   0.622E+00    0.178E+00
DAV:   2    -0.520293264698E+03   -0.43893E-01   -0.51306E-01  4352   0.104E+00    0.711E-01
DAV:   3    -0.520290891125E+03    0.23736E-02   -0.10393E-02  4512   0.207E-01    0.484E-01
DAV:   4    -0.520290430120E+03    0.46100E-03   -0.52701E-03  4352   0.110E-01    0.212E-01
DAV:   5    -0.520290424646E+03    0.54748E-05   -0.10942E-03  4768   0.678E-02    0.120E-01
DAV:   6    -0.520290407263E+03    0.17383E-04   -0.28496E-04  4512   0.349E-02    0.562E-02
DAV:   7    -0.520290398042E+03    0.92201E-05   -0.96311E-05  4160   0.148E-02    0.485E-02
DAV:   8    -0.520290393286E+03    0.47561E-05   -0.91900E-06  4128   0.538E-03    0.286E-02
DAV:   9    -0.520290390039E+03    0.32473E-05   -0.94978E-06  3616   0.518E-03    0.166E-02
DAV:  10    -0.520290389653E+03    0.38588E-06   -0.34736E-06  3328   0.273E-03
  98 F= -.52029039E+03 E0= -.52028373E+03  d E =-.755748E-01
       N       E                     dE             d eps       ncg     rms          rms(c)
DAV:   1    -0.520259606380E+03    0.30784E-01   -0.22259E+01  3584   0.776E+00    0.220E+00
DAV:   2    -0.520328289106E+03   -0.68683E-01   -0.80023E-01  4352   0.130E+00    0.882E-01
DAV:   3    -0.520324663938E+03    0.36252E-02   -0.16014E-02  4512   0.256E-01    0.605E-01
DAV:   4    -0.520323930843E+03    0.73310E-03   -0.79504E-03  4352   0.135E-01    0.266E-01
DAV:   5    -0.520323932808E+03   -0.19652E-05   -0.16583E-03  4736   0.828E-02    0.148E-01
DAV:   6    -0.520323907588E+03    0.25220E-04   -0.43101E-04  4480   0.430E-02    0.696E-02
DAV:   7    -0.520323893265E+03    0.14323E-04   -0.14625E-04  4160   0.183E-02    0.597E-02
DAV:   8    -0.520323886377E+03    0.68883E-05   -0.14265E-05  4352   0.672E-03    0.354E-02
DAV:   9    -0.520323881617E+03    0.47600E-05   -0.14397E-05  3936   0.639E-03    0.204E-02
DAV:  10    -0.520323881182E+03    0.43477E-06   -0.53686E-06  3488   0.334E-03
  99 F= -.52032388E+03 E0= -.52031716E+03  d E =-.109066E+00
       N       E                     dE             d eps       ncg     rms          rms(c)
DAV:   1    -0.520347621782E+03   -0.23740E-01   -0.20753E+01  3584   0.794E+00    0.201E+00
DAV:   2    -0.520401315916E+03   -0.53694E-01   -0.67367E-01  4320   0.122E+00    0.822E-01
DAV:   3    -0.520398044022E+03    0.32719E-02   -0.16101E-02  4672   0.257E-01    0.575E-01
DAV:   4    -0.520397141106E+03    0.90292E-03   -0.37361E-03  4576   0.107E-01    0.206E-01
DAV:   5    -0.520397175976E+03   -0.34870E-04   -0.12694E-03  4224   0.515E-02    0.867E-02
DAV:   6    -0.520397190223E+03   -0.14247E-04   -0.15127E-04  4736   0.218E-02    0.626E-02
DAV:   7    -0.520397193351E+03   -0.31279E-05   -0.33015E-05  4256   0.986E-03    0.302E-02
DAV:   8    -0.520397199682E+03   -0.63308E-05   -0.14610E-05  4416   0.693E-03    0.777E-03
DAV:   9    -0.520397200312E+03   -0.63021E-06   -0.25665E-06  3136   0.346E-03
 100 F= -.52039720E+03 E0= -.52039042E+03  d E =-.733191E-01
