112  
23   

1    
  0.0062293587408865   0.0000000000000000   0.0078227290428176
  -0.0080528800   -0.0014745000   -0.0137745300
   0.0008384500   -0.0002591400   -0.0001116700
   0.0002323600   -0.0003163200   -0.0000808100
   0.0002709800   -0.0003166300   -0.0000340400
   0.0002524400    0.0002982100    0.0000541400
   0.0002527000    0.0003600200    0.0000540600
   0.0002453500    0.0003694400    0.0000507300
   0.0002452700    0.0003598600    0.0000506800
  -0.0005191600   -0.0004867600   -0.0006171600
  -0.0000014000   -0.0003215800   -0.0000582400
  -0.0005192500    0.0000027500   -0.0006181500
  -0.0000014200   -0.0005953200   -0.0000579500
  -0.0002500300    0.0003485200    0.0000216700
  -0.0002429000    0.0003714500    0.0000294400
  -0.0002119800    0.0003441800    0.0000818400
  -0.0002874000    0.0003147400    0.0000737700
   0.0000102600    0.0000385900    0.0000338600
   0.0000001400    0.0000082200    0.0000187500
   0.0002747200   -0.0003762500    0.0018475600
   0.0002342000    0.0000692200   -0.0000326600
  -0.0004038200    0.0001463200    0.0002335800
   0.0001929000    0.0000422400    0.0001175300
  -0.0000288700   -0.0001479200    0.0001142300
  -0.0000120300   -0.0001349400    0.0000965900
   0.0000866300   -0.0001760800    0.0001706500
   0.0000024800   -0.0000131100    0.0000481300
   0.0001034700    0.0005184300    0.0003290400
  -0.0000374300   -0.0000883700   -0.0000799800
  -0.0000188600    0.0000241000    0.0000176500
   0.0000068400    0.0000125400   -0.0000012000
  -0.0008472200   -0.0000243600    0.0009296300
   0.0005102000   -0.0000408100    0.0002760300
   0.0016346700   -0.0005230500    0.0004969300
   0.0016677000   -0.0005140800    0.0005424700
   0.0016959700   -0.0004602300    0.0004576700
   0.0017363700   -0.0004187800    0.0005028100
   0.0016941600    0.0005366700   -0.0004924200
   0.0016694600    0.0004528100   -0.0005499200
   0.0045021000    0.0002176000    0.0025426100
   0.0022951100    0.0007702400   -0.0016238200
  -0.0016301800   -0.0006179000   -0.0006714600
  -0.0015648600   -0.0006387800   -0.0005170800
  -0.0016442100   -0.0005542400   -0.0005496200
  -0.0016371500   -0.0005551500   -0.0005411500
  -0.0015463100    0.0008269900    0.0004012800
  -0.0003506300    0.0015711100    0.0008211800
  -0.0016286500    0.0006183100    0.0005147400
  -0.0016844100    0.0005461200    0.0006579500
  -0.0016474000    0.0006967000   -0.0003419500
  -0.0024648000    0.0003005600   -0.0018731200
  -0.0015648000    0.0005915100   -0.0004621600
  -0.0017438900    0.0003526200   -0.0005259700
  -0.0017032600   -0.0004370400    0.0005168600
  -0.0016829400   -0.0004675900    0.0004694500
  -0.0016684700   -0.0005195500    0.0005291000
  -0.0016566000   -0.0005292900    0.0005290500
   0.0015821400    0.0005272500    0.0005158000
   0.0016262700    0.0005774200    0.0005933900
   0.0004524600    0.0017063100    0.0009153400
   0.0027064100    0.0003127100    0.0015474100
   0.0016533400   -0.0005833300   -0.0005253000
   0.0016436100   -0.0005550400   -0.0005615000
   0.0015897800   -0.0006179200   -0.0006077600
   0.0016033500   -0.0006106800   -0.0005668000
  -0.0003285300   -0.0018116100    0.0000326300
  -0.0003271600   -0.0018208900    0.0000162000
  -0.0002722500   -0.0018328000    0.0001191600
  -0.0003884000   -0.0018541200   -0.0000129300
  -0.0003102500    0.0018096800   -0.0000463600
  -0.0003054700    0.0018334600   -0.0000256500
   0.0013645200    0.0027217800   -0.0023064600
   0.0017253700   -0.0003093300    0.0000113400
   0.0003352600   -0.0018226200    0.0001422200
   0.0003033100   -0.0018170400   -0.0000012000
   0.0003353300   -0.0018265700    0.0000197000
   0.0003242800   -0.0018217300    0.0000107400
   0.0003590800    0.0014436900   -0.0000577300
   0.0000846700    0.0016583300   -0.0001801700
   0.0002061600    0.0017901400   -0.0000635400
   0.0004477200    0.0018776100   -0.0001469500
   0.0011082800    0.0011108800    0.0013084100
   0.0011163200    0.0010904100    0.0012157900
   0.0011127900    0.0011583200    0.0012567800
   0.0011456100    0.0012285400    0.0011866400
   0.0012556000   -0.0012654600   -0.0012538500
   0.0010338900   -0.0011738600   -0.0013310000
   0.0026929800   -0.0015880900   -0.0005008900
   0.0004395500   -0.0008147000   -0.0013241800
  -0.0010429000    0.0010955600   -0.0015466300
  -0.0010122800    0.0010301700   -0.0013038900
  -0.0010770100    0.0010337200   -0.0013456800
  -0.0010762000    0.0010707700   -0.0013182100
   0.0000610900   -0.0032082300    0.0060364100
  -0.0013076500   -0.0010678900    0.0013361100
  -0.0008336000   -0.0012040000    0.0013756100
  -0.0011936500   -0.0011453900    0.0013461100
  -0.0013850100    0.0007821800    0.0027178900
  -0.0013541400   -0.0012243000   -0.0012160500
  -0.0011179100   -0.0010303500   -0.0012804600
  -0.0011784600   -0.0011270900   -0.0012508700
  -0.0010796900    0.0012290900    0.0012484600
  -0.0012064800    0.0011567700    0.0011727300
  -0.0010893400    0.0011124000    0.0012838000
  -0.0011096600    0.0011050900    0.0012907000
   0.0010263600   -0.0010081800    0.0013361300
   0.0010537700   -0.0010502200    0.0013674300
   0.0007984900    0.0003800300    0.0030736700
   0.0002311400   -0.0008649400    0.0018082000
   0.0010513400    0.0011056200   -0.0013488400
   0.0010684100    0.0010705300   -0.0013363800
   0.0009009300    0.0009340700   -0.0013914200
   0.0011546200    0.0010015600   -0.0014507600

1    
 -0.0062293587408865   0.0000000000000000  -0.0078227290428176
   0.0084742000    0.0008031800    0.0136717700
  -0.0003411700   -0.0004332300    0.0001122700
   0.0002645500   -0.0003752200    0.0000807800
   0.0002259100   -0.0003750100    0.0000340200
   0.0002442100    0.0003934300   -0.0000541300
   0.0002444900    0.0003314500   -0.0000542000
   0.0002515700    0.0003223600   -0.0000506900
   0.0002515100    0.0003320900   -0.0000507300
   0.0000208500   -0.0002007700    0.0006176100
  -0.0004947500   -0.0003702800    0.0000581000
   0.0000207500   -0.0006985300    0.0006166400
  -0.0004947800   -0.0000962800    0.0000583900
  -0.0002467900    0.0003432900   -0.0000217100
  -0.0002537500    0.0003206500   -0.0000294900
  -0.0002847700    0.0003476800   -0.0000817800
  -0.0002093700    0.0003769000   -0.0000739300
  -0.0000102500   -0.0000383900   -0.0000340300
  -0.0000001400   -0.0000081500   -0.0000189100
  -0.0002775300    0.0003787300   -0.0018729800
  -0.0002349600   -0.0000688200    0.0000326300
   0.0004027800   -0.0001460400   -0.0002341500
  -0.0001922200   -0.0000426100   -0.0001174600
   0.0000286800    0.0001465200   -0.0001141800
   0.0000121200    0.0001354400   -0.0000970500
  -0.0000885600    0.0001759900   -0.0001705000
  -0.0000018900    0.0000130800   -0.0000480300
  -0.0001031300   -0.0005187000   -0.0003283000
   0.0000374100    0.0000883500    0.0000800600
   0.0000189300   -0.0000237800   -0.0000175100
  -0.0000068800   -0.0000124800    0.0000012400
   0.0008425200    0.0000232400   -0.0009266200
  -0.0005096400    0.0000404500   -0.0002751900
   0.0016625600   -0.0005520100    0.0005765400
   0.0016290600   -0.0005612900    0.0005314700
   0.0016008800   -0.0006148700    0.0006163600
   0.0015604300   -0.0006566300    0.0005712000
   0.0016024400    0.0005384600   -0.0005813500
   0.0016273000    0.0006225000   -0.0005239500
  -0.0010711000    0.0009216200   -0.0035004500
   0.0010038500    0.0003054400    0.0005469800
  -0.0016663700   -0.0004571900   -0.0004021600
  -0.0017322400   -0.0004360900   -0.0005567500
  -0.0016525500   -0.0005210000   -0.0005241600
  -0.0016595900   -0.0005201600   -0.0005326300
  -0.0017497600    0.0002503800    0.0006721900
  -0.0029397100   -0.0004986100    0.0002378100
  -0.0016678400    0.0004565800    0.0005586600
  -0.0016123400    0.0005293600    0.0004156200
  -0.0016492600    0.0003792200   -0.0007319500
  -0.0008150700    0.0007908300    0.0008023800
  -0.0017316700    0.0004839100   -0.0006116300
  -0.0015530100    0.0007223200   -0.0005477500
  -0.0015934100   -0.0006376500    0.0005569700
  -0.0016136800   -0.0006078600    0.0006043900
  -0.0016283300   -0.0005557100    0.0005447000
  -0.0016401500   -0.0005460300    0.0005447700
   0.0017147700    0.0005480600    0.0005577600
   0.0016704600    0.0004979000    0.0004803500
   0.0028278300   -0.0006241200    0.0001686800
   0.0005836500    0.0007685400   -0.0004692400
   0.0016438300   -0.0004915700   -0.0005477500
   0.0016531800   -0.0005202600   -0.0005122600
   0.0017071900   -0.0004571600   -0.0004662100
   0.0016932800   -0.0004649600   -0.0005069200
  -0.0003199800   -0.0018396300   -0.0000328000
  -0.0003208900   -0.0018300800   -0.0000161800
  -0.0003764100   -0.0018186700   -0.0001189700
  -0.0002594100   -0.0017968500    0.0000128800
  -0.0003378800    0.0018410600    0.0000465900
  -0.0003426600    0.0018175900    0.0000256500
  -0.0020143700    0.0009267800    0.0022860100
  -0.0024311100    0.0039991100    0.0000047400
   0.0003127500   -0.0018288800   -0.0001424300
   0.0003449500   -0.0018340300    0.0000010000
   0.0003130600   -0.0018245100   -0.0000198900
   0.0003240200   -0.0018293600   -0.0000109700
   0.0002882200    0.0022054100    0.0000587400
   0.0005566500    0.0019941100    0.0001824600
   0.0004418500    0.0018607700    0.0000636600
   0.0002006500    0.0017732500    0.0001467100
   0.0010672600    0.0010823800    0.0013141800
   0.0010588000    0.0011025400    0.0014066100
   0.0010631000    0.0010352000    0.0013653600
   0.0010296900    0.0009640700    0.0014362200
   0.0009198000   -0.0009274400   -0.0013688600
   0.0011413600   -0.0010195800   -0.0012917000
  -0.0005042600   -0.0005948700   -0.0021434700
   0.0017340000   -0.0013791600   -0.0013043100
  -0.0011321800    0.0010978600   -0.0010765400
  -0.0011631900    0.0011634400   -0.0013187500
  -0.0010982900    0.0011593400   -0.0012769500
  -0.0010991700    0.0011223000   -0.0013044200
  -0.0022686100    0.0009199000   -0.0033331700
  -0.0008680000   -0.0011251800    0.0012864700
  -0.0013412900   -0.0009898900    0.0012469900
  -0.0009818200   -0.0010481200    0.0012764700
  -0.0007895400   -0.0030921000   -0.0054451900
  -0.0008216900   -0.0009693600   -0.0014066800
  -0.0010576700   -0.0011631000   -0.0013418200
  -0.0009967900   -0.0010666600   -0.0013714200
  -0.0010956300    0.0009642800    0.0013740400
  -0.0009682800    0.0010366100    0.0014507200
  -0.0010859300    0.0010807100    0.0013388300
  -0.0010657100    0.0010879100    0.0013319700
   0.0011496500   -0.0011855200    0.0012862400
   0.0011215700   -0.0011431400    0.0012550600
   0.0014091300   -0.0025171200   -0.0003870000
   0.0019430300   -0.0013281700    0.0008145300
   0.0011242000    0.0010875900   -0.0012740400
   0.0011066700    0.0011222800   -0.0012863200
   0.0012747200    0.0012590600   -0.0012314400
   0.0010210800    0.0011913400   -0.0011724400

1    
  0.0000000000000000   0.0100000000000000   0.0000000000000000
  -0.0015578100   -0.0155585600   -0.0000006600
   0.0003884800   -0.0010132000    0.0000000000
   0.0002957000    0.0000413900    0.0000006900
   0.0002952200   -0.0000394500    0.0000000000
   0.0002253800    0.0002472600    0.0000000000
   0.0003248500    0.0002472100    0.0000000000
   0.0002261300    0.0004848100    0.0000000000
   0.0002105800    0.0004848500    0.0000000000
  -0.0008097900    0.0015655700   -0.0000000100
   0.0001520000   -0.0001339400   -0.0000000100
  -0.0000154500    0.0015897300   -0.0000000100
  -0.0002873500   -0.0001342400   -0.0000000000
  -0.0002442300    0.0004810000   -0.0000000000
  -0.0002076000    0.0005568400   -0.0000000000
  -0.0002511700    0.0001439100    0.0000000000
  -0.0002983000    0.0001247200   -0.0000000000
  -0.0000327500    0.0002973400    0.0000168500
  -0.0000179900    0.0001999500    0.0000489600
  -0.0001393200   -0.0011226300   -0.0002630300
   0.0002074900   -0.0003953600   -0.0002821000
  -0.0004662100    0.0002251800    0.0003730800
   0.0003087300    0.0000441700    0.0003262700
   0.0001259600    0.0005204200   -0.0002850000
   0.0000046700    0.0001436800   -0.0001116100
  -0.0004662100    0.0002251800   -0.0003730800
   0.0003087300    0.0000441700   -0.0003262800
   0.0001259600    0.0005204200    0.0002850000
   0.0000046700    0.0001436800    0.0001116100
  -0.0000327400    0.0002973400   -0.0000168500
  -0.0000179900    0.0001999500   -0.0000489600
  -0.0001393100   -0.0011226300    0.0002630200
   0.0002075000   -0.0003953600    0.0002821000
   0.0016705100   -0.0005429000    0.0004073500
   0.0016355600   -0.0005880600    0.0005380500
   0.0016998700   -0.0004487500    0.0005152300
   0.0017118900   -0.0003876100    0.0005176900
   0.0015569200    0.0004834700   -0.0004292600
   0.0015995200    0.0004652700   -0.0005373000
   0.0035558000   -0.0003573600   -0.0002827900
   0.0015814800    0.0001315800    0.0002716500
  -0.0015460600   -0.0006252500   -0.0006352300
  -0.0015641500   -0.0006251200   -0.0005628300
  -0.0017057400   -0.0005262200   -0.0005487400
  -0.0016864300   -0.0005410000   -0.0005403900
  -0.0017372500    0.0005992300    0.0008624700
  -0.0008892500    0.0020011100    0.0001326000
  -0.0015126200    0.0005312000    0.0004459200
  -0.0015230000    0.0004612500    0.0004839900
  -0.0017372500    0.0005992400   -0.0008626100
  -0.0008892600    0.0020011100   -0.0001327300
  -0.0015126200    0.0005312100   -0.0004460500
  -0.0015230000    0.0004612500   -0.0004841200
  -0.0015460700   -0.0006252600    0.0006352700
  -0.0015641500   -0.0006251300    0.0005628800
  -0.0017057400   -0.0005262400    0.0005488000
  -0.0016864300   -0.0005410100    0.0005404400
   0.0015569200    0.0004834500    0.0004292000
   0.0015995100    0.0004652600    0.0005372500
   0.0035558000   -0.0003573700    0.0002827400
   0.0015814800    0.0001315700   -0.0002717000
   0.0016705100   -0.0005428900   -0.0004072200
   0.0016355600   -0.0005880500   -0.0005379100
   0.0016998700   -0.0004487400   -0.0005151000
   0.0017118900   -0.0003876000   -0.0005175700
  -0.0003575900   -0.0018009400    0.0000000200
  -0.0002946700   -0.0017547700    0.0000000300
  -0.0002850100   -0.0019748800    0.0000000100
  -0.0004633700   -0.0019814800    0.0000000200
  -0.0001817900    0.0017950000    0.0000000900
  -0.0002180200    0.0019090400    0.0000000900
   0.0000114400    0.0030946800    0.0000000900
  -0.0041241500    0.0048143000    0.0000000900
   0.0003110200   -0.0016973100   -0.0000000900
   0.0001456200   -0.0017274800   -0.0000000900
   0.0003947600   -0.0018444800   -0.0000000900
   0.0003742700   -0.0018399000   -0.0000000900
   0.0000281800    0.0015377300   -0.0000000100
   0.0002361700    0.0010094500   -0.0000000200
   0.0001346500    0.0018256100   -0.0000000200
   0.0002196600    0.0018042800   -0.0000000200
   0.0011001600    0.0010698700    0.0012776400
   0.0010505700    0.0009789700    0.0011659900
   0.0010267800    0.0009841400    0.0013760500
   0.0011325500    0.0010686500    0.0014208700
   0.0011730500   -0.0014592000   -0.0013497800
   0.0009511600   -0.0013496000   -0.0013760500
   0.0007599900    0.0008665600   -0.0013079700
   0.0016335000   -0.0010438000   -0.0008605800
  -0.0010350700    0.0014037300   -0.0013020100
  -0.0011490000    0.0013999500   -0.0013165600
  -0.0010871700    0.0009130100   -0.0013306900
  -0.0011017200    0.0009306900   -0.0013143600
  -0.0013087100    0.0016948400   -0.0017684400
  -0.0010251000   -0.0007097200    0.0015251800
  -0.0009972500   -0.0014544200    0.0012654300
  -0.0011502100   -0.0013653500    0.0012690900
  -0.0013087200    0.0016948000    0.0017686000
  -0.0010251200   -0.0007097700   -0.0015250200
  -0.0009972700   -0.0014544600   -0.0012652700
  -0.0011502300   -0.0013653900   -0.0012689400
  -0.0010350600    0.0014037000    0.0013020600
  -0.0011489900    0.0013999200    0.0013166100
  -0.0010871600    0.0009129800    0.0013307400
  -0.0011017100    0.0009306600    0.0013144000
   0.0011730500   -0.0014592300    0.0013497300
   0.0009511700   -0.0013496300    0.0013760000
   0.0007599900    0.0008665300    0.0013079200
   0.0016335000   -0.0010438300    0.0008605300
   0.0011001400    0.0010698300   -0.0012778000
   0.0010505600    0.0009789300   -0.0011661400
   0.0010267700    0.0009841000   -0.0013762000
   0.0011325300    0.0010686100   -0.0014210200

1    
 -0.0000000000000000  -0.0100000000000000  -0.0000000000000000
   0.0020979200    0.0149567700    0.0000006600
   0.0001090000    0.0003227000    0.0000000000
   0.0002011200   -0.0007324000   -0.0000006900
   0.0002014700   -0.0006526600    0.0000000000
   0.0002712800    0.0004447400    0.0000000000
   0.0001720500    0.0004446800    0.0000000000
   0.0002707800    0.0002068300    0.0000000100
   0.0002861600    0.0002069000    0.0000000000
   0.0003160600   -0.0022815900    0.0000000100
  -0.0006490700   -0.0005583200   -0.0000000100
  -0.0004745600   -0.0022574700    0.0000000000
  -0.0002091300   -0.0005585800   -0.0000000000
  -0.0002526500    0.0002107500   -0.0000000000
  -0.0002891900    0.0001350600   -0.0000000000
  -0.0002455600    0.0005483400    0.0000000000
  -0.0001985800    0.0005666400   -0.0000000000
   0.0000326600   -0.0002972200   -0.0000171400
   0.0000179800   -0.0002001300   -0.0000490900
   0.0001400400    0.0011225900    0.0002678400
  -0.0002081200    0.0003962700    0.0002824900
   0.0004653900   -0.0002253200   -0.0003738400
  -0.0003086800   -0.0000443500   -0.0003268500
  -0.0001258600   -0.0005216300    0.0002856300
  -0.0000051100   -0.0001440100    0.0001115100
   0.0004653900   -0.0002253200    0.0003738500
  -0.0003086800   -0.0000443500    0.0003268500
  -0.0001258600   -0.0005216300   -0.0002856400
  -0.0000051100   -0.0001440100   -0.0001115000
   0.0000326600   -0.0002972200    0.0000171300
   0.0000179700   -0.0002001400    0.0000490900
   0.0001400400    0.0011225900   -0.0002678400
  -0.0002081200    0.0003962700   -0.0002824900
   0.0016265500   -0.0005319700    0.0006661300
   0.0016611700   -0.0004870800    0.0005359400
   0.0015969000   -0.0006265400    0.0005588400
   0.0015845800   -0.0006878700    0.0005562700
   0.0017400500    0.0005916100   -0.0006447500
   0.0016972000    0.0006101100   -0.0005364200
  -0.0002593700    0.0014214000   -0.0007916800
   0.0017215800    0.0009462100   -0.0013501300
  -0.0017506200   -0.0004499700   -0.0004381200
  -0.0017328300   -0.0004497300   -0.0005107500
  -0.0015910000   -0.0005488800   -0.0005249600
  -0.0016103400   -0.0005340900   -0.0005333200
  -0.0015592100    0.0004749300    0.0002085600
  -0.0023997500   -0.0009358700    0.0009254900
  -0.0017843300    0.0005439500    0.0006275500
  -0.0017725300    0.0006135200    0.0005900800
  -0.0015592100    0.0004749400   -0.0002086900
  -0.0023997600   -0.0009358600   -0.0009256200
  -0.0017843300    0.0005439600   -0.0006276700
  -0.0017725300    0.0006135300   -0.0005902100
  -0.0017506300   -0.0004499800    0.0004381700
  -0.0017328400   -0.0004497400    0.0005108000
  -0.0015910100   -0.0005488900    0.0005250100
  -0.0016103400   -0.0005341100    0.0005333700
   0.0017400500    0.0005916000    0.0006447000
   0.0016972000    0.0006100900    0.0005363700
  -0.0002593700    0.0014213800    0.0007916300
   0.0017215800    0.0009461900    0.0013500800
   0.0016265500   -0.0005319600   -0.0006660000
   0.0016611800   -0.0004870700   -0.0005358100
   0.0015969100   -0.0006265300   -0.0005587000
   0.0015845800   -0.0006878600   -0.0005561300
  -0.0002908400   -0.0018501500    0.0000000200
  -0.0003535400   -0.0018962200    0.0000000100
  -0.0003635800   -0.0016761700    0.0000000200
  -0.0001845400   -0.0016691400    0.0000000200
  -0.0004667800    0.0018560200    0.0000000900
  -0.0004303400    0.0017424100    0.0000000900
  -0.0006670600    0.0005547700    0.0000000900
   0.0034003100   -0.0011453200    0.0000000900
   0.0003370300   -0.0019537500   -0.0000000900
   0.0005028300   -0.0019236300   -0.0000000900
   0.0002533900   -0.0018064800   -0.0000000900
   0.0002739400   -0.0018111000   -0.0000000900
   0.0006208000    0.0021178200   -0.0000000200
   0.0003989600    0.0026525700   -0.0000000200
   0.0005137100    0.0018257700   -0.0000000200
   0.0004278000    0.0018470800   -0.0000000200
   0.0010752900    0.0011235100    0.0013449700
   0.0011245700    0.0012143000    0.0014567400
   0.0011489900    0.0012094200    0.0012458600
   0.0010428600    0.0011247600    0.0012016800
   0.0010023700   -0.0007331700   -0.0012724600
   0.0012243500   -0.0008432200   -0.0012464100
   0.0014429100   -0.0030016900   -0.0013727800
   0.0005407900   -0.0011498000   -0.0017631300
  -0.0011404100    0.0007894400   -0.0013204400
  -0.0010261200    0.0007928300   -0.0013061400
  -0.0010882500    0.0012805400   -0.0012919000
  -0.0010736200    0.0012627300   -0.0013082700
  -0.0008842200   -0.0039888000    0.0045238600
  -0.0011519300   -0.0014841500    0.0010964100
  -0.0011784400   -0.0007385500    0.0013569800
  -0.0010250400   -0.0008272300    0.0013534900
  -0.0008842400   -0.0039888300   -0.0045237000
  -0.0011519500   -0.0014841900   -0.0010962600
  -0.0011784500   -0.0007385900   -0.0013568200
  -0.0010250500   -0.0008272700   -0.0013533400
  -0.0011404100    0.0007894100    0.0013204900
  -0.0010261100    0.0007928000    0.0013061800
  -0.0010882500    0.0012805100    0.0012919500
  -0.0010736100    0.0012627000    0.0013083200
   0.0010023900   -0.0007332000    0.0012724100
   0.0012243500   -0.0008432500    0.0012463600
   0.0014429200   -0.0030017200    0.0013727300
   0.0005408000   -0.0011498300    0.0017630900
   0.0010752800    0.0011234800   -0.0013451200
   0.0011245500    0.0012142600   -0.0014568900
   0.0011489800    0.0012093800   -0.0012460200
   0.0010428400    0.0011247300   -0.0012018400

17   
  0.0100000000000000   0.0000000000000000   0.0000000000000000
   0.0002411200   -0.0003784900    0.0000185500
   0.0002539500   -0.0003636800   -0.0000042900
  -0.0002098700   -0.0004865400    0.0007151800
   0.0008451800   -0.0001384200   -0.0001757500
   0.0002081500    0.0003410800   -0.0000162300
   0.0003081600    0.0002191200    0.0000855100
   0.0004045500    0.0000365600   -0.0001218800
  -0.0000055000    0.0008111900    0.0003136800
  -0.0005026100    0.0001205200    0.0003138700
  -0.0000931300   -0.0006540000   -0.0001214900
  -0.0001898500   -0.0004709100    0.0000833200
  -0.0002888900   -0.0003508800   -0.0000161800
   0.0003487300    0.0005537800   -0.0001762600
  -0.0007043900    0.0002072000    0.0007178700
  -0.0002437300    0.0003278100   -0.0000042800
  -0.0002563500    0.0003130600    0.0000187200
  -0.0133485100    0.0008352300   -0.0032893800
   0.0008435600    0.0001891100   -0.0000470100
  -0.0000110500   -0.0000229600   -0.0000680900
   0.0000043100   -0.0000249900   -0.0000282500
   0.0001162800    0.0005382400   -0.0003397000
   0.0001172000   -0.0004501000    0.0000551900
   0.0001155000   -0.0004515500    0.0000572800
   0.0001164400    0.0005367100   -0.0003396100
  -0.0000034900    0.0001075300    0.0001167500
  -0.0000031700   -0.0001446400   -0.0000266000
  -0.0000036100   -0.0001450400   -0.0000270500
  -0.0000032800    0.0001072500    0.0001163800
  -0.0005010900    0.0000338300   -0.0000674900
   0.0003985200    0.0001181800    0.0000814900
   0.0000054300   -0.0000337900    0.0000306100
  -0.0000048200   -0.0000186200    0.0000346000
   0.0016823300   -0.0004932300    0.0003561100
   0.0016618200   -0.0004940800    0.0006041800
   0.0016129500   -0.0005750100    0.0005081800
   0.0017094000   -0.0004969000    0.0005937200
   0.0015158800    0.0008109100   -0.0007447200
   0.0018845100    0.0001664700    0.0004026300
   0.0016508900    0.0005533400   -0.0005436500
   0.0016411600    0.0005765000   -0.0005430200
  -0.0016600100   -0.0005240900   -0.0005412700
  -0.0016287000   -0.0005204800   -0.0005336100
   0.0016194100   -0.0003437500   -0.0023079100
   0.0000736400   -0.0016533200   -0.0000382500
  -0.0015397300    0.0006571500    0.0005117100
  -0.0017481500    0.0004141300    0.0005590200
  -0.0016070100    0.0005997200    0.0004303000
  -0.0020753900    0.0009200900    0.0003448700
  -0.0015863200    0.0005772600   -0.0004800200
  -0.0016826800    0.0004989500   -0.0005652300
  -0.0016339200    0.0005804800   -0.0004700900
  -0.0016130700    0.0005802700   -0.0007164400
  -0.0016546800   -0.0004975100    0.0005305600
  -0.0016448800   -0.0005208100    0.0005298200
  -0.0014114300   -0.0009093800    0.0014776700
  -0.0017805500   -0.0002645300    0.0003302600
   0.0033737600   -0.0005687600    0.0010415900
   0.0048417600    0.0007463000   -0.0011586000
   0.0016666200    0.0005536000    0.0005397600
   0.0016358300    0.0005500400    0.0005323000
   0.0012179800   -0.0001610300   -0.0007254400
   0.0016891700   -0.0004741600   -0.0006435100
   0.0015473800   -0.0006596200   -0.0005146200
   0.0017561500   -0.0004168200   -0.0005617300
  -0.0001107300   -0.0016113300   -0.0000534800
  -0.0004107000   -0.0018954800    0.0000454400
  -0.0001990400   -0.0017996100    0.0000345100
  -0.0004787200   -0.0018630400   -0.0000277500
  -0.0008527400    0.0019133600   -0.0000347100
  -0.0015182300    0.0013305700   -0.0012369700
  -0.0003394500    0.0018234300    0.0000085600
  -0.0003208100    0.0017743600   -0.0000009600
   0.0003273800   -0.0018775700   -0.0000010300
   0.0003084300   -0.0018282600    0.0000084500
  -0.0008735100   -0.0023203200   -0.0012372900
  -0.0002117200   -0.0017361000   -0.0000406000
   0.0001692600    0.0017885900   -0.0000277800
   0.0004487600    0.0018523400    0.0000341000
   0.0002370000    0.0017558600    0.0000454300
   0.0005363400    0.0020398600   -0.0000556200
   0.0008322800    0.0009569600    0.0013559500
   0.0035356800   -0.0010015800    0.0030423000
   0.0009028600    0.0011139800    0.0013211300
   0.0013222100    0.0010420800    0.0013422700
   0.0023922100    0.0010091500   -0.0001804100
   0.0006534200   -0.0008712900   -0.0007160300
   0.0010623300   -0.0010311800   -0.0013027200
   0.0011108000   -0.0010964400   -0.0012805900
  -0.0010721600    0.0011065000   -0.0013244500
  -0.0010865200    0.0011278000   -0.0013320000
  -0.0014869400    0.0013912100   -0.0012088200
  -0.0007757000    0.0008560300   -0.0015164200
  -0.0009971600   -0.0010582500    0.0012868400
  -0.0011879500   -0.0011016800    0.0012783500
  -0.0010610800   -0.0011444400    0.0012081900
  -0.0011982800   -0.0011612000    0.0012710200
  -0.0008520000   -0.0011520400   -0.0012785300
  -0.0012708500   -0.0010805200   -0.0012999000
   0.0013595300   -0.0032281000    0.0004429300
  -0.0013411800   -0.0012356500   -0.0012656400
  -0.0010629400    0.0010974800    0.0013407600
  -0.0011124900    0.0011640300    0.0013188900
  -0.0015151600    0.0013236100    0.0019074300
   0.0001445100    0.0031402400    0.0023759900
   0.0013977500   -0.0013384000    0.0011043900
   0.0006879700   -0.0008042800    0.0014115500
   0.0010875000   -0.0010662300    0.0012894000
   0.0011016500   -0.0010873800    0.0012968400
   0.0009753500    0.0010322200   -0.0013508900
   0.0011124200    0.0010483400   -0.0014147600
   0.0009859400    0.0010926500   -0.0013430300
   0.0011765800    0.0011362100   -0.0013343600

17   
  0.0000000000000000   0.0100000000000000   0.0000000000000000
   0.0002987800   -0.0000485000    0.0000094200
   0.0002650300   -0.0001460400   -0.0000027400
  -0.0000744400   -0.0014671400   -0.0002282900
   0.0002717300   -0.0007411900    0.0000699500
   0.0004283000    0.0004896700   -0.0000299300
  -0.0000501500    0.0008669600   -0.0004253000
   0.0002251000    0.0003907500    0.0000356100
   0.0002717700    0.0005716900    0.0002062100
  -0.0002238800   -0.0001213000    0.0002056600
  -0.0002722200   -0.0003023000    0.0000353900
  -0.0005460100    0.0001749800   -0.0004257700
  -0.0000695100   -0.0002020100   -0.0000299200
  -0.0002259400   -0.0000505600    0.0000700500
  -0.0005696100   -0.0007781300   -0.0002238700
  -0.0002318200    0.0005460200   -0.0000027500
  -0.0001984600    0.0006430200    0.0000092100
   0.0008361500   -0.0148351100    0.0029129200
   0.0001890700   -0.0003529000   -0.0003166000
  -0.0000229200    0.0003763600    0.0000170500
  -0.0000250400    0.0001901500    0.0000608700
   0.0004523300    0.0004304300    0.0000569100
  -0.0005389500    0.0004307700    0.0002363200
  -0.0005360100    0.0004294400    0.0002370700
   0.0004493700    0.0004297500    0.0000553700
   0.0001450900    0.0000821800   -0.0000576500
  -0.0001076900    0.0000821400   -0.0000372800
  -0.0001070700    0.0000825800   -0.0000370800
   0.0001446100    0.0000825500   -0.0000573900
   0.0000338800   -0.0004891800    0.0000200800
   0.0001181200   -0.0002615700    0.0001765200
  -0.0000337500    0.0002426900   -0.0000171400
  -0.0000186600    0.0001648900   -0.0000445300
   0.0015074100   -0.0007456100    0.0008730500
   0.0016344500   -0.0004150800    0.0004492000
   0.0016808900   -0.0004732000    0.0004522800
   0.0016948500   -0.0005633000    0.0005749200
   0.0015481000    0.0006322400   -0.0005998500
   0.0016393200    0.0005069800   -0.0007084100
   0.0016101900    0.0005110200   -0.0004797200
   0.0016185500    0.0004617400   -0.0005158200
  -0.0017168100   -0.0005461000   -0.0005309300
  -0.0017607700   -0.0005834100   -0.0006111600
  -0.0014827000   -0.0008353000   -0.0011084200
  -0.0009850300   -0.0020571700   -0.0006802500
  -0.0015947300    0.0005079800    0.0004887800
  -0.0016270000    0.0005712600    0.0004394700
  -0.0016337900    0.0006830500    0.0006648400
  -0.0004509400    0.0020340200    0.0003400700
  -0.0016017600    0.0005117400   -0.0004991900
  -0.0016156200    0.0006029400   -0.0006222800
  -0.0016617400    0.0006598700   -0.0006245700
  -0.0017877100    0.0003289800   -0.0002011500
  -0.0016777800   -0.0006133200    0.0005578400
  -0.0016862500   -0.0005639700    0.0005943700
  -0.0016581800   -0.0005674500    0.0003617500
  -0.0017478800   -0.0004428200    0.0004748400