phonopy:
  version: "2.22.0"
  frequency_unit_conversion_factor: 15.633302
  symmetry_tolerance: 1.00000e-05
  configuration:
    create_displacements: ".true."
    dim: "2 2 1"

physical_unit:
  atomic_mass: "AMU"
  length: "angstrom"
  force_constants: "eV/angstrom^2"

space_group:
  type: "Pnma"
  number: 62
  Hall_symbol: "-P 2ac 2n"

supercell_matrix:
- [   2,   0,   0 ]
- [   0,   2,   0 ]
- [   0,   0,   1 ]

primitive_cell:
  lattice:
  - [     5.886634639184869,     0.000000000000000,     0.000000000000000 ] # a
  - [     0.000000000000001,     7.839453708189184,     0.000000000000001 ] # b
  - [     0.000000000000000,     0.000000000000000,    14.784683198339657 ] # c
  points:
  - symbol: Na # 1
    coordinates: [  0.199913168882720,  0.949882153112032,  0.750000000000000 ]
    mass: 22.989769
  - symbol: Na # 2
    coordinates: [  0.699913168882721,  0.550117846887968,  0.250000000000000 ]
    mass: 22.989769
  - symbol: Na # 3
    coordinates: [  0.300086831117280,  0.449882153112032,  0.750000000000000 ]
    mass: 22.989769
  - symbol: Na # 4
    coordinates: [  0.800086831117279,  0.050117846887968,  0.250000000000000 ]
    mass: 22.989769
  - symbol: Na # 5
    coordinates: [  0.000000000000000,  0.000000000000000,  0.500000000000000 ]
    mass: 22.989769
  - symbol: Na # 6
    coordinates: [  0.500000000000000,  0.500000000000000,  0.500000000000000 ]
    mass: 22.989769
  - symbol: Na # 7
    coordinates: [  0.500000000000000,  0.500000000000000,  0.000000000000000 ]
    mass: 22.989769
  - symbol: Na # 8
    coordinates: [  0.000000000000000,  0.000000000000000,  0.000000000000000 ]
    mass: 22.989769
  - symbol: S  # 9
    coordinates: [  0.106009508311722,  0.449686635203151,  0.135455098344625 ]
    mass: 32.065000
  - symbol: S  # 10
    coordinates: [  0.606009508311722,  0.050313364796850,  0.864544901655376 ]
    mass: 32.065000
  - symbol: S  # 11
    coordinates: [  0.393990491688278,  0.949686635203150,  0.364544901655376 ]
    mass: 32.065000
  - symbol: S  # 12
    coordinates: [  0.893990491688278,  0.550313364796850,  0.635455098344624 ]
    mass: 32.065000
  - symbol: S  # 13
    coordinates: [  0.893990491688278,  0.550313364796850,  0.864544901655376 ]
    mass: 32.065000
  - symbol: S  # 14
    coordinates: [  0.393990491688278,  0.949686635203150,  0.135455098344625 ]
    mass: 32.065000
  - symbol: S  # 15
    coordinates: [  0.606009508311722,  0.050313364796850,  0.635455098344624 ]
    mass: 32.065000
  - symbol: S  # 16
    coordinates: [  0.106009508311722,  0.449686635203151,  0.364544901655376 ]
    mass: 32.065000
  - symbol: S  # 17
    coordinates: [  0.266478928110437,  0.352499451438627,  0.250000000000000 ]
    mass: 32.065000
  - symbol: S  # 18
    coordinates: [  0.766478928110437,  0.147500548561373,  0.750000000000000 ]
    mass: 32.065000
  - symbol: S  # 19
    coordinates: [  0.233521071889563,  0.852499451438627,  0.250000000000000 ]
    mass: 32.065000
  - symbol: S  # 20
    coordinates: [  0.733521071889563,  0.647500548561373,  0.750000000000000 ]
    mass: 32.065000
  - symbol: S  # 21
    coordinates: [  0.834596239678242,  0.292630133690378,  0.396541646385598 ]
    mass: 32.065000
  - symbol: S  # 22
    coordinates: [  0.334596239678241,  0.207369866309622,  0.603458353614403 ]
    mass: 32.065000
  - symbol: S  # 23
    coordinates: [  0.665403760321758,  0.792630133690378,  0.103458353614403 ]
    mass: 32.065000
  - symbol: S  # 24
    coordinates: [  0.165403760321758,  0.707369866309622,  0.896541646385597 ]
    mass: 32.065000
  - symbol: S  # 25
    coordinates: [  0.165403760321758,  0.707369866309622,  0.603458353614403 ]
    mass: 32.065000
  - symbol: S  # 26
    coordinates: [  0.665403760321758,  0.792630133690378,  0.396541646385598 ]
    mass: 32.065000
  - symbol: S  # 27
    coordinates: [  0.334596239678241,  0.207369866309622,  0.896541646385597 ]
    mass: 32.065000
  - symbol: S  # 28
    coordinates: [  0.834596239678242,  0.292630133690378,  0.103458353614403 ]
    mass: 32.065000
  reciprocal_lattice: # without 2pi
  - [     0.169876348931768,    -0.000000000000000,     0.000000000000000 ] # a*
  - [     0.000000000000000,     0.127559908792546,     0.000000000000000 ] # b*
  - [    -0.000000000000000,    -0.000000000000000,     0.067637566972845 ] # c*

unit_cell:
  lattice:
  - [     5.886634639184869,     0.000000000000000,     0.000000000000000 ] # a
  - [     0.000000000000001,     7.839453708189184,     0.000000000000001 ] # b
  - [     0.000000000000000,     0.000000000000000,    14.784683198339657 ] # c
  points:
  - symbol: Na # 1
    coordinates: [  0.199913168882720,  0.949882153112032,  0.750000000000000 ]
    mass: 22.989769
    reduced_to: 1
  - symbol: Na # 2
    coordinates: [  0.699913168882721,  0.550117846887968,  0.250000000000000 ]
    mass: 22.989769
    reduced_to: 2
  - symbol: Na # 3
    coordinates: [  0.300086831117280,  0.449882153112032,  0.750000000000000 ]
    mass: 22.989769
    reduced_to: 3
  - symbol: Na # 4
    coordinates: [  0.800086831117279,  0.050117846887968,  0.250000000000000 ]
    mass: 22.989769
    reduced_to: 4
  - symbol: Na # 5
    coordinates: [  0.000000000000000, -0.000000000000000,  0.500000000000000 ]
    mass: 22.989769
    reduced_to: 5
  - symbol: Na # 6
    coordinates: [  0.500000000000000,  0.500000000000000,  0.500000000000000 ]
    mass: 22.989769
    reduced_to: 6
  - symbol: Na # 7
    coordinates: [  0.500000000000000,  0.500000000000000,  0.000000000000000 ]
    mass: 22.989769
    reduced_to: 7
  - symbol: Na # 8
    coordinates: [  0.000000000000000, -0.000000000000000,  0.000000000000000 ]
    mass: 22.989769
    reduced_to: 8
  - symbol: S  # 9
    coordinates: [  0.106009508311722,  0.449686635203151,  0.135455098344625 ]
    mass: 32.065000
    reduced_to: 9
  - symbol: S  # 10
    coordinates: [  0.606009508311722,  0.050313364796850,  0.864544901655376 ]
    mass: 32.065000
    reduced_to: 10
  - symbol: S  # 11
    coordinates: [  0.393990491688278,  0.949686635203150,  0.364544901655376 ]
    mass: 32.065000
    reduced_to: 11
  - symbol: S  # 12
    coordinates: [  0.893990491688278,  0.550313364796850,  0.635455098344624 ]
    mass: 32.065000
    reduced_to: 12
  - symbol: S  # 13
    coordinates: [  0.893990491688278,  0.550313364796850,  0.864544901655376 ]
    mass: 32.065000
    reduced_to: 13
  - symbol: S  # 14
    coordinates: [  0.393990491688278,  0.949686635203150,  0.135455098344625 ]
    mass: 32.065000
    reduced_to: 14
  - symbol: S  # 15
    coordinates: [  0.606009508311722,  0.050313364796850,  0.635455098344624 ]
    mass: 32.065000
    reduced_to: 15
  - symbol: S  # 16
    coordinates: [  0.106009508311722,  0.449686635203151,  0.364544901655376 ]
    mass: 32.065000
    reduced_to: 16
  - symbol: S  # 17
    coordinates: [  0.266478928110437,  0.352499451438627,  0.250000000000000 ]
    mass: 32.065000
    reduced_to: 17
  - symbol: S  # 18
    coordinates: [  0.766478928110437,  0.147500548561373,  0.750000000000000 ]
    mass: 32.065000
    reduced_to: 18
  - symbol: S  # 19
    coordinates: [  0.233521071889563,  0.852499451438627,  0.250000000000000 ]
    mass: 32.065000
    reduced_to: 19
  - symbol: S  # 20
    coordinates: [  0.733521071889563,  0.647500548561373,  0.750000000000000 ]
    mass: 32.065000
    reduced_to: 20
  - symbol: S  # 21
    coordinates: [  0.834596239678242,  0.292630133690378,  0.396541646385598 ]
    mass: 32.065000
    reduced_to: 21
  - symbol: S  # 22
    coordinates: [  0.334596239678241,  0.207369866309622,  0.603458353614403 ]
    mass: 32.065000
    reduced_to: 22
  - symbol: S  # 23
    coordinates: [  0.665403760321758,  0.792630133690378,  0.103458353614403 ]
    mass: 32.065000
    reduced_to: 23
  - symbol: S  # 24
    coordinates: [  0.165403760321758,  0.707369866309622,  0.896541646385597 ]
    mass: 32.065000
    reduced_to: 24
  - symbol: S  # 25
    coordinates: [  0.165403760321758,  0.707369866309622,  0.603458353614403 ]
    mass: 32.065000
    reduced_to: 25
  - symbol: S  # 26
    coordinates: [  0.665403760321758,  0.792630133690378,  0.396541646385598 ]
    mass: 32.065000
    reduced_to: 26
  - symbol: S  # 27
    coordinates: [  0.334596239678241,  0.207369866309622,  0.896541646385597 ]
    mass: 32.065000
    reduced_to: 27
  - symbol: S  # 28
    coordinates: [  0.834596239678242,  0.292630133690378,  0.103458353614403 ]
    mass: 32.065000
    reduced_to: 28

supercell:
  lattice:
  - [    11.773269278369739,     0.000000000000000,     0.000000000000001 ] # a
  - [     0.000000000000002,    15.678907416378367,     0.000000000000001 ] # b
  - [     0.000000000000000,     0.000000000000000,    14.784683198339657 ] # c
  points:
  - symbol: Na # 1
    coordinates: [  0.099956584441360,  0.474941076556016,  0.750000000000000 ]
    mass: 22.989769
    reduced_to: 1
  - symbol: Na # 2
    coordinates: [  0.599956584441360,  0.474941076556016,  0.750000000000000 ]
    mass: 22.989769
    reduced_to: 1
  - symbol: Na # 3
    coordinates: [  0.099956584441360,  0.974941076556016,  0.750000000000000 ]
    mass: 22.989769
    reduced_to: 1
  - symbol: Na # 4
    coordinates: [  0.599956584441360,  0.974941076556016,  0.750000000000000 ]
    mass: 22.989769
    reduced_to: 1
  - symbol: Na # 5
    coordinates: [  0.349956584441361,  0.275058923443984,  0.250000000000000 ]
    mass: 22.989769
    reduced_to: 5
  - symbol: Na # 6
    coordinates: [  0.849956584441361,  0.275058923443984,  0.250000000000000 ]
    mass: 22.989769
    reduced_to: 5
  - symbol: Na # 7
    coordinates: [  0.349956584441361,  0.775058923443984,  0.250000000000000 ]
    mass: 22.989769
    reduced_to: 5
  - symbol: Na # 8
    coordinates: [  0.849956584441361,  0.775058923443984,  0.250000000000000 ]
    mass: 22.989769
    reduced_to: 5
  - symbol: Na # 9
    coordinates: [  0.150043415558640,  0.224941076556016,  0.750000000000000 ]
    mass: 22.989769
    reduced_to: 9
  - symbol: Na # 10
    coordinates: [  0.650043415558640,  0.224941076556016,  0.750000000000000 ]
    mass: 22.989769
    reduced_to: 9
  - symbol: Na # 11
    coordinates: [  0.150043415558640,  0.724941076556016,  0.750000000000000 ]
    mass: 22.989769
    reduced_to: 9
  - symbol: Na # 12
    coordinates: [  0.650043415558640,  0.724941076556016,  0.750000000000000 ]
    mass: 22.989769
    reduced_to: 9
  - symbol: Na # 13
    coordinates: [  0.400043415558639,  0.025058923443984,  0.250000000000000 ]
    mass: 22.989769
    reduced_to: 13
  - symbol: Na # 14
    coordinates: [  0.900043415558639,  0.025058923443984,  0.250000000000000 ]
    mass: 22.989769
    reduced_to: 13
  - symbol: Na # 15
    coordinates: [  0.400043415558639,  0.525058923443984,  0.250000000000000 ]
    mass: 22.989769
    reduced_to: 13
  - symbol: Na # 16
    coordinates: [  0.900043415558639,  0.525058923443984,  0.250000000000000 ]
    mass: 22.989769
    reduced_to: 13
  - symbol: Na # 17
    coordinates: [  0.000000000000000,  0.000000000000000,  0.500000000000000 ]
    mass: 22.989769
    reduced_to: 17
  - symbol: Na # 18
    coordinates: [  0.500000000000000,  0.000000000000000,  0.500000000000000 ]
    mass: 22.989769
    reduced_to: 17
  - symbol: Na # 19
    coordinates: [  0.000000000000000,  0.500000000000000,  0.500000000000000 ]
    mass: 22.989769
    reduced_to: 17
  - symbol: Na # 20
    coordinates: [  0.500000000000000,  0.500000000000000,  0.500000000000000 ]
    mass: 22.989769
    reduced_to: 17
  - symbol: Na # 21
    coordinates: [  0.250000000000000,  0.250000000000000,  0.500000000000000 ]
    mass: 22.989769
    reduced_to: 21
  - symbol: Na # 22
    coordinates: [  0.750000000000000,  0.250000000000000,  0.500000000000000 ]
    mass: 22.989769
    reduced_to: 21
  - symbol: Na # 23
    coordinates: [  0.250000000000000,  0.750000000000000,  0.500000000000000 ]
    mass: 22.989769
    reduced_to: 21
  - symbol: Na # 24
    coordinates: [  0.750000000000000,  0.750000000000000,  0.500000000000000 ]
    mass: 22.989769
    reduced_to: 21
  - symbol: Na # 25
    coordinates: [  0.250000000000000,  0.250000000000000,  0.000000000000000 ]
    mass: 22.989769
    reduced_to: 25
  - symbol: Na # 26
    coordinates: [  0.750000000000000,  0.250000000000000,  0.000000000000000 ]
    mass: 22.989769
    reduced_to: 25
  - symbol: Na # 27
    coordinates: [  0.250000000000000,  0.750000000000000,  0.000000000000000 ]
    mass: 22.989769
    reduced_to: 25
  - symbol: Na # 28
    coordinates: [  0.750000000000000,  0.750000000000000,  0.000000000000000 ]
    mass: 22.989769
    reduced_to: 25
  - symbol: Na # 29
    coordinates: [  0.000000000000000,  0.000000000000000,  0.000000000000000 ]
    mass: 22.989769
    reduced_to: 29
  - symbol: Na # 30
    coordinates: [  0.500000000000000,  0.000000000000000,  0.000000000000000 ]
    mass: 22.989769
    reduced_to: 29
  - symbol: Na # 31
    coordinates: [  0.000000000000000,  0.500000000000000,  0.000000000000000 ]
    mass: 22.989769
    reduced_to: 29
  - symbol: Na # 32
    coordinates: [  0.500000000000000,  0.500000000000000,  0.000000000000000 ]
    mass: 22.989769
    reduced_to: 29
  - symbol: S  # 33
    coordinates: [  0.053004754155861,  0.224843317601575,  0.135455098344625 ]
    mass: 32.065000
    reduced_to: 33
  - symbol: S  # 34
    coordinates: [  0.553004754155861,  0.224843317601575,  0.135455098344625 ]
    mass: 32.065000
    reduced_to: 33
  - symbol: S  # 35
    coordinates: [  0.053004754155861,  0.724843317601575,  0.135455098344625 ]
    mass: 32.065000
    reduced_to: 33
  - symbol: S  # 36
    coordinates: [  0.553004754155861,  0.724843317601575,  0.135455098344625 ]
    mass: 32.065000
    reduced_to: 33
  - symbol: S  # 37
    coordinates: [  0.303004754155861,  0.025156682398425,  0.864544901655376 ]
    mass: 32.065000
    reduced_to: 37
  - symbol: S  # 38
    coordinates: [  0.803004754155861,  0.025156682398425,  0.864544901655376 ]
    mass: 32.065000
    reduced_to: 37
  - symbol: S  # 39
    coordinates: [  0.303004754155861,  0.525156682398425,  0.864544901655376 ]
    mass: 32.065000
    reduced_to: 37
  - symbol: S  # 40
    coordinates: [  0.803004754155861,  0.525156682398425,  0.864544901655376 ]
    mass: 32.065000
    reduced_to: 37
  - symbol: S  # 41
    coordinates: [  0.196995245844139,  0.474843317601575,  0.364544901655376 ]
    mass: 32.065000
    reduced_to: 41
  - symbol: S  # 42
    coordinates: [  0.696995245844139,  0.474843317601575,  0.364544901655376 ]
    mass: 32.065000
    reduced_to: 41
  - symbol: S  # 43
    coordinates: [  0.196995245844139,  0.974843317601575,  0.364544901655376 ]
    mass: 32.065000
    reduced_to: 41
  - symbol: S  # 44
    coordinates: [  0.696995245844139,  0.974843317601575,  0.364544901655376 ]
    mass: 32.065000
    reduced_to: 41
  - symbol: S  # 45
    coordinates: [  0.446995245844139,  0.275156682398425,  0.635455098344624 ]
    mass: 32.065000
    reduced_to: 45
  - symbol: S  # 46
    coordinates: [  0.946995245844139,  0.275156682398425,  0.635455098344624 ]
    mass: 32.065000
    reduced_to: 45
  - symbol: S  # 47
    coordinates: [  0.446995245844139,  0.775156682398425,  0.635455098344624 ]
    mass: 32.065000
    reduced_to: 45
  - symbol: S  # 48
    coordinates: [  0.946995245844139,  0.775156682398425,  0.635455098344624 ]
    mass: 32.065000
    reduced_to: 45
  - symbol: S  # 49
    coordinates: [  0.446995245844139,  0.275156682398425,  0.864544901655376 ]
    mass: 32.065000
    reduced_to: 49
  - symbol: S  # 50
    coordinates: [  0.946995245844139,  0.275156682398425,  0.864544901655376 ]
    mass: 32.065000
    reduced_to: 49
  - symbol: S  # 51
    coordinates: [  0.446995245844139,  0.775156682398425,  0.864544901655376 ]
    mass: 32.065000
    reduced_to: 49
  - symbol: S  # 52
    coordinates: [  0.946995245844139,  0.775156682398425,  0.864544901655376 ]
    mass: 32.065000
    reduced_to: 49
  - symbol: S  # 53
    coordinates: [  0.196995245844139,  0.474843317601575,  0.135455098344625 ]
    mass: 32.065000
    reduced_to: 53
  - symbol: S  # 54
    coordinates: [  0.696995245844139,  0.474843317601575,  0.135455098344625 ]
    mass: 32.065000
    reduced_to: 53
  - symbol: S  # 55
    coordinates: [  0.196995245844139,  0.974843317601575,  0.135455098344625 ]
    mass: 32.065000
    reduced_to: 53
  - symbol: S  # 56
    coordinates: [  0.696995245844139,  0.974843317601575,  0.135455098344625 ]
    mass: 32.065000
    reduced_to: 53
  - symbol: S  # 57
    coordinates: [  0.303004754155861,  0.025156682398425,  0.635455098344624 ]
    mass: 32.065000
    reduced_to: 57
  - symbol: S  # 58
    coordinates: [  0.803004754155861,  0.025156682398425,  0.635455098344624 ]
    mass: 32.065000
    reduced_to: 57
  - symbol: S  # 59
    coordinates: [  0.303004754155861,  0.525156682398425,  0.635455098344624 ]
    mass: 32.065000
    reduced_to: 57
  - symbol: S  # 60
    coordinates: [  0.803004754155861,  0.525156682398425,  0.635455098344624 ]
    mass: 32.065000
    reduced_to: 57
  - symbol: S  # 61
    coordinates: [  0.053004754155861,  0.224843317601575,  0.364544901655376 ]
    mass: 32.065000
    reduced_to: 61
  - symbol: S  # 62
    coordinates: [  0.553004754155861,  0.224843317601575,  0.364544901655376 ]
    mass: 32.065000
    reduced_to: 61
  - symbol: S  # 63
    coordinates: [  0.053004754155861,  0.724843317601575,  0.364544901655376 ]
    mass: 32.065000
    reduced_to: 61
  - symbol: S  # 64
    coordinates: [  0.553004754155861,  0.724843317601575,  0.364544901655376 ]
    mass: 32.065000
    reduced_to: 61
  - symbol: S  # 65
    coordinates: [  0.133239464055219,  0.176249725719313,  0.250000000000000 ]
    mass: 32.065000
    reduced_to: 65
  - symbol: S  # 66
    coordinates: [  0.633239464055219,  0.176249725719313,  0.250000000000000 ]
    mass: 32.065000
    reduced_to: 65
  - symbol: S  # 67
    coordinates: [  0.133239464055219,  0.676249725719314,  0.250000000000000 ]
    mass: 32.065000
    reduced_to: 65
  - symbol: S  # 68
    coordinates: [  0.633239464055219,  0.676249725719314,  0.250000000000000 ]
    mass: 32.065000
    reduced_to: 65
  - symbol: S  # 69
    coordinates: [  0.383239464055218,  0.073750274280686,  0.750000000000000 ]
    mass: 32.065000
    reduced_to: 69
  - symbol: S  # 70
    coordinates: [  0.883239464055218,  0.073750274280686,  0.750000000000000 ]
    mass: 32.065000
    reduced_to: 69
  - symbol: S  # 71
    coordinates: [  0.383239464055218,  0.573750274280686,  0.750000000000000 ]
    mass: 32.065000
    reduced_to: 69
  - symbol: S  # 72
    coordinates: [  0.883239464055218,  0.573750274280686,  0.750000000000000 ]
    mass: 32.065000
    reduced_to: 69
  - symbol: S  # 73
    coordinates: [  0.116760535944782,  0.426249725719314,  0.250000000000000 ]
    mass: 32.065000
    reduced_to: 73
  - symbol: S  # 74
    coordinates: [  0.616760535944782,  0.426249725719314,  0.250000000000000 ]
    mass: 32.065000
    reduced_to: 73
  - symbol: S  # 75
    coordinates: [  0.116760535944782,  0.926249725719314,  0.250000000000000 ]
    mass: 32.065000
    reduced_to: 73
  - symbol: S  # 76
    coordinates: [  0.616760535944782,  0.926249725719314,  0.250000000000000 ]
    mass: 32.065000
    reduced_to: 73
  - symbol: S  # 77
    coordinates: [  0.366760535944782,  0.323750274280686,  0.750000000000000 ]
    mass: 32.065000
    reduced_to: 77
  - symbol: S  # 78
    coordinates: [  0.866760535944782,  0.323750274280686,  0.750000000000000 ]
    mass: 32.065000
    reduced_to: 77
  - symbol: S  # 79
    coordinates: [  0.366760535944782,  0.823750274280686,  0.750000000000000 ]
    mass: 32.065000
    reduced_to: 77
  - symbol: S  # 80
    coordinates: [  0.866760535944782,  0.823750274280686,  0.750000000000000 ]
    mass: 32.065000
    reduced_to: 77
  - symbol: S  # 81
    coordinates: [  0.417298119839121,  0.146315066845189,  0.396541646385598 ]
    mass: 32.065000
    reduced_to: 81
  - symbol: S  # 82
    coordinates: [  0.917298119839121,  0.146315066845189,  0.396541646385598 ]
    mass: 32.065000
    reduced_to: 81
  - symbol: S  # 83
    coordinates: [  0.417298119839121,  0.646315066845189,  0.396541646385598 ]
    mass: 32.065000
    reduced_to: 81
  - symbol: S  # 84
    coordinates: [  0.917298119839121,  0.646315066845189,  0.396541646385598 ]
    mass: 32.065000
    reduced_to: 81
  - symbol: S  # 85
    coordinates: [  0.167298119839120,  0.103684933154811,  0.603458353614403 ]
    mass: 32.065000
    reduced_to: 85
  - symbol: S  # 86
    coordinates: [  0.667298119839120,  0.103684933154811,  0.603458353614403 ]
    mass: 32.065000
    reduced_to: 85
  - symbol: S  # 87
    coordinates: [  0.167298119839120,  0.603684933154811,  0.603458353614403 ]
    mass: 32.065000
    reduced_to: 85
  - symbol: S  # 88
    coordinates: [  0.667298119839120,  0.603684933154811,  0.603458353614403 ]
    mass: 32.065000
    reduced_to: 85
  - symbol: S  # 89
    coordinates: [  0.332701880160879,  0.396315066845189,  0.103458353614403 ]
    mass: 32.065000
    reduced_to: 89
  - symbol: S  # 90
    coordinates: [  0.832701880160879,  0.396315066845189,  0.103458353614403 ]
    mass: 32.065000
    reduced_to: 89
  - symbol: S  # 91
    coordinates: [  0.332701880160879,  0.896315066845189,  0.103458353614403 ]
    mass: 32.065000
    reduced_to: 89
  - symbol: S  # 92
    coordinates: [  0.832701880160879,  0.896315066845189,  0.103458353614403 ]
    mass: 32.065000
    reduced_to: 89
  - symbol: S  # 93
    coordinates: [  0.082701880160879,  0.353684933154811,  0.896541646385597 ]
    mass: 32.065000
    reduced_to: 93
  - symbol: S  # 94
    coordinates: [  0.582701880160879,  0.353684933154811,  0.896541646385597 ]
    mass: 32.065000
    reduced_to: 93
  - symbol: S  # 95
    coordinates: [  0.082701880160879,  0.853684933154811,  0.896541646385597 ]
    mass: 32.065000
    reduced_to: 93
  - symbol: S  # 96
    coordinates: [  0.582701880160879,  0.853684933154811,  0.896541646385597 ]
    mass: 32.065000
    reduced_to: 93
  - symbol: S  # 97
    coordinates: [  0.082701880160879,  0.353684933154811,  0.603458353614403 ]
    mass: 32.065000
    reduced_to: 97
  - symbol: S  # 98
    coordinates: [  0.582701880160879,  0.353684933154811,  0.603458353614403 ]
    mass: 32.065000
    reduced_to: 97
  - symbol: S  # 99
    coordinates: [  0.082701880160879,  0.853684933154811,  0.603458353614403 ]
    mass: 32.065000
    reduced_to: 97
  - symbol: S  # 100
    coordinates: [  0.582701880160879,  0.853684933154811,  0.603458353614403 ]
    mass: 32.065000
    reduced_to: 97
  - symbol: S  # 101
    coordinates: [  0.332701880160879,  0.396315066845189,  0.396541646385598 ]
    mass: 32.065000
    reduced_to: 101
  - symbol: S  # 102
    coordinates: [  0.832701880160879,  0.396315066845189,  0.396541646385598 ]
    mass: 32.065000
    reduced_to: 101
  - symbol: S  # 103
    coordinates: [  0.332701880160879,  0.896315066845189,  0.396541646385598 ]
    mass: 32.065000
    reduced_to: 101
  - symbol: S  # 104
    coordinates: [  0.832701880160879,  0.896315066845189,  0.396541646385598 ]
    mass: 32.065000
    reduced_to: 101
  - symbol: S  # 105
    coordinates: [  0.167298119839120,  0.103684933154811,  0.896541646385597 ]
    mass: 32.065000
    reduced_to: 105
  - symbol: S  # 106
    coordinates: [  0.667298119839120,  0.103684933154811,  0.896541646385597 ]
    mass: 32.065000
    reduced_to: 105
  - symbol: S  # 107
    coordinates: [  0.167298119839120,  0.603684933154811,  0.896541646385597 ]
    mass: 32.065000
    reduced_to: 105
  - symbol: S  # 108
    coordinates: [  0.667298119839120,  0.603684933154811,  0.896541646385597 ]
    mass: 32.065000
    reduced_to: 105
  - symbol: S  # 109
    coordinates: [  0.417298119839121,  0.146315066845189,  0.103458353614403 ]
    mass: 32.065000
    reduced_to: 109
  - symbol: S  # 110
    coordinates: [  0.917298119839121,  0.146315066845189,  0.103458353614403 ]
    mass: 32.065000
    reduced_to: 109
  - symbol: S  # 111
    coordinates: [  0.417298119839121,  0.646315066845189,  0.103458353614403 ]
    mass: 32.065000
    reduced_to: 109
  - symbol: S  # 112
    coordinates: [  0.917298119839121,  0.646315066845189,  0.103458353614403 ]
    mass: 32.065000
    reduced_to: 109

displacements:
- atom:    1
  displacement:
    [   0.0062293587408865,  0.0000000000000000,  0.0078227290428176 ]
- atom:    1
  displacement:
    [  -0.0062293587408865,  0.0000000000000000, -0.0078227290428176 ]
- atom:    1
  displacement:
    [   0.0000000000000000,  0.0100000000000000,  0.0000000000000000 ]
- atom:    1
  displacement:
    [  -0.0000000000000000, -0.0100000000000000, -0.0000000000000000 ]
- atom:   17
  displacement:
    [   0.0100000000000000,  0.0000000000000000,  0.0000000000000000 ]
- atom:   17
  displacement:
    [   0.0000000000000000,  0.0100000000000000,  0.0000000000000000 ]
- atom:   17
  displacement:
    [   0.0000000000000000,  0.0000000000000000,  0.0100000000000000 ]
- atom:   33
  displacement:
    [   0.0100000000000000,  0.0000000000000000,  0.0000000000000000 ]
- atom:   33
  displacement:
    [  -0.0100000000000000,  0.0000000000000000, -0.0000000000000000 ]
- atom:   33
  displacement:
    [   0.0000000000000000,  0.0100000000000000,  0.0000000000000000 ]
- atom:   33
  displacement:
    [  -0.0000000000000000, -0.0100000000000000, -0.0000000000000000 ]
- atom:   33
  displacement:
    [   0.0000000000000000,  0.0000000000000000,  0.0100000000000000 ]
- atom:   33
  displacement:
    [   0.0000000000000000,  0.0000000000000000, -0.0100000000000000 ]
- atom:   65
  displacement:
    [   0.0062293587408865,  0.0000000000000000,  0.0078227290428176 ]
- atom:   65
  displacement:
    [  -0.0062293587408865,  0.0000000000000000, -0.0078227290428176 ]
- atom:   65
  displacement:
    [   0.0000000000000000,  0.0100000000000000,  0.0000000000000000 ]
- atom:   65
  displacement:
    [  -0.0000000000000000, -0.0100000000000000, -0.0000000000000000 ]
- atom:   81
  displacement:
    [   0.0100000000000000,  0.0000000000000000,  0.0000000000000000 ]
- atom:   81
  displacement:
    [  -0.0100000000000000,  0.0000000000000000, -0.0000000000000000 ]
- atom:   81
  displacement:
    [   0.0000000000000000,  0.0100000000000000,  0.0000000000000000 ]
- atom:   81
  displacement:
    [  -0.0000000000000000, -0.0100000000000000, -0.0000000000000000 ]
- atom:   81
  displacement:
    [   0.0000000000000000,  0.0000000000000000,  0.0100000000000000 ]
- atom:   81
  displacement:
    [   0.0000000000000000,  0.0000000000000000, -0.0100000000000000 ]
