# Tetrahedron method
       -1.4043798304        0.0000000000
       -1.3183635094        0.0000000000
       -1.2323471884        0.0000000000
       -1.1463308674        0.0000000000
       -1.0603145464        0.0000000000
       -0.9742982254        0.0000000000
       -0.8882819045        0.0000000000
       -0.8022655835        0.0000000000
       -0.7162492625        0.0000000000
       -0.6302329415        0.0000000000
       -0.5442166205        0.0000000000
       -0.4582002995        0.0000000000
       -0.3721839786        0.0000000000
       -0.2861676576        0.0000000000
       -0.2001513366        0.0000000000
       -0.1141350156        0.0000000000
       -0.0281186946        0.0000000000
        0.0578976264        0.0097914419
        0.1439139473        0.0626881762
        0.2299302683        0.1568580004
        0.3159465893        0.2915306244
        0.4019629103        0.4668138584
        0.4879792313        0.6877725905
        0.5739955523        0.9834071197
        0.6600118732        1.2831834509
        0.7460281942        1.5195793774
        0.8320445152        1.8231611840
        0.9180608362        2.2039847114
        1.0040771572        2.8331702105
        1.0900934782        3.7810824570
        1.1761097991        4.7073110009
        1.2621261201        6.0475033033
        1.3481424411        7.4243910192
        1.4341587621       10.8578376440
        1.5201750831       10.8641484300
        1.6061914041       10.7897228025
        1.6922077250       14.6120046699
        1.7782240460       13.8825565569
        1.8642403670       18.1683162214
        1.9502566880       11.1869885531
        2.0362730090       13.5225847711
        2.1222893300       18.7048874035
        2.2083056509       16.2950705927
        2.2943219719        8.8949718159
        2.3803382929       18.3066934821
        2.4663546139       23.6767081990
        2.5523709349       13.0971960670
        2.6383872559       12.3144331980
        2.7244035768       15.2510164698
        2.8104198978       13.9476097199
        2.8964362188       11.9925454635
        2.9824525398       11.7756555556
        3.0684688608        8.0310523906
        3.1544851818        9.9532279444
        3.2405015027       15.7947309925
        3.3265178237       16.7322632178
        3.4125341447       11.6727048374
        3.4985504657       14.0257944361
        3.5845667867       19.7805228910
        3.6705831077       17.2402097795
        3.7565994286        9.8298266992
        3.8426157496       11.6220224405
        3.9286320706       18.5977654159
        4.0146483916        9.5058913003
        4.1006647126       13.7867834760
        4.1866810336       14.8840534260
        4.2726973545       12.6012377085
        4.3587136755       16.4950640513
        4.4447299965       22.7747223779
        4.5307463175       15.0805132867
        4.6167626385       11.5085725809
        4.7027789595        8.7526868238
        4.7887952804        5.6786932295
        4.8748116014       15.1142557515
        4.9608279224        9.9103215846
        5.0468442434        2.8683868730
        5.1328605644       16.1148418931
        5.2188768854       13.7032034513
        5.3048932063        6.1033234994
        5.3909095273        4.1787161416
        5.4769258483        3.1380875216
        5.5629421693        1.3700837392
        5.6489584903        0.3035689794
        5.7349748113        0.0000000000
        5.8209911322        0.0000000000
        5.9070074532       32.0775625733
        5.9930237742       24.1659670505
        6.0790400952        1.7872068555
        6.1650564162        0.0000000000
        6.2510727372       38.0467384914
        6.3370890581       21.4026278391
        6.4231053791        0.0000000000
        6.5091217001        0.0000000000
        6.5951380211        0.0000000000
        6.6811543421        0.0000000000
        6.7671706631        0.0000000000
        6.8531869840        0.0000000000
        6.9392033050        0.0000000000
        7.0252196260        0.0000000000
        7.1112359470        0.0000000000
        7.1972522680        0.0000000000
        7.2832685890        0.0000000000
        7.3692849099        0.0000000000
        7.4553012309        0.0000000000
        7.5413175519        0.0000000000
        7.6273338729        0.0000000000
        7.7133501939        0.0000000000
        7.7993665149        0.0000000000
        7.8853828358       20.9010176810
        7.9713991568       47.9011370285
        8.0574154778        2.9784022563
        8.1434317988        0.0000000000
        8.2294481198        0.0000000000
        8.3154644408        0.0000000000
        8.4014807617        0.0000000000
        8.4874970827        0.0000000000
        8.5735134037        0.0000000000
        8.6595297247        0.0000000000
        8.7455460457        0.0000000000
        8.8315623667        0.0000000000
        8.9175786876        0.0000000000
        9.0035950086        0.0000000000
        9.0896113296        0.0000000000
        9.1756276506        0.0000000000
        9.2616439716        0.0000000000
        9.3476602926        0.0000000000
        9.4336766135        0.0000000000
        9.5196929345        0.0000000000
        9.6057092555        0.0000000000
        9.6917255765        0.0000000000
        9.7777418975        0.0000000000
        9.8637582185        0.0000000000
        9.9497745394        0.0000000000
       10.0357908604        0.0000000000
       10.1218071814        0.0000000000
       10.2078235024        0.0000000000
       10.2938398234        0.0000000000
       10.3798561444        0.0000000000
       10.4658724654        0.0000000000
       10.5518887863        0.0000000000
       10.6379051073        0.0000000000
       10.7239214283        0.0000000000
       10.8099377493        0.0000000000
       10.8959540703        0.0000000000
       10.9819703913        0.0000000000
       11.0679867122       31.1420122976
       11.1540030332       15.4300174663
       11.2400193542        0.0000000000
       11.3260356752        0.0000000000
       11.4120519962        0.0000000000
       11.4980683172        0.0000000000
       11.5840846381        0.0000000000
       11.6701009591        0.0000000000
       11.7561172801        0.0000000000
       11.8421336011        0.0000000000
       11.9281499221        0.0000000000
       12.0141662431        0.0000000000
       12.1001825640        0.0000000000
       12.1861988850        0.0000000000
       12.2722152060        0.0000000000
       12.3582315270        0.0000000000
       12.4442478480        0.0000000000
       12.5302641690        0.0000000000
       12.6162804899        0.0000000000
       12.7022968109        0.0000000000
       12.7883131319       30.4583080419
       12.8743294529        0.0000000000
       12.9603457739        0.0000000000
       13.0463620949        0.0000000000
       13.1323784158        0.0000000000
       13.2183947368        0.0000000000
       13.3044110578        0.0000000000
       13.3904273788        0.0000000000
       13.4764436998        0.0000000000
       13.5624600208        0.0000000000
       13.6484763417        0.0000000000
       13.7344926627        0.0000000000
       13.8205089837        0.0000000000
       13.9065253047        0.0000000000
       13.9925416257       18.5853418511
       14.0785579467        9.8047199004
       14.1645742676        0.0000000000
       14.2505905886       19.9254592208
       14.3366069096       21.9421560036
       14.4226232306        0.0000000000
       14.5086395516        0.0000000000
       14.5946558726        0.0000000000
       14.6806721935        0.0000000000
       14.7666885145        0.0000000000
       14.8527048355        0.0000000000
       14.9387211565        0.0000000000
       15.0247374775        0.0000000000
       15.1107537985        0.0000000000
       15.1967701194        0.0000000000
       15.2827864404        0.0000000000
       15.3688027614        0.0000000000
       15.4548190824        0.0000000000
       15.5408354034        0.0000000000
       15.6268517244        0.0000000000
       15.7128680453        0.0000000000
       15.7988843663        0.0000000000
