  48  48   0   0
  0.2038888E+02  0.3931371E-09  0.1318878E-08  0.1887495E-08  0.5000000E-15
   1.0000000000000000E-004
  CAR 
 unknown system                          
     11.94425810    -23.08324411  301      1.91763560      1.00000000
    -23.083  0.0000E+00  0.0000E+00
    -22.966  0.0000E+00  0.0000E+00
    -22.850  0.0000E+00  0.0000E+00
    -22.733  0.0000E+00  0.0000E+00
    -22.616  0.0000E+00  0.0000E+00
    -22.499  0.0000E+00  0.0000E+00
    -22.383  0.0000E+00  0.0000E+00
    -22.266  0.0000E+00  0.0000E+00
    -22.149  0.0000E+00  0.0000E+00
    -22.032  0.0000E+00  0.0000E+00
    -21.916  0.0000E+00  0.0000E+00
    -21.799  0.0000E+00  0.0000E+00
    -21.682  0.9781E-08  0.1142E-08
    -21.565  0.9941E-02  0.1161E-02
    -21.449  0.1439E+01  0.1691E+00
    -21.332  0.6069E+00  0.2400E+00
    -21.215  0.1944E-03  0.2400E+00
    -21.098  0.1215E+00  0.2542E+00
    -20.982  0.1880E+01  0.4737E+00
    -20.865  0.1944E+01  0.7007E+00
    -20.748  0.4901E+00  0.7579E+00
    -20.631  0.1627E+01  0.9479E+00
    -20.515  0.1035E+00  0.9600E+00
    -20.398  0.3027E-05  0.9600E+00
    -20.281  0.3195E-14  0.9600E+00
    -20.164  0.0000E+00  0.9600E+00
    -20.048  0.0000E+00  0.9600E+00
    -19.931  0.0000E+00  0.9600E+00
    -19.814  0.0000E+00  0.9600E+00
    -19.697  0.0000E+00  0.9600E+00
    -19.580  0.0000E+00  0.9600E+00
    -19.464  0.0000E+00  0.9600E+00
    -19.347  0.0000E+00  0.9600E+00
    -19.230  0.0000E+00  0.9600E+00
    -19.113  0.0000E+00  0.9600E+00
    -18.997  0.0000E+00  0.9600E+00
    -18.880  0.0000E+00  0.9600E+00
    -18.763  0.0000E+00  0.9600E+00
    -18.646  0.0000E+00  0.9600E+00
    -18.530  0.0000E+00  0.9600E+00
    -18.413  0.0000E+00  0.9600E+00
    -18.296  0.0000E+00  0.9600E+00
    -18.179  0.0000E+00  0.9600E+00
    -18.063  0.0000E+00  0.9600E+00
    -17.946  0.0000E+00  0.9600E+00
    -17.829  0.0000E+00  0.9600E+00
    -17.712  0.0000E+00  0.9600E+00
    -17.596  0.0000E+00  0.9600E+00
    -17.479  0.0000E+00  0.9600E+00
    -17.362  0.0000E+00  0.9600E+00
    -17.245  0.0000E+00  0.9600E+00
    -17.129  0.0000E+00  0.9600E+00
    -17.012  0.0000E+00  0.9600E+00
    -16.895  0.0000E+00  0.9600E+00
    -16.778  0.0000E+00  0.9600E+00
    -16.662  0.0000E+00  0.9600E+00
    -16.545  0.0000E+00  0.9600E+00
    -16.428  0.0000E+00  0.9600E+00
    -16.311  0.0000E+00  0.9600E+00
    -16.195  0.0000E+00  0.9600E+00
    -16.078  0.0000E+00  0.9600E+00
    -15.961  0.0000E+00  0.9600E+00
    -15.844  0.0000E+00  0.9600E+00
    -15.727  0.0000E+00  0.9600E+00
    -15.611  0.0000E+00  0.9600E+00
    -15.494  0.0000E+00  0.9600E+00
    -15.377  0.0000E+00  0.9600E+00
    -15.260  0.0000E+00  0.9600E+00
    -15.144  0.0000E+00  0.9600E+00
    -15.027  0.0000E+00  0.9600E+00
    -14.910  0.0000E+00  0.9600E+00
    -14.793  0.0000E+00  0.9600E+00
    -14.677  0.0000E+00  0.9600E+00
    -14.560  0.0000E+00  0.9600E+00
    -14.443  0.0000E+00  0.9600E+00
    -14.326  0.0000E+00  0.9600E+00
    -14.210  0.0000E+00  0.9600E+00
    -14.093  0.0000E+00  0.9600E+00
    -13.976  0.0000E+00  0.9600E+00
    -13.859  0.0000E+00  0.9600E+00
    -13.743  0.0000E+00  0.9600E+00
    -13.626  0.0000E+00  0.9600E+00
    -13.509  0.0000E+00  0.9600E+00
    -13.392  0.0000E+00  0.9600E+00
    -13.276  0.0000E+00  0.9600E+00
    -13.159  0.0000E+00  0.9600E+00
    -13.042  0.0000E+00  0.9600E+00
    -12.925  0.0000E+00  0.9600E+00
    -12.809  0.0000E+00  0.9600E+00
    -12.692  0.0000E+00  0.9600E+00
    -12.575  0.0000E+00  0.9600E+00
    -12.458  0.0000E+00  0.9600E+00
    -12.341  0.0000E+00  0.9600E+00
    -12.225  0.0000E+00  0.9600E+00
    -12.108  0.0000E+00  0.9600E+00
    -11.991  0.0000E+00  0.9600E+00
    -11.874  0.0000E+00  0.9600E+00
    -11.758  0.0000E+00  0.9600E+00
    -11.641  0.0000E+00  0.9600E+00
    -11.524  0.0000E+00  0.9600E+00
    -11.407  0.0000E+00  0.9600E+00
    -11.291  0.0000E+00  0.9600E+00
    -11.174  0.0000E+00  0.9600E+00
    -11.057  0.0000E+00  0.9600E+00
    -10.940  0.0000E+00  0.9600E+00
    -10.824  0.8022E-11  0.9600E+00
    -10.707  0.5864E-04  0.9600E+00
    -10.590  0.2361E-01  0.9628E+00
    -10.473  0.9784E-01  0.9742E+00
    -10.357  0.1931E+00  0.9967E+00
    -10.240  0.1459E+00  0.1014E+01
    -10.123  0.2672E+00  0.1045E+01
    -10.006  0.3641E+00  0.1087E+01
     -9.890  0.2053E+00  0.1111E+01
     -9.773  0.1860E+00  0.1133E+01
     -9.656  0.2829E+00  0.1166E+01
     -9.539  0.5228E+00  0.1227E+01
     -9.423  0.4611E+00  0.1281E+01
     -9.306  0.2626E+00  0.1312E+01
     -9.189  0.2819E+00  0.1345E+01
     -9.072  0.1288E+00  0.1360E+01
     -8.955  0.2744E-02  0.1360E+01
     -8.839  0.5867E-08  0.1360E+01
     -8.722  0.0000E+00  0.1360E+01
     -8.605  0.0000E+00  0.1360E+01
     -8.488  0.0000E+00  0.1360E+01
     -8.372  0.0000E+00  0.1360E+01
     -8.255  0.0000E+00  0.1360E+01
     -8.138  0.0000E+00  0.1360E+01
     -8.021  0.0000E+00  0.1360E+01
     -7.905  0.0000E+00  0.1360E+01
     -7.788  0.0000E+00  0.1360E+01
     -7.671  0.0000E+00  0.1360E+01
     -7.554  0.0000E+00  0.1360E+01
     -7.438  0.0000E+00  0.1360E+01
     -7.321  0.0000E+00  0.1360E+01
     -7.204  0.0000E+00  0.1360E+01
     -7.087  0.0000E+00  0.1360E+01
     -6.971  0.0000E+00  0.1360E+01
     -6.854  0.0000E+00  0.1360E+01
     -6.737  0.0000E+00  0.1360E+01
     -6.620  0.0000E+00  0.1360E+01
     -6.504  0.0000E+00  0.1360E+01
     -6.387  0.0000E+00  0.1360E+01
     -6.270  0.0000E+00  0.1360E+01
     -6.153  0.0000E+00  0.1360E+01
     -6.037  0.0000E+00  0.1360E+01
     -5.920  0.0000E+00  0.1360E+01
     -5.803  0.0000E+00  0.1360E+01
     -5.686  0.0000E+00  0.1360E+01
     -5.569  0.0000E+00  0.1360E+01
     -5.453  0.0000E+00  0.1360E+01
     -5.336  0.0000E+00  0.1360E+01
     -5.219  0.0000E+00  0.1360E+01
     -5.102  0.0000E+00  0.1360E+01
     -4.986  0.0000E+00  0.1360E+01
     -4.869  0.0000E+00  0.1360E+01
     -4.752  0.1696E-14  0.1360E+01
     -4.635  0.1543E-05  0.1360E+01
     -4.519  0.5482E-01  0.1366E+01
     -4.402  0.1367E+01  0.1526E+01
     -4.285  0.2273E+01  0.1791E+01
     -4.168  0.2084E+01  0.2035E+01
     -4.052  0.2540E+01  0.2331E+01
     -3.935  0.1665E+01  0.2526E+01
     -3.818  0.2934E+00  0.2560E+01
     -3.701  0.2794E-03  0.2560E+01
     -3.585  0.2253E-10  0.2560E+01
     -3.468  0.0000E+00  0.2560E+01
     -3.351  0.0000E+00  0.2560E+01
     -3.234  0.7455E-15  0.2560E+01
     -3.118  0.4948E-06  0.2560E+01
     -3.001  0.1123E-01  0.2561E+01
     -2.884  0.1474E+00  0.2579E+01
     -2.767  0.1955E+00  0.2601E+01
     -2.651  0.2443E+00  0.2630E+01
     -2.534  0.2102E+00  0.2654E+01
     -2.417  0.1926E+00  0.2677E+01
     -2.300  0.9934E-01  0.2689E+01
     -2.184  0.2653E+00  0.2719E+01
     -2.067  0.1062E+00  0.2732E+01
     -1.950  0.6923E-01  0.2740E+01
     -1.833  0.9057E-01  0.2751E+01
     -1.716  0.3563E-01  0.2755E+01
     -1.600  0.1777E+00  0.2775E+01
     -1.483  0.1428E+00  0.2792E+01
     -1.366  0.6053E-01  0.2799E+01
     -1.249  0.8052E-02  0.2800E+01
     -1.133  0.1591E+00  0.2819E+01
     -1.016  0.1614E+00  0.2838E+01
     -0.899  0.3579E+00  0.2879E+01
     -0.782  0.2405E+00  0.2907E+01
     -0.666  0.5486E+00  0.2971E+01
     -0.549  0.2152E+00  0.2997E+01
     -0.432  0.3183E+00  0.3034E+01
     -0.315  0.2171E+00  0.3059E+01
     -0.199  0.1197E+00  0.3073E+01
     -0.082  0.2704E+00  0.3105E+01
      0.035  0.3899E+00  0.3150E+01
      0.152  0.2891E+00  0.3184E+01
      0.268  0.3905E+00  0.3230E+01
      0.385  0.4022E+00  0.3277E+01
      0.502  0.5393E+00  0.3339E+01
      0.619  0.5268E+00  0.3401E+01
      0.735  0.5166E+00  0.3461E+01
      0.852  0.6257E+00  0.3534E+01
      0.969  0.5168E+00  0.3595E+01
      1.086  0.2973E+00  0.3629E+01
      1.202  0.3425E+00  0.3669E+01
      1.319  0.2268E+00  0.3696E+01
      1.436  0.1599E+00  0.3715E+01
      1.553  0.1165E+00  0.3728E+01
      1.670  0.2000E+00  0.3751E+01
      1.786  0.7258E-01  0.3760E+01
      1.903  0.2222E-03  0.3760E+01
      2.020  0.7910E-10  0.3760E+01
      2.137  0.0000E+00  0.3760E+01
      2.253  0.0000E+00  0.3760E+01
      2.370  0.0000E+00  0.3760E+01
      2.487  0.0000E+00  0.3760E+01
      2.604  0.0000E+00  0.3760E+01
      2.720  0.0000E+00  0.3760E+01
      2.837  0.0000E+00  0.3760E+01
      2.954  0.0000E+00  0.3760E+01
      3.071  0.0000E+00  0.3760E+01
      3.187  0.0000E+00  0.3760E+01
      3.304  0.0000E+00  0.3760E+01
      3.421  0.4541E-10  0.3760E+01
      3.538  0.1381E-03  0.3760E+01
      3.654  0.2532E-01  0.3763E+01
      3.771  0.8799E-02  0.3764E+01
      3.888  0.1309E-05  0.3764E+01
      4.005  0.6740E-14  0.3764E+01
      4.121  0.0000E+00  0.3764E+01
      4.238  0.0000E+00  0.3764E+01
      4.355  0.0000E+00  0.3764E+01
      4.472  0.1691E-08  0.3764E+01
      4.588  0.7346E-03  0.3764E+01
      4.705  0.4294E-01  0.3769E+01
      4.822  0.1422E+00  0.3786E+01
      4.939  0.8759E-01  0.3796E+01
      5.056  0.4929E-01  0.3802E+01
      5.172  0.1233E+00  0.3816E+01
      5.289  0.1694E+00  0.3836E+01
      5.406  0.1066E+00  0.3848E+01
      5.523  0.1307E+00  0.3864E+01
      5.639  0.1644E+00  0.3883E+01
      5.756  0.2441E+00  0.3911E+01
      5.873  0.2383E+00  0.3939E+01
      5.990  0.1785E+00  0.3960E+01
      6.106  0.2962E+00  0.3995E+01
      6.223  0.2093E+00  0.4019E+01
      6.340  0.2810E+00  0.4052E+01
      6.457  0.1687E+00  0.4071E+01
      6.573  0.3125E+00  0.4108E+01
      6.690  0.1770E+00  0.4129E+01
      6.807  0.9129E-01  0.4139E+01
      6.924  0.1821E+00  0.4161E+01
      7.040  0.3981E+00  0.4207E+01
      7.157  0.2806E+00  0.4240E+01
      7.274  0.2817E+00  0.4273E+01
      7.391  0.3508E+00  0.4314E+01
      7.507  0.2078E+00  0.4338E+01
      7.624  0.2336E+00  0.4365E+01
      7.741  0.2849E+00  0.4398E+01
      7.858  0.2958E+00  0.4433E+01
      7.974  0.2585E+00  0.4463E+01
      8.091  0.2178E+00  0.4489E+01
      8.208  0.2838E+00  0.4522E+01
      8.325  0.2693E+00  0.4553E+01
      8.442  0.3864E+00  0.4598E+01
      8.558  0.3723E+00  0.4642E+01
      8.675  0.2365E+00  0.4669E+01
      8.792  0.2952E+00  0.4704E+01
      8.909  0.2230E+00  0.4730E+01
      9.025  0.2414E+00  0.4758E+01
      9.142  0.3851E+00  0.4803E+01
      9.259  0.3910E+00  0.4849E+01
      9.376  0.3808E+00  0.4893E+01
      9.492  0.1761E+00  0.4914E+01
      9.609  0.2345E+00  0.4941E+01
      9.726  0.4581E+00  0.4995E+01
      9.843  0.3142E+00  0.5031E+01
      9.959  0.2578E+00  0.5061E+01
     10.076  0.1027E+00  0.5073E+01
     10.193  0.1459E+00  0.5090E+01
     10.310  0.1899E+00  0.5113E+01
     10.426  0.6283E-01  0.5120E+01
     10.543  0.1219E-02  0.5120E+01
     10.660  0.2233E-08  0.5120E+01
     10.777  0.0000E+00  0.5120E+01
     10.893  0.0000E+00  0.5120E+01
     11.010  0.0000E+00  0.5120E+01
     11.127  0.0000E+00  0.5120E+01
     11.244  0.0000E+00  0.5120E+01
     11.360  0.0000E+00  0.5120E+01
     11.477  0.0000E+00  0.5120E+01
     11.594  0.0000E+00  0.5120E+01
     11.711  0.0000E+00  0.5120E+01
     11.827  0.0000E+00  0.5120E+01
     11.944  0.0000E+00  0.5120E+01
