       N       E                     dE             d eps       ncg     rms          rms(c)
DAV:   1     0.337016843048E+04    0.33702E+04   -0.14917E+05  1536   0.144E+03
DAV:   2     0.328911834925E+03   -0.30413E+04   -0.28779E+04  1536   0.403E+02
DAV:   3    -0.145329563941E+03   -0.47424E+03   -0.46283E+03  1760   0.158E+02
DAV:   4    -0.173656242744E+03   -0.28327E+02   -0.28080E+02  1856   0.376E+01
DAV:   5    -0.174471821421E+03   -0.81558E+00   -0.81459E+00  1888   0.671E+00    0.239E+01
DAV:   6    -0.162804933993E+03    0.11667E+02   -0.19202E+01  2208   0.403E+01    0.196E+01
DAV:   7    -0.162758931524E+03    0.46002E-01   -0.18233E+01  1856   0.770E+00    0.111E+01
DAV:   8    -0.162704633602E+03    0.54298E-01   -0.69339E-01  1856   0.291E+00    0.305E+00
DAV:   9    -0.162716880166E+03   -0.12247E-01   -0.18072E-01  1888   0.206E+00    0.769E-01
DAV:  10    -0.162720010534E+03   -0.31304E-02   -0.28158E-02  1824   0.770E-01    0.515E-01
DAV:  11    -0.162723565577E+03   -0.35550E-02   -0.98568E-03  1760   0.327E-01    0.221E-01
DAV:  12    -0.162723818385E+03   -0.25281E-03   -0.23926E-03  1952   0.226E-01    0.146E-01
DAV:  13    -0.162723942304E+03   -0.12392E-03   -0.58195E-04  1888   0.166E-01    0.797E-02
DAV:  14    -0.162724071172E+03   -0.12887E-03   -0.38671E-04  1984   0.800E-02    0.317E-02
DAV:  15    -0.162724076500E+03   -0.53277E-05   -0.12579E-04  1792   0.564E-02    0.205E-02
DAV:  16    -0.162724077250E+03   -0.75001E-06   -0.96447E-06  1056   0.951E-03
   1 F= -.16272408E+03 E0= -.16272408E+03  d E =-.162724E+03
       N       E                     dE             d eps       ncg     rms          rms(c)
DAV:   1    -0.162861648279E+03   -0.13757E+00   -0.26806E+00  2048   0.733E+00    0.269E+00
DAV:   2    -0.162754528173E+03    0.10712E+00   -0.44959E-01  1984   0.395E+00    0.108E+00
DAV:   3    -0.162739720018E+03    0.14808E-01   -0.32133E-02  1824   0.485E-01    0.503E-01
DAV:   4    -0.162735920760E+03    0.37993E-02   -0.29831E-03  1984   0.218E-01    0.281E-01
DAV:   5    -0.162735314242E+03    0.60652E-03   -0.62726E-04  1984   0.151E-01    0.736E-02
DAV:   6    -0.162735283632E+03    0.30610E-04   -0.29477E-04  1632   0.107E-01    0.275E-02
DAV:   7    -0.162735284157E+03   -0.52432E-06   -0.64650E-05  1472   0.409E-02
   2 F= -.16273528E+03 E0= -.16273528E+03  d E =-.112069E-01
       N       E                     dE             d eps       ncg     rms          rms(c)
DAV:   1    -0.162765290378E+03   -0.30007E-01   -0.63360E-01  2048   0.359E+00    0.130E+00
DAV:   2    -0.162740048018E+03    0.25242E-01   -0.10512E-01  1984   0.189E+00    0.526E-01
DAV:   3    -0.162736551049E+03    0.34970E-02   -0.75496E-03  1824   0.231E-01    0.246E-01
DAV:   4    -0.162735661999E+03    0.88905E-03   -0.68385E-04  1984   0.101E-01    0.135E-01
DAV:   5    -0.162735537613E+03    0.12439E-03   -0.14415E-04  1984   0.697E-02    0.351E-02
DAV:   6    -0.162735534735E+03    0.28781E-05   -0.69841E-05  1632   0.499E-02
   3 F= -.16273553E+03 E0= -.16273553E+03  d E =-.114575E-01
       N       E                     dE             d eps       ncg     rms          rms(c)
DAV:   1    -0.162738776391E+03   -0.32388E-02   -0.63612E-02  2048   0.114E+00    0.412E-01
DAV:   2    -0.162736310724E+03    0.24657E-02   -0.10399E-02  1984   0.583E-01    0.169E-01
DAV:   3    -0.162735949445E+03    0.36128E-03   -0.74246E-04  1792   0.706E-02    0.776E-02
DAV:   4    -0.162735843077E+03    0.10637E-03   -0.63604E-05  1984   0.289E-02    0.406E-02
DAV:   5    -0.162735817619E+03    0.25458E-04   -0.96361E-06   992   0.181E-02    0.106E-02
DAV:   6    -0.162735814634E+03    0.29852E-05   -0.85759E-06   960   0.151E-02
   4 F= -.16273581E+03 E0= -.16273581E+03  d E =-.117374E-01
       N       E                     dE             d eps       ncg     rms          rms(c)
DAV:   1    -0.162739064044E+03   -0.32464E-02   -0.91810E-01  1664   0.177E+00    0.241E-01
DAV:   2    -0.162740334968E+03   -0.12709E-02   -0.18907E-02  1984   0.361E-01    0.118E-01
DAV:   3    -0.162740238534E+03    0.96434E-04   -0.69383E-04  1856   0.773E-02    0.845E-02
DAV:   4    -0.162740167286E+03    0.71248E-04   -0.12694E-04  2016   0.641E-02    0.312E-02
DAV:   5    -0.162740164344E+03    0.29414E-05   -0.39749E-05  1600   0.382E-02
   5 F= -.16274016E+03 E0= -.16274016E+03  d E =-.434971E-02
       N       E                     dE             d eps       ncg     rms          rms(c)
DAV:   1    -0.162740210265E+03   -0.42979E-04   -0.82610E+00  1664   0.529E+00    0.730E-01
DAV:   2    -0.162751594530E+03   -0.11384E-01   -0.16974E-01  1984   0.108E+00    0.350E-01
DAV:   3    -0.162750710432E+03    0.88410E-03   -0.61646E-03  1856   0.227E-01    0.250E-01
DAV:   4    -0.162750081623E+03    0.62881E-03   -0.11297E-03  2048   0.183E-01    0.927E-02
DAV:   5    -0.162750046831E+03    0.34792E-04   -0.34986E-04  1920   0.111E-01    0.421E-02
DAV:   6    -0.162750051211E+03   -0.43799E-05   -0.79643E-05  1568   0.388E-02
   6 F= -.16275005E+03 E0= -.16275005E+03  d E =-.142366E-01
