 vasp.6.3.2 27Jun22 (build Jun 14 2024 17:29:11) complex                         
 executed on             LinuxGNU date 2026.03.29  20:17:08
 running on   32 total cores
 distrk:  each k-point on   32 cores,    1 groups
 distr:  one band on NCORE=   1 cores,   32 groups


--------------------------------------------------------------------------------------------------------


 INCAR:
   EDIFF = 1e-05
   EDIFFG = -0.05
   ENCUT = 400.0
   IBRION = 2
   ISIF = 3
   ISMEAR = 0
   LCHARG = False
   LREAL = Auto
   LWAVE = False
   NSW = 100
   SIGMA = 0.05

 POTCAR:    PAW_PBE Na_pv 19Sep2006               
 POTCAR:    PAW_PBE Zn 06Sep2000                  
 POTCAR:    PAW_PBE S 06Sep2000                   
 -----------------------------------------------------------------------------
|                                                                             |
|           W    W    AA    RRRRR   N    N  II  N    N   GGGG   !!!           |
|           W    W   A  A   R    R  NN   N  II  NN   N  G    G  !!!           |
|           W    W  A    A  R    R  N N  N  II  N N  N  G       !!!           |
|           W WW W  AAAAAA  RRRRR   N  N N  II  N  N N  G  GGG   !            |
|           WW  WW  A    A  R   R   N   NN  II  N   NN  G    G                |
|           W    W  A    A  R    R  N    N  II  N    N   GGGG   !!!           |
|                                                                             |
|     For optimal performance we recommend to set                             |
|       NCORE = 2 up to number-of-cores-per-socket                            |
|     NCORE specifies how many cores store one orbital (NPAR=cpu/NCORE).      |
|     This setting can greatly improve the performance of VASP for DFT.       |
|     The default, NCORE=1 might be grossly inefficient on modern             |
|     multi-core architectures or massively parallel machines. Do your        |
|     own testing! More info at https://www.vasp.at/wiki/index.php/NCORE      |
|     Unfortunately you need to use the default for GW and RPA                |
|     calculations (for HF NCORE is supported but not extensively tested      |
|     yet).                                                                   |
|                                                                             |
 -----------------------------------------------------------------------------

 POTCAR:    PAW_PBE Na_pv 19Sep2006               
   SHA256 =  6a2f546d9e11350984debacf3dc457d8cffc0868e817d445faca461816a32b94 Na_pv/POTCAR          
   COPYR  = (c) Copyright 19Sep2006 Georg Kresse                                                    
   COPYR  = This file is part of the software VASP. Any use, copying, and all other rights are regul
   COPYR  = If you do not have a valid VASP license, you may not use, copy or distribute this file. 
   VRHFIN =Na: p6s1                                                                                 
   LEXCH  = PE                                                                                      
   EATOM  =   766.0439 eV,   56.3026 Ry                                                             
                                                                                                    
   TITEL  = PAW_PBE Na_pv 19Sep2006                                                                 
   LULTRA =        F    use ultrasoft PP ?                                                          
   IUNSCR =        1    unscreen: 0-lin 1-nonlin 2-no                                               
   RPACOR =    1.800    partial core radius                                                         
   POMASS =   22.990; ZVAL   =    7.000    mass and valenz                                          
   RCORE  =    2.200    outmost cutoff radius                                                       
   RWIGS  =    2.200; RWIGS  =    1.164    wigner-seitz radius (au A)                               
   ENMAX  =  259.561; ENMIN  =  194.671 eV                                                          
   ICORE  =        2    local potential                                                             
   LCOR   =        T    correct aug charges                                                         
   LPAW   =        T    paw PP                                                                      
   EAUG   =  368.056                                                                                
   DEXC   =    0.000                                                                                
   RMAX   =    2.245    core radius for proj-oper                                                   
   RAUG   =    1.300    factor for augmentation sphere                                              
   RDEP   =    2.259    radius for radial grids                                                     
   RDEPT  =    1.738    core radius for aug-charge                                                  
                                                                                                    
   Atomic configuration                                                                             
    5 entries                                                                                       
     n  l   j            E        occ.                                                              
     1  0  0.50     -1033.6933   2.0000                                                             
     2  0  0.50       -56.7526   2.0000                                                             
     2  1  1.50       -28.6721   6.0000                                                             
     3  0  0.50        -2.7440   1.0000                                                             
     3  2  1.50        -1.3606   0.0000                                                             
   Description                                                                                      
     l       E           TYP  RCUT    TYP  RCUT                                                     
     1    -28.6720912     23  2.000                                                                 
     1      6.8029130     23  2.000                                                                 
     0     -2.7439560     23  2.200                                                                 
     0     34.0145650     23  2.200                                                                 
     2     -1.3605826     23  2.200                                                                 
  local pseudopotential read in
  partial core-charges read in
  partial kinetic energy density read in
  atomic valenz-charges read in
  non local Contribution for L=           1  read in
    real space projection operators read in
  non local Contribution for L=           1  read in
    real space projection operators read in
  non local Contribution for L=           0  read in
    real space projection operators read in
  non local Contribution for L=           0  read in
    real space projection operators read in
    PAW grid and wavefunctions read in

   number of l-projection  operators is LMAX  =           4
   number of lm-projection operators is LMMAX =           8

 POTCAR:    PAW_PBE Zn 06Sep2000                  
   SHA256 =  501fddbd8274dd8e9725d4f3de27861d7f1e553a7e18441bc79fed8f346e7f23 Zn/POTCAR             
   COPYR  = (c) Copyright 06Sep2000 Georg Kresse                                                    
   COPYR  = This file is part of the software VASP. Any use, copying, and all other rights are regul
   COPYR  = If you do not have a valid VASP license, you may not use, copy or distribute this file. 
   VRHFIN =Zn: d10 p2                                                                               
   LEXCH  = PE                                                                                      
   EATOM  =  1748.8345 eV,  128.5357 Ry                                                             
                                                                                                    
   TITEL  = PAW_PBE Zn 06Sep2000                                                                    
   LULTRA =        F    use ultrasoft PP ?                                                          
   IUNSCR =        1    unscreen: 0-lin 1-nonlin 2-no                                               
   RPACOR =    2.000    partial core radius                                                         
   POMASS =   65.390; ZVAL   =   12.000    mass and valenz                                          
   RCORE  =    2.300    outmost cutoff radius                                                       
   RWIGS  =    2.400; RWIGS  =    1.270    wigner-seitz radius (au A)                               
   ENMAX  =  276.723; ENMIN  =  207.542 eV                                                          
   RCLOC  =    1.828    cutoff for local pot                                                        
   LCOR   =        T    correct aug charges                                                         
   LPAW   =        T    paw PP                                                                      
   EAUG   =  575.892                                                                                
   DEXC   =    0.000                                                                                
   RMAX   =    2.347    core radius for proj-oper                                                   
   RAUG   =    1.300    factor for augmentation sphere                                              
   RDEP   =    2.324    radius for radial grids                                                     
   RDEPT  =    1.788    core radius for aug-charge                                                  
                                                                                                    
   Atomic configuration                                                                             
    9 entries                                                                                       
     n  l   j            E        occ.                                                              
     1  0  0.50     -9524.6913   2.0000                                                             
     2  0  0.50     -1158.1882   2.0000                                                             
     2  1  1.50     -1003.8506   6.0000                                                             
     3  0  0.50      -129.2194   2.0000                                                             
     3  1  1.50       -83.3890   6.0000                                                             
     3  2  2.50       -10.1410  10.0000                                                             
     4  0  0.50        -5.9785   2.0000                                                             
     4  1  0.50        -4.0817   0.0000                                                             
     4  3  2.50        -1.3606   0.0000                                                             
   Description                                                                                      
     l       E           TYP  RCUT    TYP  RCUT                                                     
     2    -10.1410010     23  2.300                                                                 
     2    -11.5015836     23  2.300                                                                 
     0     -5.9785163     23  2.300                                                                 
     0      1.1858015     23  2.300                                                                 
     1     -2.7211652     23  2.300                                                                 
     1     13.2444212     23  2.300                                                                 
  local pseudopotential read in
  partial core-charges read in
  partial kinetic energy density read in
  atomic valenz-charges read in
  non local Contribution for L=           2  read in
    real space projection operators read in
  non local Contribution for L=           2  read in
    real space projection operators read in
  non local Contribution for L=           0  read in
    real space projection operators read in
  non local Contribution for L=           0  read in
    real space projection operators read in
  non local Contribution for L=           1  read in
    real space projection operators read in
  non local Contribution for L=           1  read in
    real space projection operators read in
    PAW grid and wavefunctions read in

   number of l-projection  operators is LMAX  =           6
   number of lm-projection operators is LMMAX =          18

 POTCAR:    PAW_PBE S 06Sep2000                   
   SHA256 =  0fc7481fb0695f01bdc6462160264c5c84044ae9ec85a907d398b887a2bc3132 S/POTCAR              
   COPYR  = (c) Copyright 06Sep2000 Georg Kresse                                                    
   COPYR  = This file is part of the software VASP. Any use, copying, and all other rights are regul
   COPYR  = If you do not have a valid VASP license, you may not use, copy or distribute this file. 
   VRHFIN =S : s2p4                                                                                 
   LEXCH  = PE                                                                                      
   EATOM  =   276.8230 eV,   20.3459 Ry                                                             
                                                                                                    
   TITEL  = PAW_PBE S 06Sep2000                                                                     
   LULTRA =        F    use ultrasoft PP ?                                                          
   IUNSCR =        1    unscreen: 0-lin 1-nonlin 2-no                                               
   RPACOR =    1.500    partial core radius                                                         
   POMASS =   32.066; ZVAL   =    6.000    mass and valenz                                          
   RCORE  =    1.900    outmost cutoff radius                                                       
   RWIGS  =    2.200; RWIGS  =    1.164    wigner-seitz radius (au A)                               
   ENMAX  =  258.689; ENMIN  =  194.016 eV                                                          
   ICORE  =        2    local potential                                                             
   LCOR   =        T    correct aug charges                                                         
   LPAW   =        T    paw PP                                                                      
   EAUG   =  335.092                                                                                
   DEXC   =    0.000                                                                                
   RMAX   =    1.942    core radius for proj-oper                                                   
   RAUG   =    1.300    factor for augmentation sphere                                              
   RDEP   =    1.954    radius for radial grids                                                     
   RDEPT  =    1.744    core radius for aug-charge                                                  
                                                                                                    
   Atomic configuration                                                                             
    6 entries                                                                                       
     n  l   j            E        occ.                                                              
     1  0  0.50     -2405.8406   2.0000                                                             
     2  0  0.50      -211.7007   2.0000                                                             
     2  1  1.50      -156.4958   6.0000                                                             
     3  0  0.50       -17.2562   2.0000                                                             
     3  1  0.50        -7.0085   4.0000                                                             
     3  2  1.50        -6.8029   0.0000                                                             
   Description                                                                                      
     l       E           TYP  RCUT    TYP  RCUT                                                     
     0    -17.2561641     23  1.900                                                                 
     0    -15.8743224     23  1.900                                                                 
     1     -7.0085400     23  1.900                                                                 
     1     -2.7779785     23  1.900                                                                 
     2     -6.8029130     23  1.900                                                                 
  local pseudopotential read in
  partial core-charges read in
  partial kinetic energy density read in
  atomic valenz-charges read in
  non local Contribution for L=           0  read in
    real space projection operators read in
  non local Contribution for L=           0  read in
    real space projection operators read in
  non local Contribution for L=           1  read in
    real space projection operators read in
  non local Contribution for L=           1  read in
    real space projection operators read in
    PAW grid and wavefunctions read in

   number of l-projection  operators is LMAX  =           4
   number of lm-projection operators is LMMAX =           8

 Optimization of the real space projectors (new method)

 maximal supplied QI-value         = 17.01
 optimisation between [QCUT,QGAM] = [ 10.20, 20.41] = [ 29.16,116.64] Ry 
 Optimized for a Real-space Cutoff    1.30 Angstroem

   l    n(q)    QCUT    max X(q) W(low)/X(q) W(high)/X(q)  e(spline) 
   1      7    10.205     4.940    0.23E-03    0.84E-03    0.11E-06
   1      7    10.205     6.253    0.40E-03    0.13E-02    0.18E-06
   0      8    10.205    37.438    0.23E-03    0.37E-03    0.42E-07
   0      8    10.205     9.606    0.16E-03    0.26E-03    0.31E-07
 Optimization of the real space projectors (new method)

 maximal supplied QI-value         = 16.25
 optimisation between [QCUT,QGAM] = [ 10.24, 20.48] = [ 29.35,117.42] Ry 
 Optimized for a Real-space Cutoff    1.38 Angstroem

   l    n(q)    QCUT    max X(q) W(low)/X(q) W(high)/X(q)  e(spline) 
   2      7    10.239    46.356    0.21E-03    0.48E-03    0.10E-06
   2      7    10.239    41.843    0.21E-03    0.50E-03    0.10E-06
   0      8    10.239    48.958    0.37E-03    0.79E-04    0.11E-06
   0      8    10.239    32.776    0.35E-03    0.73E-04    0.10E-06
   1      8    10.239    17.787    0.49E-03    0.70E-03    0.14E-06
   1      8    10.239    14.435    0.42E-03    0.61E-03    0.13E-06
 Optimization of the real space projectors (new method)

 maximal supplied QI-value         = 19.84
 optimisation between [QCUT,QGAM] = [ 10.12, 20.44] = [ 28.68,116.96] Ry 
 Optimized for a Real-space Cutoff    1.23 Angstroem

   l    n(q)    QCUT    max X(q) W(low)/X(q) W(high)/X(q)  e(spline) 
   0      7    10.119   187.594    0.62E-04    0.28E-03    0.52E-07
   0      7    10.119   164.243    0.61E-04    0.28E-03    0.52E-07
   1      7    10.119    67.533    0.45E-03    0.63E-03    0.13E-06
   1      7    10.119    50.729    0.44E-03    0.62E-03    0.12E-06
  PAW_PBE Na_pv 19Sep2006               :
 energy of atom  1       EATOM= -766.0439
 kinetic energy error for atom=    0.0103 (will be added to EATOM!!)
  PAW_PBE Zn 06Sep2000                  :
 energy of atom  2       EATOM=-1748.8345
 kinetic energy error for atom=    0.0107 (will be added to EATOM!!)
  PAW_PBE S 06Sep2000                   :
 energy of atom  3       EATOM= -276.8230
 kinetic energy error for atom=    0.0046 (will be added to EATOM!!)


 POSCAR: Na16 Zn12 S20
  positions in direct lattice
  No initial velocities read in
 exchange correlation table for  LEXCH =        8
   RHO(1)=    0.500       N(1)  =     2000
   RHO(2)=  100.500       N(2)  =     4000



--------------------------------------------------------------------------------------------------------


 ion  position               nearest neighbor table
   1  0.250  0.998  0.765-  29 2.69  35 2.76  35 2.76
   2  0.250  0.498  0.735-  30 2.69  36 2.76  36 2.76
   3  0.750  0.002  0.235-  31 2.69  33 2.76  33 2.76
   4  0.750  0.502  0.265-  32 2.69  34 2.76  34 2.76
   5  0.250  0.007  0.417-
   6  0.250  0.507  0.083-
   7  0.750  0.993  0.583-
   8  0.750  0.493  0.917-
   9  0.250  0.109  0.951-
  10  0.250  0.609  0.549-
  11  0.750  0.891  0.049-
  12  0.750  0.391  0.451-
  13  0.250  0.273  0.834-  36 2.78  36 2.78
  14  0.250  0.773  0.666-  35 2.78  35 2.78
  15  0.750  0.727  0.166-  34 2.78  34 2.78
  16  0.750  0.227  0.334-  33 2.78  33 2.78
  17  0.250  0.209  0.541-  29 2.39  45 2.40  40 2.40  40 2.40
  18  0.250  0.709  0.959-  30 2.39  46 2.40  39 2.40  39 2.40
  19  0.750  0.791  0.459-  31 2.39  47 2.40  38 2.40  38 2.40
  20  0.750  0.291  0.041-  32 2.39  48 2.40  37 2.40  37 2.40
  21  0.250  0.319  0.217-  33 2.32  32 2.42  32 2.42  41 2.49
  22  0.250  0.819  0.283-  34 2.32  31 2.42  31 2.42  42 2.49
  23  0.750  0.681  0.783-  35 2.32  30 2.42  30 2.42  43 2.49
  24  0.750  0.181  0.717-  36 2.32  29 2.42  29 2.42  44 2.49
  25  0.250  0.576  0.369-  34 2.35  47 2.39  47 2.39  41 2.48
  26  0.250  0.076  0.131-  33 2.35  48 2.39  48 2.39  42 2.48
  27  0.750  0.424  0.631-  36 2.35  45 2.39  45 2.39  43 2.48
  28  0.750  0.924  0.869-  35 2.35  46 2.39  46 2.39  44 2.48
  29  0.250  0.125  0.653-  17 2.39  24 2.42  24 2.42   1 2.69
  30  0.250  0.625  0.847-  18 2.39  23 2.42  23 2.42   2 2.69
  31  0.750  0.875  0.347-  19 2.39  22 2.42  22 2.42   3 2.69
  32  0.750  0.375  0.153-  20 2.39  21 2.42  21 2.42   4 2.69
  33  0.250  0.148  0.245-  21 2.32  26 2.35   3 2.76   3 2.76  16 2.78  16 2.78
  34  0.250  0.648  0.255-  22 2.32  25 2.35   4 2.76   4 2.76  15 2.78  15 2.78
  35  0.750  0.852  0.755-  23 2.32  28 2.35   1 2.76   1 2.76  14 2.78  14 2.78
  36  0.750  0.352  0.745-  24 2.32  27 2.35   2 2.76   2 2.76  13 2.78  13 2.78
  37  0.250  0.343  0.977-  20 2.40  20 2.40
  38  0.250  0.843  0.523-  19 2.40  19 2.40
  39  0.750  0.657  0.023-  18 2.40  18 2.40
  40  0.750  0.157  0.477-  17 2.40  17 2.40
  41  0.250  0.393  0.338-  25 2.48  21 2.49
  42  0.250  0.893  0.162-  26 2.48  22 2.49
  43  0.750  0.607  0.662-  27 2.48  23 2.49
  44  0.750  0.107  0.838-  28 2.48  24 2.49
  45  0.250  0.388  0.563-  27 2.39  27 2.39  17 2.40
  46  0.250  0.888  0.937-  28 2.39  28 2.39  18 2.40
  47  0.750  0.612  0.437-  25 2.39  25 2.39  19 2.40
  48  0.750  0.112  0.063-  26 2.39  26 2.39  20 2.40

  LATTYP: Found a simple orthorhombic cell.
 ALAT       =     3.9313710000
 B/A-ratio  =     3.3547543592
 C/A-ratio  =     4.8011118767
  
  Lattice vectors:
  
 A1 = (   3.9313710000,   0.0000000000,   0.0000000000)
 A2 = (  -0.0000000000,  13.1887840000,   0.0000000000)
 A3 = (   0.0000000000,   0.0000000000,  18.8749520000)


Analysis of symmetry for initial positions (statically):
=====================================================================
 Subroutine PRICEL returns:
 Original cell was already a primitive cell.
 

 Routine SETGRP: Setting up the symmetry group for a 
 simple orthorhombic supercell.


 Subroutine GETGRP returns: Found  8 space group operations
 (whereof  2 operations were pure point group operations)
 out of a pool of  8 trial point group operations.


The static configuration has the point symmetry S_2 .
 The point group associated with its full space group is D_2h.


Analysis of symmetry for dynamics (positions and initial velocities):
=====================================================================
 Subroutine PRICEL returns:
 Original cell was already a primitive cell.
 

 Routine SETGRP: Setting up the symmetry group for a 
 simple orthorhombic supercell.


 Subroutine GETGRP returns: Found  8 space group operations
 (whereof  2 operations were pure point group operations)
 out of a pool of  8 trial point group operations.


The dynamic configuration has the point symmetry S_2 .
 The point group associated with its full space group is D_2h.


 Subroutine INISYM returns: Found  8 space group operations
 (whereof  2 operations are pure point group operations),
 and found     1 'primitive' translations


----------------------------------------------------------------------------------------

                                     Primitive cell                                     

  volume of cell :     978.6663

  direct lattice vectors                    reciprocal lattice vectors
     3.931371000  0.000000000  0.000000000     0.254364190  0.000000000 -0.000000000
    -0.000000000 13.188784000  0.000000000     0.000000000  0.075822001  0.000000000
     0.000000000  0.000000000 18.874952000    -0.000000000 -0.000000000  0.052980267

  length of vectors
     3.931371000 13.188784000 18.874952000     0.254364190  0.075822001  0.052980267

  position of ions in fractional coordinates (direct lattice)
     0.250000000  0.997678000  0.764805000
     0.250000000  0.497678000  0.735195000
     0.750000000  0.002322000  0.235195000
     0.750000000  0.502322000  0.264805000
     0.250000000  0.007462000  0.417192000
     0.250000000  0.507462000  0.082808000
     0.750000000  0.992538000  0.582808000
     0.750000000  0.492538000  0.917192000
     0.250000000  0.109424000  0.950585000
     0.250000000  0.609424000  0.549415000
     0.750000000  0.890576000  0.049415000
     0.750000000  0.390576000  0.450585000
     0.250000000  0.273224000  0.833752000
     0.250000000  0.773224000  0.666248000
     0.750000000  0.726776000  0.166248000
     0.750000000  0.226776000  0.333752000
     0.250000000  0.209324000  0.541008000
     0.250000000  0.709324000  0.958992000
     0.750000000  0.790676000  0.458992000
     0.750000000  0.290676000  0.041008000
     0.250000000  0.319276000  0.216981000
     0.250000000  0.819276000  0.283019000
     0.750000000  0.680724000  0.783019000
     0.750000000  0.180724000  0.716981000
     0.250000000  0.575896000  0.368796000
     0.250000000  0.075896000  0.131204000
     0.750000000  0.424104000  0.631204000
     0.750000000  0.924104000  0.868796000
     0.250000000  0.125069000  0.653257000
     0.250000000  0.625069000  0.846743000
     0.750000000  0.874931000  0.346743000
     0.750000000  0.374931000  0.153257000
     0.250000000  0.148265000  0.245221000
     0.250000000  0.648265000  0.254779000
     0.750000000  0.851735000  0.754779000
     0.750000000  0.351735000  0.745221000
     0.250000000  0.342658000  0.977410000
     0.250000000  0.842658000  0.522590000
     0.750000000  0.657342000  0.022590000
     0.750000000  0.157342000  0.477410000
     0.250000000  0.393077000  0.338481000
     0.250000000  0.893077000  0.161519000
     0.750000000  0.606923000  0.661519000
     0.750000000  0.106923000  0.838481000
     0.250000000  0.388310000  0.563325000
     0.250000000  0.888310000  0.936675000
     0.750000000  0.611690000  0.436675000
     0.750000000  0.111690000  0.063325000

  ion indices of the primitive-cell ions
   primitive index   ion index
                 1           1
                 2           2
                 3           3
                 4           4
                 5           5
                 6           6
                 7           7
                 8           8
                 9           9
                10          10
                11          11
                12          12
                13          13
                14          14
                15          15
                16          16
                17          17
                18          18
                19          19
                20          20
                21          21
                22          22
                23          23
                24          24
                25          25
                26          26
                27          27
                28          28
                29          29
                30          30
                31          31
                32          32
                33          33
                34          34
                35          35
                36          36
                37          37
                38          38
                39          39
                40          40
                41          41
                42          42
                43          43
                44          44
                45          45
                46          46
                47          47
                48          48

----------------------------------------------------------------------------------------



 KPOINTS: pymatgen with grid density = 500 / numbe

Automatic generation of k-mesh.
 Grid dimensions read from file:
 generate k-points for:    5    1    1

 Generating k-lattice:

  Cartesian coordinates                     Fractional coordinates (reciprocal lattice)
     0.050872838  0.000000000 -0.000000000     0.200000000  0.000000000  0.000000000
     0.000000000  0.075822001  0.000000000     0.000000000  1.000000000  0.000000000
    -0.000000000 -0.000000000  0.052980267     0.000000000  0.000000000  1.000000000

  Length of vectors
     0.050872838  0.075822001  0.052980267

  Shift w.r.t. Gamma in fractional coordinates (k-lattice)
     0.000000000  0.000000000  0.000000000

 
 Subroutine IBZKPT returns following result:
 ===========================================
 
 Found      3 irreducible k-points:
 
 Following reciprocal coordinates:
            Coordinates               Weight
  0.000000  0.000000  0.000000      1.000000
  0.200000  0.000000  0.000000      2.000000
  0.400000  0.000000  0.000000      2.000000
 
 Following cartesian coordinates:
            Coordinates               Weight
  0.000000  0.000000  0.000000      1.000000
  0.050873  0.000000  0.000000      2.000000
  0.101746  0.000000  0.000000      2.000000
 


--------------------------------------------------------------------------------------------------------




 Dimension of arrays:
   k-points           NKPTS =      3   k-points in BZ     NKDIM =      3   number of bands    NBANDS=    256
   number of dos      NEDOS =    301   number of ions     NIONS =     48
   non local maximal  LDIM  =      6   non local SUM 2l+1 LMDIM =     18
   total plane-waves  NPLWV = 134400
   max r-space proj   IRMAX =   1563   max aug-charges    IRDMAX=   4526
   dimension x,y,z NGX =    20 NGY =   70 NGZ =   96
   dimension x,y,z NGXF=    40 NGYF=  140 NGZF=  192
   support grid    NGXF=    40 NGYF=  140 NGZF=  192
   ions per type =              16  12  20
   NGX,Y,Z   is equivalent  to a cutoff of   8.46,  8.82,  8.46 a.u.
   NGXF,Y,Z  is equivalent  to a cutoff of  16.91, 17.65, 16.91 a.u.

 SYSTEM =  unknown system                          
 POSCAR =  Na16 Zn12 S20                           

 Startparameter for this run:
   NWRITE =      2    write-flag & timer
   PREC   = normal    normal or accurate (medium, high low for compatibility)
   ISTART =      0    job   : 0-new  1-cont  2-samecut
   ICHARG =      2    charge: 1-file 2-atom 10-const
   ISPIN  =      1    spin polarized calculation?
   LNONCOLLINEAR =      F non collinear calculations
   LSORBIT =      F    spin-orbit coupling
   INIWAV =      1    electr: 0-lowe 1-rand  2-diag
   LASPH  =      F    aspherical Exc in radial PAW
 Electronic Relaxation 1
   ENCUT  =  400.0 eV  29.40 Ry    5.42 a.u.   6.41 21.51 30.78*2*pi/ulx,y,z
   ENINI  =  400.0     initial cutoff
   ENAUG  =  575.9 eV  augmentation charge cutoff
   NELM   =     60;   NELMIN=  2; NELMDL= -5     # of ELM steps 
   EDIFF  = 0.1E-04   stopping-criterion for ELM
   LREAL  =      T    real-space projection
   NLSPLINE    = F    spline interpolate recip. space projectors
   LCOMPAT=      F    compatible to vasp.4.4
   GGA_COMPAT  = T    GGA compatible to vasp.4.4-vasp.4.6
   LMAXPAW     = -100 max onsite density
   LMAXMIX     =    2 max onsite mixed and CHGCAR
   VOSKOWN=      0    Vosko Wilk Nusair interpolation
   ROPT   =   -0.00050  -0.00050  -0.00050
 Ionic relaxation
   EDIFFG = -.5E-01   stopping-criterion for IOM
   NSW    =    100    number of steps for IOM
   NBLOCK =      1;   KBLOCK =    100    inner block; outer block 
   IBRION =      2    ionic relax: 0-MD 1-quasi-New 2-CG
   NFREE  =      1    steps in history (QN), initial steepest desc. (CG)
   ISIF   =      3    stress and relaxation
   IWAVPR =     11    prediction:  0-non 1-charg 2-wave 3-comb
   ISYM   =      2    0-nonsym 1-usesym 2-fastsym
   LCORR  =      T    Harris-Foulkes like correction to forces

   POTIM  = 0.5000    time-step for ionic-motion
   TEIN   =    0.0    initial temperature
   TEBEG  =    0.0;   TEEND  =   0.0 temperature during run
   SMASS  =  -3.00    Nose mass-parameter (am)
   estimated Nose-frequenzy (Omega)   =  0.10E-29 period in steps = 0.13E+47 mass=  -0.353E-27a.u.
   SCALEE = 1.0000    scale energy and forces
   NPACO  =    256;   APACO  = 10.0  distance and # of slots for P.C.
   PSTRESS=    0.0 pullay stress

  Mass of Ions in am
   POMASS =  22.99 65.39 32.07
  Ionic Valenz
   ZVAL   =   7.00 12.00  6.00
  Atomic Wigner-Seitz radii
   RWIGS  =  -1.00 -1.00 -1.00
  virtual crystal weights 
   VCA    =   1.00  1.00  1.00
   NELECT =     376.0000    total number of electrons
   NUPDOWN=      -1.0000    fix difference up-down

 DOS related values:
   EMIN   =  10.00;   EMAX   =-10.00  energy-range for DOS
   EFERMI =   0.00
   ISMEAR =     0;   SIGMA  =   0.05  broadening in eV -4-tet -1-fermi 0-gaus

 Electronic relaxation 2 (details)
   IALGO  =     38    algorithm
   LDIAG  =      T    sub-space diagonalisation (order eigenvalues)
   LSUBROT=      F    optimize rotation matrix (better conditioning)
   TURBO    =      0    0=normal 1=particle mesh
   IRESTART =      0    0=no restart 2=restart with 2 vectors
   NREBOOT  =      0    no. of reboots
   NMIN     =      0    reboot dimension
   EREF     =   0.00    reference energy to select bands
   IMIX   =      4    mixing-type and parameters
     AMIX     =   0.40;   BMIX     =  1.00
     AMIX_MAG =   1.60;   BMIX_MAG =  1.00
     AMIN     =   0.10
     WC   =   100.;   INIMIX=   1;  MIXPRE=   1;  MAXMIX= -45

 Intra band minimization:
   WEIMIN = 0.0010     energy-eigenvalue tresh-hold
   EBREAK =  0.98E-08  absolut break condition
   DEPER  =   0.30     relativ break condition  

   TIME   =   0.40     timestep for ELM

  volume/ion in A,a.u.               =      20.39       137.59
  Fermi-wavevector in a.u.,A,eV,Ry     =   1.190125  2.249010 19.271257  1.416397
  Thomas-Fermi vector in A             =   2.326217

 Write flags
   LWAVE        =      F    write WAVECAR
   LDOWNSAMPLE  =      F    k-point downsampling of WAVECAR
   LCHARG       =      F    write CHGCAR
   LVTOT        =      F    write LOCPOT, total local potential
   LVHAR        =      F    write LOCPOT, Hartree potential only
   LELF         =      F    write electronic localiz. function (ELF)
   LORBIT       =      0    0 simple, 1 ext, 2 COOP (PROOUT), +10 PAW based schemes


 Dipole corrections
   LMONO  =      F    monopole corrections only (constant potential shift)
   LDIPOL =      F    correct potential (dipole corrections)
   IDIPOL =      0    1-x, 2-y, 3-z, 4-all directions 
   EPSILON=  1.0000000 bulk dielectric constant

 Exchange correlation treatment:
   GGA     =    --    GGA type
   LEXCH   =     8    internal setting for exchange type
   LIBXC   =     F    Libxc                    
   VOSKOWN =     0    Vosko Wilk Nusair interpolation
   LHFCALC =     F    Hartree Fock is set to
   LHFONE  =     F    Hartree Fock one center treatment
   AEXX    =    0.0000 exact exchange contribution

 Linear response parameters
   LEPSILON=     F    determine dielectric tensor
   LRPA    =     F    only Hartree local field effects (RPA)
   LNABLA  =     F    use nabla operator in PAW spheres
   LVEL    =     F    velocity operator in full k-point grid
   CSHIFT  =0.1000    complex shift for real part using Kramers Kronig
   OMEGAMAX=  -1.0    maximum frequency
   DEG_THRESHOLD= 0.2000000E-02 threshold for treating states as degnerate
   RTIME   =   -0.100 relaxation time in fs
  (WPLASMAI=    0.000 imaginary part of plasma frequency in eV, 0.658/RTIME)
   DFIELD  = 0.0000000 0.0000000 0.0000000 field for delta impulse in time

  Optional k-point grid parameters
   LKPOINTS_OPT  =     F    use optional k-point grid
   KPOINTS_OPT_MODE=     1    mode for optional k-point grid

 Orbital magnetization related:
   ORBITALMAG=     F  switch on orbital magnetization
   LCHIMAG   =     F  perturbation theory with respect to B field
   DQ        =  0.001000  dq finite difference perturbation B field
   LLRAUG    =     F  two centre corrections for induced B field



--------------------------------------------------------------------------------------------------------


 conjugate gradient relaxation of ions
 charge density and potential will be updated during run
 non-spin polarized calculation
 Variant of blocked Davidson
 Davidson routine will perform the subspace rotation
 perform sub-space diagonalisation
    after iterative eigenvector-optimisation
 modified Broyden-mixing scheme, WC =      100.0
 initial mixing is a Kerker type mixing with AMIX =  0.4000 and BMIX =      1.0000
 Hartree-type preconditioning will be used
 using additional bands           68
 real space projection scheme for non local part
 use partial core corrections
 calculate Harris-corrections to forces   (improved forces if not selfconsistent)
 use gradient corrections 
 use of overlap-Matrix (Vanderbilt PP)
 Gauss-broadening in eV      SIGMA  =   0.05


--------------------------------------------------------------------------------------------------------


  energy-cutoff  :      400.00
  volume of cell :      978.67
      direct lattice vectors                 reciprocal lattice vectors
     3.931371000  0.000000000  0.000000000     0.254364190  0.000000000 -0.000000000
    -0.000000000 13.188784000  0.000000000     0.000000000  0.075822001  0.000000000
     0.000000000  0.000000000 18.874952000    -0.000000000 -0.000000000  0.052980267

  length of vectors
     3.931371000 13.188784000 18.874952000     0.254364190  0.075822001  0.052980267



 k-points in units of 2pi/SCALE and weight: pymatgen with grid density = 500 / numbe
   0.00000000  0.00000000  0.00000000       0.200
   0.05087284  0.00000000  0.00000000       0.400
   0.10174568  0.00000000  0.00000000       0.400

 k-points in reciprocal lattice and weights: pymatgen with grid density = 500 / numbe
   0.00000000  0.00000000  0.00000000       0.200
   0.20000000  0.00000000  0.00000000       0.400
   0.40000000  0.00000000  0.00000000       0.400

 position of ions in fractional coordinates (direct lattice) 
   0.25000000  0.99767800  0.76480500
   0.25000000  0.49767800  0.73519500
   0.75000000  0.00232200  0.23519500
   0.75000000  0.50232200  0.26480500
   0.25000000  0.00746200  0.41719200
   0.25000000  0.50746200  0.08280800
   0.75000000  0.99253800  0.58280800
   0.75000000  0.49253800  0.91719200
   0.25000000  0.10942400  0.95058500
   0.25000000  0.60942400  0.54941500
   0.75000000  0.89057600  0.04941500
   0.75000000  0.39057600  0.45058500
   0.25000000  0.27322400  0.83375200
   0.25000000  0.77322400  0.66624800
   0.75000000  0.72677600  0.16624800
   0.75000000  0.22677600  0.33375200
   0.25000000  0.20932400  0.54100800
   0.25000000  0.70932400  0.95899200
   0.75000000  0.79067600  0.45899200
   0.75000000  0.29067600  0.04100800
   0.25000000  0.31927600  0.21698100
   0.25000000  0.81927600  0.28301900
   0.75000000  0.68072400  0.78301900
   0.75000000  0.18072400  0.71698100
   0.25000000  0.57589600  0.36879600
   0.25000000  0.07589600  0.13120400
   0.75000000  0.42410400  0.63120400
   0.75000000  0.92410400  0.86879600
   0.25000000  0.12506900  0.65325700
   0.25000000  0.62506900  0.84674300
   0.75000000  0.87493100  0.34674300
   0.75000000  0.37493100  0.15325700
   0.25000000  0.14826500  0.24522100
   0.25000000  0.64826500  0.25477900
   0.75000000  0.85173500  0.75477900
   0.75000000  0.35173500  0.74522100
   0.25000000  0.34265800  0.97741000
   0.25000000  0.84265800  0.52259000
   0.75000000  0.65734200  0.02259000
   0.75000000  0.15734200  0.47741000
   0.25000000  0.39307700  0.33848100
   0.25000000  0.89307700  0.16151900
   0.75000000  0.60692300  0.66151900
   0.75000000  0.10692300  0.83848100
   0.25000000  0.38831000  0.56332500
   0.25000000  0.88831000  0.93667500
   0.75000000  0.61169000  0.43667500
   0.75000000  0.11169000  0.06332500

 position of ions in cartesian coordinates  (Angst):
   0.98284275 13.15815964 14.43565766
   0.98284275  6.56376764 13.87677034
   2.94852825  0.03062436  4.43929434
   2.94852825  6.62501636  4.99818166
   0.98284275  0.09841471  7.87447897
   0.98284275  6.69280671  1.56299703
   2.94852825 13.09036929 11.00047303
   2.94852825  6.49597729 17.31195497
   0.98284275  1.44316950 17.94224625
   0.98284275  8.03756150 10.37018175
   2.94852825 11.74561450  0.93270575
   2.94852825  5.15122250  8.50477025
   0.98284275  3.60349232 15.73702898
   0.98284275 10.19788432 12.57539902
   2.94852825  9.58529168  3.13792302
   2.94852825  2.99089968  6.29955298
   0.98284275  2.76072902 10.21150003
   0.98284275  9.35512102 18.10092797
   2.94852825 10.42805498  8.66345197
   2.94852825  3.83366298  0.77402403
   0.98284275  4.21086220  4.09550596
   0.98284275 10.80525420  5.34197004
   2.94852825  8.97792180 14.77944604
   2.94852825  2.38352980 13.53298196
   0.98284275  7.59536795  6.96100680
   0.98284275  1.00097595  2.47646920
   2.94852825  5.59341605 11.91394520
   2.94852825 12.18780805 16.39848280
   0.98284275  1.64950803 12.33019452
   0.98284275  8.24390003 15.98223348
   2.94852825 11.53927597  6.54475748
   2.94852825  4.94488397  2.89271852
   0.98284275  1.95543506  4.62853460
   0.98284275  8.54982706  4.80894140
   2.94852825 11.23334894 14.24641740
   2.94852825  4.63895694 14.06601060
   0.98284275  4.51924235 18.44856683
   0.98284275 11.11363435  9.86386117
   2.94852825  8.66954165  0.42638517
   2.94852825  2.07514965  9.01109083
   0.98284275  5.18420765  6.38881263
   0.98284275 11.77859965  3.04866337
   2.94852825  8.00457635 12.48613937
   2.94852825  1.41018435 15.82628863
   0.98284275  5.12133672 10.63273234
   0.98284275 11.71572872 17.67969566
   2.94852825  8.06744728  8.24221966
   2.94852825  1.47305528  1.19525634



--------------------------------------------------------------------------------------------------------


 k-point   1 :   0.0000 0.0000 0.0000  plane waves:   17855
 k-point   2 :   0.2000 0.0000 0.0000  plane waves:   17805
 k-point   3 :   0.4000 0.0000 0.0000  plane waves:   17729

 maximum and minimum number of plane-waves per node :     17855    17729

 maximum number of plane-waves:     17855
 maximum index in each direction: 
   IXMAX=    6   IYMAX=   21   IZMAX=   30
   IXMIN=   -6   IYMIN=  -21   IZMIN=  -30


 serial   3D FFT for wavefunctions
 parallel 3D FFT for charge:
    minimum data exchange during FFTs selected (reduces bandwidth)


 total amount of memory used by VASP MPI-rank0    55727. kBytes
=======================================================================

   base      :      30000. kBytes
   nonlr-proj:       6861. kBytes
   fftplans  :       2202. kBytes
   grid      :       8865. kBytes
   one-center:        746. kBytes
   wavefun   :       7053. kBytes

     INWAV:  cpu time      0.0000: real time      0.0002
 Broyden mixing: mesh for mixing (old mesh)
   NGX = 13   NGY = 43   NGZ = 61
  (NGX  = 40   NGY  =140   NGZ  =192)
  gives a total of  34099 points

 initial charge density was supplied:
 charge density of overlapping atoms calculated
 number of electron     376.0000000 magnetization 
 keeping initial charge density in first step


--------------------------------------------------------------------------------------------------------


 Maximum index for non-local projection operator         1474
 Maximum index for augmentation-charges          307 (set IRDMAX)


--------------------------------------------------------------------------------------------------------


 First call to EWALD:  gamma=   0.179
 Maximum number of real-space cells 6x 2x 2
 Maximum number of reciprocal cells 1x 3x 5

    FEWALD:  cpu time      0.0017: real time      0.0018


--------------------------------------- Iteration      1(   1)  ---------------------------------------


    POTLOK:  cpu time      0.0356: real time      0.0358
    SETDIJ:  cpu time      0.0041: real time      0.0044
     EDDAV:  cpu time      1.5185: real time      1.5196
       DOS:  cpu time      0.0010: real time      0.0011
    --------------------------------------------
      LOOP:  cpu time      1.5591: real time      1.5610

 eigenvalue-minimisations  :  1536
 total energy-change (2. order) : 0.3370168E+04  (-0.1491711E+05)
 number of electron     376.0000000 magnetization 
 augmentation part      376.0000000 magnetization 

 Free energy of the ion-electron system (eV)
  ---------------------------------------------------
  alpha Z        PSCENC =      1069.15744471
  Ewald energy   TEWEN  =    -21875.34559691
  -Hartree energ DENC   =    -13119.37269634
  -exchange      EXHF   =         0.00000000
  -V(xc)+E(xc)   XCENC  =      1324.90310924
  PAW double counting   =     29849.99820037   -33334.13884828
  entropy T*S    EENTRO =        -0.01187057
  eigenvalues    EBANDS =       676.18811819
  atomic energy  EATOM  =     38778.79057007
  Solvation  Ediel_sol  =         0.00000000
  ---------------------------------------------------
  free energy    TOTEN  =      3370.16843048 eV

  energy without entropy =     3370.18030106  energy(sigma->0) =     3370.17436577


--------------------------------------------------------------------------------------------------------




--------------------------------------- Iteration      1(   2)  ---------------------------------------


     EDDAV:  cpu time      1.5260: real time      1.5308
       DOS:  cpu time      0.0002: real time      0.0003
    --------------------------------------------
      LOOP:  cpu time      1.5262: real time      1.5311

 eigenvalue-minimisations  :  1536
 total energy-change (2. order) :-0.3041257E+04  (-0.2877880E+04)
 number of electron     376.0000000 magnetization 
 augmentation part      376.0000000 magnetization 

 Free energy of the ion-electron system (eV)
  ---------------------------------------------------
  alpha Z        PSCENC =      1069.15744471
  Ewald energy   TEWEN  =    -21875.34559691
  -Hartree energ DENC   =    -13119.37269634
  -exchange      EXHF   =         0.00000000
  -V(xc)+E(xc)   XCENC  =      1324.90310924
  PAW double counting   =     29849.99820037   -33334.13884828
  entropy T*S    EENTRO =        -0.00000000
  eigenvalues    EBANDS =     -2365.08034794
  atomic energy  EATOM  =     38778.79057007
  Solvation  Ediel_sol  =         0.00000000
  ---------------------------------------------------
  free energy    TOTEN  =       328.91183492 eV

  energy without entropy =      328.91183492  energy(sigma->0) =      328.91183492


--------------------------------------------------------------------------------------------------------




--------------------------------------- Iteration      1(   3)  ---------------------------------------


     EDDAV:  cpu time      1.7279: real time      1.7299
       DOS:  cpu time      0.0002: real time      0.0003
    --------------------------------------------
      LOOP:  cpu time      1.7281: real time      1.7302

 eigenvalue-minimisations  :  1760
 total energy-change (2. order) :-0.4742414E+03  (-0.4628280E+03)
 number of electron     376.0000000 magnetization 
 augmentation part      376.0000000 magnetization 

 Free energy of the ion-electron system (eV)
  ---------------------------------------------------
  alpha Z        PSCENC =      1069.15744471
  Ewald energy   TEWEN  =    -21875.34559691
  -Hartree energ DENC   =    -13119.37269634
  -exchange      EXHF   =         0.00000000
  -V(xc)+E(xc)   XCENC  =      1324.90310924
  PAW double counting   =     29849.99820037   -33334.13884828
  entropy T*S    EENTRO =        -0.00000000
  eigenvalues    EBANDS =     -2839.32174680
  atomic energy  EATOM  =     38778.79057007
  Solvation  Ediel_sol  =         0.00000000
  ---------------------------------------------------
  free energy    TOTEN  =      -145.32956394 eV

  energy without entropy =     -145.32956394  energy(sigma->0) =     -145.32956394


--------------------------------------------------------------------------------------------------------




--------------------------------------- Iteration      1(   4)  ---------------------------------------


     EDDAV:  cpu time      1.8412: real time      1.8426
       DOS:  cpu time      0.0002: real time      0.0003
    --------------------------------------------
      LOOP:  cpu time      1.8414: real time      1.8429

 eigenvalue-minimisations  :  1856
 total energy-change (2. order) :-0.2832668E+02  (-0.2808044E+02)
 number of electron     376.0000000 magnetization 
 augmentation part      376.0000000 magnetization 

 Free energy of the ion-electron system (eV)
  ---------------------------------------------------
  alpha Z        PSCENC =      1069.15744471
  Ewald energy   TEWEN  =    -21875.34559691
  -Hartree energ DENC   =    -13119.37269634
  -exchange      EXHF   =         0.00000000
  -V(xc)+E(xc)   XCENC  =      1324.90310924
  PAW double counting   =     29849.99820037   -33334.13884828
  entropy T*S    EENTRO =        -0.00000000
  eigenvalues    EBANDS =     -2867.64842561
  atomic energy  EATOM  =     38778.79057007
  Solvation  Ediel_sol  =         0.00000000
  ---------------------------------------------------
  free energy    TOTEN  =      -173.65624274 eV

  energy without entropy =     -173.65624274  energy(sigma->0) =     -173.65624274


--------------------------------------------------------------------------------------------------------




--------------------------------------- Iteration      1(   5)  ---------------------------------------


     EDDAV:  cpu time      1.8679: real time      1.8693
       DOS:  cpu time      0.0003: real time      0.0004
    CHARGE:  cpu time      0.0634: real time      0.0636
    MIXING:  cpu time      0.0011: real time      0.0013
    --------------------------------------------
      LOOP:  cpu time      1.9326: real time      1.9345

 eigenvalue-minimisations  :  1888
 total energy-change (2. order) :-0.8155787E+00  (-0.8145910E+00)
 number of electron     375.9999414 magnetization 
 augmentation part      149.9771748 magnetization 

 Broyden mixing:
  rms(total) = 0.23925E+01    rms(broyden)= 0.23924E+01
  rms(prec ) = 0.25633E+01
  weight for this iteration     100.00

 Free energy of the ion-electron system (eV)
  ---------------------------------------------------
  alpha Z        PSCENC =      1069.15744471
  Ewald energy   TEWEN  =    -21875.34559691
  -Hartree energ DENC   =    -13119.37269634
  -exchange      EXHF   =         0.00000000
  -V(xc)+E(xc)   XCENC  =      1324.90310924
  PAW double counting   =     29849.99820037   -33334.13884828
  entropy T*S    EENTRO =        -0.00000000
  eigenvalues    EBANDS =     -2868.46400428
  atomic energy  EATOM  =     38778.79057007
  Solvation  Ediel_sol  =         0.00000000
  ---------------------------------------------------
  free energy    TOTEN  =      -174.47182142 eV

  energy without entropy =     -174.47182142  energy(sigma->0) =     -174.47182142


--------------------------------------------------------------------------------------------------------




--------------------------------------- Iteration      1(   6)  ---------------------------------------


    POTLOK:  cpu time      0.0298: real time      0.0300
    SETDIJ:  cpu time      0.0034: real time      0.0034
     EDDAV:  cpu time      2.1547: real time      2.1563
       DOS:  cpu time      0.0003: real time      0.0004
    CHARGE:  cpu time      0.0620: real time      0.0620
    MIXING:  cpu time      0.0010: real time      0.0011
    --------------------------------------------
      LOOP:  cpu time      2.2512: real time      2.2532

 eigenvalue-minimisations  :  2208
 total energy-change (2. order) : 0.1166689E+02  (-0.1920151E+01)
 number of electron     375.9999395 magnetization 
 augmentation part      151.8571795 magnetization 

 Broyden mixing:
  rms(total) = 0.19629E+01    rms(broyden)= 0.19629E+01
  rms(prec ) = 0.19937E+01
  weight for this iteration     100.00

 eigenvalues of (default mixing * dielectric matrix)
  average eigenvalue GAMMA=   1.3631
  1.3631

 Free energy of the ion-electron system (eV)
  ---------------------------------------------------
  alpha Z        PSCENC =      1069.15744471
  Ewald energy   TEWEN  =    -21875.34559691
  -Hartree energ DENC   =    -13014.32372941
  -exchange      EXHF   =         0.00000000
  -V(xc)+E(xc)   XCENC  =      1327.60785075
  PAW double counting   =     31713.05627647   -35157.45847767
  entropy T*S    EENTRO =        -0.00000000
  eigenvalues    EBANDS =     -3004.28927201
  atomic energy  EATOM  =     38778.79057007
  Solvation  Ediel_sol  =         0.00000000
  ---------------------------------------------------
  free energy    TOTEN  =      -162.80493399 eV

  energy without entropy =     -162.80493399  energy(sigma->0) =     -162.80493399


--------------------------------------------------------------------------------------------------------




--------------------------------------- Iteration      1(   7)  ---------------------------------------


    POTLOK:  cpu time      0.0303: real time      0.0307
    SETDIJ:  cpu time      0.0034: real time      0.0034
     EDDAV:  cpu time      1.8298: real time      1.8307
       DOS:  cpu time      0.0002: real time      0.0004
    CHARGE:  cpu time      0.0623: real time      0.0623
    MIXING:  cpu time      0.0008: real time      0.0008
    --------------------------------------------
      LOOP:  cpu time      1.9268: real time      1.9284

 eigenvalue-minimisations  :  1856
 total energy-change (2. order) : 0.4600247E-01  (-0.1823286E+01)
 number of electron     375.9999397 magnetization 
 augmentation part      152.0425477 magnetization 

 Broyden mixing:
  rms(total) = 0.11148E+01    rms(broyden)= 0.11148E+01
  rms(prec ) = 0.11239E+01
  weight for this iteration     100.00

 eigenvalues of (default mixing * dielectric matrix)
  average eigenvalue GAMMA=   1.5803
  0.9937  2.1668

 Free energy of the ion-electron system (eV)
  ---------------------------------------------------
  alpha Z        PSCENC =      1069.15744471
  Ewald energy   TEWEN  =    -21875.34559691
  -Hartree energ DENC   =    -13030.69099158
  -exchange      EXHF   =         0.00000000
  -V(xc)+E(xc)   XCENC  =      1332.45880855
  PAW double counting   =     34319.90856137   -37798.03021434
  entropy T*S    EENTRO =        -0.00000000
  eigenvalues    EBANDS =     -2959.00751340
  atomic energy  EATOM  =     38778.79057007
  Solvation  Ediel_sol  =         0.00000000
  ---------------------------------------------------
  free energy    TOTEN  =      -162.75893152 eV

  energy without entropy =     -162.75893152  energy(sigma->0) =     -162.75893152


--------------------------------------------------------------------------------------------------------




--------------------------------------- Iteration      1(   8)  ---------------------------------------


    POTLOK:  cpu time      0.0299: real time      0.0301
    SETDIJ:  cpu time      0.0033: real time      0.0033
     EDDAV:  cpu time      1.8264: real time      1.8274
       DOS:  cpu time      0.0002: real time      0.0005
    CHARGE:  cpu time      0.0623: real time      0.0625
    MIXING:  cpu time      0.0011: real time      0.0011
    --------------------------------------------
      LOOP:  cpu time      1.9232: real time      1.9249

 eigenvalue-minimisations  :  1856
 total energy-change (2. order) : 0.5429792E-01  (-0.6933929E-01)
 number of electron     375.9999399 magnetization 
 augmentation part      151.8521333 magnetization 

 Broyden mixing:
  rms(total) = 0.30533E+00    rms(broyden)= 0.30532E+00
  rms(prec ) = 0.31064E+00
  weight for this iteration     100.00

 eigenvalues of (default mixing * dielectric matrix)
  average eigenvalue GAMMA=   1.5348
  2.4116  1.0965  1.0965

 Free energy of the ion-electron system (eV)
  ---------------------------------------------------
  alpha Z        PSCENC =      1069.15744471
  Ewald energy   TEWEN  =    -21875.34559691
  -Hartree energ DENC   =    -13018.75240219
  -exchange      EXHF   =         0.00000000
  -V(xc)+E(xc)   XCENC  =      1332.60772920
  PAW double counting   =     36580.00532722   -40072.24985805
  entropy T*S    EENTRO =        -0.00000000
  eigenvalues    EBANDS =     -2956.91784764
  atomic energy  EATOM  =     38778.79057007
  Solvation  Ediel_sol  =         0.00000000
  ---------------------------------------------------
  free energy    TOTEN  =      -162.70463360 eV

  energy without entropy =     -162.70463360  energy(sigma->0) =     -162.70463360


--------------------------------------------------------------------------------------------------------




--------------------------------------- Iteration      1(   9)  ---------------------------------------


    POTLOK:  cpu time      0.0296: real time      0.0299
    SETDIJ:  cpu time      0.0033: real time      0.0033
     EDDAV:  cpu time      1.8634: real time      1.8645
       DOS:  cpu time      0.0002: real time      0.0004
    CHARGE:  cpu time      0.0621: real time      0.0621
    MIXING:  cpu time      0.0008: real time      0.0008
    --------------------------------------------
      LOOP:  cpu time      1.9595: real time      1.9610

 eigenvalue-minimisations  :  1888
 total energy-change (2. order) :-0.1224656E-01  (-0.1807162E-01)
 number of electron     375.9999397 magnetization 
 augmentation part      151.9288434 magnetization 

 Broyden mixing:
  rms(total) = 0.76886E-01    rms(broyden)= 0.76885E-01
  rms(prec ) = 0.79672E-01
  weight for this iteration     100.00

 eigenvalues of (default mixing * dielectric matrix)
  average eigenvalue GAMMA=   1.3931
  2.2508  1.0050  1.0050  1.3115

 Free energy of the ion-electron system (eV)
  ---------------------------------------------------
  alpha Z        PSCENC =      1069.15744471
  Ewald energy   TEWEN  =    -21875.34559691
  -Hartree energ DENC   =    -13006.47381006
  -exchange      EXHF   =         0.00000000
  -V(xc)+E(xc)   XCENC  =      1332.72962670
  PAW double counting   =     37490.28897560   -40982.41735026
  entropy T*S    EENTRO =        -0.00000000
  eigenvalues    EBANDS =     -2969.44674001
  atomic energy  EATOM  =     38778.79057007
  Solvation  Ediel_sol  =         0.00000000
  ---------------------------------------------------
  free energy    TOTEN  =      -162.71688017 eV

  energy without entropy =     -162.71688017  energy(sigma->0) =     -162.71688017


--------------------------------------------------------------------------------------------------------




--------------------------------------- Iteration      1(  10)  ---------------------------------------


    POTLOK:  cpu time      0.0298: real time      0.0300
    SETDIJ:  cpu time      0.0033: real time      0.0033
     EDDAV:  cpu time      1.7866: real time      1.7879
       DOS:  cpu time      0.0002: real time      0.0004
    CHARGE:  cpu time      0.0624: real time      0.0625
    MIXING:  cpu time      0.0009: real time      0.0009
    --------------------------------------------
      LOOP:  cpu time      1.8834: real time      1.8851

 eigenvalue-minimisations  :  1824
 total energy-change (2. order) :-0.3130368E-02  (-0.2815783E-02)
 number of electron     375.9999398 magnetization 
 augmentation part      151.9047853 magnetization 

 Broyden mixing:
  rms(total) = 0.51531E-01    rms(broyden)= 0.51531E-01
  rms(prec ) = 0.53702E-01
  weight for this iteration     100.00

 eigenvalues of (default mixing * dielectric matrix)
  average eigenvalue GAMMA=   1.6128
  2.4744  2.4744  1.0480  1.0480  1.0192

 Free energy of the ion-electron system (eV)
  ---------------------------------------------------
  alpha Z        PSCENC =      1069.15744471
  Ewald energy   TEWEN  =    -21875.34559691
  -Hartree energ DENC   =    -13008.10099666
  -exchange      EXHF   =         0.00000000
  -V(xc)+E(xc)   XCENC  =      1332.70627608
  PAW double counting   =     37365.58519632   -40858.22953721
  entropy T*S    EENTRO =        -0.00000000
  eigenvalues    EBANDS =     -2967.28336694
  atomic energy  EATOM  =     38778.79057007
  Solvation  Ediel_sol  =         0.00000000
  ---------------------------------------------------
  free energy    TOTEN  =      -162.72001053 eV

  energy without entropy =     -162.72001053  energy(sigma->0) =     -162.72001053


--------------------------------------------------------------------------------------------------------




--------------------------------------- Iteration      1(  11)  ---------------------------------------


    POTLOK:  cpu time      0.0297: real time      0.0299
    SETDIJ:  cpu time      0.0033: real time      0.0033
     EDDAV:  cpu time      1.7401: real time      1.7419
       DOS:  cpu time      0.0004: real time      0.0006
    CHARGE:  cpu time      0.0623: real time      0.0623
    MIXING:  cpu time      0.0010: real time      0.0010
    --------------------------------------------
      LOOP:  cpu time      1.8368: real time      1.8390

 eigenvalue-minimisations  :  1760
 total energy-change (2. order) :-0.3555043E-02  (-0.9856788E-03)
 number of electron     375.9999398 magnetization 
 augmentation part      151.9000621 magnetization 

 Broyden mixing:
  rms(total) = 0.22143E-01    rms(broyden)= 0.22143E-01
  rms(prec ) = 0.23244E-01
  weight for this iteration     100.00

 eigenvalues of (default mixing * dielectric matrix)
  average eigenvalue GAMMA=   1.4800
  2.3985  2.3985  1.1902  1.0341  1.0341  0.8246

 Free energy of the ion-electron system (eV)
  ---------------------------------------------------
  alpha Z        PSCENC =      1069.15744471
  Ewald energy   TEWEN  =    -21875.34559691
  -Hartree energ DENC   =    -13009.40199641
  -exchange      EXHF   =         0.00000000
  -V(xc)+E(xc)   XCENC  =      1332.78687544
  PAW double counting   =     37204.68467726   -40697.43087830
  entropy T*S    EENTRO =        -0.00000000
  eigenvalues    EBANDS =     -2965.96466143
  atomic energy  EATOM  =     38778.79057007
  Solvation  Ediel_sol  =         0.00000000
  ---------------------------------------------------
  free energy    TOTEN  =      -162.72356558 eV

  energy without entropy =     -162.72356558  energy(sigma->0) =     -162.72356558


--------------------------------------------------------------------------------------------------------




--------------------------------------- Iteration      1(  12)  ---------------------------------------


    POTLOK:  cpu time      0.0308: real time      0.0310
    SETDIJ:  cpu time      0.0034: real time      0.0034
     EDDAV:  cpu time      1.9467: real time      1.9476
       DOS:  cpu time      0.0004: real time      0.0005
    CHARGE:  cpu time      0.0626: real time      0.0628
    MIXING:  cpu time      0.0011: real time      0.0011
    --------------------------------------------
      LOOP:  cpu time      2.0449: real time      2.0465

 eigenvalue-minimisations  :  1952
 total energy-change (2. order) :-0.2528079E-03  (-0.2392591E-03)
 number of electron     375.9999398 magnetization 
 augmentation part      151.9016382 magnetization 

 Broyden mixing:
  rms(total) = 0.14601E-01    rms(broyden)= 0.14600E-01
  rms(prec ) = 0.15150E-01
  weight for this iteration     100.00

 eigenvalues of (default mixing * dielectric matrix)
  average eigenvalue GAMMA=   1.4327
  2.3583  2.3583  1.5106  1.0530  1.0530  0.8477  0.8477

 Free energy of the ion-electron system (eV)
  ---------------------------------------------------
  alpha Z        PSCENC =      1069.15744471
  Ewald energy   TEWEN  =    -21875.34559691
  -Hartree energ DENC   =    -13009.04618410
  -exchange      EXHF   =         0.00000000
  -V(xc)+E(xc)   XCENC  =      1332.82067196
  PAW double counting   =     37251.53349516   -40744.42966314
  entropy T*S    EENTRO =        -0.00000000
  eigenvalues    EBANDS =     -2966.20455614
  atomic energy  EATOM  =     38778.79057007
  Solvation  Ediel_sol  =         0.00000000
  ---------------------------------------------------
  free energy    TOTEN  =      -162.72381838 eV

  energy without entropy =     -162.72381838  energy(sigma->0) =     -162.72381838


--------------------------------------------------------------------------------------------------------




--------------------------------------- Iteration      1(  13)  ---------------------------------------


    POTLOK:  cpu time      0.0297: real time      0.0299
    SETDIJ:  cpu time      0.0033: real time      0.0033
     EDDAV:  cpu time      1.8893: real time      1.8905
       DOS:  cpu time      0.0004: real time      0.0005
    CHARGE:  cpu time      0.0621: real time      0.0621
    MIXING:  cpu time      0.0010: real time      0.0010
    --------------------------------------------
      LOOP:  cpu time      1.9858: real time      1.9873

 eigenvalue-minimisations  :  1888
 total energy-change (2. order) :-0.1239197E-03  (-0.5819456E-04)
 number of electron     375.9999398 magnetization 
 augmentation part      151.9034089 magnetization 

 Broyden mixing:
  rms(total) = 0.79736E-02    rms(broyden)= 0.79735E-02
  rms(prec ) = 0.83819E-02
  weight for this iteration     100.00

 eigenvalues of (default mixing * dielectric matrix)
  average eigenvalue GAMMA=   1.5360
  2.9319  2.4597  2.1667  0.9297  0.9297  1.0675  1.0270  0.7753

 Free energy of the ion-electron system (eV)
  ---------------------------------------------------
  alpha Z        PSCENC =      1069.15744471
  Ewald energy   TEWEN  =    -21875.34559691
  -Hartree energ DENC   =    -13009.10554649
  -exchange      EXHF   =         0.00000000
  -V(xc)+E(xc)   XCENC  =      1332.83267768
  PAW double counting   =     37241.40580024   -40734.28258547
  entropy T*S    EENTRO =        -0.00000000
  eigenvalues    EBANDS =     -2966.17670612
  atomic energy  EATOM  =     38778.79057007
  Solvation  Ediel_sol  =         0.00000000
  ---------------------------------------------------
  free energy    TOTEN  =      -162.72394230 eV

  energy without entropy =     -162.72394230  energy(sigma->0) =     -162.72394230


--------------------------------------------------------------------------------------------------------




--------------------------------------- Iteration      1(  14)  ---------------------------------------


    POTLOK:  cpu time      0.0296: real time      0.0298
    SETDIJ:  cpu time      0.0033: real time      0.0033
     EDDAV:  cpu time      1.9813: real time      1.9827
       DOS:  cpu time      0.0003: real time      0.0005
    CHARGE:  cpu time      0.0622: real time      0.0622
    MIXING:  cpu time      0.0010: real time      0.0010
    --------------------------------------------
      LOOP:  cpu time      2.0778: real time      2.0796

 eigenvalue-minimisations  :  1984
 total energy-change (2. order) :-0.1288678E-03  (-0.3867129E-04)
 number of electron     375.9999398 magnetization 
 augmentation part      151.9047040 magnetization 

 Broyden mixing:
  rms(total) = 0.31678E-02    rms(broyden)= 0.31678E-02
  rms(prec ) = 0.32470E-02
  weight for this iteration     100.00

 eigenvalues of (default mixing * dielectric matrix)
  average eigenvalue GAMMA=   1.4778
  2.9001  2.3569  2.3569  1.2417  0.9732  0.9732  0.8464  0.8464  0.8056

 Free energy of the ion-electron system (eV)
  ---------------------------------------------------
  alpha Z        PSCENC =      1069.15744471
  Ewald energy   TEWEN  =    -21875.34559691
  -Hartree energ DENC   =    -13009.28902131
  -exchange      EXHF   =         0.00000000
  -V(xc)+E(xc)   XCENC  =      1332.84797626
  PAW double counting   =     37221.33450425   -40714.23887518
  entropy T*S    EENTRO =        -0.00000000
  eigenvalues    EBANDS =     -2965.98107306
  atomic energy  EATOM  =     38778.79057007
  Solvation  Ediel_sol  =         0.00000000
  ---------------------------------------------------
  free energy    TOTEN  =      -162.72407117 eV

  energy without entropy =     -162.72407117  energy(sigma->0) =     -162.72407117


--------------------------------------------------------------------------------------------------------




--------------------------------------- Iteration      1(  15)  ---------------------------------------


    POTLOK:  cpu time      0.0301: real time      0.0303
    SETDIJ:  cpu time      0.0033: real time      0.0033
     EDDAV:  cpu time      1.7935: real time      1.7947
       DOS:  cpu time      0.0003: real time      0.0006
    CHARGE:  cpu time      0.0621: real time      0.0621
    MIXING:  cpu time      0.0011: real time      0.0011
    --------------------------------------------
      LOOP:  cpu time      1.8904: real time      1.8921

 eigenvalue-minimisations  :  1792
 total energy-change (2. order) :-0.5327653E-05  (-0.1257890E-04)
 number of electron     375.9999398 magnetization 
 augmentation part      151.9038249 magnetization 

 Broyden mixing:
  rms(total) = 0.20452E-02    rms(broyden)= 0.20451E-02
  rms(prec ) = 0.21150E-02
  weight for this iteration     100.00

 eigenvalues of (default mixing * dielectric matrix)
  average eigenvalue GAMMA=   1.3737
  2.9137  2.3042  2.3042  1.1896  0.9399  0.9399  0.9232  0.9232  0.7880  0.5112

 Free energy of the ion-electron system (eV)
  ---------------------------------------------------
  alpha Z        PSCENC =      1069.15744471
  Ewald energy   TEWEN  =    -21875.34559691
  -Hartree energ DENC   =    -13009.33872064
  -exchange      EXHF   =         0.00000000
  -V(xc)+E(xc)   XCENC  =      1332.84974450
  PAW double counting   =     37228.98035191   -40721.94140051
  entropy T*S    EENTRO =        -0.00000000
  eigenvalues    EBANDS =     -2965.87646963
  atomic energy  EATOM  =     38778.79057007
  Solvation  Ediel_sol  =         0.00000000
  ---------------------------------------------------
  free energy    TOTEN  =      -162.72407650 eV

  energy without entropy =     -162.72407650  energy(sigma->0) =     -162.72407650


--------------------------------------------------------------------------------------------------------




--------------------------------------- Iteration      1(  16)  ---------------------------------------


    POTLOK:  cpu time      0.0293: real time      0.0296
    SETDIJ:  cpu time      0.0033: real time      0.0033
     EDDAV:  cpu time      1.2036: real time      1.2044
       DOS:  cpu time      0.0002: real time      0.0003
    --------------------------------------------
      LOOP:  cpu time      1.2365: real time      1.2376

 eigenvalue-minimisations  :  1056
 total energy-change (2. order) :-0.7500057E-06  (-0.9644674E-06)
 number of electron     375.9999398 magnetization 
 augmentation part      151.9038249 magnetization 

 Free energy of the ion-electron system (eV)
  ---------------------------------------------------
  alpha Z        PSCENC =      1069.15744471
  Ewald energy   TEWEN  =    -21875.34559691
  -Hartree energ DENC   =    -13009.36268799
  -exchange      EXHF   =         0.00000000
  -V(xc)+E(xc)   XCENC  =      1332.85072818
  PAW double counting   =     37228.00195970   -40720.96429358
  entropy T*S    EENTRO =        -0.00000000
  eigenvalues    EBANDS =     -2965.85220143
  atomic energy  EATOM  =     38778.79057007
  Solvation  Ediel_sol  =         0.00000000
  ---------------------------------------------------
  free energy    TOTEN  =      -162.72407725 eV

  energy without entropy =     -162.72407725  energy(sigma->0) =     -162.72407725


--------------------------------------------------------------------------------------------------------




 average (electrostatic) potential at core
  the test charge radii are     0.9254  0.9521  0.9698
  (the norm of the test charge is              1.0000)
       1 -46.5489       2 -46.5489       3 -46.5489       4 -46.5489       5 -47.3509
       6 -47.3509       7 -47.3509       8 -47.3509       9 -46.9217      10 -46.9217
      11 -46.9217      12 -46.9217      13 -46.8089      14 -46.8089      15 -46.8089
      16 -46.8089      17 -36.6402      18 -36.6402      19 -36.6402      20 -36.6402
      21 -36.7039      22 -36.7039      23 -36.7039      24 -36.7039      25 -36.7508
      26 -36.7508      27 -36.7508      28 -36.7508      29 -88.7697      30 -88.7697
      31 -88.7697      32 -88.7697      33 -88.2069      34 -88.2069      35 -88.2069
      36 -88.2069      37 -88.4226      38 -88.4226      39 -88.4226      40 -88.4226
      41 -88.1325      42 -88.1325      43 -88.1325      44 -88.1325      45 -88.7986
      46 -88.7986      47 -88.7986      48 -88.7986



 E-fermi :   1.9332     XC(G=0):  -8.9763     alpha+bet : -8.4227

 Fermi energy:         1.9331702052

 k-point     1 :       0.0000    0.0000    0.0000
  band No.  band energies     occupation 
      1     -21.5637      2.00000
      2     -21.5636      2.00000
      3     -21.5502      2.00000
      4     -21.5502      2.00000
      5     -21.5363      2.00000
      6     -21.5362      2.00000
      7     -21.5345      2.00000
      8     -21.5345      2.00000
      9     -21.5330      2.00000
     10     -21.5329      2.00000
     11     -21.5284      2.00000
     12     -21.5284      2.00000
     13     -21.1439      2.00000
     14     -21.1439      2.00000
     15     -21.1352      2.00000
     16     -21.1351      2.00000
     17     -21.1165      2.00000
     18     -21.1165      2.00000
     19     -21.1141      2.00000
     20     -21.1141      2.00000
     21     -21.1041      2.00000
     22     -21.1040      2.00000
     23     -21.1020      2.00000
     24     -21.1020      2.00000
     25     -21.0219      2.00000
     26     -21.0219      2.00000
     27     -21.0217      2.00000
     28     -21.0217      2.00000
     29     -21.0001      2.00000
     30     -21.0001      2.00000
     31     -21.0000      2.00000
     32     -21.0000      2.00000
     33     -20.9945      2.00000
     34     -20.9944      2.00000
     35     -20.9941      2.00000
     36     -20.9940      2.00000
     37     -20.7916      2.00000
     38     -20.7915      2.00000
     39     -20.7915      2.00000
     40     -20.7915      2.00000
     41     -20.7483      2.00000
     42     -20.7483      2.00000
     43     -20.7483      2.00000
     44     -20.7482      2.00000
     45     -20.7309      2.00000
     46     -20.7308      2.00000
     47     -20.7304      2.00000
     48     -20.7304      2.00000
     49     -10.6286      2.00000
     50     -10.5476      2.00000
     51     -10.5464      2.00000
     52     -10.4817      2.00000
     53     -10.3101      2.00000
     54     -10.2511      2.00000
     55     -10.2482      2.00000
     56     -10.1966      2.00000
     57      -9.8860      2.00000
     58      -9.8485      2.00000
     59      -9.8279      2.00000
     60      -9.7564      2.00000
     61      -9.6765      2.00000
     62      -9.6685      2.00000
     63      -9.6405      2.00000
     64      -9.6255      2.00000
     65      -9.4804      2.00000
     66      -9.4522      2.00000
     67      -9.3465      2.00000
     68      -9.3422      2.00000
     69      -4.5320      2.00000
     70      -4.5314      2.00000
     71      -4.5284      2.00000
     72      -4.5277      2.00000
     73      -4.5061      2.00000
     74      -4.5054      2.00000
     75      -4.5051      2.00000
     76      -4.5002      2.00000
     77      -4.4703      2.00000
     78      -4.4658      2.00000
     79      -4.4648      2.00000
     80      -4.4606      2.00000
     81      -4.4469      2.00000
     82      -4.4469      2.00000
     83      -4.4468      2.00000
     84      -4.4463      2.00000
     85      -4.4457      2.00000
     86      -4.4455      2.00000
     87      -4.4374      2.00000
     88      -4.4311      2.00000
     89      -4.3444      2.00000
     90      -4.3360      2.00000
     91      -4.3267      2.00000
     92      -4.3249      2.00000
     93      -4.3244      2.00000
     94      -4.3242      2.00000
     95      -4.3230      2.00000
     96      -4.3230      2.00000
     97      -4.2961      2.00000
     98      -4.2945      2.00000
     99      -4.2478      2.00000
    100      -4.2346      2.00000
    101      -4.2318      2.00000
    102      -4.2252      2.00000
    103      -4.2197      2.00000
    104      -4.2194      2.00000
    105      -4.2131      2.00000
    106      -4.2128      2.00000
    107      -4.2041      2.00000
    108      -4.2038      2.00000
    109      -4.1691      2.00000
    110      -4.1687      2.00000
    111      -4.1654      2.00000
    112      -4.1533      2.00000
    113      -4.1532      2.00000
    114      -4.1453      2.00000
    115      -4.1452      2.00000
    116      -4.1390      2.00000
    117      -4.1205      2.00000
    118      -4.1145      2.00000
    119      -4.1018      2.00000
    120      -4.0971      2.00000
    121      -4.0912      2.00000
    122      -4.0908      2.00000
    123      -4.0897      2.00000
    124      -4.0896      2.00000
    125      -4.0879      2.00000
    126      -4.0809      2.00000
    127      -4.0493      2.00000
    128      -4.0488      2.00000
    129      -2.8772      2.00000
    130      -2.8575      2.00000
    131      -2.6533      2.00000
    132      -2.6446      2.00000
    133      -2.2479      2.00000
    134      -2.2374      2.00000
    135      -2.1463      2.00000
    136      -1.9525      2.00000
    137      -1.6657      2.00000
    138      -1.5422      2.00000
    139      -1.5185      2.00000
    140      -1.4437      2.00000
    141      -1.0914      2.00000
    142      -0.9865      2.00000
    143      -0.9861      2.00000
    144      -0.7051      2.00000
    145      -0.5496      2.00000
    146      -0.4662      2.00000
    147      -0.3981      2.00000
    148      -0.2002      2.00000
    149      -0.1103      2.00000
    150      -0.0440      2.00000
    151       0.0174      2.00000
    152       0.0208      2.00000
    153       0.0504      2.00000
    154       0.0986      2.00000
    155       0.1600      2.00000
    156       0.3660      2.00000
    157       0.3683      2.00000
    158       0.3998      2.00000
    159       0.4064      2.00000
    160       0.4436      2.00000
    161       0.4873      2.00000
    162       0.5221      2.00000
    163       0.5749      2.00000
    164       0.6029      2.00000
    165       0.6508      2.00000
    166       0.6741      2.00000
    167       0.6757      2.00000
    168       0.7459      2.00000
    169       0.7536      2.00000
    170       0.8604      2.00000
    171       0.8714      2.00000
    172       0.8787      2.00000
    173       0.9048      2.00000
    174       0.9663      2.00000
    175       0.9884      2.00000
    176       1.0645      2.00000
    177       1.1281      2.00000
    178       1.3104      2.00000
[...]
    171       0.4625      2.00000
    172       0.4866      2.00000
    173       0.5378      2.00000
    174       0.5404      2.00000
    175       0.5935      2.00000
    176       0.6311      2.00000
    177       0.6347      2.00000
    178       0.6356      2.00000
    179       0.7441      2.00000
    180       0.7523      2.00000
    181       0.7647      2.00000
    182       0.7941      2.00000
    183       0.8129      2.00000
    184       0.8892      2.00000
    185       0.9053      2.00000
    186       0.9668      2.00000
    187       1.2194      2.00000
    188       1.2416      2.00000
    189       5.0916      0.00000
    190       5.2140      0.00000
    191       5.3100      0.00000
    192       5.5178      0.00000
    193       5.5275      0.00000
    194       5.6430      0.00000
    195       5.7070      0.00000
    196       5.8140      0.00000
    197       5.9130      0.00000
    198       5.9937      0.00000
    199       6.0539      0.00000
    200       6.0558      0.00000
    201       6.1344      0.00000
    202       6.2253      0.00000
    203       6.3006      0.00000
    204       6.3081      0.00000
    205       6.4499      0.00000
    206       6.4812      0.00000
    207       6.5309      0.00000
    208       6.5389      0.00000
    209       6.8647      0.00000
    210       6.9404      0.00000
    211       7.0231      0.00000
    212       7.1274      0.00000
    213       7.1908      0.00000
    214       7.2671      0.00000
    215       7.2819      0.00000
    216       7.3574      0.00000
    217       7.4480      0.00000
    218       7.4649      0.00000
    219       7.5541      0.00000
    220       7.6451      0.00000
    221       7.6536      0.00000
    222       7.7268      0.00000
    223       7.7548      0.00000
    224       7.8885      0.00000
    225       7.8938      0.00000
    226       8.1321      0.00000
    227       8.1723      0.00000
    228       8.2538      0.00000
    229       8.4036      0.00000
    230       8.4507      0.00000
    231       8.5043      0.00000
    232       8.5482      0.00000
    233       8.6414      0.00000
    234       8.7173      0.00000
    235       8.9987      0.00000
    236       9.0627      0.00000
    237       9.1072      0.00000
    238       9.1326      0.00000
    239       9.1385      0.00000
    240       9.1913      0.00000
    241       9.2713      0.00000
    242       9.4174      0.00000
    243       9.5578      0.00000
    244       9.6122      0.00000
    245       9.6470      0.00000
    246       9.7292      0.00000
    247       9.7753      0.00000
    248       9.8472      0.00000
    249       9.9253      0.00000
    250       9.9309      0.00000
    251      10.1057      0.00000
    252      10.1545      0.00000
    253      10.2204      0.00000
    254      10.2299      0.00000
    255      10.2441      0.00000
    256      10.3521      0.00000


--------------------------------------------------------------------------------------------------------


 soft charge-density along one line, spin component           1
         0         1         2         3         4         5         6         7         8         9
 total charge-density along one line

 pseudopotential strength for first ion, spin component:           1
-24.894   0.009   0.000   2.340  -0.003  -0.000   0.000   0.000
  0.009 -24.919  -0.000  -0.003   2.350   0.000  -0.001  -0.002
  0.000  -0.000 -24.903  -0.000   0.000   2.343  -0.000  -0.000
  2.340  -0.003  -0.000   6.651   0.000  -0.000   0.000   0.000
 -0.003   2.350   0.000   0.000   6.650   0.000   0.000  -0.000
 -0.000   0.000   2.343  -0.000   0.000   6.651   0.000  -0.000
  0.000  -0.001  -0.000   0.000   0.000   0.000   1.434   7.005
  0.000  -0.002  -0.000   0.000  -0.000  -0.000   7.005  33.989
 total augmentation occupancy for first ion, spin component:           1
  2.001  -0.000  -0.000  -0.001  -0.001   0.000  -0.001   0.000
 -0.000   2.002   0.000  -0.001   0.002   0.000   0.002  -0.001
 -0.000   0.000   2.002   0.000   0.000  -0.000   0.000  -0.000
 -0.001  -0.001   0.000   0.029  -0.000  -0.000  -0.000   0.000
 -0.001   0.002   0.000  -0.000   0.022   0.000   0.001  -0.000
  0.000   0.000  -0.000  -0.000   0.000   0.029   0.000  -0.000
 -0.001   0.002   0.000  -0.000   0.001   0.000   0.596  -0.001
  0.000  -0.001  -0.000   0.000  -0.000  -0.000  -0.001   0.000


------------------------ aborting loop because EDIFF is reached ----------------------------------------


    CHARGE:  cpu time      0.0625: real time      0.0625
    FORLOC:  cpu time      0.0069: real time      0.0069
    FORNL :  cpu time      0.3141: real time      0.3146
    STRESS:  cpu time      0.9272: real time      0.9277
    FORCOR:  cpu time      0.0341: real time      0.0341
    FORHAR:  cpu time      0.0127: real time      0.0127
    MIXING:  cpu time      0.0007: real time      0.0007
    OFIELD:  cpu time      0.0000: real time      0.0000

  FORCE on cell =-STRESS in cart. coord.  units (eV):
  Direction    XX          YY          ZZ          XY          YZ          ZX
  --------------------------------------------------------------------------------------
  Alpha Z  1079.68980  1079.68980  1079.68980
  Ewald   -6330.07807 -7699.84800 -7928.15058    -0.00000    -0.00000    -0.00000
  Hartree  5182.49333  4023.37791  3752.13728    -0.00000    -0.00000    -0.00000
  E(xc)   -1900.72369 -1901.32391 -1901.03624    -0.00000     0.00000    -0.00000
  Local   -2794.59193  -266.59995   246.66409     0.00000     0.00000    -0.00000
  n-local   697.27160   695.08463   693.58631    -0.00000     0.00000    -0.00000
  augment   810.67291   810.54884   809.98567    -0.00000    -0.00000    -0.00000
  Kinetic  3255.99305  3259.53322  3247.88197     0.00000     0.00000    -0.00000
  Fock        0.00000     0.00000     0.00000     0.00000     0.00000     0.00000
  -------------------------------------------------------------------------------------
  Total       0.72699     0.46254     0.75830    -0.00000     0.00000     0.00000
  in kB       1.20189     0.76468     1.25365    -0.00000     0.00000     0.00000
  external pressure =        1.07 kB  Pullay stress =        0.00 kB


 VOLUME and BASIS-vectors are now :
 -----------------------------------------------------------------------------
  energy-cutoff  :      400.00
  volume of cell :      969.12
      direct lattice vectors                 reciprocal lattice vectors
     3.924250590  0.000000000  0.000000000     0.254825725  0.000000000  0.000000000
    -0.000000000 13.156933739  0.000000000    -0.000000000  0.076005551  0.000000000
    -0.000000000 -0.000000000 18.770069851    -0.000000000 -0.000000000  0.053276307

  length of vectors
     3.924250590 13.156933739 18.770069851     0.254825725  0.076005551  0.053276307


 FORCES acting on ions
    electron-ion (+dipol)            ewald-force                    non-local-force                 convergence-correction
 -----------------------------------------------------------------------------------------------
   -.230E-13 0.245E+02 0.115E+03   0.961E-13 -.245E+02 -.115E+03   0.149E-17 -.244E-01 -.156E+00   -.508E-15 -.128E-02 -.424E-03
   -.246E-13 0.245E+02 -.115E+03   0.100E-13 -.245E+02 0.115E+03   0.146E-17 -.244E-01 0.156E+00   -.286E-13 -.128E-02 0.424E-03
   -.898E-13 -.245E+02 -.115E+03   -.107E-12 0.245E+02 0.115E+03   -.149E-17 0.244E-01 0.156E+00   -.293E-13 0.128E-02 0.424E-03
   -.117E-12 -.245E+02 0.115E+03   -.124E-13 0.245E+02 -.115E+03   -.146E-17 0.244E-01 -.156E+00   0.766E-14 0.128E-02 -.424E-03
   -.134E-13 -.864E+02 -.854E+01   0.600E-13 0.849E+02 0.982E+01   -.923E-16 0.153E+01 -.127E+01   -.785E-14 -.378E-03 0.120E-02
   -.218E-13 -.864E+02 0.854E+01   0.118E-13 0.849E+02 -.982E+01   -.925E-16 0.153E+01 0.127E+01   -.185E-13 -.378E-03 -.120E-02
   -.725E-13 0.864E+02 0.854E+01   -.587E-13 -.849E+02 -.982E+01   0.923E-16 -.153E+01 0.127E+01   -.372E-13 0.378E-03 -.120E-02
   -.770E-13 0.864E+02 -.854E+01   -.118E-13 -.849E+02 0.982E+01   0.925E-16 -.153E+01 -.127E+01   0.210E-14 0.378E-03 0.120E-02
   -.246E-13 -.516E+02 0.206E+02   -.249E-13 0.509E+02 -.215E+02   -.376E-16 0.620E+00 0.850E+00   -.866E-15 -.178E-02 -.111E-02
   -.782E-14 -.516E+02 -.206E+02   0.347E-14 0.509E+02 0.215E+02   -.375E-16 0.620E+00 -.850E+00   -.210E-13 -.178E-02 0.111E-02
   -.637E-13 0.516E+02 -.206E+02   0.325E-13 -.509E+02 0.215E+02   0.376E-16 -.620E+00 -.850E+00   0.140E-13 0.178E-02 0.111E-02
   -.108E-12 0.516E+02 0.206E+02   -.229E-13 -.509E+02 -.215E+02   0.375E-16 -.620E+00 0.850E+00   0.194E-13 0.178E-02 -.111E-02
   -.653E-13 -.898E+02 -.110E+03   0.335E-13 0.900E+02 0.109E+03   0.106E-16 -.177E+00 0.112E+01   -.610E-13 -.397E-02 0.164E-02
   0.330E-13 -.898E+02 0.110E+03   0.496E-13 0.900E+02 -.109E+03   0.108E-16 -.177E+00 -.112E+01   0.355E-13 -.397E-02 -.164E-02
   -.169E-13 0.898E+02 0.110E+03   -.466E-13 -.900E+02 -.109E+03   -.106E-16 0.177E+00 -.112E+01   0.576E-13 0.397E-02 -.164E-02
   -.118E-12 0.898E+02 -.110E+03   -.699E-13 -.900E+02 0.109E+03   -.108E-16 0.177E+00 0.112E+01   -.482E-13 0.397E-02 0.164E-02
   -.239E-12 0.113E+03 0.149E+03   -.364E-13 -.113E+03 -.149E+03   -.841E-17 0.139E+00 0.193E-01   -.881E-13 -.403E-02 -.240E-02
   -.716E-13 0.113E+03 -.149E+03   0.213E-13 -.113E+03 0.149E+03   -.841E-17 0.139E+00 -.193E-01   -.737E-13 -.403E-02 0.240E-02
   -.120E-12 -.113E+03 -.149E+03   0.332E-13 0.113E+03 0.149E+03   0.841E-17 -.139E+00 -.193E-01   0.421E-13 0.403E-02 0.240E-02
   -.171E-12 -.113E+03 0.149E+03   -.547E-13 0.113E+03 -.149E+03   0.841E-17 -.139E+00 0.193E-01   0.310E-13 0.403E-02 -.240E-02
   -.737E-13 -.491E+02 -.624E+01   -.105E-15 0.468E+02 0.685E+01   -.143E-15 0.237E+01 -.593E+00   0.216E-14 -.528E-02 0.653E-02
   -.806E-14 -.491E+02 0.624E+01   0.172E-13 0.468E+02 -.685E+01   -.143E-15 0.237E+01 0.593E+00   0.438E-13 -.528E-02 -.653E-02
   -.260E-12 0.491E+02 0.624E+01   -.127E-13 -.468E+02 -.685E+01   0.143E-15 -.237E+01 0.593E+00   -.284E-13 0.528E-02 -.653E-02
   -.323E-12 0.491E+02 -.624E+01   -.226E-13 -.468E+02 0.685E+01   0.143E-15 -.237E+01 -.593E+00   -.108E-12 0.528E-02 0.653E-02
   -.146E-12 0.248E+02 -.467E+02   -.229E-13 -.243E+02 0.451E+02   0.329E-16 -.546E+00 0.157E+01   -.421E-13 -.809E-02 0.120E-01
   -.683E-13 0.248E+02 0.467E+02   -.190E-13 -.243E+02 -.451E+02   0.332E-16 -.546E+00 -.157E+01   0.491E-14 -.809E-02 -.120E-01
   -.198E-12 -.248E+02 0.467E+02   0.220E-14 0.243E+02 -.451E+02   -.329E-16 0.546E+00 -.157E+01   0.551E-13 0.809E-02 -.120E-01
   -.200E-12 -.248E+02 -.467E+02   0.101E-13 0.243E+02 0.451E+02   -.332E-16 0.546E+00 0.157E+01   -.616E-13 0.809E-02 0.120E-01
   0.525E-13 0.134E+03 0.490E+02   0.212E-14 -.136E+03 -.496E+02   -.132E-15 0.218E+01 0.581E+00   0.938E-14 -.563E-02 -.299E-02
   0.314E-13 0.134E+03 -.490E+02   0.304E-14 -.136E+03 0.496E+02   -.132E-15 0.218E+01 -.581E+00   -.515E-14 -.563E-02 0.299E-02
   0.867E-13 -.134E+03 -.490E+02   -.281E-15 0.136E+03 0.496E+02   0.132E-15 -.218E+01 -.581E+00   -.193E-14 0.563E-02 0.299E-02
   0.601E-13 -.134E+03 0.490E+02   -.760E-14 0.136E+03 -.496E+02   0.132E-15 -.218E+01 0.581E+00   0.151E-13 0.563E-02 -.299E-02
   -.430E-13 0.548E+02 -.175E+03   0.842E-14 -.563E+02 0.178E+03   -.915E-16 0.151E+01 -.258E+01   -.112E-13 0.451E-02 0.609E-02
   0.711E-14 0.548E+02 0.175E+03   0.337E-13 -.563E+02 -.178E+03   -.920E-16 0.151E+01 0.258E+01   -.238E-13 0.451E-02 -.609E-02
   0.547E-13 -.548E+02 0.175E+03   0.383E-15 0.563E+02 -.178E+03   0.915E-16 -.151E+01 0.258E+01   0.283E-14 -.451E-02 -.609E-02
   0.389E-13 -.548E+02 -.175E+03   -.297E-13 0.563E+02 0.178E+03   0.920E-16 -.151E+01 -.258E+01   0.282E-13 -.451E-02 0.609E-02
   0.387E-13 -.902E+02 0.130E+03   0.596E-13 0.913E+02 -.132E+03   0.642E-16 -.106E+01 0.223E+01   0.159E-13 -.264E-02 -.255E-02
   -.132E-14 -.902E+02 -.130E+03   -.119E-12 0.913E+02 0.132E+03   0.647E-16 -.106E+01 -.223E+01   0.144E-14 -.264E-02 0.255E-02
   0.107E-12 0.902E+02 -.130E+03   -.535E-13 -.913E+02 0.132E+03   -.642E-16 0.106E+01 -.223E+01   -.125E-13 0.264E-02 0.255E-02
   0.764E-13 0.902E+02 0.130E+03   0.111E-12 -.913E+02 -.132E+03   -.647E-16 0.106E+01 0.223E+01   0.528E-14 0.264E-02 -.255E-02
   -.235E-13 0.946E+02 -.777E+02   0.495E-13 -.964E+02 0.794E+02   -.109E-15 0.181E+01 -.180E+01   -.340E-14 -.124E-03 0.794E-02
   0.107E-13 0.946E+02 0.777E+02   0.137E-13 -.964E+02 -.794E+02   -.110E-15 0.181E+01 0.180E+01   -.502E-14 -.124E-03 -.794E-02
   0.508E-13 -.946E+02 0.777E+02   -.454E-13 0.964E+02 -.794E+02   0.109E-15 -.181E+01 0.180E+01   0.438E-14 0.124E-03 -.794E-02
   0.108E-12 -.946E+02 -.777E+02   -.178E-13 0.964E+02 0.794E+02   0.110E-15 -.181E+01 -.180E+01   0.877E-14 0.124E-03 0.794E-02
   0.102E-12 -.356E+02 0.100E+03   -.185E-13 0.369E+02 -.103E+03   0.772E-16 -.128E+01 0.254E+01   0.317E-13 0.401E-02 -.281E-04
   0.744E-13 -.356E+02 -.100E+03   -.442E-13 0.369E+02 0.103E+03   0.776E-16 -.128E+01 -.254E+01   -.897E-14 0.401E-02 0.281E-04
   0.937E-14 0.356E+02 -.100E+03   0.896E-14 -.369E+02 0.103E+03   -.772E-16 0.128E+01 -.254E+01   -.242E-13 -.401E-02 0.281E-04
   0.116E-14 0.356E+02 0.100E+03   0.373E-13 -.369E+02 -.103E+03   -.776E-16 0.128E+01 0.254E+01   0.138E-13 -.401E-02 -.281E-04
 -----------------------------------------------------------------------------------------------
   -.185E-11 0.480E-10 -.194E-10   -.150E-12 0.284E-13 -.142E-13   0.110E-21 0.222E-15 0.000E+00   -.299E-12 -.257E-11 0.112E-11


 POSITION                                       TOTAL-FORCE (eV/Angst)
 -----------------------------------------------------------------------------------
      0.98106     13.10901     14.34913         0.000000     -0.037329     -0.005198
      0.98106      6.53054     13.80598         0.000000     -0.037329      0.005198
      2.94319      0.04793      4.42094        -0.000000      0.037329      0.005198
      2.94319      6.62639      4.96409        -0.000000      0.037329     -0.005198
      0.98106      0.10334      7.84067        -0.000000      0.023302      0.015772
      0.98106      6.68181      1.54437        -0.000000      0.023302     -0.015772
      2.94319     13.05359     10.92940         0.000000     -0.023302     -0.015772
      2.94319      6.47513     17.22570         0.000000     -0.023302      0.015772
      0.98106      1.43405     17.84960         0.000000     -0.019071      0.025631
      0.98106      8.01252     10.30550         0.000000     -0.019071     -0.025631
      2.94319     11.72288      0.92047        -0.000000      0.019071     -0.025631
      2.94319      5.14441      8.46457        -0.000000      0.019071      0.025631
      0.98106      3.57794     15.65941         0.000000     -0.040483      0.016563
      0.98106     10.15641     12.49569         0.000000     -0.040483     -0.016563
      2.94319      9.57899      3.11066        -0.000000      0.040483     -0.016563
      2.94319      3.00052      6.27438        -0.000000      0.040483      0.016563
      0.98106      2.75816     10.15662        -0.000000      0.011691      0.004918
      0.98106      9.33662     17.99849        -0.000000      0.011691     -0.004918
      2.94319     10.39878      8.61345         0.000000     -0.011691     -0.004918
      2.94319      3.82031      0.77158         0.000000     -0.011691      0.004918
      0.98106      4.21429      4.07347        -0.000000      0.018508      0.023875
      0.98106     10.79275      5.31156        -0.000000      0.018508     -0.023875
      2.94319      8.94265     14.69660         0.000000     -0.018508     -0.023875
      2.94319      2.36418     13.45851         0.000000     -0.018508      0.023875
      0.98106      7.57939      6.91378        -0.000000      0.008872     -0.024007
      0.98106      1.00092      2.47125        -0.000000      0.008872      0.024007
      2.94319      5.57755     11.85629         0.000000     -0.008872      0.024007
      2.94319     12.15601     16.29882         0.000000     -0.008872     -0.024007
      0.98106      1.63475     12.26187         0.000000     -0.016974     -0.014174
      0.98106      8.21321     15.89324         0.000000     -0.016974      0.014174
      2.94319     11.52219      6.50820        -0.000000      0.016974      0.014174
      2.94319      4.94372      2.87683        -0.000000      0.016974     -0.014174
      0.98106      1.96238      4.61172        -0.000000      0.038409      0.009994
      0.98106      8.54084      4.77332        -0.000000      0.038409     -0.009994
      2.94319     11.19456     14.15835         0.000000     -0.038409     -0.009994
      2.94319      4.61609     13.99675         0.000000     -0.038409      0.009994
      0.98106      4.50371     18.34695         0.000000     -0.008682      0.005319
      0.98106     11.08218      9.80816         0.000000     -0.008682     -0.005319
      2.94319      8.65322      0.42312        -0.000000      0.008682     -0.005319
      2.94319      2.07475      8.96191        -0.000000      0.008682      0.005319
      0.98106      5.17604      6.36521        -0.000000      0.031257     -0.015532
      0.98106     11.75451      3.01982        -0.000000      0.031257      0.015532
      2.94319      7.98089     12.40486         0.000000     -0.031257      0.015532
      2.94319      1.40243     15.75025         0.000000     -0.031257     -0.015532
      0.98106      5.11060     10.57935         0.000000     -0.009483      0.012924
      0.98106     11.68907     17.57575         0.000000     -0.009483     -0.012924
      2.94319      8.04633      8.19072        -0.000000      0.009483     -0.012924
      2.94319      1.46787      1.19432        -0.000000      0.009483      0.012924
 -----------------------------------------------------------------------------------
    total drift:                               -0.000000      0.000000     -0.000000


--------------------------------------------------------------------------------------------------------



  FREE ENERGIE OF THE ION-ELECTRON SYSTEM (eV)
  ---------------------------------------------------
  free  energy   TOTEN  =      -162.75005121 eV

  energy  without entropy=     -162.75005121  energy(sigma->0) =     -162.75005121

 d Force = 0.1018230E-01[ 0.804E-02, 0.123E-01]  d Energy = 0.9886867E-02 0.295E-03
 d Force = 0.8935874E+01[ 0.890E+01, 0.898E+01]  d Ewald  = 0.1614378E+02-0.721E+01


--------------------------------------------------------------------------------------------------------


    POTLOK:  cpu time      0.0342: real time      0.0342


--------------------------------------------------------------------------------------------------------




--------------------------------------------------------------------------------------------------------


  
 reached required accuracy - stopping structural energy minimisation
     LOOP+:  cpu time     12.8947: real time     12.9233
    4ORBIT:  cpu time      0.0000: real time      0.0000

 total amount of memory used by VASP MPI-rank0    55727. kBytes
=======================================================================

   base      :      30000. kBytes
   nonlr-proj:       6861. kBytes
   fftplans  :       2202. kBytes
   grid      :       8865. kBytes
   one-center:        746. kBytes
   wavefun   :       7053. kBytes

  
  
 General timing and accounting informations for this job:
 ========================================================
  
                  Total CPU time used (sec):      104.412
                            User time (sec):       98.256
                          System time (sec):        6.157
                         Elapsed time (sec):      105.129
  
                   Maximum memory used (kb):      152776.
                   Average memory used (kb):          N/A
  
                          Minor page faults:       632664
                          Major page faults:          139
                 Voluntary context switches:         1163
