  39  39   0   0
  0.2439952E+02  0.6834254E-09  0.1767185E-08  0.7880486E-09  0.5000000E-15
   1.0000000000000000E-004
  CAR 
 endpoint_relax                          
     10.00213008    -23.79263737  301      1.06512062      1.00000000
    -23.793  0.0000E+00  0.0000E+00
    -23.680  0.0000E+00  0.0000E+00
    -23.567  0.0000E+00  0.0000E+00
    -23.455 -0.2100E-30 -0.2366E-31
    -23.342 -0.1701E-26 -0.1917E-27
    -23.229 -0.7282E-23 -0.8205E-24
    -23.117 -0.1646E-19 -0.1856E-20
    -23.004 -0.1965E-16 -0.2215E-17
    -22.891 -0.1197E-13 -0.1350E-14
    -22.779 -0.3936E-11 -0.4448E-12
    -22.666 -0.6788E-09 -0.7692E-10
    -22.553 -0.6118E-07 -0.6969E-08
    -22.441 -0.2866E-05 -0.3299E-06
    -22.328 -0.6922E-04 -0.8127E-05
    -22.216 -0.8456E-03 -0.1034E-03
    -22.103 -0.4934E-02 -0.6592E-03
    -21.990 -0.1020E-01 -0.1808E-02
    -21.878  0.2068E-01  0.5217E-03
    -21.765  0.1403E+00  0.1633E-01
    -21.652  0.2661E+00  0.4631E-01
    -21.540  0.2767E+00  0.7747E-01
    -21.427  0.3354E+00  0.1153E+00
    -21.314  0.5486E+00  0.1771E+00
    -21.202  0.7199E+00  0.2582E+00
    -21.089  0.6724E+00  0.3339E+00
    -20.976  0.3765E+00  0.3763E+00
    -20.864  0.7377E-01  0.3846E+00
    -20.751 -0.2445E-01  0.3819E+00
    -20.638 -0.1392E-01  0.3803E+00
    -20.526 -0.2417E-02  0.3800E+00
    -20.413 -0.1932E-03  0.3800E+00
    -20.301 -0.7744E-05  0.3800E+00
    -20.188 -0.1607E-06  0.3800E+00
    -20.075 -0.1748E-08  0.3800E+00
    -19.963 -0.1004E-10  0.3800E+00
    -19.850 -0.3057E-13  0.3800E+00
    -19.737 -0.2628E-16  0.3800E+00
    -19.625  0.0000E+00  0.3800E+00
    -19.512  0.0000E+00  0.3800E+00
    -19.399  0.0000E+00  0.3800E+00
    -19.287  0.0000E+00  0.3800E+00
    -19.174  0.0000E+00  0.3800E+00
    -19.061  0.0000E+00  0.3800E+00
    -18.949  0.0000E+00  0.3800E+00
    -18.836  0.0000E+00  0.3800E+00
    -18.723  0.0000E+00  0.3800E+00
    -18.611  0.0000E+00  0.3800E+00
    -18.498  0.0000E+00  0.3800E+00
    -18.385  0.0000E+00  0.3800E+00
    -18.273  0.0000E+00  0.3800E+00
    -18.160  0.0000E+00  0.3800E+00
    -18.048  0.0000E+00  0.3800E+00
    -17.935  0.0000E+00  0.3800E+00
    -17.822  0.0000E+00  0.3800E+00
    -17.710  0.0000E+00  0.3800E+00
    -17.597  0.0000E+00  0.3800E+00
    -17.484  0.0000E+00  0.3800E+00
    -17.372  0.0000E+00  0.3800E+00
    -17.259  0.0000E+00  0.3800E+00
    -17.146  0.0000E+00  0.3800E+00
    -17.034  0.0000E+00  0.3800E+00
    -16.921  0.0000E+00  0.3800E+00
    -16.808  0.0000E+00  0.3800E+00
    -16.696  0.0000E+00  0.3800E+00
    -16.583  0.0000E+00  0.3800E+00
    -16.470  0.0000E+00  0.3800E+00
    -16.358  0.0000E+00  0.3800E+00
    -16.245  0.0000E+00  0.3800E+00
    -16.132  0.0000E+00  0.3800E+00
    -16.020  0.0000E+00  0.3800E+00
    -15.907  0.0000E+00  0.3800E+00
    -15.795  0.0000E+00  0.3800E+00
    -15.682  0.0000E+00  0.3800E+00
    -15.569  0.0000E+00  0.3800E+00
    -15.457  0.0000E+00  0.3800E+00
    -15.344  0.0000E+00  0.3800E+00
    -15.231  0.0000E+00  0.3800E+00
    -15.119  0.0000E+00  0.3800E+00
    -15.006  0.0000E+00  0.3800E+00
    -14.893  0.0000E+00  0.3800E+00
    -14.781  0.0000E+00  0.3800E+00
    -14.668  0.0000E+00  0.3800E+00
    -14.555  0.0000E+00  0.3800E+00
    -14.443  0.0000E+00  0.3800E+00
    -14.330  0.0000E+00  0.3800E+00
    -14.217 -0.5785E-32  0.3800E+00
    -14.105 -0.8120E-28  0.3800E+00
    -13.992 -0.4357E-24  0.3800E+00
    -13.880 -0.1238E-20  0.3800E+00
    -13.767 -0.1861E-17  0.3800E+00
    -13.654 -0.1439E-14  0.3800E+00
    -13.542 -0.6011E-12  0.3800E+00
    -13.429 -0.1327E-09  0.3800E+00
    -13.316 -0.1544E-07  0.3800E+00
    -13.204 -0.9430E-06  0.3800E+00
    -13.091 -0.2998E-04  0.3800E+00
    -12.978 -0.4863E-03  0.3799E+00
    -12.866 -0.3819E-02  0.3795E+00
    -12.753 -0.1193E-01  0.3782E+00
    -12.640  0.5989E-02  0.3788E+00
    -12.528  0.1199E+00  0.3924E+00
    -12.415  0.2867E+00  0.4247E+00
    -12.302  0.3467E+00  0.4637E+00
    -12.190  0.2745E+00  0.4946E+00
    -12.077  0.1445E+00  0.5109E+00
    -11.964  0.3489E-01  0.5148E+00
    -11.852 -0.6141E-02  0.5141E+00
    -11.739 -0.5743E-02  0.5135E+00
    -11.627 -0.1301E-02  0.5133E+00
    -11.514 -0.1337E-03  0.5133E+00
    -11.401 -0.6843E-05  0.5133E+00
    -11.289 -0.1794E-06  0.5133E+00
    -11.176 -0.2439E-08  0.5133E+00
    -11.063 -0.1118E-09  0.5133E+00
    -10.951 -0.9677E-08  0.5133E+00
    -10.838 -0.5104E-06  0.5133E+00
    -10.725 -0.1369E-04  0.5133E+00
    -10.613 -0.1820E-03  0.5133E+00
    -10.500 -0.1120E-02  0.5132E+00
    -10.387 -0.2375E-02  0.5129E+00
    -10.275  0.4414E-02  0.5134E+00
    -10.162  0.3126E-01  0.5169E+00
    -10.049  0.6641E-01  0.5244E+00
     -9.937  0.7576E-01  0.5330E+00
     -9.824  0.4887E-01  0.5385E+00
     -9.711  0.1100E-01  0.5397E+00
     -9.599 -0.9310E-02  0.5386E+00
     -9.486  0.2356E-01  0.5413E+00
     -9.374  0.1395E+00  0.5570E+00
     -9.261  0.2520E+00  0.5854E+00
     -9.148  0.2222E+00  0.6104E+00
     -9.036  0.9120E-01  0.6207E+00
     -8.923  0.5443E-02  0.6213E+00
     -8.810 -0.8468E-02  0.6204E+00
     -8.698 -0.2913E-02  0.6200E+00
     -8.585 -0.4057E-03  0.6200E+00
     -8.472 -0.2790E-04  0.6200E+00
     -8.360 -0.9946E-06  0.6200E+00
     -8.247 -0.1865E-07  0.6200E+00
     -8.134 -0.1848E-09  0.6200E+00
     -8.022 -0.9684E-12  0.6200E+00
     -7.909 -0.2707E-14  0.6200E+00
     -7.796  0.0000E+00  0.6200E+00
     -7.684  0.0000E+00  0.6200E+00
     -7.571  0.0000E+00  0.6200E+00
     -7.458  0.0000E+00  0.6200E+00
     -7.346  0.0000E+00  0.6200E+00
     -7.233  0.0000E+00  0.6200E+00
     -7.121  0.0000E+00  0.6200E+00
     -7.008  0.0000E+00  0.6200E+00
     -6.895  0.0000E+00  0.6200E+00
     -6.783  0.0000E+00  0.6200E+00
     -6.670  0.0000E+00  0.6200E+00
     -6.557  0.0000E+00  0.6200E+00
     -6.445  0.0000E+00  0.6200E+00
     -6.332  0.0000E+00  0.6200E+00
     -6.219  0.0000E+00  0.6200E+00
     -6.107  0.0000E+00  0.6200E+00
     -5.994  0.0000E+00  0.6200E+00
     -5.881  0.0000E+00  0.6200E+00
     -5.769  0.0000E+00  0.6200E+00
     -5.656  0.0000E+00  0.6200E+00
     -5.543  0.0000E+00  0.6200E+00
     -5.431  0.0000E+00  0.6200E+00
     -5.318  0.0000E+00  0.6200E+00
     -5.206  0.0000E+00  0.6200E+00
     -5.093  0.0000E+00  0.6200E+00
     -4.980 -0.1394E-31  0.6200E+00
     -4.868 -0.1289E-27  0.6200E+00
     -4.755 -0.6284E-24  0.6200E+00
     -4.642 -0.1615E-20  0.6200E+00
     -4.530 -0.2185E-17  0.6200E+00
     -4.417 -0.1505E-14  0.6200E+00
     -4.304 -0.5578E-12  0.6200E+00
     -4.192 -0.1078E-09  0.6200E+00
     -4.079 -0.1080E-07  0.6200E+00
     -3.966 -0.5556E-06  0.6200E+00
     -3.854 -0.1444E-04  0.6200E+00
     -3.741 -0.1832E-03  0.6200E+00
     -3.628 -0.1045E-02  0.6199E+00
     -3.516 -0.1836E-02  0.6197E+00
     -3.403  0.4723E-02  0.6202E+00
     -3.290  0.2634E-01  0.6232E+00
     -3.178  0.5659E-01  0.6295E+00
     -3.065  0.7420E-01  0.6379E+00
     -2.953  0.5763E-01  0.6444E+00
     -2.840  0.2235E-01  0.6469E+00
     -2.727  0.1070E-02  0.6470E+00
     -2.615 -0.2250E-02  0.6468E+00
     -2.502 -0.7517E-03  0.6467E+00
     -2.389 -0.9912E-04  0.6467E+00
     -2.277 -0.6207E-05  0.6467E+00
     -2.164 -0.3126E-06  0.6467E+00
     -2.051 -0.4111E-05  0.6467E+00
     -1.939 -0.7093E-04  0.6467E+00
     -1.826 -0.5815E-03  0.6466E+00
     -1.713 -0.1957E-02  0.6464E+00
     -1.601 -0.4727E-03  0.6463E+00
     -1.488  0.1339E-01  0.6478E+00
     -1.375  0.4553E-01  0.6530E+00
     -1.263  0.9583E-01  0.6638E+00
     -1.150  0.1397E+00  0.6795E+00
     -1.037  0.1348E+00  0.6947E+00
     -0.925  0.8058E-01  0.7037E+00
     -0.812  0.3730E-01  0.7079E+00
     -0.700  0.5298E-01  0.7139E+00
     -0.587  0.7086E-01  0.7219E+00
     -0.474  0.3581E-01  0.7259E+00
     -0.362  0.7633E-02  0.7268E+00
     -0.249  0.4395E-01  0.7317E+00
     -0.136  0.1172E+00  0.7449E+00
     -0.024  0.1752E+00  0.7647E+00
      0.089  0.2090E+00  0.7882E+00
      0.202  0.2100E+00  0.8119E+00
      0.314  0.1831E+00  0.8325E+00
      0.427  0.1706E+00  0.8517E+00
      0.540  0.1687E+00  0.8707E+00
      0.652  0.1512E+00  0.8878E+00
      0.765  0.1375E+00  0.9033E+00
      0.878  0.1378E+00  0.9188E+00
      0.990  0.1135E+00  0.9316E+00
      1.103  0.5920E-01  0.9382E+00
      1.215  0.1812E-01  0.9403E+00
      1.328  0.6812E-03  0.9404E+00
      1.441 -0.2208E-02  0.9401E+00
      1.553 -0.8206E-03  0.9400E+00
      1.666 -0.1190E-03  0.9400E+00
      1.779 -0.8071E-05  0.9400E+00
      1.891 -0.2707E-06  0.9400E+00
      2.004 -0.4608E-08  0.9400E+00
      2.117 -0.4071E-10  0.9400E+00
      2.229 -0.6451E-10  0.9400E+00
      2.342 -0.6895E-08  0.9400E+00
      2.455 -0.3794E-06  0.9400E+00
      2.567 -0.1052E-04  0.9400E+00
      2.680 -0.1413E-03  0.9400E+00
      2.793 -0.8226E-03  0.9399E+00
      2.905 -0.1109E-02  0.9398E+00
      3.018  0.6238E-02  0.9405E+00
      3.131  0.2248E-01  0.9430E+00
      3.243  0.2499E-01  0.9458E+00
      3.356  0.9375E-02  0.9469E+00
      3.468 -0.5407E-03  0.9468E+00
      3.581 -0.1061E-02  0.9467E+00
      3.694 -0.4858E-03  0.9466E+00
      3.806 -0.1610E-02  0.9465E+00
      3.919 -0.2663E-02  0.9462E+00
      4.032  0.9911E-02  0.9473E+00
      4.144  0.4460E-01  0.9523E+00
      4.257  0.6628E-01  0.9598E+00
      4.370  0.4786E-01  0.9652E+00
      4.482  0.1610E-01  0.9670E+00
      4.595 -0.2096E-03  0.9669E+00
      4.708 -0.1866E-02  0.9667E+00
      4.820 -0.5260E-03  0.9667E+00
      4.933 -0.1233E-03  0.9667E+00
      5.046 -0.5743E-03  0.9666E+00
      5.158 -0.2156E-02  0.9664E+00
      5.271 -0.4995E-03  0.9663E+00
      5.384  0.1817E-01  0.9683E+00
      5.496  0.5193E-01  0.9742E+00
      5.609  0.6902E-01  0.9820E+00
      5.721  0.6264E-01  0.9890E+00
      5.834  0.6721E-01  0.9966E+00
      5.947  0.8318E-01  0.1006E+01
      6.059  0.8143E-01  0.1015E+01
      6.172  0.7810E-01  0.1024E+01
      6.285  0.6149E-01  0.1031E+01
      6.397  0.2382E-01  0.1034E+01
      6.510  0.2124E-01  0.1036E+01
      6.623  0.5372E-01  0.1042E+01
      6.735  0.6985E-01  0.1050E+01
      6.848  0.6903E-01  0.1058E+01
      6.961  0.7582E-01  0.1066E+01
      7.073  0.8022E-01  0.1075E+01
      7.186  0.7237E-01  0.1083E+01
      7.299  0.7103E-01  0.1091E+01
      7.411  0.9820E-01  0.1102E+01
      7.524  0.1267E+00  0.1117E+01
      7.636  0.1193E+00  0.1130E+01
      7.749  0.1001E+00  0.1141E+01
      7.862  0.1079E+00  0.1154E+01
      7.974  0.1087E+00  0.1166E+01
      8.087  0.6163E-01  0.1173E+01
      8.200  0.1164E-01  0.1174E+01
      8.312 -0.3853E-02  0.1174E+01
      8.425 -0.2223E-02  0.1173E+01
      8.538 -0.4039E-03  0.1173E+01
      8.650 -0.3432E-04  0.1173E+01
      8.763 -0.1469E-05  0.1173E+01
      8.876 -0.3238E-07  0.1173E+01
      8.988 -0.3713E-09  0.1173E+01
      9.101 -0.2226E-11  0.1173E+01
      9.214 -0.6991E-14  0.1173E+01
      9.326 -0.1314E-16  0.1173E+01
      9.439  0.0000E+00  0.1173E+01
      9.552  0.0000E+00  0.1173E+01
      9.664  0.0000E+00  0.1173E+01
      9.777  0.0000E+00  0.1173E+01
      9.889  0.0000E+00  0.1173E+01
     10.002  0.0000E+00  0.1173E+01
