 vasp.6.3.2 27Jun22 (build Jun 14 2024 17:29:11) complex                         
 executed on             LinuxGNU date 2026.04.03  10:20:14
 running on   16 total cores
 distrk:  each k-point on   16 cores,    1 groups
 distr:  one band on NCORE=   1 cores,   16 groups


--------------------------------------------------------------------------------------------------------


 INCAR:
   SYSTEM = endpoint_relax
   ENCUT = 400
   EDIFF = 1E-05
   PREC = Normal
   ALGO = Fast
   LREAL = Auto
   ISYM = 0
   IBRION = 2
   ISIF = 2
   NSW = 300
   EDIFFG = -0.02
   LWAVE = .TRUE.
   LCHARG = .FALSE.

 POTCAR:    PAW_PBE Na_pv 19Sep2006               
 POTCAR:    PAW_PBE In_d 06Sep2000                
 POTCAR:    PAW_PBE S 06Sep2000                   
 -----------------------------------------------------------------------------
|                                                                             |
|           W    W    AA    RRRRR   N    N  II  N    N   GGGG   !!!           |
|           W    W   A  A   R    R  NN   N  II  NN   N  G    G  !!!           |
|           W    W  A    A  R    R  N N  N  II  N N  N  G       !!!           |
|           W WW W  AAAAAA  RRRRR   N  N N  II  N  N N  G  GGG   !            |
|           WW  WW  A    A  R   R   N   NN  II  N   NN  G    G                |
|           W    W  A    A  R    R  N    N  II  N    N   GGGG   !!!           |
|                                                                             |
|     For optimal performance we recommend to set                             |
|       NCORE = 2 up to number-of-cores-per-socket                            |
|     NCORE specifies how many cores store one orbital (NPAR=cpu/NCORE).      |
|     This setting can greatly improve the performance of VASP for DFT.       |
|     The default, NCORE=1 might be grossly inefficient on modern             |
|     multi-core architectures or massively parallel machines. Do your        |
|     own testing! More info at https://www.vasp.at/wiki/index.php/NCORE      |
|     Unfortunately you need to use the default for GW and RPA                |
|     calculations (for HF NCORE is supported but not extensively tested      |
|     yet).                                                                   |
|                                                                             |
 -----------------------------------------------------------------------------

 POTCAR:    PAW_PBE Na_pv 19Sep2006               
   SHA256 =  6a2f546d9e11350984debacf3dc457d8cffc0868e817d445faca461816a32b94 Na_pv/POTCAR          
   COPYR  = (c) Copyright 19Sep2006 Georg Kresse                                                    
   COPYR  = This file is part of the software VASP. Any use, copying, and all other rights are regul
   COPYR  = If you do not have a valid VASP license, you may not use, copy or distribute this file. 
   VRHFIN =Na: p6s1                                                                                 
   LEXCH  = PE                                                                                      
   EATOM  =   766.0439 eV,   56.3026 Ry                                                             
                                                                                                    
   TITEL  = PAW_PBE Na_pv 19Sep2006                                                                 
   LULTRA =        F    use ultrasoft PP ?                                                          
   IUNSCR =        1    unscreen: 0-lin 1-nonlin 2-no                                               
   RPACOR =    1.800    partial core radius                                                         
   POMASS =   22.990; ZVAL   =    7.000    mass and valenz                                          
   RCORE  =    2.200    outmost cutoff radius                                                       
   RWIGS  =    2.200; RWIGS  =    1.164    wigner-seitz radius (au A)                               
   ENMAX  =  259.561; ENMIN  =  194.671 eV                                                          
   ICORE  =        2    local potential                                                             
   LCOR   =        T    correct aug charges                                                         
   LPAW   =        T    paw PP                                                                      
   EAUG   =  368.056                                                                                
   DEXC   =    0.000                                                                                
   RMAX   =    2.245    core radius for proj-oper                                                   
   RAUG   =    1.300    factor for augmentation sphere                                              
   RDEP   =    2.259    radius for radial grids                                                     
   RDEPT  =    1.738    core radius for aug-charge                                                  
                                                                                                    
   Atomic configuration                                                                             
    5 entries                                                                                       
     n  l   j            E        occ.                                                              
     1  0  0.50     -1033.6933   2.0000                                                             
     2  0  0.50       -56.7526   2.0000                                                             
     2  1  1.50       -28.6721   6.0000                                                             
     3  0  0.50        -2.7440   1.0000                                                             
     3  2  1.50        -1.3606   0.0000                                                             
   Description                                                                                      
     l       E           TYP  RCUT    TYP  RCUT                                                     
     1    -28.6720912     23  2.000                                                                 
     1      6.8029130     23  2.000                                                                 
     0     -2.7439560     23  2.200                                                                 
     0     34.0145650     23  2.200                                                                 
     2     -1.3605826     23  2.200                                                                 
  local pseudopotential read in
  partial core-charges read in
  partial kinetic energy density read in
  atomic valenz-charges read in
  non local Contribution for L=           1  read in
    real space projection operators read in
  non local Contribution for L=           1  read in
    real space projection operators read in
  non local Contribution for L=           0  read in
    real space projection operators read in
  non local Contribution for L=           0  read in
    real space projection operators read in
    PAW grid and wavefunctions read in

   number of l-projection  operators is LMAX  =           4
   number of lm-projection operators is LMMAX =           8

 POTCAR:    PAW_PBE In_d 06Sep2000                
   SHA256 =  bef4eefb233e1f458c7ef2e09e39e7114bb5a6a38c7ac356915527764429c513 In_d/POTCAR           
   COPYR  = (c) Copyright 06Sep2000 Georg Kresse                                                    
   COPYR  = This file is part of the software VASP. Any use, copying, and all other rights are regul
   COPYR  = If you do not have a valid VASP license, you may not use, copy or distribute this file. 
   VRHFIN =In: s2p1                                                                                 
   LEXCH  = PE                                                                                      
   EATOM  =  1576.8302 eV,  115.8937 Ry                                                             
                                                                                                    
   TITEL  = PAW_PBE In_d 06Sep2000                                                                  
   LULTRA =        F    use ultrasoft PP ?                                                          
   IUNSCR =        1    unscreen: 0-lin 1-nonlin 2-no                                               
   RPACOR =    2.200    partial core radius                                                         
   POMASS =  114.820; ZVAL   =   13.000    mass and valenz                                          
   RCORE  =    2.500    outmost cutoff radius                                                       
   RWIGS  =    3.170; RWIGS  =    1.677    wigner-seitz radius (au A)                               
   ENMAX  =  239.211; ENMIN  =  179.409 eV                                                          
   ICORE  =        3    local potential                                                             
   LCOR   =        T    correct aug charges                                                         
   LPAW   =        T    paw PP                                                                      
   EAUG   =  449.704                                                                                
   DEXC   =    0.000                                                                                
   RMAX   =    2.552    core radius for proj-oper                                                   
   RAUG   =    1.300    factor for augmentation sphere                                              
   RDEP   =    2.630    radius for radial grids                                                     
   RDEPT  =    2.033    core radius for aug-charge                                                  
                                                                                                    
   Atomic configuration                                                                             
   12 entries                                                                                       
     n  l   j            E        occ.                                                              
     1  0  0.50    -27747.9169   2.0000                                                             
     2  0  0.50     -4154.4438   2.0000                                                             
     2  1  1.50     -3728.4305   6.0000                                                             
     3  0  0.50      -788.3680   2.0000                                                             
     3  1  1.50      -648.9215   6.0000                                                             
     3  2  2.50      -432.5893  10.0000                                                             
     4  0  0.50      -119.6363   2.0000                                                             
     4  1  1.50       -78.1086   6.0000                                                             
     4  2  2.50       -18.6227  10.0000                                                             
     5  0  0.50        -8.2107   2.0000                                                             
     5  1  0.50        -2.5185   1.0000                                                             
     4  3  2.50        -2.7212   0.0000                                                             
   Description                                                                                      
     l       E           TYP  RCUT    TYP  RCUT                                                     
     2    -18.6226981     23  2.500                                                                 
     2     -1.3605826     23  2.500                                                                 
     0     -8.2107305     23  2.500                                                                 
     0     -6.1485975     23  2.500                                                                 
     1     -2.5184867     23  2.500                                                                 
     1      3.2427302     23  2.500                                                                 
     3     -1.3605826      7  2.500                                                                 
  local pseudopotential read in
  partial core-charges read in
  partial kinetic energy density read in
  atomic valenz-charges read in
  non local Contribution for L=           2  read in
    real space projection operators read in
  non local Contribution for L=           2  read in
    real space projection operators read in
  non local Contribution for L=           0  read in
    real space projection operators read in
  non local Contribution for L=           0  read in
    real space projection operators read in
  non local Contribution for L=           1  read in
    real space projection operators read in
  non local Contribution for L=           1  read in
    real space projection operators read in
    PAW grid and wavefunctions read in

   number of l-projection  operators is LMAX  =           6
   number of lm-projection operators is LMMAX =          18

 POTCAR:    PAW_PBE S 06Sep2000                   
   SHA256 =  0fc7481fb0695f01bdc6462160264c5c84044ae9ec85a907d398b887a2bc3132 S/POTCAR              
   COPYR  = (c) Copyright 06Sep2000 Georg Kresse                                                    
   COPYR  = This file is part of the software VASP. Any use, copying, and all other rights are regul
   COPYR  = If you do not have a valid VASP license, you may not use, copy or distribute this file. 
   VRHFIN =S : s2p4                                                                                 
   LEXCH  = PE                                                                                      
   EATOM  =   276.8230 eV,   20.3459 Ry                                                             
                                                                                                    
   TITEL  = PAW_PBE S 06Sep2000                                                                     
   LULTRA =        F    use ultrasoft PP ?                                                          
   IUNSCR =        1    unscreen: 0-lin 1-nonlin 2-no                                               
   RPACOR =    1.500    partial core radius                                                         
   POMASS =   32.066; ZVAL   =    6.000    mass and valenz                                          
   RCORE  =    1.900    outmost cutoff radius                                                       
   RWIGS  =    2.200; RWIGS  =    1.164    wigner-seitz radius (au A)                               
   ENMAX  =  258.689; ENMIN  =  194.016 eV                                                          
   ICORE  =        2    local potential                                                             
   LCOR   =        T    correct aug charges                                                         
   LPAW   =        T    paw PP                                                                      
   EAUG   =  335.092                                                                                
   DEXC   =    0.000                                                                                
   RMAX   =    1.942    core radius for proj-oper                                                   
   RAUG   =    1.300    factor for augmentation sphere                                              
   RDEP   =    1.954    radius for radial grids                                                     
   RDEPT  =    1.744    core radius for aug-charge                                                  
                                                                                                    
   Atomic configuration                                                                             
    6 entries                                                                                       
     n  l   j            E        occ.                                                              
     1  0  0.50     -2405.8406   2.0000                                                             
     2  0  0.50      -211.7007   2.0000                                                             
     2  1  1.50      -156.4958   6.0000                                                             
     3  0  0.50       -17.2562   2.0000                                                             
     3  1  0.50        -7.0085   4.0000                                                             
     3  2  1.50        -6.8029   0.0000                                                             
   Description                                                                                      
     l       E           TYP  RCUT    TYP  RCUT                                                     
     0    -17.2561641     23  1.900                                                                 
     0    -15.8743224     23  1.900                                                                 
     1     -7.0085400     23  1.900                                                                 
     1     -2.7779785     23  1.900                                                                 
     2     -6.8029130     23  1.900                                                                 
  local pseudopotential read in
  partial core-charges read in
  partial kinetic energy density read in
  atomic valenz-charges read in
  non local Contribution for L=           0  read in
    real space projection operators read in
  non local Contribution for L=           0  read in
    real space projection operators read in
  non local Contribution for L=           1  read in
    real space projection operators read in
  non local Contribution for L=           1  read in
    real space projection operators read in
    PAW grid and wavefunctions read in

   number of l-projection  operators is LMAX  =           4
   number of lm-projection operators is LMMAX =           8

 Optimization of the real space projectors (new method)

 maximal supplied QI-value         = 17.01
 optimisation between [QCUT,QGAM] = [ 10.20, 20.41] = [ 29.16,116.64] Ry 
 Optimized for a Real-space Cutoff    1.30 Angstroem

   l    n(q)    QCUT    max X(q) W(low)/X(q) W(high)/X(q)  e(spline) 
   1      7    10.205     4.940    0.23E-03    0.84E-03    0.11E-06
   1      7    10.205     6.253    0.40E-03    0.13E-02    0.18E-06
   0      8    10.205    37.438    0.23E-03    0.37E-03    0.42E-07
   0      8    10.205     9.606    0.16E-03    0.26E-03    0.31E-07
 Optimization of the real space projectors (new method)

 maximal supplied QI-value         = 15.12
 optimisation between [QCUT,QGAM] = [ 10.13, 20.41] = [ 28.73,116.64] Ry 
 Optimized for a Real-space Cutoff    1.38 Angstroem

   l    n(q)    QCUT    max X(q) W(low)/X(q) W(high)/X(q)  e(spline) 
   2      7    10.129     4.551    0.64E-04    0.18E-03    0.26E-07
   2      7    10.129     8.525    0.32E-03    0.27E-04    0.88E-07
   0      8    10.129   208.283    0.16E-03    0.21E-03    0.10E-06
   0      8    10.129   161.407    0.16E-03    0.21E-03    0.10E-06
   1      8    10.129   122.126    0.27E-03    0.20E-03    0.14E-06
   1      8    10.129    62.412    0.26E-03    0.19E-03    0.13E-06
 Optimization of the real space projectors (new method)

 maximal supplied QI-value         = 19.84
 optimisation between [QCUT,QGAM] = [ 10.12, 20.44] = [ 28.68,116.96] Ry 
 Optimized for a Real-space Cutoff    1.23 Angstroem

   l    n(q)    QCUT    max X(q) W(low)/X(q) W(high)/X(q)  e(spline) 
   0      7    10.119   187.594    0.62E-04    0.28E-03    0.52E-07
   0      7    10.119   164.243    0.61E-04    0.28E-03    0.52E-07
   1      7    10.119    67.533    0.45E-03    0.63E-03    0.13E-06
   1      7    10.119    50.729    0.44E-03    0.62E-03    0.12E-06
  PAW_PBE Na_pv 19Sep2006               :
 energy of atom  1       EATOM= -766.0439
 kinetic energy error for atom=    0.0103 (will be added to EATOM!!)
  PAW_PBE In_d 06Sep2000                :
 energy of atom  2       EATOM=-1576.8302
 kinetic energy error for atom=    0.0052 (will be added to EATOM!!)
  PAW_PBE S 06Sep2000                   :
 energy of atom  3       EATOM= -276.8230
 kinetic energy error for atom=    0.0046 (will be added to EATOM!!)


 POSCAR: JVASP-12818_Na5InS4 NEB image 00
  positions in direct lattice
  No initial velocities read in
 exchange correlation table for  LEXCH =        8
   RHO(1)=    0.500       N(1)  =     2000
   RHO(2)=  100.500       N(2)  =     4000



--------------------------------------------------------------------------------------------------------


 ion  position               nearest neighbor table
   1  0.656  0.260  0.665-  30 2.73  24 2.73  27 2.77  21 3.38
   2  0.344  0.010  0.335-  39 2.73  25 2.73  26 2.77  22 3.38
   3  0.344  0.240  0.335-  31 2.73  25 2.73  29 2.77  20 3.38
   4  0.656  0.490  0.665-  38 2.73  24 2.73  28 2.77  23 3.38
   5  0.975  0.125  0.529-
   6  0.025  0.375  0.471-
   7  0.669  0.125  0.161-  30 2.71  21 3.36
   8  0.000  0.000  0.000-
   9  0.000  0.250  0.000-
  10  0.656  0.760  0.665-  38 2.73  32 2.73  35 2.77  23 3.38
  11  0.344  0.510  0.335-  31 2.73  33 2.73  34 2.77  20 3.38
  12  0.344  0.740  0.335-  39 2.73  33 2.73  37 2.77  22 3.38
  13  0.656  0.990  0.665-  30 2.73  32 2.73  36 2.77  21 3.38
  14  0.975  0.625  0.529-
  15  0.025  0.875  0.471-
  16  0.669  0.625  0.161-  38 2.71  23 3.36
  17  0.331  0.875  0.839-  39 2.71  22 3.36
  18  0.000  0.500  0.000-
  19  0.000  0.750  0.000-
  20  0.639  0.375  0.176-  24 2.50  31 2.51  28 2.52  27 2.52   3 3.38  11 3.38
  21  0.361  0.125  0.824-  25 2.50  30 2.51  26 2.52  29 2.52   7 3.36   1 3.38  13 3.38
  22  0.639  0.875  0.176-  32 2.50  39 2.51  36 2.52  35 2.52  17 3.36  12 3.38   2 3.38
  23  0.361  0.625  0.824-  33 2.50  38 2.51  34 2.52  37 2.52  16 3.36  10 3.38   4 3.38
  24  0.761  0.375  0.880-  20 2.50   4 2.73   1 2.73
  25  0.239  0.125  0.120-  21 2.50   3 2.73   2 2.73
  26  0.233  0.010  0.672-  21 2.52   2 2.77
  27  0.767  0.260  0.328-  20 2.52   1 2.77
  28  0.767  0.490  0.328-  20 2.52   4 2.77
  29  0.233  0.240  0.672-  21 2.52   3 2.77
  30  0.729  0.125  0.821-  21 2.51   7 2.71  13 2.73   1 2.73
  31  0.271  0.375  0.179-  20 2.51  11 2.73   3 2.73
  32  0.761  0.875  0.880-  22 2.50  13 2.73  10 2.73
  33  0.239  0.625  0.120-  23 2.50  12 2.73  11 2.73
  34  0.233  0.510  0.672-  23 2.52  11 2.77
  35  0.767  0.760  0.328-  22 2.52  10 2.77
  36  0.767  0.990  0.328-  22 2.52  13 2.77
  37  0.233  0.740  0.672-  23 2.52  12 2.77
  38  0.729  0.625  0.821-  23 2.51  16 2.71   4 2.73  10 2.73
  39  0.271  0.875  0.179-  22 2.51  17 2.71   2 2.73  12 2.73


IMPORTANT INFORMATION: All symmetrisations will be switched off!
NOSYMM: (Re-)initialisation of all symmetry stuff for point group C_1.


----------------------------------------------------------------------------------------

                                     Primitive cell                                     

  volume of cell :     951.5811

  direct lattice vectors                    reciprocal lattice vectors
     6.833068891 -0.000000000 -0.127247023     0.146348793  0.000000000  0.000089461
    -0.000000000 17.671850551  0.000000000     0.000000000  0.056587169  0.000000000
    -0.004817206  0.000000000  7.880484692     0.002363109 -0.000000000  0.126897193

  length of vectors
     6.834253601 17.671850551  7.880486165     0.146348820  0.056587169  0.126919194

  position of ions in fractional coordinates (direct lattice)
     0.656420674  0.260081620  0.664953487
     0.343579326  0.010081620  0.335046513
     0.343579326  0.239918380  0.335046513
     0.656420674  0.489918380  0.664953487
     0.974932254  0.125000000  0.528779272
     0.025067746  0.375000000  0.471220728
     0.669142769  0.125000000  0.160796996
     0.000000000  0.000000000  0.000000000
     0.000000000  0.250000000  1.000000000
     0.656420674  0.760081620  0.664953487
     0.343579326  0.510081620  0.335046513
     0.343579326  0.739918380  0.335046513
     0.656420674  0.989918380  0.664953487
     0.974932254  0.625000000  0.528779272
     0.025067746  0.875000000  0.471220728
     0.669142769  0.625000000  0.160796996
     0.330857231  0.875000000  0.839203004
     0.000000000  0.500000000  1.000000000
     0.000000000  0.750000000  1.000000000
     0.638540005  0.375000000  0.176435958
     0.361459995  0.125000000  0.823564042
     0.638540005  0.875000000  0.176435958
     0.361459995  0.625000000  0.823564042
     0.760565672  0.375000000  0.880038541
     0.239434328  0.125000000  0.119961459
     0.233181450  0.009502762  0.671668979
     0.766818550  0.259502762  0.328331021
     0.766818550  0.490497238  0.328331021
     0.233181450  0.240497238  0.671668979
     0.728516862  0.125000000  0.821493095
     0.271483138  0.375000000  0.178506905
     0.760565672  0.875000000  0.880038541
     0.239434328  0.625000000  0.119961459
     0.233181450  0.509502762  0.671668979
     0.766818550  0.759502762  0.328331021
     0.766818550  0.990497238  0.328331021
     0.233181450  0.740497238  0.671668979
     0.728516862  0.625000000  0.821493095
     0.271483138  0.875000000  0.178506905

  ion indices of the primitive-cell ions
   primitive index   ion index
                 1           1
                 2           2
                 3           3
                 4           4
                 5           5
                 6           6
                 7           7
                 8           8
                 9           9
                10          10
                11          11
                12          12
                13          13
                14          14
                15          15
                16          16
                17          17
                18          18
                19          19
                20          20
                21          21
                22          22
                23          23
                24          24
                25          25
                26          26
                27          27
                28          28
                29          29
                30          30
                31          31
                32          32
                33          33
                34          34
                35          35
                36          36
                37          37
                38          38
                39          39

----------------------------------------------------------------------------------------



 KPOINTS: Gamma-point only                        

Automatic generation of k-mesh.
 Grid dimensions read from file:
 generate k-points for:    1    1    1

 Generating k-lattice:

  Cartesian coordinates                     Fractional coordinates (reciprocal lattice)
     0.146348793  0.000000000  0.000089461     1.000000000  0.000000000  0.000000000
     0.000000000  0.056587169  0.000000000     0.000000000  1.000000000  0.000000000
     0.002363109 -0.000000000  0.126897193     0.000000000 -0.000000000  1.000000000

  Length of vectors
     0.146348820  0.056587169  0.126919194

  Shift w.r.t. Gamma in fractional coordinates (k-lattice)
     0.000000000  0.000000000  0.000000000

 
 Subroutine IBZKPT returns following result:
 ===========================================
 
 Found      1 irreducible k-points:
 
 Following reciprocal coordinates:
            Coordinates               Weight
  0.000000  0.000000  0.000000      1.000000
 
 Following cartesian coordinates:
            Coordinates               Weight
  0.000000  0.000000  0.000000      1.000000
 


--------------------------------------------------------------------------------------------------------




 Dimension of arrays:
   k-points           NKPTS =      1   k-points in BZ     NKDIM =      1   number of bands    NBANDS=    176
   number of dos      NEDOS =    301   number of ions     NIONS =     39
   non local maximal  LDIM  =      6   non local SUM 2l+1 LMDIM =     18
   total plane-waves  NPLWV = 129600
   max r-space proj   IRMAX =   1551   max aug-charges    IRDMAX=   6082
   dimension x,y,z NGX =    36 NGY =   90 NGZ =   40
   dimension x,y,z NGXF=    72 NGYF=  180 NGZF=   80
   support grid    NGXF=    72 NGYF=  180 NGZF=   80
   ions per type =              19   4  16
   NGX,Y,Z   is equivalent  to a cutoff of   8.76,  8.47,  8.44 a.u.
   NGXF,Y,Z  is equivalent  to a cutoff of  17.51, 16.93, 16.88 a.u.

 SYSTEM =  endpoint_relax                          
 POSCAR =  JVASP-12818_Na5InS4 NEB image 00        

 Startparameter for this run:
   NWRITE =      2    write-flag & timer
   PREC   = normal    normal or accurate (medium, high low for compatibility)
   ISTART =      0    job   : 0-new  1-cont  2-samecut
   ICHARG =      2    charge: 1-file 2-atom 10-const
   ISPIN  =      1    spin polarized calculation?
   LNONCOLLINEAR =      F non collinear calculations
   LSORBIT =      F    spin-orbit coupling
   INIWAV =      1    electr: 0-lowe 1-rand  2-diag
   LASPH  =      F    aspherical Exc in radial PAW
 Electronic Relaxation 1
   ENCUT  =  400.0 eV  29.40 Ry    5.42 a.u.  11.14 28.82 12.85*2*pi/ulx,y,z
   ENINI  =  400.0     initial cutoff
   ENAUG  =  449.7 eV  augmentation charge cutoff
   NELM   =     60;   NELMIN=  2; NELMDL= -5     # of ELM steps 
   EDIFF  = 0.1E-04   stopping-criterion for ELM
   LREAL  =      T    real-space projection
   NLSPLINE    = F    spline interpolate recip. space projectors
   LCOMPAT=      F    compatible to vasp.4.4
   GGA_COMPAT  = T    GGA compatible to vasp.4.4-vasp.4.6
   LMAXPAW     = -100 max onsite density
   LMAXMIX     =    2 max onsite mixed and CHGCAR
   VOSKOWN=      0    Vosko Wilk Nusair interpolation
   ROPT   =   -0.00050  -0.00050  -0.00050
 Ionic relaxation
   EDIFFG = -.2E-01   stopping-criterion for IOM
   NSW    =    300    number of steps for IOM
   NBLOCK =      1;   KBLOCK =    300    inner block; outer block 
   IBRION =      2    ionic relax: 0-MD 1-quasi-New 2-CG
   NFREE  =      1    steps in history (QN), initial steepest desc. (CG)
   ISIF   =      2    stress and relaxation
   IWAVPR =     11    prediction:  0-non 1-charg 2-wave 3-comb
   ISYM   =      0    0-nonsym 1-usesym 2-fastsym
   LCORR  =      T    Harris-Foulkes like correction to forces

   POTIM  = 0.5000    time-step for ionic-motion
   TEIN   =    0.0    initial temperature
   TEBEG  =    0.0;   TEEND  =   0.0 temperature during run
   SMASS  =  -3.00    Nose mass-parameter (am)
   estimated Nose-frequenzy (Omega)   =  0.10E-29 period in steps = 0.13E+47 mass=  -0.107E-26a.u.
   SCALEE = 1.0000    scale energy and forces
   NPACO  =    256;   APACO  = 10.0  distance and # of slots for P.C.
   PSTRESS=    0.0 pullay stress

  Mass of Ions in am
   POMASS =  22.99114.82 32.07
  Ionic Valenz
   ZVAL   =   7.00 13.00  6.00
  Atomic Wigner-Seitz radii
   RWIGS  =  -1.00 -1.00 -1.00
  virtual crystal weights 
   VCA    =   1.00  1.00  1.00
   NELECT =     281.0000    total number of electrons
   NUPDOWN=      -1.0000    fix difference up-down

 DOS related values:
   EMIN   =  10.00;   EMAX   =-10.00  energy-range for DOS
   EFERMI =   0.00
   ISMEAR =     1;   SIGMA  =   0.20  broadening in eV -4-tet -1-fermi 0-gaus

 Electronic relaxation 2 (details)
   IALGO  =     68    algorithm
   LDIAG  =      T    sub-space diagonalisation (order eigenvalues)
   LSUBROT=      F    optimize rotation matrix (better conditioning)
   TURBO    =      0    0=normal 1=particle mesh
   IRESTART =      0    0=no restart 2=restart with 2 vectors
   NREBOOT  =      0    no. of reboots
   NMIN     =      0    reboot dimension
   EREF     =   0.00    reference energy to select bands
   IMIX   =      4    mixing-type and parameters
     AMIX     =   0.40;   BMIX     =  1.00
     AMIX_MAG =   1.60;   BMIX_MAG =  1.00
     AMIN     =   0.10
     WC   =   100.;   INIMIX=   1;  MIXPRE=   1;  MAXMIX= -45

 Intra band minimization:
   WEIMIN = 0.0010     energy-eigenvalue tresh-hold
   EBREAK =  0.14E-07  absolut break condition
   DEPER  =   0.30     relativ break condition  

   TIME   =   0.40     timestep for ELM

  volume/ion in A,a.u.               =      24.40       164.66
  Fermi-wavevector in a.u.,A,eV,Ry     =   1.090172  2.060126 16.170182  1.188475
  Thomas-Fermi vector in A             =   2.226391

 Write flags
   LWAVE        =      T    write WAVECAR
   LDOWNSAMPLE  =      F    k-point downsampling of WAVECAR
   LCHARG       =      F    write CHGCAR
   LVTOT        =      F    write LOCPOT, total local potential
   LVHAR        =      F    write LOCPOT, Hartree potential only
   LELF         =      F    write electronic localiz. function (ELF)
   LORBIT       =      0    0 simple, 1 ext, 2 COOP (PROOUT), +10 PAW based schemes


 Dipole corrections
   LMONO  =      F    monopole corrections only (constant potential shift)
   LDIPOL =      F    correct potential (dipole corrections)
   IDIPOL =      0    1-x, 2-y, 3-z, 4-all directions 
   EPSILON=  1.0000000 bulk dielectric constant

 Exchange correlation treatment:
   GGA     =    --    GGA type
   LEXCH   =     8    internal setting for exchange type
   LIBXC   =     F    Libxc                    
   VOSKOWN =     0    Vosko Wilk Nusair interpolation
   LHFCALC =     F    Hartree Fock is set to
   LHFONE  =     F    Hartree Fock one center treatment
   AEXX    =    0.0000 exact exchange contribution

 Linear response parameters
   LEPSILON=     F    determine dielectric tensor
   LRPA    =     F    only Hartree local field effects (RPA)
   LNABLA  =     F    use nabla operator in PAW spheres
   LVEL    =     F    velocity operator in full k-point grid
   CSHIFT  =0.1000    complex shift for real part using Kramers Kronig
   OMEGAMAX=  -1.0    maximum frequency
   DEG_THRESHOLD= 0.2000000E-02 threshold for treating states as degnerate
   RTIME   =   -0.100 relaxation time in fs
  (WPLASMAI=    0.000 imaginary part of plasma frequency in eV, 0.658/RTIME)
   DFIELD  = 0.0000000 0.0000000 0.0000000 field for delta impulse in time

  Optional k-point grid parameters
   LKPOINTS_OPT  =     F    use optional k-point grid
   KPOINTS_OPT_MODE=     1    mode for optional k-point grid

 Orbital magnetization related:
   ORBITALMAG=     F  switch on orbital magnetization
   LCHIMAG   =     F  perturbation theory with respect to B field
   DQ        =  0.001000  dq finite difference perturbation B field
   LLRAUG    =     F  two centre corrections for induced B field



--------------------------------------------------------------------------------------------------------


 conjugate gradient relaxation of ions
 charge density and potential will be updated during run
 non-spin polarized calculation
 RMM-DIIS sequential band-by-band and
  variant of blocked Davidson during initial phase
 perform sub-space diagonalisation
    before iterative eigenvector-optimisation
 modified Broyden-mixing scheme, WC =      100.0
 initial mixing is a Kerker type mixing with AMIX =  0.4000 and BMIX =      1.0000
 Hartree-type preconditioning will be used
 using additional bands           35
 real space projection scheme for non local part
 use partial core corrections
 calculate Harris-corrections to forces   (improved forces if not selfconsistent)
 use gradient corrections 
 use of overlap-Matrix (Vanderbilt PP)
 Methfessel and Paxton  Order N= 1 SIGMA  =   0.20


--------------------------------------------------------------------------------------------------------


  energy-cutoff  :      400.00
  volume of cell :      951.58
      direct lattice vectors                 reciprocal lattice vectors
     6.833068891 -0.000000000 -0.127247023     0.146348793  0.000000000  0.000089461
    -0.000000000 17.671850551  0.000000000     0.000000000  0.056587169  0.000000000
    -0.004817206  0.000000000  7.880484692     0.002363109 -0.000000000  0.126897193

  length of vectors
     6.834253601 17.671850551  7.880486165     0.146348820  0.056587169  0.126919194



 k-points in units of 2pi/SCALE and weight: Gamma-point only                        
   0.00000000  0.00000000  0.00000000       1.000

 k-points in reciprocal lattice and weights: Gamma-point only                        
   0.00000000  0.00000000  0.00000000       1.000

 position of ions in fractional coordinates (direct lattice) 
   0.65642067  0.26008162  0.66495349
   0.34357933  0.01008162  0.33504651
   0.34357933  0.23991838  0.33504651
   0.65642067  0.48991838  0.66495349
   0.97493225  0.12500000  0.52877927
   0.02506775  0.37500000  0.47122073
   0.66914277  0.12500000  0.16079700
   0.00000000  0.00000000  0.00000000
   0.00000000  0.25000000  0.00000000
   0.65642067  0.76008162  0.66495349
   0.34357933  0.51008162  0.33504651
   0.34357933  0.73991838  0.33504651
   0.65642067  0.98991838  0.66495349
   0.97493225  0.62500000  0.52877927
   0.02506775  0.87500000  0.47122073
   0.66914277  0.62500000  0.16079700
   0.33085723  0.87500000  0.83920300
   0.00000000  0.50000000  0.00000000
   0.00000000  0.75000000  0.00000000
   0.63854001  0.37500000  0.17643596
   0.36145999  0.12500000  0.82356404
   0.63854001  0.87500000  0.17643596
   0.36145999  0.62500000  0.82356404
   0.76056567  0.37500000  0.88003854
   0.23943433  0.12500000  0.11996146
   0.23318145  0.00950276  0.67166898
   0.76681855  0.25950276  0.32833102
   0.76681855  0.49049724  0.32833102
   0.23318145  0.24049724  0.67166898
   0.72851686  0.12500000  0.82149309
   0.27148314  0.37500000  0.17850691
   0.76056567  0.87500000  0.88003854
   0.23943433  0.62500000  0.11996146
   0.23318145  0.50950276  0.67166898
   0.76681855  0.75950276  0.32833102
   0.76681855  0.99049724  0.32833102
   0.23318145  0.74049724  0.67166898
   0.72851686  0.62500000  0.82149309
   0.27148314  0.87500000  0.17850691

 position of ions in cartesian coordinates  (Angst):
   4.48216447  4.59612351  5.15662820
   2.34608722  0.17816087  2.59660947
   2.34608722  4.23980176  2.59660947
   4.48216447  8.65776440  5.15662820
   6.65923202  2.20898132  4.04297973
   0.16901967  6.62694396  3.71025793
   4.57152405  2.20898132  1.18201184
   0.00000000  0.00000000  0.00000000
  -0.00000000  4.41796264  0.00000000
   4.48216447 13.43204879  5.15662820
   2.34608722  9.01408615  2.59660947
   2.34608722 13.07572704  2.59660947
   4.48216447 17.49368968  5.15662820
   6.65923202 11.04490659  4.04297973
   0.16901967 15.46286923  3.71025793
   4.57152405 11.04490659  1.18201184
   2.25672764 15.46286923  6.57122583
  -0.00000000  8.83592528  0.00000000
  -0.00000000 13.25388791  0.00000000
   4.36233792  6.62694396  1.30914855
   2.46591377  2.20898132  6.44408912
   4.36233792 15.46286923  1.30914855
   2.46591377 11.04490659  6.44408912
   5.19275831  6.62694396  6.83835054
   1.63549338  2.20898132  0.91488713
   1.59010934  0.16793139  5.26340546
   5.23814234  4.58589403  2.48983221
   5.23814234  8.66799388  2.48983221
   1.59010934  4.25003124  5.26340546
   4.97404861  2.20898132  6.38106216
   1.85420308  6.62694396  1.37217551
   5.19275831 15.46286923  6.83835054
   1.63549338 11.04490659  0.91488713
   1.59010934  9.00385667  5.26340546
   5.23814234 13.42181931  2.48983221
   5.23814234 17.50391916  2.48983221
   1.59010934 13.08595652  5.26340546
   4.97404861 11.04490659  6.38106216
   1.85420308 15.46286923  1.37217551



--------------------------------------------------------------------------------------------------------


 k-point   1 :   0.0000 0.0000 0.0000  plane waves:   17271

 maximum and minimum number of plane-waves per node :     17271    17271

 maximum number of plane-waves:     17271
 maximum index in each direction: 
   IXMAX=   11   IYMAX=   28   IZMAX=   12
   IXMIN=  -11   IYMIN=  -28   IZMIN=  -12


 serial   3D FFT for wavefunctions
 parallel 3D FFT for charge:
    minimum data exchange during FFTs selected (reduces bandwidth)


 total amount of memory used by VASP MPI-rank0    51295. kBytes
=======================================================================

   base      :      30000. kBytes
   nonlr-proj:       4685. kBytes
   fftplans  :       2971. kBytes
   grid      :       9930. kBytes
   one-center:        606. kBytes
   wavefun   :       3103. kBytes

     INWAV:  cpu time      0.0000: real time      0.0002
 Broyden mixing: mesh for mixing (old mesh)
   NGX = 23   NGY = 57   NGZ = 25
  (NGX  = 72   NGY  =180   NGZ  = 80)
  gives a total of  32775 points

 initial charge density was supplied:
 charge density of overlapping atoms calculated
 number of electron     281.0000000 magnetization 
 keeping initial charge density in first step


--------------------------------------------------------------------------------------------------------


 Maximum index for non-local projection operator         1449
 Maximum index for augmentation-charges          434 (set IRDMAX)


--------------------------------------------------------------------------------------------------------


 First call to EWALD:  gamma=   0.180
 Maximum number of real-space cells 4x 2x 3
 Maximum number of reciprocal cells 2x 5x 2

    FEWALD:  cpu time      0.0017: real time      0.0017


--------------------------------------- Iteration      1(   1)  ---------------------------------------


    POTLOK:  cpu time      0.0438: real time      0.0439
    SETDIJ:  cpu time      0.0049: real time      0.0050
     EDDAV:  cpu time      0.4755: real time      0.4756
       DOS:  cpu time      0.0004: real time      0.0005
    --------------------------------------------
      LOOP:  cpu time      0.5248: real time      0.5251

 eigenvalue-minimisations  :   368
 total energy-change (2. order) : 0.2843769E+04  (-0.1151636E+05)
 number of electron     281.0000000 magnetization 
 augmentation part      281.0000000 magnetization 

 Free energy of the ion-electron system (eV)
  ---------------------------------------------------
  alpha Z        PSCENC =       446.64426306
  Ewald energy   TEWEN  =    -14146.92048397
  -Hartree energ DENC   =     -7686.08479055
  -exchange      EXHF   =         0.00000000
  -V(xc)+E(xc)   XCENC  =       828.98879394
  PAW double counting   =     18548.11631799   -20142.72634554
  entropy T*S    EENTRO =        -0.02797287
  eigenvalues    EBANDS =      -295.25367767
  atomic energy  EATOM  =     25291.03246954
  Solvation  Ediel_sol  =         0.00000000
  ---------------------------------------------------
  free energy    TOTEN  =      2843.76857395 eV

  energy without entropy =     2843.79654682  energy(sigma->0) =     2843.77789824


--------------------------------------------------------------------------------------------------------




--------------------------------------- Iteration      1(   2)  ---------------------------------------


     EDDAV:  cpu time      0.4851: real time      0.4858
       DOS:  cpu time      0.0003: real time      0.0004
    --------------------------------------------
      LOOP:  cpu time      0.4854: real time      0.4861

 eigenvalue-minimisations  :   384
 total energy-change (2. order) :-0.2575268E+04  (-0.2474692E+04)
 number of electron     281.0000000 magnetization 
 augmentation part      281.0000000 magnetization 

 Free energy of the ion-electron system (eV)
  ---------------------------------------------------
  alpha Z        PSCENC =       446.64426306
  Ewald energy   TEWEN  =    -14146.92048397
  -Hartree energ DENC   =     -7686.08479055
  -exchange      EXHF   =         0.00000000
  -V(xc)+E(xc)   XCENC  =       828.98879394
  PAW double counting   =     18548.11631799   -20142.72634554
  entropy T*S    EENTRO =        -0.05641890
  eigenvalues    EBANDS =     -2870.49372281
  atomic energy  EATOM  =     25291.03246954
  Solvation  Ediel_sol  =         0.00000000
  ---------------------------------------------------
  free energy    TOTEN  =       268.50008277 eV

  energy without entropy =      268.55650168  energy(sigma->0) =      268.51888908


--------------------------------------------------------------------------------------------------------




--------------------------------------- Iteration      1(   3)  ---------------------------------------


     EDDAV:  cpu time      0.4983: real time      0.4986
       DOS:  cpu time      0.0003: real time      0.0004
    --------------------------------------------
      LOOP:  cpu time      0.4986: real time      0.4989

 eigenvalue-minimisations  :   400
 total energy-change (2. order) :-0.3887641E+03  (-0.3824547E+03)
 number of electron     281.0000000 magnetization 
 augmentation part      281.0000000 magnetization 

 Free energy of the ion-electron system (eV)
  ---------------------------------------------------
  alpha Z        PSCENC =       446.64426306
  Ewald energy   TEWEN  =    -14146.92048397
  -Hartree energ DENC   =     -7686.08479055
  -exchange      EXHF   =         0.00000000
  -V(xc)+E(xc)   XCENC  =       828.98879394
  PAW double counting   =     18548.11631799   -20142.72634554
  entropy T*S    EENTRO =        -0.01748339
  eigenvalues    EBANDS =     -3259.29675845
  atomic energy  EATOM  =     25291.03246954
  Solvation  Ediel_sol  =         0.00000000
  ---------------------------------------------------
  free energy    TOTEN  =      -120.26401735 eV

  energy without entropy =     -120.24653396  energy(sigma->0) =     -120.25818956


--------------------------------------------------------------------------------------------------------




--------------------------------------- Iteration      1(   4)  ---------------------------------------


     EDDAV:  cpu time      0.5321: real time      0.5323
       DOS:  cpu time      0.0003: real time      0.0003
    --------------------------------------------
      LOOP:  cpu time      0.5323: real time      0.5326

 eigenvalue-minimisations  :   432
 total energy-change (2. order) :-0.2698350E+02  (-0.2672452E+02)
 number of electron     281.0000000 magnetization 
 augmentation part      281.0000000 magnetization 

 Free energy of the ion-electron system (eV)
  ---------------------------------------------------
  alpha Z        PSCENC =       446.64426306
  Ewald energy   TEWEN  =    -14146.92048397
  -Hartree energ DENC   =     -7686.08479055
  -exchange      EXHF   =         0.00000000
  -V(xc)+E(xc)   XCENC  =       828.98879394
  PAW double counting   =     18548.11631799   -20142.72634554
  entropy T*S    EENTRO =         0.03489529
  eigenvalues    EBANDS =     -3286.33263645
  atomic energy  EATOM  =     25291.03246954
  Solvation  Ediel_sol  =         0.00000000
  ---------------------------------------------------
  free energy    TOTEN  =      -147.24751668 eV

  energy without entropy =     -147.28241197  energy(sigma->0) =     -147.25914844


--------------------------------------------------------------------------------------------------------




--------------------------------------- Iteration      1(   5)  ---------------------------------------


     EDDAV:  cpu time      0.6275: real time      0.6280
       DOS:  cpu time      0.0003: real time      0.0004
    CHARGE:  cpu time      0.0284: real time      0.0284
    MIXING:  cpu time      0.0017: real time      0.0017
    --------------------------------------------
      LOOP:  cpu time      0.6578: real time      0.6584

 eigenvalue-minimisations  :   528
 total energy-change (2. order) :-0.1141221E+01  (-0.1139091E+01)
 number of electron     281.0000158 magnetization 
 augmentation part       99.2061981 magnetization 

 Broyden mixing:
  rms(total) = 0.19037E+01    rms(broyden)= 0.19036E+01
  rms(prec ) = 0.20977E+01
  weight for this iteration     100.00

 Free energy of the ion-electron system (eV)
  ---------------------------------------------------
  alpha Z        PSCENC =       446.64426306
  Ewald energy   TEWEN  =    -14146.92048397
  -Hartree energ DENC   =     -7686.08479055
  -exchange      EXHF   =         0.00000000
  -V(xc)+E(xc)   XCENC  =       828.98879394
  PAW double counting   =     18548.11631799   -20142.72634554
  entropy T*S    EENTRO =         0.03479404
  eigenvalues    EBANDS =     -3287.47375616
  atomic energy  EATOM  =     25291.03246954
  Solvation  Ediel_sol  =         0.00000000
  ---------------------------------------------------
  free energy    TOTEN  =      -148.38873763 eV

  energy without entropy =     -148.42353167  energy(sigma->0) =     -148.40033564


--------------------------------------------------------------------------------------------------------




--------------------------------------- Iteration      1(   6)  ---------------------------------------


    POTLOK:  cpu time      0.0408: real time      0.0410
    SETDIJ:  cpu time      0.0043: real time      0.0043
    EDDIAG:  cpu time      0.0912: real time      0.0913
  RMM-DIIS:  cpu time      0.2875: real time      0.2876
    ORTHCH:  cpu time      0.0151: real time      0.0151
       DOS:  cpu time      0.0003: real time      0.0005
    CHARGE:  cpu time      0.0269: real time      0.0269
    MIXING:  cpu time      0.0014: real time      0.0014
    --------------------------------------------
      LOOP:  cpu time      0.4676: real time      0.4682

 eigenvalue-minimisations  :   391
 total energy-change (2. order) : 0.8730340E+01  (-0.1519816E+01)
 number of electron     281.0000161 magnetization 
 augmentation part       99.9377934 magnetization 

 Broyden mixing:
  rms(total) = 0.12064E+01    rms(broyden)= 0.12064E+01
  rms(prec ) = 0.12730E+01
  weight for this iteration     100.00

 eigenvalues of (default mixing * dielectric matrix)
  average eigenvalue GAMMA=   1.6565
  1.6565

 Free energy of the ion-electron system (eV)
  ---------------------------------------------------
  alpha Z        PSCENC =       446.64426306
  Ewald energy   TEWEN  =    -14146.92048397
  -Hartree energ DENC   =     -7698.75685847
  -exchange      EXHF   =         0.00000000
  -V(xc)+E(xc)   XCENC  =       834.67333316
  PAW double counting   =     20927.34484522   -22515.55175552
  entropy T*S    EENTRO =         0.02161624
  eigenvalues    EBANDS =     -3278.14582730
  atomic energy  EATOM  =     25291.03246954
  Solvation  Ediel_sol  =         0.00000000
  ---------------------------------------------------
  free energy    TOTEN  =      -139.65839803 eV

  energy without entropy =     -139.68001427  energy(sigma->0) =     -139.66560344


--------------------------------------------------------------------------------------------------------




--------------------------------------- Iteration      1(   7)  ---------------------------------------


    POTLOK:  cpu time      0.0384: real time      0.0387
    SETDIJ:  cpu time      0.0042: real time      0.0042
    EDDIAG:  cpu time      0.0880: real time      0.0880
  RMM-DIIS:  cpu time      0.3032: real time      0.3034
    ORTHCH:  cpu time      0.0145: real time      0.0145
       DOS:  cpu time      0.0003: real time      0.0004
    CHARGE:  cpu time      0.0352: real time      0.0352
    MIXING:  cpu time      0.0014: real time      0.0014
    --------------------------------------------
      LOOP:  cpu time      0.4851: real time      0.4858

 eigenvalue-minimisations  :   408
 total energy-change (2. order) : 0.1101237E+00  (-0.1251013E+01)
 number of electron     281.0000163 magnetization 
 augmentation part      100.3148122 magnetization 

 Broyden mixing:
  rms(total) = 0.80579E+00    rms(broyden)= 0.80578E+00
  rms(prec ) = 0.84563E+00
  weight for this iteration     100.00

 eigenvalues of (default mixing * dielectric matrix)
  average eigenvalue GAMMA=   1.4734
  1.0732  1.8737

 Free energy of the ion-electron system (eV)
  ---------------------------------------------------
  alpha Z        PSCENC =       446.64426306
  Ewald energy   TEWEN  =    -14146.92048397
  -Hartree energ DENC   =     -7716.22174326
  -exchange      EXHF   =         0.00000000
  -V(xc)+E(xc)   XCENC  =       839.10255763
  PAW double counting   =     23873.09805715   -25465.24799571
  entropy T*S    EENTRO =        -0.03250422
  eigenvalues    EBANDS =     -3261.00289454
  atomic energy  EATOM  =     25291.03246954
  Solvation  Ediel_sol  =         0.00000000
  ---------------------------------------------------
  free energy    TOTEN  =      -139.54827432 eV

  energy without entropy =     -139.51577010  energy(sigma->0) =     -139.53743958


--------------------------------------------------------------------------------------------------------




--------------------------------------- Iteration      1(   8)  ---------------------------------------


    POTLOK:  cpu time      0.0370: real time      0.0374
    SETDIJ:  cpu time      0.0041: real time      0.0041
    EDDIAG:  cpu time      0.0882: real time      0.0884
  RMM-DIIS:  cpu time      0.3304: real time      0.3305
    ORTHCH:  cpu time      0.0149: real time      0.0149
       DOS:  cpu time      0.0002: real time      0.0004
    CHARGE:  cpu time      0.0271: real time      0.0271
    MIXING:  cpu time      0.0014: real time      0.0014
    --------------------------------------------
      LOOP:  cpu time      0.5034: real time      0.5043

 eigenvalue-minimisations  :   442
 total energy-change (2. order) : 0.1743036E+00  (-0.1218160E+00)
 number of electron     281.0000164 magnetization 
 augmentation part      100.2993180 magnetization 

 Broyden mixing:
  rms(total) = 0.49400E+00    rms(broyden)= 0.49400E+00
  rms(prec ) = 0.51760E+00
  weight for this iteration     100.00

 eigenvalues of (default mixing * dielectric matrix)
  average eigenvalue GAMMA=   1.5869
  2.3692  1.7560  0.6356

 Free energy of the ion-electron system (eV)
  ---------------------------------------------------
  alpha Z        PSCENC =       446.64426306
  Ewald energy   TEWEN  =    -14146.92048397
  -Hartree energ DENC   =     -7714.08865822
  -exchange      EXHF   =         0.00000000
  -V(xc)+E(xc)   XCENC  =       839.32858173
  PAW double counting   =     25047.83818457   -26643.41774007
  entropy T*S    EENTRO =        -0.01182812
  eigenvalues    EBANDS =     -3259.77875922
  atomic energy  EATOM  =     25291.03246954
  Solvation  Ediel_sol  =         0.00000000
  ---------------------------------------------------
  free energy    TOTEN  =      -139.37397070 eV

  energy without entropy =     -139.36214258  energy(sigma->0) =     -139.37002799


--------------------------------------------------------------------------------------------------------




--------------------------------------- Iteration      1(   9)  ---------------------------------------


    POTLOK:  cpu time      0.0371: real time      0.0373
    SETDIJ:  cpu time      0.0040: real time      0.0040
    EDDIAG:  cpu time      0.0889: real time      0.0890
  RMM-DIIS:  cpu time      0.3131: real time      0.3133
    ORTHCH:  cpu time      0.0143: real time      0.0143
       DOS:  cpu time      0.0002: real time      0.0004
    CHARGE:  cpu time      0.0314: real time      0.0314
    MIXING:  cpu time      0.0014: real time      0.0014
    --------------------------------------------
      LOOP:  cpu time      0.4906: real time      0.4912

 eigenvalue-minimisations  :   415
 total energy-change (2. order) :-0.7409876E-01  (-0.8587204E-01)
 number of electron     281.0000163 magnetization 
 augmentation part      100.2138715 magnetization 

 Broyden mixing:
  rms(total) = 0.20270E+00    rms(broyden)= 0.20269E+00
  rms(prec ) = 0.32689E+00
  weight for this iteration     100.00

 eigenvalues of (default mixing * dielectric matrix)
  average eigenvalue GAMMA=   1.3378
  2.3527  1.7139  0.6422  0.6422

 Free energy of the ion-electron system (eV)
  ---------------------------------------------------
  alpha Z        PSCENC =       446.64426306
  Ewald energy   TEWEN  =    -14146.92048397
  -Hartree energ DENC   =     -7706.85342208
  -exchange      EXHF   =         0.00000000
  -V(xc)+E(xc)   XCENC  =       839.03409240
  PAW double counting   =     26292.30619960   -27891.39566178
  entropy T*S    EENTRO =         0.04355768
  eigenvalues    EBANDS =     -3263.33908391
  atomic energy  EATOM  =     25291.03246954
  Solvation  Ediel_sol  =         0.00000000
  ---------------------------------------------------
  free energy    TOTEN  =      -139.44806945 eV

  energy without entropy =     -139.49162714  energy(sigma->0) =     -139.46258868


--------------------------------------------------------------------------------------------------------




--------------------------------------- Iteration      1(  10)  ---------------------------------------


    POTLOK:  cpu time      0.0372: real time      0.0374
    SETDIJ:  cpu time      0.0041: real time      0.0041
    EDDIAG:  cpu time      0.0882: real time      0.0882
  RMM-DIIS:  cpu time      0.3153: real time      0.3155
    ORTHCH:  cpu time      0.0144: real time      0.0144
       DOS:  cpu time      0.0003: real time      0.0004
    CHARGE:  cpu time      0.0319: real time      0.0319
    MIXING:  cpu time      0.0014: real time      0.0014
    --------------------------------------------
      LOOP:  cpu time      0.4928: real time      0.4933

 eigenvalue-minimisations  :   418
 total energy-change (2. order) : 0.1307799E+00  (-0.1308239E-01)
 number of electron     281.0000163 magnetization 
 augmentation part      100.2086821 magnetization 

 Broyden mixing:
  rms(total) = 0.14857E+00    rms(broyden)= 0.14857E+00
  rms(prec ) = 0.16736E+00
  weight for this iteration     100.00

 eigenvalues of (default mixing * dielectric matrix)
  average eigenvalue GAMMA=   1.1496
  2.0952  1.5986  0.8938  0.5801  0.5801

 Free energy of the ion-electron system (eV)
  ---------------------------------------------------
  alpha Z        PSCENC =       446.64426306
  Ewald energy   TEWEN  =    -14146.92048397
  -Hartree energ DENC   =     -7704.12533530
  -exchange      EXHF   =         0.00000000
  -V(xc)+E(xc)   XCENC  =       839.13611719
  PAW double counting   =     26495.02997385   -28094.52411862
  entropy T*S    EENTRO =         0.03583495
  eigenvalues    EBANDS =     -3265.62601030
  atomic energy  EATOM  =     25291.03246954
  Solvation  Ediel_sol  =         0.00000000
  ---------------------------------------------------
  free energy    TOTEN  =      -139.31728960 eV

  energy without entropy =     -139.35312455  energy(sigma->0) =     -139.32923458


--------------------------------------------------------------------------------------------------------




--------------------------------------- Iteration      1(  11)  ---------------------------------------


    POTLOK:  cpu time      0.0373: real time      0.0375
    SETDIJ:  cpu time      0.0040: real time      0.0040
    EDDIAG:  cpu time      0.0879: real time      0.0879
  RMM-DIIS:  cpu time      0.3511: real time      0.3513
    ORTHCH:  cpu time      0.0141: real time      0.0141
       DOS:  cpu time      0.0003: real time      0.0004
    CHARGE:  cpu time      0.0322: real time      0.0322
    MIXING:  cpu time      0.0015: real time      0.0015
    --------------------------------------------
      LOOP:  cpu time      0.5283: real time      0.5289

 eigenvalue-minimisations  :   457
 total energy-change (2. order) : 0.3502564E-01  (-0.5927809E-02)
 number of electron     281.0000163 magnetization 
 augmentation part      100.2231440 magnetization 

 Broyden mixing:
  rms(total) = 0.87805E-01    rms(broyden)= 0.87804E-01
  rms(prec ) = 0.96952E-01
  weight for this iteration     100.00

 eigenvalues of (default mixing * dielectric matrix)
  average eigenvalue GAMMA=   1.1427
  1.8311  1.8311  1.0136  1.0136  0.5834  0.5834

 Free energy of the ion-electron system (eV)
  ---------------------------------------------------
  alpha Z        PSCENC =       446.64426306
  Ewald energy   TEWEN  =    -14146.92048397
  -Hartree energ DENC   =     -7705.88663394
  -exchange      EXHF   =         0.00000000
  -V(xc)+E(xc)   XCENC  =       839.30558680
  PAW double counting   =     26294.70022919   -27893.50010456
  entropy T*S    EENTRO =         0.02921210
  eigenvalues    EBANDS =     -3264.68680219
  atomic energy  EATOM  =     25291.03246954
  Solvation  Ediel_sol  =         0.00000000
  ---------------------------------------------------
  free energy    TOTEN  =      -139.28226396 eV

  energy without entropy =     -139.31147606  energy(sigma->0) =     -139.29200133


--------------------------------------------------------------------------------------------------------




--------------------------------------- Iteration      1(  12)  ---------------------------------------


    POTLOK:  cpu time      0.0372: real time      0.0374
    SETDIJ:  cpu time      0.0041: real time      0.0041
    EDDIAG:  cpu time      0.0883: real time      0.0883
  RMM-DIIS:  cpu time      0.3573: real time      0.3575
    ORTHCH:  cpu time      0.0143: real time      0.0143
       DOS:  cpu time      0.0003: real time      0.0004
    CHARGE:  cpu time      0.0315: real time      0.0315
    MIXING:  cpu time      0.0015: real time      0.0015
    --------------------------------------------
      LOOP:  cpu time      0.5344: real time      0.5349

 eigenvalue-minimisations  :   471
 total energy-change (2. order) : 0.3797690E-02  (-0.2827586E-02)
 number of electron     281.0000163 magnetization 
 augmentation part      100.2357141 magnetization 

 Broyden mixing:
  rms(total) = 0.47109E-01    rms(broyden)= 0.47108E-01
  rms(prec ) = 0.53830E-01
  weight for this iteration     100.00

 eigenvalues of (default mixing * dielectric matrix)
  average eigenvalue GAMMA=   1.3054
  2.3058  2.3058  1.1757  1.1757  1.0070  0.5839  0.5839

 Free energy of the ion-electron system (eV)
  ---------------------------------------------------
  alpha Z        PSCENC =       446.64426306
  Ewald energy   TEWEN  =    -14146.92048397
  -Hartree energ DENC   =     -7706.71630969
  -exchange      EXHF   =         0.00000000
  -V(xc)+E(xc)   XCENC  =       839.36080424
  PAW double counting   =     26024.43439872   -27622.91891222
  entropy T*S    EENTRO =         0.02716969
  eigenvalues    EBANDS =     -3264.22186566
  atomic energy  EATOM  =     25291.03246954
  Solvation  Ediel_sol  =         0.00000000
  ---------------------------------------------------
  free energy    TOTEN  =      -139.27846627 eV

  energy without entropy =     -139.30563596  energy(sigma->0) =     -139.28752284


--------------------------------------------------------------------------------------------------------




--------------------------------------- Iteration      1(  13)  ---------------------------------------


    POTLOK:  cpu time      0.0371: real time      0.0373
    SETDIJ:  cpu time      0.0042: real time      0.0042
    EDDIAG:  cpu time      0.0890: real time      0.0890
  RMM-DIIS:  cpu time      0.2936: real time      0.2937
    ORTHCH:  cpu time      0.0160: real time      0.0160
       DOS:  cpu time      0.0003: real time      0.0005
    CHARGE:  cpu time      0.0318: real time      0.0318
    MIXING:  cpu time      0.0016: real time      0.0016
    --------------------------------------------
      LOOP:  cpu time      0.4736: real time      0.4741

 eigenvalue-minimisations  :   394
 total energy-change (2. order) :-0.7699129E-02  (-0.7693163E-03)
 number of electron     281.0000163 magnetization 
 augmentation part      100.2288197 magnetization 

 Broyden mixing:
  rms(total) = 0.41875E-01    rms(broyden)= 0.41874E-01
  rms(prec ) = 0.65648E-01
  weight for this iteration     100.00

 eigenvalues of (default mixing * dielectric matrix)
  average eigenvalue GAMMA=   1.2559
  2.4521  2.4521  1.2931  1.2931  0.9776  0.5927  0.5927  0.3940

 Free energy of the ion-electron system (eV)
  ---------------------------------------------------
  alpha Z        PSCENC =       446.64426306
  Ewald energy   TEWEN  =    -14146.92048397
  -Hartree energ DENC   =     -7706.55044973
  -exchange      EXHF   =         0.00000000
  -V(xc)+E(xc)   XCENC  =       839.39682789
  PAW double counting   =     26016.55380433   -27615.35024612
  entropy T*S    EENTRO =         0.02471677
  eigenvalues    EBANDS =     -3264.11706718
  atomic energy  EATOM  =     25291.03246954
  Solvation  Ediel_sol  =         0.00000000
  ---------------------------------------------------
  free energy    TOTEN  =      -139.28616540 eV

  energy without entropy =     -139.31088217  energy(sigma->0) =     -139.29440432


--------------------------------------------------------------------------------------------------------




--------------------------------------- Iteration      1(  14)  ---------------------------------------


    POTLOK:  cpu time      0.0371: real time      0.0374
    SETDIJ:  cpu time      0.0040: real time      0.0040
    EDDIAG:  cpu time      0.0880: real time      0.0880
  RMM-DIIS:  cpu time      0.3039: real time      0.3041
    ORTHCH:  cpu time      0.0140: real time      0.0140
       DOS:  cpu time      0.0002: real time      0.0004
    CHARGE:  cpu time      0.0314: real time      0.0315
    MIXING:  cpu time      0.0016: real time      0.0017
    --------------------------------------------
      LOOP:  cpu time      0.4805: real time      0.4811

 eigenvalue-minimisations  :   396
 total energy-change (2. order) : 0.6744556E-03  (-0.4753884E-03)
 number of electron     281.0000163 magnetization 
 augmentation part      100.2241579 magnetization 

 Broyden mixing:
  rms(total) = 0.37963E-01    rms(broyden)= 0.37962E-01
  rms(prec ) = 0.49424E-01
  weight for this iteration     100.00

 eigenvalues of (default mixing * dielectric matrix)
  average eigenvalue GAMMA=   1.1867
  2.3406  2.3406  1.4338  1.4338  0.8107  0.8107  0.5999  0.5999  0.3100

 Free energy of the ion-electron system (eV)
  ---------------------------------------------------
  alpha Z        PSCENC =       446.64426306
  Ewald energy   TEWEN  =    -14146.92048397
  -Hartree energ DENC   =     -7706.47022920
  -exchange      EXHF   =         0.00000000
  -V(xc)+E(xc)   XCENC  =       839.43562366
  PAW double counting   =     26018.84762992   -27617.84828424
  entropy T*S    EENTRO =         0.02320530
  eigenvalues    EBANDS =     -3264.02968501
  atomic energy  EATOM  =     25291.03246954
  Solvation  Ediel_sol  =         0.00000000
  ---------------------------------------------------
  free energy    TOTEN  =      -139.28549095 eV

  energy without entropy =     -139.30869624  energy(sigma->0) =     -139.29322605


--------------------------------------------------------------------------------------------------------




--------------------------------------- Iteration      1(  15)  ---------------------------------------


    POTLOK:  cpu time      0.0371: real time      0.0373
    SETDIJ:  cpu time      0.0041: real time      0.0041
    EDDIAG:  cpu time      0.0879: real time      0.0880
  RMM-DIIS:  cpu time      0.3258: real time      0.3259
    ORTHCH:  cpu time      0.0142: real time      0.0142
       DOS:  cpu time      0.0003: real time      0.0005
    CHARGE:  cpu time      0.0316: real time      0.0316
    MIXING:  cpu time      0.0017: real time      0.0017
    --------------------------------------------
      LOOP:  cpu time      0.5027: real time      0.5033

 eigenvalue-minimisations  :   433
 total energy-change (2. order) : 0.1782395E-02  (-0.2001303E-03)
 number of electron     281.0000163 magnetization 
 augmentation part      100.2263942 magnetization 

 Broyden mixing:
  rms(total) = 0.23383E-01    rms(broyden)= 0.23383E-01
  rms(prec ) = 0.25378E-01
  weight for this iteration     100.00

 eigenvalues of (default mixing * dielectric matrix)
  average eigenvalue GAMMA=   1.1684
  2.2700  2.2700  1.6034  1.6034  1.0546  0.6664  0.6664  0.6219  0.6219  0.3065

 Free energy of the ion-electron system (eV)
  ---------------------------------------------------
  alpha Z        PSCENC =       446.64426306
  Ewald energy   TEWEN  =    -14146.92048397
  -Hartree energ DENC   =     -7706.73719578
  -exchange      EXHF   =         0.00000000
  -V(xc)+E(xc)   XCENC  =       839.46887140
  PAW double counting   =     25987.64864480   -27586.59514274
  entropy T*S    EENTRO =         0.02379190
  eigenvalues    EBANDS =     -3263.84892677
  atomic energy  EATOM  =     25291.03246954
  Solvation  Ediel_sol  =         0.00000000
  ---------------------------------------------------
  free energy    TOTEN  =      -139.28370855 eV

  energy without entropy =     -139.30750045  energy(sigma->0) =     -139.29163918


--------------------------------------------------------------------------------------------------------




--------------------------------------- Iteration      1(  16)  ---------------------------------------


    POTLOK:  cpu time      0.0370: real time      0.0373
    SETDIJ:  cpu time      0.0040: real time      0.0040
    EDDIAG:  cpu time      0.0875: real time      0.0875
  RMM-DIIS:  cpu time      0.3070: real time      0.3070
    ORTHCH:  cpu time      0.0140: real time      0.0140
       DOS:  cpu time      0.0002: real time      0.0004
    CHARGE:  cpu time      0.0319: real time      0.0319
    MIXING:  cpu time      0.0018: real time      0.0018
    --------------------------------------------
      LOOP:  cpu time      0.4835: real time      0.4841

 eigenvalue-minimisations  :   400
 total energy-change (2. order) : 0.1359125E-03  (-0.9256559E-04)
 number of electron     281.0000163 magnetization 
 augmentation part      100.2291681 magnetization 

 Broyden mixing:
  rms(total) = 0.15497E-01    rms(broyden)= 0.15497E-01
  rms(prec ) = 0.16921E-01
  weight for this iteration     100.00

 eigenvalues of (default mixing * dielectric matrix)
  average eigenvalue GAMMA=   1.2814
  3.0691  3.0691  1.5453  1.5453  0.9981  0.9981  0.6017  0.6017  0.7467  0.6167
  0.3040

 Free energy of the ion-electron system (eV)
  ---------------------------------------------------
  alpha Z        PSCENC =       446.64426306
  Ewald energy   TEWEN  =    -14146.92048397
  -Hartree energ DENC   =     -7706.99822817
  -exchange      EXHF   =         0.00000000
  -V(xc)+E(xc)   XCENC  =       839.48882182
  PAW double counting   =     25965.62062154   -27564.52772409
  entropy T*S    EENTRO =         0.02593144
  eigenvalues    EBANDS =     -3263.64924383
  atomic energy  EATOM  =     25291.03246954
  Solvation  Ediel_sol  =         0.00000000
  ---------------------------------------------------
  free energy    TOTEN  =      -139.28357264 eV

  energy without entropy =     -139.30950408  energy(sigma->0) =     -139.29221645


--------------------------------------------------------------------------------------------------------




--------------------------------------- Iteration      1(  17)  ---------------------------------------


    POTLOK:  cpu time      0.0370: real time      0.0372
    SETDIJ:  cpu time      0.0041: real time      0.0041
    EDDIAG:  cpu time      0.0905: real time      0.0905
  RMM-DIIS:  cpu time      0.2923: real time      0.2923
    ORTHCH:  cpu time      0.0141: real time      0.0141
       DOS:  cpu time      0.0003: real time      0.0004
    CHARGE:  cpu time      0.0321: real time      0.0321
    MIXING:  cpu time      0.0020: real time      0.0020
    --------------------------------------------
      LOOP:  cpu time      0.4722: real time      0.4727

 eigenvalue-minimisations  :   389
 total energy-change (2. order) :-0.4850814E-03  (-0.8161884E-04)
 number of electron     281.0000163 magnetization 
 augmentation part      100.2293482 magnetization 

 Broyden mixing:
  rms(total) = 0.11534E-01    rms(broyden)= 0.11533E-01
  rms(prec ) = 0.18692E-01
  weight for this iteration     100.00

 eigenvalues of (default mixing * dielectric matrix)
  average eigenvalue GAMMA=   1.2475
  3.0698  2.4678  1.7227  1.7227  1.1640  1.1640  0.8488  0.6403  0.6403  0.6130
  0.6130  0.3040

 Free energy of the ion-electron system (eV)
  ---------------------------------------------------
  alpha Z        PSCENC =       446.64426306
  Ewald energy   TEWEN  =    -14146.92048397
  -Hartree energ DENC   =     -7707.26840921
  -exchange      EXHF   =         0.00000000
  -V(xc)+E(xc)   XCENC  =       839.50153530
  PAW double counting   =     25892.95021129   -27491.87791685
  entropy T*S    EENTRO =         0.02526956
  eigenvalues    EBANDS =     -3263.37099645
  atomic energy  EATOM  =     25291.03246954
  Solvation  Ediel_sol  =         0.00000000
  ---------------------------------------------------
  free energy    TOTEN  =      -139.28405772 eV

  energy without entropy =     -139.30932728  energy(sigma->0) =     -139.29248091


--------------------------------------------------------------------------------------------------------




--------------------------------------- Iteration      1(  18)  ---------------------------------------


    POTLOK:  cpu time      0.0372: real time      0.0374
    SETDIJ:  cpu time      0.0040: real time      0.0040
    EDDIAG:  cpu time      0.0875: real time      0.0876
  RMM-DIIS:  cpu time      0.2843: real time      0.2844
    ORTHCH:  cpu time      0.0141: real time      0.0141
       DOS:  cpu time      0.0002: real time      0.0004
    CHARGE:  cpu time      0.0321: real time      0.0321
    MIXING:  cpu time      0.0020: real time      0.0020
    --------------------------------------------
      LOOP:  cpu time      0.4614: real time      0.4620

 eigenvalue-minimisations  :   362
 total energy-change (2. order) : 0.3821348E-03  (-0.3446064E-04)
 number of electron     281.0000163 magnetization 
 augmentation part      100.2303094 magnetization 

 Broyden mixing:
  rms(total) = 0.44814E-02    rms(broyden)= 0.44811E-02
  rms(prec ) = 0.61557E-02
  weight for this iteration     100.00

 eigenvalues of (default mixing * dielectric matrix)
  average eigenvalue GAMMA=   1.2173
  3.0984  2.4002  1.8996  1.8996  1.1506  1.1506  0.7548  0.7548  0.6203  0.6203
  0.5857  0.5857  0.3040

 Free energy of the ion-electron system (eV)
  ---------------------------------------------------
  alpha Z        PSCENC =       446.64426306
  Ewald energy   TEWEN  =    -14146.92048397
  -Hartree energ DENC   =     -7707.25447432
  -exchange      EXHF   =         0.00000000
  -V(xc)+E(xc)   XCENC  =       839.50956716
  PAW double counting   =     25911.62621459   -27510.55660602
  entropy T*S    EENTRO =         0.02376840
  eigenvalues    EBANDS =     -3263.38839403
  atomic energy  EATOM  =     25291.03246954
  Solvation  Ediel_sol  =         0.00000000
  ---------------------------------------------------
  free energy    TOTEN  =      -139.28367559 eV

  energy without entropy =     -139.30744398  energy(sigma->0) =     -139.29159839


--------------------------------------------------------------------------------------------------------




--------------------------------------- Iteration      1(  19)  ---------------------------------------


    POTLOK:  cpu time      0.0369: real time      0.0372
    SETDIJ:  cpu time      0.0040: real time      0.0040
    EDDIAG:  cpu time      0.0872: real time      0.0872
  RMM-DIIS:  cpu time      0.2589: real time      0.2589
    ORTHCH:  cpu time      0.0140: real time      0.0140
       DOS:  cpu time      0.0002: real time      0.0004
    CHARGE:  cpu time      0.0321: real time      0.0321
    MIXING:  cpu time      0.0020: real time      0.0020
    --------------------------------------------
      LOOP:  cpu time      0.4354: real time      0.4359

 eigenvalue-minimisations  :   325
 total energy-change (2. order) : 0.3656342E-04  (-0.5379106E-05)
 number of electron     281.0000163 magnetization 
 augmentation part      100.2300343 magnetization 

 Broyden mixing:
  rms(total) = 0.31407E-02    rms(broyden)= 0.31406E-02
  rms(prec ) = 0.35811E-02
  weight for this iteration     100.00

 eigenvalues of (default mixing * dielectric matrix)
  average eigenvalue GAMMA=   1.1742
  3.0412  2.3454  1.9609  1.9609  1.1664  1.1664  0.7443  0.7443  0.6720  0.6122
  0.6122  0.5541  0.5541  0.3040

 Free energy of the ion-electron system (eV)
  ---------------------------------------------------
  alpha Z        PSCENC =       446.64426306
  Ewald energy   TEWEN  =    -14146.92048397
  -Hartree energ DENC   =     -7707.26999780
  -exchange      EXHF   =         0.00000000
  -V(xc)+E(xc)   XCENC  =       839.51075847
  PAW double counting   =     25912.72688523   -27511.66088619
  entropy T*S    EENTRO =         0.02431801
  eigenvalues    EBANDS =     -3263.37096538
  atomic energy  EATOM  =     25291.03246954
  Solvation  Ediel_sol  =         0.00000000
  ---------------------------------------------------
  free energy    TOTEN  =      -139.28363902 eV

  energy without entropy =     -139.30795703  energy(sigma->0) =     -139.29174503


--------------------------------------------------------------------------------------------------------




--------------------------------------- Iteration      1(  20)  ---------------------------------------


    POTLOK:  cpu time      0.0371: real time      0.0373
    SETDIJ:  cpu time      0.0041: real time      0.0041
    EDDIAG:  cpu time      0.0875: real time      0.0875
  RMM-DIIS:  cpu time      0.1905: real time      0.1906
    ORTHCH:  cpu time      0.0140: real time      0.0140
       DOS:  cpu time      0.0002: real time      0.0003
    --------------------------------------------
      LOOP:  cpu time      0.3333: real time      0.3338

 eigenvalue-minimisations  :   222
 total energy-change (2. order) :-0.4237663E-06  (-0.1415327E-05)
 number of electron     281.0000163 magnetization 
 augmentation part      100.2300343 magnetization 

 Free energy of the ion-electron system (eV)
  ---------------------------------------------------
  alpha Z        PSCENC =       446.64426306
  Ewald energy   TEWEN  =    -14146.92048397
  -Hartree energ DENC   =     -7707.26710504
  -exchange      EXHF   =         0.00000000
  -V(xc)+E(xc)   XCENC  =       839.51062715
  PAW double counting   =     25913.40027093   -27512.33270744
  entropy T*S    EENTRO =         0.02438009
  eigenvalues    EBANDS =     -3263.37535377
  atomic energy  EATOM  =     25291.03246954
  Solvation  Ediel_sol  =         0.00000000
  ---------------------------------------------------
  free energy    TOTEN  =      -139.28363945 eV

  energy without entropy =     -139.30801954  energy(sigma->0) =     -139.29176614


--------------------------------------------------------------------------------------------------------




 average (electrostatic) potential at core
  the test charge radii are     0.9254  1.0774  0.9698
  (the norm of the test charge is              1.0000)
       1 -46.9708       2 -47.0689       3 -46.9482       4 -46.9708       5 -47.5889
       6 -47.4713       7 -47.2369       8 -47.2089       9 -47.0483      10 -47.0941
      11 -46.9481      12 -47.0689      13 -47.0941      14 -47.5889      15 -47.6558
      16 -47.2370      17 -47.1656      18 -47.0483      19 -47.2088      20 -99.0192
      21 -98.9745      22 -99.0702      23 -98.9746      24 -88.5044      25 -88.4424
      26 -88.4514      27 -88.6329      28 -88.6328      29 -88.3717      30 -88.6068
      31 -88.4406      32 -88.4694      33 -88.4426      34 -88.3711      35 -88.5305
      36 -88.5302      37 -88.4518      38 -88.6072      39 -88.5623



 E-fermi :   1.0954     XC(G=0):  -8.0793     alpha+bet : -8.3453

 Fermi energy:         1.0954388859

 k-point     1 :       0.0000    0.0000    0.0000
  band No.  band energies     occupation 
      1     -21.8615      2.00000
      2     -21.8515      2.00000
[...]
     47     -21.1284      2.00000
     48     -21.1256      2.00000
     49     -21.1202      2.00000
     50     -21.1098      2.00000
     51     -21.1078      2.00000
     52     -21.0922      2.00000
     53     -21.0853      2.00000
     54     -21.0779      2.00000
     55     -21.0765      2.00000
     56     -21.0574      2.00000
     57     -21.0530      2.00000
     58     -12.5171      2.00000
     59     -12.5012      2.00000
     60     -12.4923      2.00000
     61     -12.4422      2.00000
     62     -12.4417      2.00000
     63     -12.4362      2.00000
     64     -12.4351      2.00000
     65     -12.4280      2.00000
     66     -12.4253      2.00000
     67     -12.3495      2.00000
     68     -12.3400      2.00000
     69     -12.3265      2.00000
     70     -12.3168      2.00000
     71     -12.2986      2.00000
     72     -12.2292      2.00000
     73     -12.2284      2.00000
     74     -12.2255      2.00000
     75     -12.2246      2.00000
     76     -12.1342      2.00000
     77     -12.1327      2.00000
     78     -10.1589      2.00000
     79     -10.0375      2.00000
     80     -10.0060      2.00000
     81      -9.8785      2.00000
     82      -9.4094      2.00000
     83      -9.3794      2.00000
     84      -9.3558      2.00000
     85      -9.3325      2.00000
     86      -9.3168      2.00000
     87      -9.2895      2.00000
     88      -9.2765      2.00000
     89      -9.2396      2.00000
     90      -9.2190      2.00000
     91      -9.2133      2.00000
     92      -9.1992      2.00000
     93      -9.1390      2.00000
     94      -3.2903      2.00000
     95      -3.1227      2.00000
     96      -3.1213      2.00000
     97      -2.9850      2.00000
     98      -1.4414      2.00000
     99      -1.2983      2.00000
    100      -1.2586      2.00000
    101      -1.2161      2.00000
    102      -1.1728      2.00000
    103      -1.1153      2.00000
    104      -1.0802      2.00000
    105      -1.0459      2.00000
    106      -0.9561      2.00000
    107      -0.7007      2.00000
    108      -0.6667      2.00000
    109      -0.6072      2.00000
    110      -0.2492      2.00000
    111      -0.1724      2.00000
    112      -0.1566      2.00000
    113      -0.1205      2.00000
    114      -0.0718      2.00000
    115      -0.0110      2.00000
    116      -0.0003      2.00000
    117       0.0493      2.00000
    118       0.0505      2.00000
    119       0.1277      2.00000
    120       0.1383      2.00000
    121       0.1398      2.00000
    122       0.1444      2.00000
    123       0.2412      2.00000
    124       0.2637      2.00000
    125       0.2861      2.00000
    126       0.3241      2.00000
    127       0.4090      2.00004
    128       0.4508      2.00012
    129       0.4565      2.00015
    130       0.4641      2.00018
    131       0.5112      2.00064
    132       0.5935      2.00426
    133       0.6186      2.00702
    134       0.6765      2.01913
    135       0.6937      2.02468
    136       0.7733      2.05887
    137       0.8625      2.05283
    138       0.8688      2.04621
    139       0.8949      2.00392
    140       0.9272      1.91246
    141       1.0806      0.86949
    142       3.1424     -0.00000
    143       4.1443     -0.00000
    144       4.1813     -0.00000
    145       4.3152     -0.00000
    146       5.4386     -0.00000
    147       5.5311     -0.00000
    148       5.6089     -0.00000
    149       5.7332     -0.00000
    150       5.8722     -0.00000
    151       5.9247     -0.00000
    152       5.9428     -0.00000
    153       6.1104     -0.00000
    154       6.1915     -0.00000
    155       6.2115     -0.00000
    156       6.5550      0.00000
    157       6.6328      0.00000
    158       6.7225      0.00000
    159       6.8387      0.00000
    160       6.9580      0.00000
    161       6.9695      0.00000
    162       7.1277      0.00000
    163       7.1359      0.00000
    164       7.3012      0.00000
    165       7.3609      0.00000
    166       7.4476      0.00000
    167       7.4732      0.00000
    168       7.4999      0.00000
    169       7.5673      0.00000
    170       7.6444      0.00000
    171       7.6701      0.00000
    172       7.7977      0.00000
    173       7.8515      0.00000
    174       7.9071      0.00000
    175       7.9186      0.00000
    176       8.0021      0.00000


--------------------------------------------------------------------------------------------------------


 soft charge-density along one line, spin component           1
         0         1         2         3         4         5         6         7         8         9
 total charge-density along one line

 pseudopotential strength for first ion, spin component:           1
-25.202   0.008   0.004   2.489  -0.003  -0.002   0.005   0.016
  0.008 -25.198   0.004  -0.003   2.487  -0.002  -0.003  -0.011
  0.004   0.004 -25.203  -0.002  -0.002   2.490  -0.001  -0.003
  2.489  -0.003  -0.002   6.598   0.001   0.000  -0.000   0.000
 -0.003   2.487  -0.002   0.001   6.597   0.000   0.000   0.000
 -0.002  -0.002   2.490   0.000   0.000   6.597  -0.000  -0.000
  0.005  -0.003  -0.001  -0.000   0.000  -0.000   1.433   7.008
  0.016  -0.011  -0.003   0.000   0.000  -0.000   7.008  34.039
 total augmentation occupancy for first ion, spin component:           1
  2.001  -0.000  -0.000  -0.000  -0.001  -0.001  -0.016   0.006
 -0.000   2.001  -0.000  -0.001  -0.001  -0.001   0.010  -0.004
 -0.000  -0.000   2.002  -0.001  -0.001  -0.000   0.003  -0.001
 -0.000  -0.001  -0.001   0.022   0.003   0.003  -0.008  -0.000
 -0.001  -0.001  -0.001   0.003   0.020   0.002   0.008  -0.000
 -0.001  -0.001  -0.000   0.003   0.002   0.021  -0.001  -0.000
 -0.016   0.010   0.003  -0.008   0.008  -0.001   0.555  -0.001
  0.006  -0.004  -0.001  -0.000  -0.000  -0.000  -0.001   0.000


------------------------ aborting loop because EDIFF is reached ----------------------------------------


    CHARGE:  cpu time      0.0266: real time      0.0266
    FORLOC:  cpu time      0.0100: real time      0.0100
    FORNL :  cpu time      0.1175: real time      0.1176
    STRESS:  cpu time      0.3480: real time      0.3482
    FORCOR:  cpu time      0.0448: real time      0.0448
    FORHAR:  cpu time      0.0181: real time      0.0181
    MIXING:  cpu time      0.0012: real time      0.0012
    OFIELD:  cpu time      0.0000: real time      0.0000

  FORCE on cell =-STRESS in cart. coord.  units (eV):
  Direction    XX          YY          ZZ          XY          YZ          ZX
  --------------------------------------------------------------------------------------
  Alpha Z   446.64426   446.64426   446.64426
  Ewald   -4758.33381 -4735.20225 -4727.75731     0.00240     0.50403    26.46798
  Hartree  2592.90511  2515.19576  2530.91567    -0.18543     0.03845    20.77786
  E(xc)   -1326.02724 -1325.81128 -1325.86011     0.00097     0.00234     0.03863
  Local   -1618.70513 -1577.53881 -1610.94287     0.20425    -0.48218   -46.95237
  n-local   875.68179   889.16594   894.15760     0.01457     0.05478    -0.59100
  augment  1159.77609  1161.18524  1159.80039    -0.00489    -0.01445     0.55664
  Kinetic  2621.23831  2627.88961  2632.50910    -0.02732    -0.05862    -0.20469
  Fock        0.00000     0.00000     0.00000     0.00000     0.00000     0.00000
  -------------------------------------------------------------------------------------
  Total      -6.82062     1.52845    -0.53326     0.00453     0.04435     0.09305
  in kB     -11.48388     2.57346    -0.89784     0.00763     0.07467     0.15667
  external pressure =       -3.27 kB  Pullay stress =        0.00 kB


 VOLUME and BASIS-vectors are now :
 -----------------------------------------------------------------------------
  energy-cutoff  :      400.00
  volume of cell :      951.58
      direct lattice vectors                 reciprocal lattice vectors
     6.833068891  0.000000000 -0.127247023     0.146348793  0.000000000  0.000089461
    -0.000000000 17.671850551  0.000000000    -0.000000000  0.056587169 -0.000000000
    -0.004817206  0.000000000  7.880484692     0.002363109 -0.000000000  0.126897193

  length of vectors
     6.834253601 17.671850551  7.880486165     0.146348820  0.056587169  0.126919194


 FORCES acting on ions
    electron-ion (+dipol)            ewald-force                    non-local-force                 convergence-correction
 -----------------------------------------------------------------------------------------------
   -.697E+01 -.754E+02 0.349E+00   0.719E+01 0.742E+02 0.435E+00   -.229E+00 0.122E+01 -.787E+00   0.314E-02 0.281E-02 -.211E-02
   0.237E+02 -.566E+02 -.200E+02   -.238E+02 0.554E+02 0.189E+02   0.371E-01 0.120E+01 0.108E+01   -.241E-02 -.182E-02 -.329E-02
   0.221E+02 0.423E+01 -.160E+02   -.222E+02 -.239E+01 0.161E+02   0.296E-01 -.183E+01 -.958E-01   0.517E-02 0.200E-03 0.868E-02
   -.719E+01 0.764E+02 0.215E+00   0.744E+01 -.751E+02 0.522E+00   -.251E+00 -.121E+01 -.740E+00   0.961E-02 -.478E-02 -.169E-02
   0.163E+02 -.277E+02 0.515E+02   -.163E+02 0.289E+02 -.482E+02   -.816E-01 -.120E+01 -.323E+01   -.274E-02 0.285E-02 0.260E-03
   -.189E+02 0.269E+00 -.558E+02   0.191E+02 -.283E+00 0.538E+02   -.224E+00 0.129E-01 0.203E+01   -.383E-03 -.760E-03 0.627E-02
   -.333E+02 -.388E+02 -.306E+02   0.333E+02 0.391E+02 0.289E+02   0.312E-01 -.232E+00 0.172E+01   0.438E-03 0.214E-02 0.488E-02
   -.290E+00 -.249E+02 -.169E+01   0.119E-01 0.248E+02 0.174E+01   0.277E+00 0.134E+00 -.436E-01   -.358E-02 -.372E-02 -.407E-02
   0.773E+01 -.307E+02 0.688E+01   -.694E+01 0.323E+02 -.818E+01   -.787E+00 -.164E+01 0.130E+01   0.126E-02 -.219E-02 -.359E-02
   -.266E+02 -.131E+02 0.244E+02   0.269E+02 0.115E+02 -.233E+02   -.250E+00 0.165E+01 -.109E+01   -.179E-02 -.667E-02 0.385E-02
   0.224E+02 -.359E+01 -.157E+02   -.224E+02 0.177E+01 0.158E+02   -.447E-02 0.183E+01 -.962E-01   0.794E-02 -.330E-02 0.384E-02
   0.236E+02 0.563E+02 -.198E+02   -.236E+02 -.551E+02 0.187E+02   0.565E-01 -.122E+01 0.108E+01   -.355E-02 0.455E-02 -.112E-01
   -.263E+02 0.123E+02 0.246E+02   0.266E+02 -.107E+02 -.235E+02   -.276E+00 -.164E+01 -.107E+01   -.175E-02 0.497E-02 -.500E-02
   0.159E+02 0.280E+02 0.512E+02   -.158E+02 -.292E+02 -.479E+02   -.636E-01 0.118E+01 -.323E+01   -.330E-02 -.822E-02 0.298E-02
   -.920E+01 -.539E+00 -.469E+02   0.960E+01 0.516E+00 0.441E+02   -.400E+00 0.170E-01 0.273E+01   -.329E-02 0.520E-02 -.484E-02
   -.335E+02 0.389E+02 -.303E+02   0.335E+02 -.391E+02 0.286E+02   0.198E-01 0.223E+00 0.168E+01   0.434E-02 -.334E-02 0.386E-02
   0.316E+02 -.562E+00 0.375E+02   -.316E+02 0.539E+00 -.364E+02   -.305E-02 0.225E-01 -.106E+01   -.802E-02 0.173E-02 0.295E-02
   0.806E+01 0.314E+02 0.657E+01   -.726E+01 -.331E+02 -.789E+01   -.791E+00 0.163E+01 0.132E+01   -.418E-02 0.125E-04 -.190E-02
   0.214E+00 0.244E+02 -.152E+01   -.445E+00 -.243E+02 0.156E+01   0.229E+00 -.116E+00 -.368E-01   -.165E-02 0.108E-02 -.356E-02
   0.545E+01 0.406E+00 0.383E+02   -.582E+01 -.411E+00 -.391E+02   0.365E+00 -.202E-02 0.772E+00   0.583E-02 0.291E-02 0.729E-02
   0.872E+01 -.605E+02 0.523E+01   -.813E+01 0.610E+02 -.511E+01   -.586E+00 -.507E+00 -.119E+00   -.139E-02 0.473E-02 0.502E-02
   -.131E+02 -.576E+00 -.219E+02   0.124E+02 0.580E+00 0.214E+02   0.656E+00 -.560E-02 0.558E+00   -.671E-02 0.271E-02 -.130E-01
   0.911E+01 0.600E+02 0.513E+01   -.853E+01 -.605E+02 -.502E+01   -.589E+00 0.498E+00 -.124E+00   0.222E-03 0.528E-02 0.630E-02
   -.178E+02 0.297E+00 0.890E+02   0.194E+02 -.317E+00 -.921E+02   -.163E+01 0.152E-01 0.314E+01   -.104E-01 0.476E-02 -.102E-01
   0.482E+02 -.326E+02 -.859E+02   -.496E+02 0.327E+02 0.888E+02   0.140E+01 -.114E+00 -.287E+01   0.290E-02 -.111E-01 -.386E-02
   0.493E+02 0.504E+02 0.437E+02   -.505E+02 -.527E+02 -.450E+02   0.125E+01 0.226E+01 0.133E+01   -.825E-03 -.663E-02 -.410E-03
   -.482E+02 0.428E+02 -.366E+02   0.490E+02 -.449E+02 0.382E+02   -.798E+00 0.209E+01 -.159E+01   -.766E-02 -.175E-02 0.686E-02
   -.483E+02 -.423E+02 -.367E+02   0.491E+02 0.444E+02 0.383E+02   -.775E+00 -.209E+01 -.162E+01   -.114E-01 0.101E-01 0.741E-02
   0.353E+02 -.125E+03 0.255E+02   -.362E+02 0.128E+03 -.265E+02   0.847E+00 -.301E+01 0.934E+00   -.118E-02 -.369E-02 -.355E-02
   -.924E+02 -.403E+02 -.876E+00   0.952E+02 0.407E+02 0.871E+00   -.281E+01 -.397E+00 -.372E-02   -.139E-02 0.367E-02 0.420E-02
   0.699E+02 0.273E+00 0.228E+02   -.728E+02 -.273E+00 -.229E+02   0.288E+01 -.518E-03 0.446E-01   -.509E-02 0.480E-03 0.590E-02
   -.488E+02 -.238E+00 0.858E+02   0.504E+02 0.240E+00 -.886E+02   -.161E+01 -.529E-02 0.279E+01   0.966E-02 0.236E-03 0.131E-01
   0.485E+02 0.326E+02 -.859E+02   -.499E+02 -.327E+02 0.888E+02   0.142E+01 0.880E-01 -.285E+01   -.383E-02 0.148E-01 -.275E-02
   0.360E+02 0.125E+03 0.260E+02   -.368E+02 -.128E+03 -.269E+02   0.865E+00 0.301E+01 0.947E+00   -.538E-02 0.489E-02 -.427E-02
   -.461E+02 0.901E+02 -.379E+02   0.474E+02 -.926E+02 0.391E+02   -.127E+01 0.248E+01 -.124E+01   0.119E-02 0.722E-02 -.708E-02
   -.461E+02 -.906E+02 -.381E+02   0.474E+02 0.931E+02 0.393E+02   -.126E+01 -.247E+01 -.123E+01   0.173E-02 -.530E-02 0.100E-02
   0.494E+02 -.502E+02 0.431E+02   -.506E+02 0.524E+02 -.444E+02   0.124E+01 -.226E+01 0.133E+01   0.393E-02 -.418E-02 0.108E-01
   -.929E+02 0.401E+02 -.101E+01   0.958E+02 -.405E+02 0.994E+00   -.282E+01 0.382E+00 0.998E-02   0.142E-02 0.336E-02 0.126E-02
   0.876E+02 -.376E+00 -.615E+01   -.904E+02 0.382E+00 0.621E+01   0.284E+01 0.444E-02 -.458E-01   0.775E-02 -.671E-02 -.694E-02
 -----------------------------------------------------------------------------------------------
   0.304E+01 -.318E-01 -.173E+01   0.000E+00 -.128E-12 0.125E-12   -.306E+01 -.593E-02 0.165E+01   -.254E-01 0.165E-01 0.134E-01


 POSITION                                       TOTAL-FORCE (eV/Angst)
 -----------------------------------------------------------------------------------
      4.30612      4.73288      5.35352        -0.002372     -0.004806     -0.003450
      2.34543      0.22495      2.55619        -0.002622     -0.002959      0.001323
      2.36478      4.19462      2.62316         0.002291     -0.000991     -0.000254
      4.30211      8.51962      5.35580         0.000929      0.002962     -0.003291
      6.53325      2.26135      4.03608        -0.003311      0.000829      0.001730
      0.27855      6.62819      3.93391         0.000909     -0.000597      0.008166
      4.66760      2.34178      1.09215         0.003005      0.002913      0.008751
     -0.05206     -0.00594     -0.01289        -0.002603      0.001467     -0.003011
      0.48081      4.74415     -0.11264         0.000709     -0.002524      0.001593
      4.44181     13.47451      5.11400        -0.002499     -0.002264      0.001118
      2.35974      9.06217      2.62377         0.002749      0.000839     -0.001727
      2.34508     13.02588      2.55961        -0.002672      0.002025      0.000245
      4.44562     17.45134      5.11431        -0.003839      0.007588      0.003215
      6.53091     10.99704      4.03487         0.000461     -0.001006      0.002738
      0.20168     15.46071      3.69068        -0.002399     -0.000381     -0.003307
      4.66767     10.91115      1.09196         0.005020     -0.000587      0.006807
      2.25364     15.46360      6.60031        -0.005029      0.001350     -0.005156
      0.48132      8.50981     -0.11623         0.000235      0.000113      0.002094
     -0.04852     13.25958     -0.01519        -0.003507      0.000575     -0.004143
      4.46539      6.62914      1.34709         0.002375     -0.002870     -0.005616
      2.33761      2.13439      6.36848         0.004634      0.001289      0.002974
      4.39164     15.46057      1.32434        -0.000215      0.001262     -0.003756
      2.34189     11.11506      6.37026        -0.003884      0.004672     -0.004257
      5.39465      6.62580      6.94436         0.005570      0.000233      0.004584
      1.59825      2.21789      0.87045        -0.002500      0.010519     -0.002556
      1.52147      0.05892      5.20609        -0.003452     -0.001694     -0.004935
      5.19857      4.57881      2.65678         0.001296     -0.001437      0.001526
      5.19078      8.67774      2.66206         0.005403     -0.001869      0.001579
      1.53458      4.20224      5.19869         0.003929      0.003638      0.002605
      4.85838      2.18032      6.30446        -0.003609     -0.003766     -0.003148
      1.94400      6.62768      1.48727         0.011363      0.000947     -0.002342
      5.16432     15.46297      6.83080        -0.005063     -0.002368     -0.005564
      1.59581     11.03751      0.86941         0.001460     -0.015001      0.004755
      1.53194      9.05502      5.19779         0.005327     -0.002828      0.002587
      5.21525     13.35882      2.46333        -0.004040      0.002195      0.001276
      5.21415     17.56414      2.46303        -0.002675      0.002870     -0.004364
      1.52406     13.19600      5.20794         0.000748     -0.002947     -0.000945
      4.85950     11.07452      6.30195         0.001585     -0.001847     -0.002025
      1.86402     15.45920      1.38913        -0.003709      0.004455      0.004182
 -----------------------------------------------------------------------------------
    total drift:                               -0.044320     -0.021223     -0.059684


--------------------------------------------------------------------------------------------------------



  FREE ENERGIE OF THE ION-ELECTRON SYSTEM (eV)
  ---------------------------------------------------
  free  energy   TOTEN  =      -139.67117532 eV

  energy  without entropy=     -139.71481603  energy(sigma->0) =     -139.68572222

 d Force = 0.2739940E-03[ 0.172E-03, 0.376E-03]  d Energy = 0.3159544E-03-0.420E-04
 d Force = 0.4967876E+00[ 0.494E+00, 0.500E+00]  d Ewald  = 0.4967866E+00 0.979E-06


--------------------------------------------------------------------------------------------------------


    POTLOK:  cpu time      0.0415: real time      0.0415


--------------------------------------------------------------------------------------------------------


 Conjugate gradient step on ions:
 trial-energy change:   -0.000316  1 .order   -0.000274   -0.000376   -0.000172
  (g-gl).g = 0.165E-03      g.g   = 0.214E-03  gl.gl    = 0.522E-03
 g(Force)  = 0.214E-03   g(Stress)= 0.000E+00 ortho     =-0.387E-04
 gamma     =   0.31586
 trial     =   1.86509
 opt step  =   2.46346  (harmonic =   3.43969) maximal distance =0.00221538
 next E    =  -139.671204   (d E  =  -0.00034)


--------------------------------------------------------------------------------------------------------


  
 reached required accuracy - stopping structural energy minimisation
 writing wavefunctions
     LOOP+:  cpu time      3.0253: real time      3.0365
    4ORBIT:  cpu time      0.0000: real time      0.0000

 total amount of memory used by VASP MPI-rank0    51295. kBytes
=======================================================================

   base      :      30000. kBytes
   nonlr-proj:       4685. kBytes
   fftplans  :       2971. kBytes
   grid      :       9930. kBytes
   one-center:        606. kBytes
   wavefun   :       3103. kBytes

  
  
 General timing and accounting informations for this job:
 ========================================================
  
                  Total CPU time used (sec):      214.108
                            User time (sec):      205.991
                          System time (sec):        8.118
                         Elapsed time (sec):      215.918
  
                   Maximum memory used (kb):      165268.
                   Average memory used (kb):          N/A
  
                          Minor page faults:      1302992
                          Major page faults:          104
                 Voluntary context switches:         1310
