 vasp.6.3.2 27Jun22 (build Mar 25 2024 10:42:18) complex                         
 executed on             LinuxGNU date 2024.03.31  15:17:36
 running on   32 total cores
 distrk:  each k-point on   32 cores,    1 groups
 distr:  one band on NCORE=   1 cores,   32 groups


--------------------------------------------------------------------------------------------------------


 INCAR:
   ISTART = 0
   ICHARG = 2
   PREC = Accurate
   IBRION = -1
   EDIFF = 0.000000001
   EDIFFG = -0.0005
   NSW = 0
   NELM = 100
   ENCUT = 520
   ISMEAR = -5
   SIGMA = 0.05
   ISPIN = 2
   ISYM = 0
   LWAVE = False
   LCHARG = False
   LASPH = True
   LORBIT = 11
   ADDGRID = TRUE

 POTCAR:    PAW_PBE S 06Sep2000                   
 -----------------------------------------------------------------------------
|                                                                             |
|           W    W    AA    RRRRR   N    N  II  N    N   GGGG   !!!           |
|           W    W   A  A   R    R  NN   N  II  NN   N  G    G  !!!           |
|           W    W  A    A  R    R  N N  N  II  N N  N  G       !!!           |
|           W WW W  AAAAAA  RRRRR   N  N N  II  N  N N  G  GGG   !            |
|           WW  WW  A    A  R   R   N   NN  II  N   NN  G    G                |
|           W    W  A    A  R    R  N    N  II  N    N   GGGG   !!!           |
|                                                                             |
|     You use a magnetic or noncollinear calculation, but did not specify     |
|     the initial magnetic moment with the MAGMOM tag. Note that a            |
|     default of 1 will be used for all atoms. This ferromagnetic setup       |
|     may break the symmetry of the crystal, in particular it may rule        |
|     out finding an antiferromagnetic solution. Thence, we recommend         |
|     setting the initial magnetic moment manually or verifying carefully     |
|     that this magnetic setup is desired.                                    |
|                                                                             |
 -----------------------------------------------------------------------------

 -----------------------------------------------------------------------------
|                                                                             |
|           W    W    AA    RRRRR   N    N  II  N    N   GGGG   !!!           |
|           W    W   A  A   R    R  NN   N  II  NN   N  G    G  !!!           |
|           W    W  A    A  R    R  N N  N  II  N N  N  G       !!!           |
|           W WW W  AAAAAA  RRRRR   N  N N  II  N  N N  G  GGG   !            |
|           WW  WW  A    A  R   R   N   NN  II  N   NN  G    G                |
|           W    W  A    A  R    R  N    N  II  N    N   GGGG   !!!           |
|                                                                             |
|     For optimal performance we recommend to set                             |
|       NCORE = 2 up to number-of-cores-per-socket                            |
|     NCORE specifies how many cores store one orbital (NPAR=cpu/NCORE).      |
|     This setting can greatly improve the performance of VASP for DFT.       |
|     The default, NCORE=1 might be grossly inefficient on modern             |
|     multi-core architectures or massively parallel machines. Do your        |
|     own testing! More info at https://www.vasp.at/wiki/index.php/NCORE      |
|     Unfortunately you need to use the default for GW and RPA                |
|     calculations (for HF NCORE is supported but not extensively tested      |
|     yet).                                                                   |
|                                                                             |
 -----------------------------------------------------------------------------

 POTCAR:    PAW_PBE S 06Sep2000                   
   SHA256 =  0fc7481fb0695f01bdc6462160264c5c84044ae9ec85a907d398b887a2bc3132 S/POTCAR              
   COPYR  = (c) Copyright 06Sep2000 Georg Kresse                                                    
   COPYR  = This file is part of the software VASP. Any use, copying, and all other rights are regul
   COPYR  = If you do not have a valid VASP license, you may not use, copy or distribute this file. 
   VRHFIN =S : s2p4                                                                                 
   LEXCH  = PE                                                                                      
   EATOM  =   276.8230 eV,   20.3459 Ry                                                             
                                                                                                    
   TITEL  = PAW_PBE S 06Sep2000                                                                     
   LULTRA =        F    use ultrasoft PP ?                                                          
   IUNSCR =        1    unscreen: 0-lin 1-nonlin 2-no                                               
   RPACOR =    1.500    partial core radius                                                         
   POMASS =   32.066; ZVAL   =    6.000    mass and valenz                                          
   RCORE  =    1.900    outmost cutoff radius                                                       
   RWIGS  =    2.200; RWIGS  =    1.164    wigner-seitz radius (au A)                               
   ENMAX  =  258.689; ENMIN  =  194.016 eV                                                          
   ICORE  =        2    local potential                                                             
   LCOR   =        T    correct aug charges                                                         
   LPAW   =        T    paw PP                                                                      
   EAUG   =  335.092                                                                                
   DEXC   =    0.000                                                                                
   RMAX   =    1.942    core radius for proj-oper                                                   
   RAUG   =    1.300    factor for augmentation sphere                                              
   RDEP   =    1.954    radius for radial grids                                                     
   RDEPT  =    1.744    core radius for aug-charge                                                  
                                                                                                    
   Atomic configuration                                                                             
    6 entries                                                                                       
     n  l   j            E        occ.                                                              
     1  0  0.50     -2405.8406   2.0000                                                             
     2  0  0.50      -211.7007   2.0000                                                             
     2  1  1.50      -156.4958   6.0000                                                             
     3  0  0.50       -17.2562   2.0000                                                             
     3  1  0.50        -7.0085   4.0000                                                             
     3  2  1.50        -6.8029   0.0000                                                             
   Description                                                                                      
     l       E           TYP  RCUT    TYP  RCUT                                                     
     0    -17.2561641     23  1.900                                                                 
     0    -15.8743224     23  1.900                                                                 
     1     -7.0085400     23  1.900                                                                 
     1     -2.7779785     23  1.900                                                                 
     2     -6.8029130     23  1.900                                                                 
  local pseudopotential read in
  partial core-charges read in
  partial kinetic energy density read in
  atomic valenz-charges read in
  non local Contribution for L=           0  read in
    real space projection operators read in
  non local Contribution for L=           0  read in
    real space projection operators read in
  non local Contribution for L=           1  read in
    real space projection operators read in
  non local Contribution for L=           1  read in
    real space projection operators read in
    PAW grid and wavefunctions read in

   number of l-projection  operators is LMAX  =           4
   number of lm-projection operators is LMMAX =           8

 -----------------------------------------------------------------------------
|                                                                             |
|               ----> ADVICE to this user running VASP <----                  |
|                                                                             |
|     You have a (more or less) 'large supercell' and for larger cells it     |
|     might be more efficient to use real-space projection operators.         |
|     Therefore, try LREAL= Auto in the INCAR file.                           |
|     Mind: For very accurate calculation, you might also keep the            |
|     reciprocal projection scheme (i.e. LREAL=.FALSE.).                      |
|                                                                             |
 -----------------------------------------------------------------------------

  PAW_PBE S 06Sep2000                   :
 energy of atom  1       EATOM= -276.8230
 kinetic energy error for atom=    0.0016 (will be added to EATOM!!)


 POSCAR: generated by phonopy
  positions in direct lattice
  No initial velocities read in
 exchange correlation table for  LEXCH =        8
   RHO(1)=    0.500       N(1)  =     2000
   RHO(2)=  100.500       N(2)  =     4000



--------------------------------------------------------------------------------------------------------


 ion  position               nearest neighbor table
   1  0.886  0.467  0.678-  45 1.98  24 2.13
   2  0.886  0.967  0.678-  46 1.98  23 2.13
   3  0.330  0.189  0.551-  41 2.05  19 2.13
   4  0.330  0.689  0.551-  42 2.05  20 2.13
   5  0.913  0.105  0.912-  51 1.98  11 2.13
   6  0.913  0.605  0.912-  52 1.98  12 2.13
   7  0.240  0.301  0.777-  19 1.99  37 2.22
   8  0.240  0.801  0.777-  20 1.98  38 2.23
   9  0.144  0.306  0.224-  31 2.05  39 2.13
  10  0.144  0.806  0.224-  32 2.05  40 2.13
  11  0.856  0.194  0.776-  47 2.05   5 2.13
  12  0.856  0.694  0.776-  48 2.05   6 2.13
  13  0.760  0.199  0.223-  27 1.98  33 2.23
  14  0.760  0.699  0.223-  28 1.98  34 2.23
  15  0.170  0.439  0.449-  31 2.05  30 2.13
  16  0.170  0.939  0.449-  32 2.05  29 2.13
  17  0.413  0.145  0.912-  37 1.98  43 2.13
  18  0.413  0.645  0.912-  38 1.98  44 2.13
  19  0.386  0.283  0.678-   7 1.99   3 2.13
  20  0.386  0.783  0.678-   8 1.98   4 2.13
  21  0.644  0.444  0.224-  53 2.05  35 2.13
  22  0.644  0.944  0.224-  54 2.05  36 2.13
  23  0.830  0.061  0.551-  47 2.05   2 2.13
  24  0.830  0.561  0.551-  48 2.05   1 2.13
  25  0.260  0.051  0.223-  29 1.98  50 2.23
  26  0.260  0.551  0.223-  30 1.98  49 2.23
  27  0.614  0.217  0.322-  13 1.98  55 2.13
  28  0.614  0.717  0.322-  14 1.98  56 2.13
  29  0.114  0.033  0.322-  25 1.98  16 2.13
  30  0.114  0.533  0.322-  26 1.98  15 2.13
  31  0.060  0.345  0.374-   9 2.05  15 2.05
  32  0.060  0.845  0.374-  10 2.05  16 2.05
  33  0.743  0.289  0.071-  35 1.98  13 2.23
  34  0.743  0.789  0.071-  36 1.98  14 2.23
  35  0.587  0.355  0.088-  33 1.98  21 2.13
  36  0.587  0.855  0.088-  34 1.98  22 2.13
  37  0.257  0.211  0.929-  17 1.98   7 2.22
  38  0.257  0.711  0.929-  18 1.98   8 2.23
  39  0.087  0.395  0.088-  49 1.98   9 2.13
  40  0.087  0.895  0.088-  50 1.98  10 2.13
  41  0.440  0.095  0.626-  43 2.05   3 2.05
  42  0.440  0.595  0.626-  44 2.05   4 2.05
  43  0.356  0.056  0.776-  41 2.05  17 2.13
  44  0.356  0.556  0.776-  42 2.05  18 2.13
  45  0.740  0.449  0.777-   1 1.98  52 2.23
  46  0.740  0.949  0.777-   2 1.98  51 2.23
  47  0.940  0.155  0.626-  11 2.05  23 2.05
  48  0.940  0.655  0.626-  12 2.05  24 2.05
  49  0.243  0.461  0.071-  39 1.98  26 2.23
  50  0.243  0.961  0.071-  40 1.98  25 2.23
  51  0.757  0.039  0.929-   5 1.98  46 2.23
  52  0.757  0.539  0.929-   6 1.98  45 2.23
  53  0.560  0.405  0.374-  21 2.05  55 2.05
  54  0.560  0.905  0.374-  22 2.05  56 2.05
  55  0.670  0.311  0.449-  53 2.05  27 2.13
  56  0.670  0.811  0.449-  54 2.05  28 2.13


IMPORTANT INFORMATION: All symmetrisations will be switched off!
NOSYMM: (Re-)initialisation of all symmetry stuff for point group C_1.


----------------------------------------------------------------------------------------

                                     Primitive cell                                     

  volume of cell :    1863.6770

  direct lattice vectors                    reciprocal lattice vectors
     0.000000000 10.307367086 -0.372855731     0.000000000  0.096453423 -0.015606996
    16.788494411  0.000000000  0.000000000     0.059564603  0.000000000  0.000000000
     0.000000000 -1.732519801-10.707215182     0.000000000 -0.003358783 -0.092851486

  length of vectors
    10.314108670 16.788494411 10.846477853     0.097707938  0.059564603  0.092912216

  position of ions in fractional coordinates (direct lattice)
     0.886423141  0.467004751  0.678126386
     0.886423141  0.967004751  0.678126386
     0.329563264  0.188743823  0.550707721
     0.329563264  0.688743823  0.550707721
     0.912671285  0.105241885  0.911960471
     0.912671285  0.605241885  0.911960471
     0.239736405  0.300831047  0.777496147
     0.239736405  0.800831047  0.776574189
     0.144417516  0.305688762  0.224396680
     0.144417516  0.805688762  0.224396680
     0.855582484  0.194311238  0.775603320
     0.855582484  0.694311238  0.775603320
     0.760263595  0.199168953  0.223425811
     0.760263595  0.699168953  0.223425811
     0.170436736  0.438743823  0.449292279
     0.170436736  0.938743823  0.449292279
     0.412671285  0.144758115  0.911960471
     0.412671285  0.644758115  0.911960471
     0.386423141  0.282995249  0.678126386
     0.386423141  0.782995249  0.678126386
     0.644417516  0.444311238  0.224396680
     0.644417516  0.944311238  0.224396680
     0.829563264  0.061256177  0.550707721
     0.829563264  0.561256177  0.550707721
     0.260263595  0.050831047  0.223425811
     0.260263595  0.550831047  0.223425811
     0.613576859  0.217004751  0.321873614
     0.613576859  0.717004751  0.321873614
     0.113576859  0.032995249  0.321873614
     0.113576859  0.532995249  0.321873614
     0.059895700  0.345087734  0.374484367
     0.059895700  0.845087734  0.374484367
     0.743425210  0.289344343  0.071165234
     0.743425210  0.789344343  0.071165234
     0.587328715  0.355241885  0.088039529
     0.587328715  0.855241885  0.088039529
     0.256574790  0.210655657  0.928834766
     0.256574790  0.710655657  0.928834766
     0.087328715  0.394758115  0.088039529
     0.087328715  0.894758115  0.088039529
     0.440104300  0.095087734  0.625515633
     0.440104300  0.595087734  0.625515633
     0.355582484  0.055688762  0.775603320
     0.355582484  0.555688762  0.775603320
     0.739736405  0.449168953  0.776574189
     0.739736405  0.949168953  0.776574189
     0.940104300  0.154912266  0.625515633
     0.940104300  0.654912266  0.625515633
     0.243425210  0.460655657  0.071165234
     0.243425210  0.960655657  0.071165234
     0.756574790  0.039344343  0.928834766
     0.756574790  0.539344343  0.928834766
     0.559895700  0.404912266  0.374484367
     0.559895700  0.904912266  0.374484367
     0.670436736  0.311256177  0.449292279
     0.670436736  0.811256177  0.449292279

  ion indices of the primitive-cell ions
   primitive index   ion index
                 1           1
                 2           2
                 3           3
                 4           4
                 5           5
                 6           6
                 7           7
                 8           8
                 9           9
                10          10
                11          11
                12          12
                13          13
                14          14
                15          15
                16          16
                17          17
                18          18
                19          19
                20          20
                21          21
                22          22
                23          23
                24          24
                25          25
                26          26
                27          27
                28          28
                29          29
                30          30
                31          31
                32          32
                33          33
                34          34
                35          35
                36          36
                37          37
                38          38
                39          39
                40          40
                41          41
                42          42
                43          43
                44          44
                45          45
                46          46
                47          47
                48          48
                49          49
                50          50
                51          51
                52          52
                53          53
                54          54
                55          55
                56          56

----------------------------------------------------------------------------------------



 KPOINTS: pymatgen with grid density = 595 / numbe

Automatic generation of k-mesh.
 Grid dimensions read from file:
 generate k-points for:    2    2    2

 Generating k-lattice:

  Cartesian coordinates                     Fractional coordinates (reciprocal lattice)
     0.000000000  0.048226712 -0.007803498     0.500000000  0.000000000 -0.000000000
     0.029782301  0.000000000  0.000000000     0.000000000  0.500000000  0.000000000
     0.000000000 -0.001679391 -0.046425743    -0.000000000  0.000000000  0.500000000

  Length of vectors
     0.048853969  0.029782301  0.046456108

  Shift w.r.t. Gamma in fractional coordinates (k-lattice)
     0.000000000  0.000000000  0.000000000

 TETIRR: Found     24 inequivalent tetrahedra from       48
 
 Subroutine IBZKPT returns following result:
 ===========================================
 
 Found      8 irreducible k-points:
 
 Following reciprocal coordinates:
            Coordinates               Weight
  0.000000  0.000000  0.000000      1.000000
  0.500000  0.000000  0.000000      1.000000
  0.000000  0.500000  0.000000      1.000000
  0.500000  0.500000  0.000000      1.000000
  0.000000  0.000000  0.500000      1.000000
  0.500000  0.000000  0.500000      1.000000
  0.000000  0.500000  0.500000      1.000000
  0.500000  0.500000  0.500000      1.000000
 
 Following cartesian coordinates:
            Coordinates               Weight
  0.000000  0.000000 -0.000000      1.000000
  0.000000  0.048227 -0.007803      1.000000
  0.029782  0.000000 -0.000000      1.000000
  0.029782  0.048227 -0.007803      1.000000
  0.000000 -0.001679 -0.046426      1.000000
  0.000000  0.046547 -0.054229      1.000000
  0.029782 -0.001679 -0.046426      1.000000
  0.029782  0.046547 -0.054229      1.000000
 


--------------------------------------------------------------------------------------------------------




 Dimension of arrays:
   k-points           NKPTS =      8   k-points in BZ     NKDIM =      8   number of bands    NBANDS=    256
   number of dos      NEDOS =    301   number of ions     NIONS =     56
   non local maximal  LDIM  =      4   non local SUM 2l+1 LMDIM =      8
   total plane-waves  NPLWV = 846720
   max r-space proj   IRMAX =      1   max aug-charges    IRDMAX= 114695
   dimension x,y,z NGX =    80 NGY =  126 NGZ =   84
   dimension x,y,z NGXF=   160 NGYF=  252 NGZF=  168
   support grid    NGXF=   320 NGYF=  504 NGZF=  336
   ions per type =              56
   NGX,Y,Z   is equivalent  to a cutoff of  12.89, 12.48, 12.87 a.u.
   NGXF,Y,Z  is equivalent  to a cutoff of  25.79, 24.95, 25.75 a.u.

 SYSTEM =  unknown system                          
 POSCAR =  generated by phonopy                    

 Startparameter for this run:
   NWRITE =      2    write-flag & timer
   PREC   = accura    normal or accurate (medium, high low for compatibility)
   ISTART =      0    job   : 0-new  1-cont  2-samecut
   ICHARG =      2    charge: 1-file 2-atom 10-const
   ISPIN  =      2    spin polarized calculation?
   LNONCOLLINEAR =      F non collinear calculations
   LSORBIT =      F    spin-orbit coupling
   INIWAV =      1    electr: 0-lowe 1-rand  2-diag
   LASPH  =      T    aspherical Exc in radial PAW
 Electronic Relaxation 1
   ENCUT  =  520.0 eV  38.22 Ry    6.18 a.u.  19.18 31.22 20.17*2*pi/ulx,y,z
   ENINI  =  520.0     initial cutoff
   ENAUG  =  335.1 eV  augmentation charge cutoff
   NELM   =    100;   NELMIN=  2; NELMDL= -5     # of ELM steps 
   EDIFF  = 0.1E-08   stopping-criterion for ELM
   LREAL  =      F    real-space projection
   NLSPLINE    = F    spline interpolate recip. space projectors
   LCOMPAT=      F    compatible to vasp.4.4
   GGA_COMPAT  = T    GGA compatible to vasp.4.4-vasp.4.6
   LMAXPAW     = -100 max onsite density
   LMAXMIX     =    2 max onsite mixed and CHGCAR
   VOSKOWN=      0    Vosko Wilk Nusair interpolation
   ROPT   =    0.00000
 Ionic relaxation
   EDIFFG = -.5E-03   stopping-criterion for IOM
   NSW    =      0    number of steps for IOM
   NBLOCK =      1;   KBLOCK =      1    inner block; outer block 
   IBRION =     -1    ionic relax: 0-MD 1-quasi-New 2-CG
   NFREE  =      0    steps in history (QN), initial steepest desc. (CG)
   ISIF   =      2    stress and relaxation
   IWAVPR =     10    prediction:  0-non 1-charg 2-wave 3-comb
   ISYM   =      0    0-nonsym 1-usesym 2-fastsym
   LCORR  =      T    Harris-Foulkes like correction to forces

   POTIM  = 0.5000    time-step for ionic-motion
   TEIN   =    0.0    initial temperature
   TEBEG  =    0.0;   TEEND  =   0.0 temperature during run
   SMASS  =  -3.00    Nose mass-parameter (am)
   estimated Nose-frequenzy (Omega)   =  0.10E-29 period in steps = 0.13E+47 mass=  -0.243E-26a.u.
   SCALEE = 1.0000    scale energy and forces
   NPACO  =    256;   APACO  = 10.0  distance and # of slots for P.C.
   PSTRESS=    0.0 pullay stress

  Mass of Ions in am
   POMASS =  32.07
  Ionic Valenz
   ZVAL   =   6.00
  Atomic Wigner-Seitz radii
   RWIGS  =  -1.00
  virtual crystal weights 
   VCA    =   1.00
   NELECT =     336.0000    total number of electrons
   NUPDOWN=      -1.0000    fix difference up-down

 DOS related values:
   EMIN   =  10.00;   EMAX   =-10.00  energy-range for DOS
   EFERMI =   0.00
   ISMEAR =    -5;   SIGMA  =   0.05  broadening in eV -4-tet -1-fermi 0-gaus

 Electronic relaxation 2 (details)
   IALGO  =     38    algorithm
   LDIAG  =      T    sub-space diagonalisation (order eigenvalues)
   LSUBROT=      F    optimize rotation matrix (better conditioning)
   TURBO    =      0    0=normal 1=particle mesh
   IRESTART =      0    0=no restart 2=restart with 2 vectors
   NREBOOT  =      0    no. of reboots
   NMIN     =      0    reboot dimension
   EREF     =   0.00    reference energy to select bands
   IMIX   =      4    mixing-type and parameters
     AMIX     =   0.40;   BMIX     =  1.00
     AMIX_MAG =   1.60;   BMIX_MAG =  1.00
     AMIN     =   0.10
     WC   =   100.;   INIMIX=   1;  MIXPRE=   1;  MAXMIX= -45

 Intra band minimization:
   WEIMIN = 0.0000     energy-eigenvalue tresh-hold
   EBREAK =  0.98E-12  absolut break condition
   DEPER  =   0.30     relativ break condition  

   TIME   =   0.40     timestep for ELM

  volume/ion in A,a.u.               =      33.28       224.58
  Fermi-wavevector in a.u.,A,eV,Ry     =   0.924835  1.747685 11.637339  0.855320
  Thomas-Fermi vector in A             =   2.050624

 Write flags
   LWAVE        =      F    write WAVECAR
   LDOWNSAMPLE  =      F    k-point downsampling of WAVECAR
   LCHARG       =      F    write CHGCAR
   LVTOT        =      F    write LOCPOT, total local potential
   LVHAR        =      F    write LOCPOT, Hartree potential only
   LELF         =      F    write electronic localiz. function (ELF)
   LORBIT       =     11    0 simple, 1 ext, 2 COOP (PROOUT), +10 PAW based schemes


 Dipole corrections
   LMONO  =      F    monopole corrections only (constant potential shift)
   LDIPOL =      F    correct potential (dipole corrections)
   IDIPOL =      0    1-x, 2-y, 3-z, 4-all directions 
   EPSILON=  1.0000000 bulk dielectric constant

 Exchange correlation treatment:
   GGA     =    --    GGA type
   LEXCH   =     8    internal setting for exchange type
   LIBXC   =     F    Libxc                    
   VOSKOWN =     0    Vosko Wilk Nusair interpolation
   LHFCALC =     F    Hartree Fock is set to
   LHFONE  =     F    Hartree Fock one center treatment
   AEXX    =    0.0000 exact exchange contribution

 Linear response parameters
   LEPSILON=     F    determine dielectric tensor
   LRPA    =     F    only Hartree local field effects (RPA)
   LNABLA  =     F    use nabla operator in PAW spheres
   LVEL    =     F    velocity operator in full k-point grid
   CSHIFT  =0.1000    complex shift for real part using Kramers Kronig
   OMEGAMAX=  -1.0    maximum frequency
   DEG_THRESHOLD= 0.2000000E-02 threshold for treating states as degnerate
   RTIME   =   -0.100 relaxation time in fs
  (WPLASMAI=    0.000 imaginary part of plasma frequency in eV, 0.658/RTIME)
   DFIELD  = 0.0000000 0.0000000 0.0000000 field for delta impulse in time

  Optional k-point grid parameters
   LKPOINTS_OPT  =     F    use optional k-point grid
   KPOINTS_OPT_MODE=     1    mode for optional k-point grid

 Orbital magnetization related:
   ORBITALMAG=     F  switch on orbital magnetization
   LCHIMAG   =     F  perturbation theory with respect to B field
   DQ        =  0.001000  dq finite difference perturbation B field
   LLRAUG    =     F  two centre corrections for induced B field



--------------------------------------------------------------------------------------------------------


 Static calculation
 charge density and potential will be updated during run
 spin polarized calculation
 Variant of blocked Davidson
 Davidson routine will perform the subspace rotation
 perform sub-space diagonalisation
    after iterative eigenvector-optimisation
 modified Broyden-mixing scheme, WC =      100.0
 initial mixing is a Kerker type mixing with AMIX =  0.4000 and BMIX =      1.0000
 Hartree-type preconditioning will be used
 using additional bands           88
 reciprocal scheme for non local part
 use partial core corrections
 calculate Harris-corrections to forces   (improved forces if not selfconsistent)
 use gradient corrections 
 use of overlap-Matrix (Vanderbilt PP)
 Fermi weights with tetrahedron method with Bloechl corrections


--------------------------------------------------------------------------------------------------------


  energy-cutoff  :      520.00
  volume of cell :     1863.68
      direct lattice vectors                 reciprocal lattice vectors
     0.000000000 10.307367086 -0.372855731     0.000000000  0.096453423 -0.015606996
    16.788494411  0.000000000  0.000000000     0.059564603  0.000000000  0.000000000
     0.000000000 -1.732519801-10.707215182     0.000000000 -0.003358783 -0.092851486

  length of vectors
    10.314108670 16.788494411 10.846477853     0.097707938  0.059564603  0.092912216



 k-points in units of 2pi/SCALE and weight: pymatgen with grid density = 595 / numbe
   0.00000000  0.00000000 -0.00000000       0.125
   0.00000000  0.04822671 -0.00780350       0.125
   0.02978230  0.00000000 -0.00000000       0.125
   0.02978230  0.04822671 -0.00780350       0.125
   0.00000000 -0.00167939 -0.04642574       0.125
   0.00000000  0.04654732 -0.05422924       0.125
   0.02978230 -0.00167939 -0.04642574       0.125
   0.02978230  0.04654732 -0.05422924       0.125

 k-points in reciprocal lattice and weights: pymatgen with grid density = 595 / numbe
   0.00000000  0.00000000  0.00000000       0.125
   0.50000000  0.00000000  0.00000000       0.125
   0.00000000  0.50000000  0.00000000       0.125
   0.50000000  0.50000000  0.00000000       0.125
   0.00000000  0.00000000  0.50000000       0.125
   0.50000000  0.00000000  0.50000000       0.125
   0.00000000  0.50000000  0.50000000       0.125
   0.50000000  0.50000000  0.50000000       0.125

 position of ions in fractional coordinates (direct lattice) 
   0.88642314  0.46700475  0.67812639
   0.88642314  0.96700475  0.67812639
   0.32956326  0.18874382  0.55070772
   0.32956326  0.68874382  0.55070772
   0.91267129  0.10524188  0.91196047
   0.91267129  0.60524188  0.91196047
   0.23973640  0.30083105  0.77749615
   0.23973640  0.80083105  0.77657419
   0.14441752  0.30568876  0.22439668
   0.14441752  0.80568876  0.22439668
   0.85558248  0.19431124  0.77560332
   0.85558248  0.69431124  0.77560332
   0.76026360  0.19916895  0.22342581
   0.76026360  0.69916895  0.22342581
   0.17043674  0.43874382  0.44929228
   0.17043674  0.93874382  0.44929228
   0.41267129  0.14475812  0.91196047
   0.41267129  0.64475812  0.91196047
   0.38642314  0.28299525  0.67812639
   0.38642314  0.78299525  0.67812639
   0.64441752  0.44431124  0.22439668
   0.64441752  0.94431124  0.22439668
   0.82956326  0.06125618  0.55070772
   0.82956326  0.56125618  0.55070772
   0.26026360  0.05083105  0.22342581
   0.26026360  0.55083105  0.22342581
   0.61357686  0.21700475  0.32187361
   0.61357686  0.71700475  0.32187361
   0.11357686  0.03299525  0.32187361
   0.11357686  0.53299525  0.32187361
   0.05989570  0.34508773  0.37448437
   0.05989570  0.84508773  0.37448437
   0.74342521  0.28934434  0.07116523
   0.74342521  0.78934434  0.07116523
   0.58732871  0.35524188  0.08803953
   0.58732871  0.85524188  0.08803953
   0.25657479  0.21065566  0.92883477
   0.25657479  0.71065566  0.92883477
   0.08732871  0.39475812  0.08803953
   0.08732871  0.89475812  0.08803953
   0.44010430  0.09508773  0.62551563
   0.44010430  0.59508773  0.62551563
   0.35558248  0.05568876  0.77560332
   0.35558248  0.55568876  0.77560332
   0.73973640  0.44916895  0.77657419
   0.73973640  0.94916895  0.77657419
   0.94010430  0.15491227  0.62551563
   0.94010430  0.65491227  0.62551563
   0.24342521  0.46065566  0.07116523
   0.24342521  0.96065566  0.07116523
   0.75657479  0.03934434  0.92883477
   0.75657479  0.53934434  0.92883477
   0.55989570  0.40491227  0.37448437
   0.55989570  0.90491227  0.37448437
   0.67043674  0.31125618  0.44929228
   0.67043674  0.81125618  0.44929228

 position of ions in cartesian coordinates  (Angst):
   7.84030666  7.96182132 -7.59135308
  16.23455387  7.96182132 -7.59135308
   3.16872461  2.44281751 -6.01942562
  11.56297182  2.44281751 -6.01942562
   1.76685280  7.82724839-10.10485172
  10.16110000  7.82724839-10.10485172
   5.05050035  1.12402366 -8.41420564
  13.44474755  1.12562097 -8.40433404
   5.13205407  1.09979266 -2.45651044
  13.52630128  1.09979266 -2.45651044
   3.26219313  7.47505463 -8.62356047
  11.65644034  7.47505463 -8.62356047
   3.34374686  7.44922632 -2.67573688
  11.73799406  7.44922632 -2.67573688
   7.36584822  0.97834624 -4.87421742
  15.76009542  0.97834624 -4.87421742
   2.43027081  2.67356485 -9.91842386
  10.82451801  2.67356485 -9.91842386
   4.75106415  2.80813777 -7.40492521
  13.14531135  2.80813777 -7.40492521
   7.45931673  6.25347620 -2.64293831
  15.85356394  6.25347620 -2.64293831
   1.02839899  7.59650105 -6.20585349
   9.42264619  7.59650105 -6.20585349
   0.85337674  2.29554277 -2.48930901
   9.24762395  2.29554277 -2.48930901
   3.64318306  5.76670951 -3.67514570
  12.03743026  5.76670951 -3.67514570
   0.55394055  0.61302597 -3.48871783
   8.94818775  0.61302597 -3.48871783
   5.79350349 -0.03143461 -4.03201715
  14.18775070 -0.03143461 -4.03201715
   4.85765589  7.53946136 -1.03917182
  13.25190310  7.53946136 -1.03917182
   5.96397640  5.90128244 -1.16164705
  14.35822361  5.90128244 -1.16164705
   3.53659131  1.03538593-10.04089909
  11.93083852  1.03538593-10.04089909
   6.62739441  0.74759889 -0.97521919
  15.02164161  0.74759889 -0.97521919
   1.59637989  3.45259836 -6.86162589
   9.99062710  3.45259836 -6.86162589
   0.93493047  2.32137108 -8.43713261
   9.32917768  2.32137108 -8.43713261
   7.54087046  6.27930451 -8.59076190
  15.93511767  6.27930451 -8.59076190
   2.60074371  8.60628190 -7.04805376
  10.99499092  8.60628190 -7.04805376
   7.73371492  2.38577782 -0.85274396
  16.12796212  2.38577782 -0.85274396
   0.66053229  6.18906947-10.22732695
   9.05477950  6.18906947-10.22732695
   6.79786731  5.12224893 -4.21844502
  15.19211452  5.12224893 -4.21844502
   5.22552259  6.13202978 -5.06064529
  13.61976980  6.13202978 -5.06064529



--------------------------------------------------------------------------------------------------------


 k-point   1 :   0.0000 0.0000 0.0000  plane waves:   50179
 k-point   2 :   0.5000 0.0000 0.0000  plane waves:   50160
 k-point   3 :   0.0000 0.5000 0.0000  plane waves:   50162
 k-point   4 :   0.5000 0.5000 0.0000  plane waves:   50192
 k-point   5 :   0.0000 0.0000 0.5000  plane waves:   50190
 k-point   6 :   0.5000 0.0000 0.5000  plane waves:   50190
 k-point   7 :   0.0000 0.5000 0.5000  plane waves:   50172
 k-point   8 :   0.5000 0.5000 0.5000  plane waves:   50200

 maximum and minimum number of plane-waves per node :     50200    50160

 maximum number of plane-waves:     50200
 maximum index in each direction: 
   IXMAX=   19   IYMAX=   31   IZMAX=   20
   IXMIN=  -19   IYMIN=  -31   IZMIN=  -20


 serial   3D FFT for wavefunctions
 parallel 3D FFT for charge:
    minimum data exchange during FFTs selected (reduces bandwidth)


 total amount of memory used by VASP MPI-rank0   322725. kBytes
=======================================================================

   base      :      30000. kBytes
   nonl-proj :      70692. kBytes
   fftplans  :      34504. kBytes
   grid      :      83442. kBytes
   one-center:        344. kBytes
   wavefun   :     103743. kBytes

     INWAV:  cpu time      0.0000: real time      0.0001
 Broyden mixing: mesh for mixing (old mesh)
   NGX = 39   NGY = 63   NGZ = 41
  (NGX  =160   NGY  =252   NGZ  =168)
  gives a total of 100737 points

 initial charge density was supplied:
 charge density of overlapping atoms calculated
 number of electron     336.0000000 magnetization      56.0000000
 keeping initial charge density in first step


--------------------------------------------------------------------------------------------------------


 Maximum index for augmentation-charges         3947 (set IRDMAX)


--------------------------------------------------------------------------------------------------------


 First call to EWALD:  gamma=   0.144
 Maximum number of real-space cells 3x 2x 3
 Maximum number of reciprocal cells 2x 4x 2

    FEWALD:  cpu time      0.0019: real time      0.0019


--------------------------------------- Iteration      1(   1)  ---------------------------------------


    POTLOK:  cpu time      0.4947: real time      0.4949
    SETDIJ:  cpu time     12.6572: real time     12.6581
     EDDAV:  cpu time     50.0973: real time     50.1042
 BZINTS: Fermi energy:   10.166592;  336.000000 electrons
         Band energy: 0.225161E+03;  BLOECHL correction:   -0.008947
       DOS:  cpu time      0.0501: real time      0.0501
    --------------------------------------------
      LOOP:  cpu time     63.2992: real time     63.3073

 eigenvalue-minimisations  :  8192
 total energy-change (2. order) : 0.2106122E+04  (-0.1333791E+05)
 number of electron     336.0000000 magnetization      56.0000000
 augmentation part      336.0000000 magnetization      56.0000000

 Free energy of the ion-electron system (eV)
  ---------------------------------------------------
  alpha Z        PSCENC =       253.99581917
  Ewald energy   TEWEN  =     -9971.13261253
  -Hartree energ DENC   =     -4765.65713100
  -exchange      EXHF   =         0.00000000
  -V(xc)+E(xc)   XCENC  =       682.50892017
  PAW double counting   =     12174.71095765   -11995.46358648
  entropy T*S    EENTRO =         0.00000000
  eigenvalues    EBANDS =       225.16059081
  atomic energy  EATOM  =     15501.99929693
  Solvation  Ediel_sol  =         0.00000000
  ---------------------------------------------------
  free energy    TOTEN  =      2106.12225472 eV

  energy without entropy =     2106.12225472  energy(sigma->0) =     2106.12225472


--------------------------------------------------------------------------------------------------------




--------------------------------------- Iteration      1(   2)  ---------------------------------------


     EDDAV:  cpu time     58.4960: real time     58.5044
 BZINTS: Fermi energy:    1.452193;  336.000000 electrons
         Band energy:-0.187470E+04;  BLOECHL correction:    0.000000
       DOS:  cpu time      0.0265: real time      0.0266
    --------------------------------------------
      LOOP:  cpu time     58.5225: real time     58.5310

 eigenvalue-minimisations  : 10272
 total energy-change (2. order) :-0.2099859E+04  (-0.2021678E+04)
 number of electron     336.0000000 magnetization      56.0000000
 augmentation part      336.0000000 magnetization      56.0000000

 Free energy of the ion-electron system (eV)
  ---------------------------------------------------
  alpha Z        PSCENC =       253.99581917
  Ewald energy   TEWEN  =     -9971.13261253
  -Hartree energ DENC   =     -4765.65713100
  -exchange      EXHF   =         0.00000000
  -V(xc)+E(xc)   XCENC  =       682.50892017
  PAW double counting   =     12174.71095765   -11995.46358648
  entropy T*S    EENTRO =         0.00000000
  eigenvalues    EBANDS =     -1874.69828695
  atomic energy  EATOM  =     15501.99929693
  Solvation  Ediel_sol  =         0.00000000
  ---------------------------------------------------
  free energy    TOTEN  =         6.26337696 eV

  energy without entropy =        6.26337696  energy(sigma->0) =        6.26337696


--------------------------------------------------------------------------------------------------------




--------------------------------------- Iteration      1(   3)  ---------------------------------------


     EDDAV:  cpu time     59.0104: real time     59.0194
 BZINTS: Fermi energy:    0.221786;  336.000000 electrons
         Band energy:-0.209454E+04;  BLOECHL correction:    0.000000
       DOS:  cpu time      0.0295: real time      0.0295
    --------------------------------------------
      LOOP:  cpu time     59.0399: real time     59.0490

 eigenvalue-minimisations  : 10240
 total energy-change (2. order) :-0.2198415E+03  (-0.2171549E+03)
 number of electron     336.0000000 magnetization      56.0000000
 augmentation part      336.0000000 magnetization      56.0000000

 Free energy of the ion-electron system (eV)
  ---------------------------------------------------
  alpha Z        PSCENC =       253.99581917
  Ewald energy   TEWEN  =     -9971.13261253
  -Hartree energ DENC   =     -4765.65713100
  -exchange      EXHF   =         0.00000000
  -V(xc)+E(xc)   XCENC  =       682.50892017
  PAW double counting   =     12174.71095765   -11995.46358648
  entropy T*S    EENTRO =         0.00000000
  eigenvalues    EBANDS =     -2094.53974504
  atomic energy  EATOM  =     15501.99929693
  Solvation  Ediel_sol  =         0.00000000
  ---------------------------------------------------
  free energy    TOTEN  =      -213.57808112 eV

  energy without entropy =     -213.57808112  energy(sigma->0) =     -213.57808112


--------------------------------------------------------------------------------------------------------




--------------------------------------- Iteration      1(   4)  ---------------------------------------


     EDDAV:  cpu time     58.6191: real time     58.6362
 BZINTS: Fermi energy:    0.193928;  336.000000 electrons
         Band energy:-0.209944E+04;  BLOECHL correction:    0.000000
       DOS:  cpu time      0.0271: real time      0.0271
    --------------------------------------------
      LOOP:  cpu time     58.6461: real time     58.6633

 eigenvalue-minimisations  : 10400
 total energy-change (2. order) :-0.4902779E+01  (-0.4884450E+01)
 number of electron     336.0000000 magnetization      56.0000000
 augmentation part      336.0000000 magnetization      56.0000000

 Free energy of the ion-electron system (eV)
  ---------------------------------------------------
  alpha Z        PSCENC =       253.99581917
  Ewald energy   TEWEN  =     -9971.13261253
  -Hartree energ DENC   =     -4765.65713100
  -exchange      EXHF   =         0.00000000
  -V(xc)+E(xc)   XCENC  =       682.50892017
  PAW double counting   =     12174.71095765   -11995.46358648
  entropy T*S    EENTRO =         0.00000000
  eigenvalues    EBANDS =     -2099.44252423
  atomic energy  EATOM  =     15501.99929693
  Solvation  Ediel_sol  =         0.00000000
  ---------------------------------------------------
  free energy    TOTEN  =      -218.48086032 eV

  energy without entropy =     -218.48086032  energy(sigma->0) =     -218.48086032


--------------------------------------------------------------------------------------------------------




--------------------------------------- Iteration      1(   5)  ---------------------------------------


     EDDAV:  cpu time     57.9622: real time     57.9704
 BZINTS: Fermi energy:    0.193918;  336.000000 electrons
         Band energy:-0.209957E+04;  BLOECHL correction:    0.000000
       DOS:  cpu time      0.0266: real time      0.0267
    CHARGE:  cpu time      2.9385: real time      2.9395
    MIXING:  cpu time      0.0205: real time      0.0205
    --------------------------------------------
      LOOP:  cpu time     60.9479: real time     60.9572

 eigenvalue-minimisations  : 10144
 total energy-change (2. order) :-0.1308183E+00  (-0.1307522E+00)
 number of electron     335.9999997 magnetization      44.9918631
 augmentation part      -47.3230159 magnetization      44.8832915

 Broyden mixing:
  rms(total) = 0.82779E+01    rms(broyden)= 0.82779E+01
  rms(prec ) = 0.82979E+01
  weight for this iteration     100.00

 Free energy of the ion-electron system (eV)
  ---------------------------------------------------
  alpha Z        PSCENC =       253.99581917
  Ewald energy   TEWEN  =     -9971.13261253
  -Hartree energ DENC   =     -4765.65713100
  -exchange      EXHF   =         0.00000000
  -V(xc)+E(xc)   XCENC  =       682.50892017
  PAW double counting   =     12174.71095765   -11995.46358648
  entropy T*S    EENTRO =         0.00000000
  eigenvalues    EBANDS =     -2099.57334249
  atomic energy  EATOM  =     15501.99929693
  Solvation  Ediel_sol  =         0.00000000
  ---------------------------------------------------
  free energy    TOTEN  =      -218.61167858 eV

  energy without entropy =     -218.61167858  energy(sigma->0) =     -218.61167858


--------------------------------------------------------------------------------------------------------




--------------------------------------- Iteration      1(   6)  ---------------------------------------


    POTLOK:  cpu time      1.8551: real time      1.8617
    SETDIJ:  cpu time      6.3380: real time      6.3385
     EDDAV:  cpu time     55.2361: real time     55.2437
 BZINTS: Fermi energy:    0.411046;  336.000000 electrons
         Band energy:-0.201412E+04;  BLOECHL correction:    0.000000
       DOS:  cpu time      0.0260: real time      0.0260
    CHARGE:  cpu time     10.1428: real time     10.1436
    MIXING:  cpu time      0.0118: real time      0.0118
    --------------------------------------------
      LOOP:  cpu time     73.6098: real time     73.6253

 eigenvalue-minimisations  :  9632
 total energy-change (2. order) : 0.1022862E+03  (-0.2667953E+02)
 number of electron     335.9999997 magnetization      26.4664042
 augmentation part      -47.6491242 magnetization      27.5246713

 Broyden mixing:
  rms(total) = 0.49356E+01    rms(broyden)= 0.49356E+01
  rms(prec ) = 0.49579E+01
  weight for this iteration     100.00

 eigenvalues of (default mixing * dielectric matrix)
  average eigenvalue GAMMA=   1.6677
  1.6677

 Free energy of the ion-electron system (eV)
  ---------------------------------------------------
  alpha Z        PSCENC =       253.99581917
  Ewald energy   TEWEN  =     -9971.13261253
  -Hartree energ DENC   =     -4809.94199583
  -exchange      EXHF   =         0.00000000
  -V(xc)+E(xc)   XCENC  =       746.09197113
  PAW double counting   =     20719.94267315   -20543.16193610
  entropy T*S    EENTRO =         0.00000000
  eigenvalues    EBANDS =     -2014.11865396
  atomic energy  EATOM  =     15501.99929693
  Solvation  Ediel_sol  =         0.00000000
  ---------------------------------------------------
  free energy    TOTEN  =      -116.32543805 eV

  energy without entropy =     -116.32543805  energy(sigma->0) =     -116.32543805


--------------------------------------------------------------------------------------------------------




--------------------------------------- Iteration      1(   7)  ---------------------------------------


    POTLOK:  cpu time      0.4329: real time      0.4356
    SETDIJ:  cpu time     12.5372: real time     12.5380
     EDDAV:  cpu time     56.1237: real time     56.1315
 BZINTS: Fermi energy:    0.740121;  336.000000 electrons
         Band energy:-0.186756E+04;  BLOECHL correction:    0.000000
       DOS:  cpu time      0.0262: real time      0.0262
    CHARGE:  cpu time      8.1645: real time      8.1651
    MIXING:  cpu time      0.0179: real time      0.0179
    --------------------------------------------
      LOOP:  cpu time     77.3023: real time     77.3143

 eigenvalue-minimisations  : 10112
 total energy-change (2. order) :-0.1115434E+02  (-0.2698595E+01)
 number of electron     335.9999997 magnetization      19.7211078
 augmentation part      -47.3157153 magnetization      20.9264250

 Broyden mixing:
  rms(total) = 0.14036E+01    rms(broyden)= 0.14036E+01
  rms(prec ) = 0.14073E+01
  weight for this iteration     100.00

 eigenvalues of (default mixing * dielectric matrix)
  average eigenvalue GAMMA=   1.4834
  0.7877  2.1790

 Free energy of the ion-electron system (eV)
  ---------------------------------------------------
  alpha Z        PSCENC =       253.99581917
  Ewald energy   TEWEN  =     -9971.13261253
  -Hartree energ DENC   =     -4969.58265826
  -exchange      EXHF   =         0.00000000
  -V(xc)+E(xc)   XCENC  =       751.43836171
  PAW double counting   =     37041.48255670   -36868.11566556
  entropy T*S    EENTRO =         0.00000000
  eigenvalues    EBANDS =     -1867.56488117
  atomic energy  EATOM  =     15501.99929693
  Solvation  Ediel_sol  =         0.00000000
  ---------------------------------------------------
  free energy    TOTEN  =      -127.47978301 eV

  energy without entropy =     -127.47978301  energy(sigma->0) =     -127.47978301


--------------------------------------------------------------------------------------------------------




--------------------------------------- Iteration      1(   8)  ---------------------------------------


    POTLOK:  cpu time      0.4334: real time      0.4337
    SETDIJ:  cpu time      6.6123: real time      6.6150
     EDDAV:  cpu time     60.4351: real time     60.4427
 BZINTS: Fermi energy:    0.707778;  336.000000 electrons
         Band energy:-0.185521E+04;  BLOECHL correction:    0.000000
       DOS:  cpu time      0.0260: real time      0.0261
    CHARGE:  cpu time     12.8848: real time     12.8857
    MIXING:  cpu time      0.0159: real time      0.0159
    --------------------------------------------
      LOOP:  cpu time     80.4075: real time     80.4192

 eigenvalue-minimisations  :  9312
 total energy-change (2. order) :-0.4268094E+02  (-0.1971457E+01)
 number of electron     335.9999997 magnetization      16.0456313
 augmentation part      -47.0119718 magnetization      17.0900408

 Broyden mixing:
  rms(total) = 0.78481E+00    rms(broyden)= 0.78481E+00
  rms(prec ) = 0.78994E+00
  weight for this iteration     100.00

 eigenvalues of (default mixing * dielectric matrix)
  average eigenvalue GAMMA=   1.3397
  2.4931  0.9438  0.5822

 Free energy of the ion-electron system (eV)
  ---------------------------------------------------
  alpha Z        PSCENC =       253.99581917
  Ewald energy   TEWEN  =     -9971.13261253
  -Hartree energ DENC   =     -4998.98091815
  -exchange      EXHF   =         0.00000000
  -V(xc)+E(xc)   XCENC  =       726.57106221
  PAW double counting   =     40169.96029250   -39997.35991479
  entropy T*S    EENTRO =         0.00000000
  eigenvalues    EBANDS =     -1855.21375324
  atomic energy  EATOM  =     15501.99929693
  Solvation  Ediel_sol  =         0.00000000
  ---------------------------------------------------
  free energy    TOTEN  =      -170.16072789 eV

  energy without entropy =     -170.16072789  energy(sigma->0) =     -170.16072789


--------------------------------------------------------------------------------------------------------




--------------------------------------- Iteration      1(   9)  ---------------------------------------


    POTLOK:  cpu time      0.4280: real time      0.4282
    SETDIJ:  cpu time      9.2277: real time      9.2284
     EDDAV:  cpu time     57.8302: real time     57.8383
 BZINTS: Fermi energy:    0.629736;  336.000000 electrons
         Band energy:-0.186647E+04;  BLOECHL correction:    0.000000
       DOS:  cpu time      0.0269: real time      0.0269
    CHARGE:  cpu time     12.0269: real time     12.0278
    MIXING:  cpu time      1.2784: real time      1.2784
    --------------------------------------------
      LOOP:  cpu time     80.8181: real time     80.8281

 eigenvalue-minimisations  : 10240
 total energy-change (2. order) :-0.1685602E+02  (-0.6479904E+00)
 number of electron     335.9999997 magnetization      11.5195343
 augmentation part      -46.9147549 magnetization      12.3568147

 Broyden mixing:
  rms(total) = 0.43636E+00    rms(broyden)= 0.43636E+00
  rms(prec ) = 0.44847E+00
  weight for this iteration     100.00

 eigenvalues of (default mixing * dielectric matrix)
  average eigenvalue GAMMA=   1.3247
  2.5768  1.3003  0.7109  0.7109

 Free energy of the ion-electron system (eV)
  ---------------------------------------------------
  alpha Z        PSCENC =       253.99581917
  Ewald energy   TEWEN  =     -9971.13261253
  -Hartree energ DENC   =     -4995.22198501
  -exchange      EXHF   =         0.00000000
  -V(xc)+E(xc)   XCENC  =       717.19057225
  PAW double counting   =     40957.25716452   -40784.63648307
  entropy T*S    EENTRO =         0.00000000
  eigenvalues    EBANDS =     -1866.46852151
  atomic energy  EATOM  =     15501.99929693
  Solvation  Ediel_sol  =         0.00000000
  ---------------------------------------------------
  free energy    TOTEN  =      -187.01674923 eV

  energy without entropy =     -187.01674923  energy(sigma->0) =     -187.01674923


--------------------------------------------------------------------------------------------------------




--------------------------------------- Iteration      1(  10)  ---------------------------------------


    POTLOK:  cpu time      0.4298: real time      0.4300
    SETDIJ:  cpu time      6.9589: real time      6.9594
     EDDAV:  cpu time     58.3608: real time     58.3743
 BZINTS: Fermi energy:    0.476363;  336.000000 electrons
         Band energy:-0.190105E+04;  BLOECHL correction:    0.000000
       DOS:  cpu time      0.0269: real time      0.0269
    CHARGE:  cpu time     11.3167: real time     11.3175
    MIXING:  cpu time      0.0161: real time      0.0161
    --------------------------------------------
      LOOP:  cpu time     77.1091: real time     77.1242

 eigenvalue-minimisations  :  9984
 total energy-change (2. order) :-0.2004702E+02  (-0.1302395E+01)
 number of electron     335.9999997 magnetization       5.3076954
 augmentation part      -46.8732674 magnetization       5.8416494

 Broyden mixing:
  rms(total) = 0.32379E+00    rms(broyden)= 0.32379E+00
  rms(prec ) = 0.33678E+00
  weight for this iteration     100.00

 eigenvalues of (default mixing * dielectric matrix)
  average eigenvalue GAMMA=   1.4491
  2.4864  2.4864  0.9413  0.7294  0.6019

 Free energy of the ion-electron system (eV)
  ---------------------------------------------------
  alpha Z        PSCENC =       253.99581917
  Ewald energy   TEWEN  =     -9971.13261253
  -Hartree energ DENC   =     -4969.76723290
  -exchange      EXHF   =         0.00000000
  -V(xc)+E(xc)   XCENC  =       705.61757154
  PAW double counting   =     40964.78989931   -40791.51373488
  entropy T*S    EENTRO =         0.00000000
  eigenvalues    EBANDS =     -1901.05277221
  atomic energy  EATOM  =     15501.99929693
  Solvation  Ediel_sol  =         0.00000000
  ---------------------------------------------------
  free energy    TOTEN  =      -207.06376556 eV

  energy without entropy =     -207.06376556  energy(sigma->0) =     -207.06376556


--------------------------------------------------------------------------------------------------------




--------------------------------------- Iteration      1(  11)  ---------------------------------------


    POTLOK:  cpu time      0.4335: real time      0.4336
    SETDIJ:  cpu time     12.3656: real time     12.3664
     EDDAV:  cpu time     57.5739: real time     57.5820
 BZINTS: Fermi energy:    0.258995;  336.000000 electrons
         Band energy:-0.195840E+04;  BLOECHL correction:    0.000000
       DOS:  cpu time      0.0261: real time      0.0261
    CHARGE:  cpu time      5.9155: real time      5.9160
    MIXING:  cpu time      0.0123: real time      0.0123
    --------------------------------------------
      LOOP:  cpu time     76.3269: real time     76.3365

 eigenvalue-minimisations  :  9920
 total energy-change (2. order) :-0.1781462E+02  (-0.2160544E+01)
 number of electron     335.9999997 magnetization       3.5689520
 augmentation part      -46.9050713 magnetization       3.7521872

 Broyden mixing:
  rms(total) = 0.18643E+00    rms(broyden)= 0.18642E+00
  rms(prec ) = 0.20013E+00
  weight for this iteration     100.00

 eigenvalues of (default mixing * dielectric matrix)
  average eigenvalue GAMMA=   1.4671
  2.7981  2.7981  1.0278  0.8890  0.6995  0.5903

 Free energy of the ion-electron system (eV)
  ---------------------------------------------------
  alpha Z        PSCENC =       253.99581917
  Ewald energy   TEWEN  =     -9971.13261253
  -Hartree energ DENC   =     -4920.20554149
  -exchange      EXHF   =         0.00000000
  -V(xc)+E(xc)   XCENC  =       694.52575061
  PAW double counting   =     40392.36504385   -40218.03059838
  entropy T*S    EENTRO =         0.00000000
  eigenvalues    EBANDS =     -1958.39554635
  atomic energy  EATOM  =     15501.99929693
  Solvation  Ediel_sol  =         0.00000000
  ---------------------------------------------------
  free energy    TOTEN  =      -224.87838818 eV

  energy without entropy =     -224.87838818  energy(sigma->0) =     -224.87838818


--------------------------------------------------------------------------------------------------------




--------------------------------------- Iteration      1(  12)  ---------------------------------------


    POTLOK:  cpu time      4.3682: real time      4.3686
    SETDIJ:  cpu time     13.7168: real time     13.7178
     EDDAV:  cpu time     60.6449: real time     60.6566
 BZINTS: Fermi energy:    0.185317;  336.000000 electrons
         Band energy:-0.197911E+04;  BLOECHL correction:    0.000000
       DOS:  cpu time      0.0262: real time      0.0263
    CHARGE:  cpu time     11.3120: real time     11.3128
    MIXING:  cpu time      0.0168: real time      0.0168
    --------------------------------------------
      LOOP:  cpu time     90.0848: real time     90.0988

 eigenvalue-minimisations  : 10048
 total energy-change (2. order) :-0.3389021E+01  (-0.3884379E+00)
 number of electron     335.9999997 magnetization       2.3905841
 augmentation part      -46.9154564 magnetization       2.4735084

 Broyden mixing:
  rms(total) = 0.15936E+00    rms(broyden)= 0.15936E+00
  rms(prec ) = 0.17189E+00
  weight for this iteration     100.00

 eigenvalues of (default mixing * dielectric matrix)
  average eigenvalue GAMMA=   1.4924
  3.1017  3.1017  1.0563  1.0563  0.7810  0.7810  0.5687

 Free energy of the ion-electron system (eV)
  ---------------------------------------------------
  alpha Z        PSCENC =       253.99581917
  Ewald energy   TEWEN  =     -9971.13261253
  -Hartree energ DENC   =     -4900.65437248
  -exchange      EXHF   =         0.00000000
  -V(xc)+E(xc)   XCENC  =       692.06716876
  PAW double counting   =     39957.85242389   -39783.28021077
  entropy T*S    EENTRO =         0.00000000
  eigenvalues    EBANDS =     -1979.11492243
  atomic energy  EATOM  =     15501.99929693
  Solvation  Ediel_sol  =         0.00000000
  ---------------------------------------------------
  free energy    TOTEN  =      -228.26740946 eV

  energy without entropy =     -228.26740946  energy(sigma->0) =     -228.26740946


--------------------------------------------------------------------------------------------------------




--------------------------------------- Iteration      1(  13)  ---------------------------------------


    POTLOK:  cpu time      0.4307: real time      0.4309
    SETDIJ:  cpu time      9.2419: real time      9.2425
     EDDAV:  cpu time     53.6754: real time     53.6826
 BZINTS: Fermi energy:    0.117360;  336.000000 electrons
         Band energy:-0.200151E+04;  BLOECHL correction:    0.000000
       DOS:  cpu time      0.0285: real time      0.0286
    CHARGE:  cpu time      7.0704: real time      7.0709
    MIXING:  cpu time      0.0167: real time      0.0167
    --------------------------------------------
      LOOP:  cpu time     70.4636: real time     70.4723

 eigenvalue-minimisations  :  9568
 total energy-change (2. order) :-0.1049036E+01  (-0.1331256E+00)
 number of electron     335.9999997 magnetization       0.8853373
 augmentation part      -46.9735130 magnetization       0.9113188

 Broyden mixing:
  rms(total) = 0.92892E-01    rms(broyden)= 0.92892E-01
  rms(prec ) = 0.99703E-01
  weight for this iteration     100.00

 eigenvalues of (default mixing * dielectric matrix)
  average eigenvalue GAMMA=   1.5521
  3.3233  3.3233  1.5861  1.2832  0.9279  0.7001  0.7001  0.5731

 Free energy of the ion-electron system (eV)
  ---------------------------------------------------
  alpha Z        PSCENC =       253.99581917
  Ewald energy   TEWEN  =     -9971.13261253
  -Hartree energ DENC   =     -4877.56501019
  -exchange      EXHF   =         0.00000000
  -V(xc)+E(xc)   XCENC  =       690.08863628
  PAW double counting   =     39138.54223038   -38963.73169738
  entropy T*S    EENTRO =         0.00000000
  eigenvalues    EBANDS =     -2001.51310772
  atomic energy  EATOM  =     15501.99929693
  Solvation  Ediel_sol  =         0.00000000
  ---------------------------------------------------
  free energy    TOTEN  =      -229.31644505 eV

  energy without entropy =     -229.31644505  energy(sigma->0) =     -229.31644505


--------------------------------------------------------------------------------------------------------




--------------------------------------- Iteration      1(  14)  ---------------------------------------


    POTLOK:  cpu time      0.4441: real time      0.4443
    SETDIJ:  cpu time     11.6126: real time     11.6134
     EDDAV:  cpu time     50.9434: real time     50.9523
 BZINTS: Fermi energy:    0.081955;  336.000000 electrons
         Band energy:-0.201197E+04;  BLOECHL correction:    0.000000
       DOS:  cpu time      0.0268: real time      0.0268
    CHARGE:  cpu time      6.7384: real time      6.7389
    MIXING:  cpu time      0.0187: real time      0.0187
    --------------------------------------------
      LOOP:  cpu time     69.7839: real time     69.7945

 eigenvalue-minimisations  :  8992
 total energy-change (2. order) :-0.6349475E-01  (-0.1616295E-01)
 number of electron     335.9999997 magnetization       0.4185475
 augmentation part      -47.0005700 magnetization       0.4255175

 Broyden mixing:
  rms(total) = 0.43515E-01    rms(broyden)= 0.43515E-01
  rms(prec ) = 0.46219E-01
  weight for this iteration     100.00

 eigenvalues of (default mixing * dielectric matrix)
  average eigenvalue GAMMA=   1.5789
  4.1306  2.5581  2.5581  1.0965  1.0965  0.7714  0.7714  0.5756  0.6518

 Free energy of the ion-electron system (eV)
  ---------------------------------------------------
  alpha Z        PSCENC =       253.99581917
  Ewald energy   TEWEN  =     -9971.13261253
  -Hartree energ DENC   =     -4866.21542432
  -exchange      EXHF   =         0.00000000
  -V(xc)+E(xc)   XCENC  =       689.17739255
  PAW double counting   =     39079.01061691   -38904.24545012
  entropy T*S    EENTRO =         0.00000000
  eigenvalues    EBANDS =     -2011.96957839
  atomic energy  EATOM  =     15501.99929693
  Solvation  Ediel_sol  =         0.00000000
  ---------------------------------------------------
  free energy    TOTEN  =      -229.37993980 eV

  energy without entropy =     -229.37993980  energy(sigma->0) =     -229.37993980


--------------------------------------------------------------------------------------------------------




--------------------------------------- Iteration      1(  15)  ---------------------------------------


    POTLOK:  cpu time      0.4579: real time      0.4580
    SETDIJ:  cpu time     10.4874: real time     10.4881
     EDDAV:  cpu time     54.9904: real time     54.9977
 BZINTS: Fermi energy:    0.080136;  336.000000 electrons
         Band energy:-0.201165E+04;  BLOECHL correction:    0.000000
       DOS:  cpu time      0.0268: real time      0.0269
    CHARGE:  cpu time      6.5314: real time      6.5319
    MIXING:  cpu time      0.0169: real time      0.0169
    --------------------------------------------
      LOOP:  cpu time     72.5107: real time     72.5195

 eigenvalue-minimisations  :  9632
 total energy-change (2. order) : 0.1341975E-02  (-0.2081338E-02)
 number of electron     335.9999997 magnetization       0.1729553
 augmentation part      -46.9943831 magnetization       0.1772782

 Broyden mixing:
  rms(total) = 0.20204E-01    rms(broyden)= 0.20204E-01
  rms(prec ) = 0.21774E-01
  weight for this iteration     100.00

 eigenvalues of (default mixing * dielectric matrix)
  average eigenvalue GAMMA=   1.5649
  4.5520  2.5275  2.5275  1.3363  0.9968  0.9968  0.7589  0.7589  0.6239  0.5700

 Free energy of the ion-electron system (eV)
  ---------------------------------------------------
  alpha Z        PSCENC =       253.99581917
  Ewald energy   TEWEN  =     -9971.13261253
  -Hartree energ DENC   =     -4866.41389548
  -exchange      EXHF   =         0.00000000
  -V(xc)+E(xc)   XCENC  =       689.14101425
  PAW double counting   =     39164.50211589   -38989.82400586
  entropy T*S    EENTRO =         0.00000000
  eigenvalues    EBANDS =     -2011.64633019
  atomic energy  EATOM  =     15501.99929693
  Solvation  Ediel_sol  =         0.00000000
  ---------------------------------------------------
  free energy    TOTEN  =      -229.37859783 eV

  energy without entropy =     -229.37859783  energy(sigma->0) =     -229.37859783


--------------------------------------------------------------------------------------------------------




--------------------------------------- Iteration      1(  16)  ---------------------------------------


    POTLOK:  cpu time      0.4225: real time      0.4227
    SETDIJ:  cpu time      5.8507: real time      5.8529
     EDDAV:  cpu time     53.1896: real time     53.1968
 BZINTS: Fermi energy:    0.078203;  336.000000 electrons
         Band energy:-0.201212E+04;  BLOECHL correction:   -0.000000
       DOS:  cpu time      0.0302: real time      0.0303
    CHARGE:  cpu time      9.0199: real time      9.0205
    MIXING:  cpu time      0.0163: real time      0.0163
    --------------------------------------------
      LOOP:  cpu time     68.5292: real time     68.5396

 eigenvalue-minimisations  :  9120
 total energy-change (2. order) : 0.3085735E-02  (-0.5493966E-03)
 number of electron     335.9999997 magnetization       0.0700399
 augmentation part      -46.9932625 magnetization       0.0708489

 Broyden mixing:
  rms(total) = 0.12326E-01    rms(broyden)= 0.12325E-01
  rms(prec ) = 0.13336E-01
  weight for this iteration     100.00

 eigenvalues of (default mixing * dielectric matrix)
  average eigenvalue GAMMA=   1.5469
  4.7560  2.4276  2.4276  1.8437  0.9962  0.9962  0.9236  0.7286  0.7286  0.5817
  0.6061

 Free energy of the ion-electron system (eV)
  ---------------------------------------------------
  alpha Z        PSCENC =       253.99581917
  Ewald energy   TEWEN  =     -9971.13261253
  -Hartree energ DENC   =     -4865.84777803
  -exchange      EXHF   =         0.00000000
  -V(xc)+E(xc)   XCENC  =       689.07244800
  PAW double counting   =     39134.06680820   -38959.41232961
  entropy T*S    EENTRO =         0.00000000
  eigenvalues    EBANDS =     -2012.11716423
  atomic energy  EATOM  =     15501.99929693
  Solvation  Ediel_sol  =         0.00000000
  ---------------------------------------------------
  free energy    TOTEN  =      -229.37551209 eV

  energy without entropy =     -229.37551209  energy(sigma->0) =     -229.37551209


--------------------------------------------------------------------------------------------------------




--------------------------------------- Iteration      1(  17)  ---------------------------------------


    POTLOK:  cpu time      0.4247: real time      0.4249
    SETDIJ:  cpu time      8.1580: real time      8.1586
     EDDAV:  cpu time     58.3813: real time     58.3890
 BZINTS: Fermi energy:    0.080104;  336.000000 electrons
         Band energy:-0.201119E+04;  BLOECHL correction:    0.000000
       DOS:  cpu time      0.0261: real time      0.0262
    CHARGE:  cpu time     10.8390: real time     10.8397
    MIXING:  cpu time      0.0196: real time      0.0196
    --------------------------------------------
      LOOP:  cpu time     77.8487: real time     77.8580

 eigenvalue-minimisations  :  9536
 total energy-change (2. order) :-0.5075753E-03  (-0.1200678E-03)
 number of electron     335.9999997 magnetization       0.0179512
 augmentation part      -46.9881770 magnetization       0.0183583

 Broyden mixing:
  rms(total) = 0.49317E-02    rms(broyden)= 0.49317E-02
  rms(prec ) = 0.55266E-02
  weight for this iteration     100.00

 eigenvalues of (default mixing * dielectric matrix)
  average eigenvalue GAMMA=   1.5763
  4.9471  2.6020  2.6020  2.2040  1.1774  0.9961  0.9961  0.7616  0.7616  0.6828
  0.5907  0.5945

 Free energy of the ion-electron system (eV)
  ---------------------------------------------------
  alpha Z        PSCENC =       253.99581917
  Ewald energy   TEWEN  =     -9971.13261253
  -Hartree energ DENC   =     -4866.81467748
  -exchange      EXHF   =         0.00000000
  -V(xc)+E(xc)   XCENC  =       689.13274378
  PAW double counting   =     39175.21888025   -39000.58873566
  entropy T*S    EENTRO =         0.00000000
  eigenvalues    EBANDS =     -2011.18673413
  atomic energy  EATOM  =     15501.99929693
  Solvation  Ediel_sol  =         0.00000000
  ---------------------------------------------------
  free energy    TOTEN  =      -229.37601967 eV

  energy without entropy =     -229.37601967  energy(sigma->0) =     -229.37601967


--------------------------------------------------------------------------------------------------------




--------------------------------------- Iteration      1(  18)  ---------------------------------------


    POTLOK:  cpu time      0.4103: real time      0.4121
    SETDIJ:  cpu time     10.8279: real time     10.8287
     EDDAV:  cpu time     55.9053: real time     55.9172
 BZINTS: Fermi energy:    0.081193;  336.000000 electrons
         Band energy:-0.201067E+04;  BLOECHL correction:    0.000000
       DOS:  cpu time      0.0285: real time      0.0286
    CHARGE:  cpu time      5.3529: real time      5.3533
    MIXING:  cpu time      0.0201: real time      0.0201
    --------------------------------------------
      LOOP:  cpu time     72.5451: real time     72.5600

 eigenvalue-minimisations  :  9472
 total energy-change (2. order) :-0.1145785E-03  (-0.3931560E-04)
 number of electron     335.9999997 magnetization       0.0053412
 augmentation part      -46.9848622 magnetization       0.0058830

 Broyden mixing:
  rms(total) = 0.44560E-02    rms(broyden)= 0.44560E-02
  rms(prec ) = 0.47065E-02
  weight for this iteration     100.00

 eigenvalues of (default mixing * dielectric matrix)
  average eigenvalue GAMMA=   1.5446
  5.0010  2.6457  2.6457  2.2653  1.1294  1.1294  0.9914  0.9914  0.7250  0.7250
  0.5794  0.6451  0.6059

 Free energy of the ion-electron system (eV)
  ---------------------------------------------------
  alpha Z        PSCENC =       253.99581917
  Ewald energy   TEWEN  =     -9971.13261253
  -Hartree energ DENC   =     -4867.35473120
  -exchange      EXHF   =         0.00000000
  -V(xc)+E(xc)   XCENC  =       689.16787307
  PAW double counting   =     39203.87911380   -39029.26370050
  entropy T*S    EENTRO =         0.00000000
  eigenvalues    EBANDS =     -2010.66719298
  atomic energy  EATOM  =     15501.99929693
  Solvation  Ediel_sol  =         0.00000000
  ---------------------------------------------------
  free energy    TOTEN  =      -229.37613424 eV

  energy without entropy =     -229.37613424  energy(sigma->0) =     -229.37613424


--------------------------------------------------------------------------------------------------------




--------------------------------------- Iteration      1(  19)  ---------------------------------------


    POTLOK:  cpu time      0.4080: real time      0.4081
    SETDIJ:  cpu time     13.4358: real time     13.4387
     EDDAV:  cpu time     53.8416: real time     53.8490
 BZINTS: Fermi energy:    0.080563;  336.000000 electrons
         Band energy:-0.201093E+04;  BLOECHL correction:    0.000000
       DOS:  cpu time      0.0269: real time      0.0270
    CHARGE:  cpu time     15.9184: real time     15.9197
    MIXING:  cpu time      0.0170: real time      0.0170
    --------------------------------------------
      LOOP:  cpu time     83.6478: real time     83.6595

 eigenvalue-minimisations  :  9760
 total energy-change (2. order) :-0.5734677E-05  (-0.6179794E-05)
 number of electron     335.9999997 magnetization      -0.0004768
 augmentation part      -46.9856924 magnetization      -0.0002331

 Broyden mixing:
  rms(total) = 0.20287E-02    rms(broyden)= 0.20286E-02
  rms(prec ) = 0.22020E-02
  weight for this iteration     100.00

 eigenvalues of (default mixing * dielectric matrix)
  average eigenvalue GAMMA=   1.5458
  5.0447  2.7073  2.7073  2.1102  1.4099  1.4099  1.0329  1.0329  0.8584  0.7537
  0.7537  0.5809  0.6085  0.6315

 Free energy of the ion-electron system (eV)
  ---------------------------------------------------
  alpha Z        PSCENC =       253.99581917
  Ewald energy   TEWEN  =     -9971.13261253
  -Hartree energ DENC   =     -4867.08208199
  -exchange      EXHF   =         0.00000000
  -V(xc)+E(xc)   XCENC  =       689.15108952
  PAW double counting   =     39202.53613009   -39027.91758045
  entropy T*S    EENTRO =         0.00000000
  eigenvalues    EBANDS =     -2010.92620073
  atomic energy  EATOM  =     15501.99929693
  Solvation  Ediel_sol  =         0.00000000
  ---------------------------------------------------
  free energy    TOTEN  =      -229.37613998 eV

  energy without entropy =     -229.37613998  energy(sigma->0) =     -229.37613998


--------------------------------------------------------------------------------------------------------




--------------------------------------- Iteration      1(  20)  ---------------------------------------


    POTLOK:  cpu time      0.4084: real time      0.4144
    SETDIJ:  cpu time      6.5876: real time      6.5883
     EDDAV:  cpu time     56.9452: real time     56.9529
 BZINTS: Fermi energy:    0.080196;  336.000000 electrons
         Band energy:-0.201106E+04;  BLOECHL correction:    0.000000
       DOS:  cpu time      0.0269: real time      0.0270
    CHARGE:  cpu time      2.8451: real time      2.8454
    MIXING:  cpu time      0.0195: real time      0.0195
    --------------------------------------------
      LOOP:  cpu time     66.8327: real time     66.8475

 eigenvalue-minimisations  :  9152
 total energy-change (2. order) :-0.1040511E-04  (-0.3478517E-05)
 number of electron     335.9999997 magnetization      -0.0015973
 augmentation part      -46.9862232 magnetization      -0.0015191

 Broyden mixing:
  rms(total) = 0.94754E-03    rms(broyden)= 0.94742E-03
  rms(prec ) = 0.10061E-02
  weight for this iteration     100.00

 eigenvalues of (default mixing * dielectric matrix)
  average eigenvalue GAMMA=   1.5473
  5.0948  2.7080  2.7080  2.1008  2.1008  1.2304  1.2304  0.9905  0.9905  0.7799
  0.7328  0.7328  0.5788  0.6157  0.6157

 Free energy of the ion-electron system (eV)
  ---------------------------------------------------
  alpha Z        PSCENC =       253.99581917
  Ewald energy   TEWEN  =     -9971.13261253
  -Hartree energ DENC   =     -4866.93900226
  -exchange      EXHF   =         0.00000000
  -V(xc)+E(xc)   XCENC  =       689.14407157
  PAW double counting   =     39207.68067480   -39033.06019988
  entropy T*S    EENTRO =         0.00000000
  eigenvalues    EBANDS =     -2011.06419819
  atomic energy  EATOM  =     15501.99929693
  Solvation  Ediel_sol  =         0.00000000
  ---------------------------------------------------
  free energy    TOTEN  =      -229.37615038 eV

  energy without entropy =     -229.37615038  energy(sigma->0) =     -229.37615038


--------------------------------------------------------------------------------------------------------




--------------------------------------- Iteration      1(  21)  ---------------------------------------


    POTLOK:  cpu time      0.4054: real time      0.4056
    SETDIJ:  cpu time      5.7584: real time      5.7589
     EDDAV:  cpu time     52.6364: real time     52.6436
 BZINTS: Fermi energy:    0.080138;  336.000000 electrons
         Band energy:-0.201112E+04;  BLOECHL correction:    0.000000
       DOS:  cpu time      0.0259: real time      0.0260
    CHARGE:  cpu time     11.7428: real time     11.7436
    MIXING:  cpu time      0.0178: real time      0.0179
    --------------------------------------------
      LOOP:  cpu time     70.5868: real time     70.5956

 eigenvalue-minimisations  :  9280
 total energy-change (2. order) : 0.1181001E-05  (-0.8847914E-06)
 number of electron     335.9999997 magnetization      -0.0013327
 augmentation part      -46.9864146 magnetization      -0.0013360

 Broyden mixing:
  rms(total) = 0.42497E-03    rms(broyden)= 0.42470E-03
  rms(prec ) = 0.44687E-03
  weight for this iteration     100.00

 eigenvalues of (default mixing * dielectric matrix)
  average eigenvalue GAMMA=   1.5120
  5.0967  2.6685  2.6685  2.5712  1.6103  1.4060  1.1539  1.1539  0.9278  0.9278
  0.7392  0.7392  0.7253  0.5785  0.6123  0.6123

 Free energy of the ion-electron system (eV)
  ---------------------------------------------------
  alpha Z        PSCENC =       253.99581917
  Ewald energy   TEWEN  =     -9971.13261253
  -Hartree energ DENC   =     -4866.88079893
  -exchange      EXHF   =         0.00000000
  -V(xc)+E(xc)   XCENC  =       689.14051162
  PAW double counting   =     39207.12328037   -39032.50200091
  entropy T*S    EENTRO =         0.00000000
  eigenvalues    EBANDS =     -2011.11964492
  atomic energy  EATOM  =     15501.99929693
  Solvation  Ediel_sol  =         0.00000000
  ---------------------------------------------------
  free energy    TOTEN  =      -229.37614920 eV

  energy without entropy =     -229.37614920  energy(sigma->0) =     -229.37614920


--------------------------------------------------------------------------------------------------------




--------------------------------------- Iteration      1(  22)  ---------------------------------------


    POTLOK:  cpu time      0.4074: real time      0.4423
    SETDIJ:  cpu time      3.9175: real time      3.9178
     EDDAV:  cpu time     54.6055: real time     54.6130
 BZINTS: Fermi energy:    0.079959;  336.000000 electrons
         Band energy:-0.201114E+04;  BLOECHL correction:    0.000000
       DOS:  cpu time      0.0260: real time      0.0261
    CHARGE:  cpu time     10.2833: real time     10.2841
    MIXING:  cpu time      0.0184: real time      0.0184
    --------------------------------------------
      LOOP:  cpu time     69.2581: real time     69.3016

 eigenvalue-minimisations  :  9760
 total energy-change (2. order) : 0.4636604E-06  (-0.1391323E-06)
 number of electron     335.9999997 magnetization      -0.0004640
 augmentation part      -46.9864841 magnetization      -0.0004856

 Broyden mixing:
  rms(total) = 0.23122E-03    rms(broyden)= 0.23073E-03
  rms(prec ) = 0.24535E-03
  weight for this iteration     100.00

 eigenvalues of (default mixing * dielectric matrix)
  average eigenvalue GAMMA=   1.5005
  5.0910  2.6572  2.6572  2.6234  1.6737  1.4382  1.4382  1.0828  1.0828  0.9004
  0.9004  0.7424  0.7424  0.6736  0.5797  0.6123  0.6123

 Free energy of the ion-electron system (eV)
  ---------------------------------------------------
  alpha Z        PSCENC =       253.99581917
  Ewald energy   TEWEN  =     -9971.13261253
  -Hartree energ DENC   =     -4866.85920193
  -exchange      EXHF   =         0.00000000
  -V(xc)+E(xc)   XCENC  =       689.13893651
  PAW double counting   =     39205.71298600   -39031.09139749
  entropy T*S    EENTRO =         0.00000000
  eigenvalues    EBANDS =     -2011.13997540
  atomic energy  EATOM  =     15501.99929693
  Solvation  Ediel_sol  =         0.00000000
  ---------------------------------------------------
  free energy    TOTEN  =      -229.37614874 eV

  energy without entropy =     -229.37614874  energy(sigma->0) =     -229.37614874


--------------------------------------------------------------------------------------------------------




--------------------------------------- Iteration      1(  23)  ---------------------------------------


    POTLOK:  cpu time      0.4067: real time      0.4069
    SETDIJ:  cpu time      6.2097: real time      6.2102
     EDDAV:  cpu time     53.0063: real time     53.0135
 BZINTS: Fermi energy:    0.079999;  336.000000 electrons
         Band energy:-0.201113E+04;  BLOECHL correction:    0.000000
       DOS:  cpu time      0.0260: real time      0.0261
    CHARGE:  cpu time     14.0120: real time     14.0131
    MIXING:  cpu time      1.3693: real time      1.3694
    --------------------------------------------
      LOOP:  cpu time     75.0301: real time     75.0391

 eigenvalue-minimisations  :  9216
 total energy-change (2. order) :-0.2349698E-06  (-0.5669187E-07)
 number of electron     335.9999997 magnetization      -0.0002590
 augmentation part      -46.9864558 magnetization      -0.0002551

 Broyden mixing:
[...]

  length of vectors
    10.314108670 16.788494411 10.846477853     0.097707938  0.059564603  0.092912216


 FORCES acting on ions
    electron-ion (+dipol)            ewald-force                    non-local-force                 convergence-correction
 -----------------------------------------------------------------------------------------------
   0.987E+02 -.105E+03 -.126E+02   -.104E+03 0.113E+03 0.113E+02   0.495E+01 -.888E+01 0.132E+01   0.172E-05 -.311E-06 0.787E-06
   0.986E+02 -.105E+03 -.125E+02   -.104E+03 0.113E+03 0.112E+02   0.495E+01 -.888E+01 0.132E+01   0.162E-05 -.312E-06 0.820E-06
   -.125E+02 0.421E+02 -.127E+03   0.128E+02 -.473E+02 0.134E+03   -.222E+00 0.519E+01 -.709E+01   0.127E-06 0.668E-07 -.115E-05
   -.123E+02 0.420E+02 -.127E+03   0.126E+02 -.472E+02 0.134E+03   -.246E+00 0.519E+01 -.705E+01   0.107E-06 0.373E-07 -.121E-05
   -.211E+02 -.902E+02 0.980E+02   0.198E+02 0.989E+02 -.103E+03   0.133E+01 -.874E+01 0.530E+01   -.339E-07 -.105E-06 0.177E-05
   -.211E+02 -.902E+02 0.981E+02   0.198E+02 0.989E+02 -.103E+03   0.134E+01 -.874E+01 0.530E+01   -.488E-07 -.843E-07 0.186E-05
   -.109E+03 0.940E+02 0.532E+01   0.114E+03 -.999E+02 -.321E+01   -.539E+01 0.601E+01 -.203E+01   -.162E-05 -.510E-08 0.647E-06
   -.108E+03 0.950E+02 0.625E+01   0.114E+03 -.101E+03 -.413E+01   -.534E+01 0.592E+01 -.212E+01   -.174E-05 -.182E-07 0.649E-06
   0.136E+03 -.539E+02 -.186E+02   -.143E+03 0.594E+02 0.191E+02   0.680E+01 -.552E+01 -.558E+00   0.161E-05 -.815E-08 -.989E-06
   0.136E+03 -.540E+02 -.187E+02   -.143E+03 0.595E+02 0.193E+02   0.680E+01 -.552E+01 -.558E+00   0.157E-05 -.393E-08 -.994E-06
   -.136E+03 0.540E+02 0.186E+02   0.143E+03 -.595E+02 -.192E+02   -.680E+01 0.552E+01 0.558E+00   -.152E-05 -.663E-07 0.987E-06
   -.136E+03 0.540E+02 0.187E+02   0.143E+03 -.595E+02 -.193E+02   -.680E+01 0.552E+01 0.558E+00   -.162E-05 -.463E-07 0.997E-06
   0.108E+03 -.950E+02 -.622E+01   -.114E+03 0.101E+03 0.410E+01   0.534E+01 -.592E+01 0.212E+01   0.169E-05 0.476E-08 -.665E-06
   0.108E+03 -.950E+02 -.625E+01   -.114E+03 0.101E+03 0.413E+01   0.534E+01 -.592E+01 0.212E+01   0.167E-05 0.153E-07 -.651E-06
   -.123E+02 -.420E+02 0.127E+03   0.125E+02 0.472E+02 -.134E+03   -.246E+00 -.519E+01 0.705E+01   0.136E-06 0.396E-08 0.122E-05
   -.124E+02 -.420E+02 0.127E+03   0.126E+02 0.472E+02 -.134E+03   -.246E+00 -.519E+01 0.705E+01   0.620E-07 0.361E-07 0.123E-05
   0.212E+02 -.903E+02 0.980E+02   -.199E+02 0.990E+02 -.103E+03   -.133E+01 -.874E+01 0.531E+01   0.830E-07 0.227E-07 0.175E-05
   0.211E+02 -.902E+02 0.981E+02   -.198E+02 0.989E+02 -.103E+03   -.134E+01 -.874E+01 0.530E+01   0.605E-07 0.278E-07 0.181E-05
   -.988E+02 -.104E+03 -.125E+02   0.104E+03 0.112E+03 0.112E+02   -.495E+01 -.899E+01 0.125E+01   -.162E-05 -.169E-06 0.786E-06
   -.986E+02 -.105E+03 -.125E+02   0.104E+03 0.113E+03 0.112E+02   -.495E+01 -.888E+01 0.132E+01   -.170E-05 -.182E-06 0.760E-06
   -.136E+03 -.540E+02 -.187E+02   0.143E+03 0.595E+02 0.192E+02   -.680E+01 -.552E+01 -.558E+00   -.159E-05 -.452E-08 -.996E-06
   -.136E+03 -.540E+02 -.187E+02   0.143E+03 0.595E+02 0.192E+02   -.680E+01 -.552E+01 -.558E+00   -.159E-05 -.897E-09 -.100E-05
   0.123E+02 0.420E+02 -.127E+03   -.126E+02 -.472E+02 0.134E+03   0.246E+00 0.519E+01 -.705E+01   -.114E-06 -.681E-07 -.110E-05
   0.124E+02 0.420E+02 -.127E+03   -.126E+02 -.472E+02 0.134E+03   0.246E+00 0.519E+01 -.705E+01   -.103E-06 -.689E-07 -.119E-05
   -.108E+03 -.950E+02 -.622E+01   0.114E+03 0.101E+03 0.410E+01   -.534E+01 -.592E+01 0.212E+01   -.167E-05 0.129E-06 -.691E-06
   -.108E+03 -.950E+02 -.622E+01   0.114E+03 0.101E+03 0.410E+01   -.534E+01 -.592E+01 0.212E+01   -.168E-05 0.115E-06 -.673E-06
   0.986E+02 0.105E+03 0.126E+02   -.104E+03 -.113E+03 -.113E+02   0.495E+01 0.888E+01 -.132E+01   0.170E-05 0.262E-06 -.748E-06
   0.986E+02 0.105E+03 0.125E+02   -.104E+03 -.113E+03 -.112E+02   0.495E+01 0.888E+01 -.132E+01   0.166E-05 0.263E-06 -.781E-06
   -.987E+02 0.105E+03 0.126E+02   0.104E+03 -.113E+03 -.112E+02   -.495E+01 0.888E+01 -.132E+01   -.168E-05 0.219E-06 -.753E-06
   -.986E+02 0.105E+03 0.126E+02   0.104E+03 -.113E+03 -.113E+02   -.495E+01 0.888E+01 -.132E+01   -.168E-05 0.211E-06 -.785E-06
   0.728E+02 0.961E+02 0.634E+02   -.755E+02 -.106E+03 -.654E+02   0.274E+01 0.971E+01 0.207E+01   0.885E-06 0.367E-06 0.592E-06
   0.728E+02 0.961E+02 0.633E+02   -.755E+02 -.106E+03 -.653E+02   0.274E+01 0.971E+01 0.207E+01   0.824E-06 0.372E-06 0.562E-06
   0.218E+02 -.938E+02 -.889E+02   -.205E+02 0.100E+03 0.940E+02   -.133E+01 -.628E+01 -.509E+01   0.320E-06 0.619E-07 -.149E-05
   0.218E+02 -.938E+02 -.889E+02   -.205E+02 0.100E+03 0.940E+02   -.133E+01 -.628E+01 -.509E+01   0.249E-06 0.640E-07 -.146E-05
   -.211E+02 0.901E+02 -.980E+02   0.198E+02 -.989E+02 0.103E+03   0.134E+01 0.874E+01 -.530E+01   -.375E-07 0.662E-07 -.187E-05
   -.211E+02 0.902E+02 -.981E+02   0.198E+02 -.989E+02 0.103E+03   0.134E+01 0.874E+01 -.530E+01   -.101E-06 0.605E-07 -.185E-05
   -.212E+02 0.937E+02 0.892E+02   0.198E+02 -.100E+03 -.943E+02   0.137E+01 0.629E+01 0.511E+01   -.255E-06 -.409E-07 0.138E-05
   -.218E+02 0.938E+02 0.889E+02   0.205E+02 -.100E+03 -.940E+02   0.133E+01 0.628E+01 0.509E+01   -.297E-06 -.829E-07 0.147E-05
   0.211E+02 0.903E+02 -.980E+02   -.197E+02 -.990E+02 0.103E+03   -.134E+01 0.874E+01 -.530E+01   0.756E-07 -.998E-08 -.183E-05
   0.211E+02 0.902E+02 -.981E+02   -.198E+02 -.989E+02 0.103E+03   -.134E+01 0.874E+01 -.530E+01   0.106E-07 0.694E-08 -.185E-05
   0.727E+02 -.961E+02 -.633E+02   -.755E+02 0.106E+03 0.653E+02   0.273E+01 -.971E+01 -.207E+01   0.848E-06 -.377E-06 -.497E-06
   0.728E+02 -.961E+02 -.633E+02   -.755E+02 0.106E+03 0.653E+02   0.274E+01 -.971E+01 -.207E+01   0.861E-06 -.347E-06 -.556E-06
   0.136E+03 0.539E+02 0.186E+02   -.143E+03 -.595E+02 -.192E+02   0.680E+01 0.552E+01 0.564E+00   0.156E-05 0.711E-07 0.979E-06
   0.136E+03 0.539E+02 0.187E+02   -.143E+03 -.595E+02 -.192E+02   0.680E+01 0.552E+01 0.558E+00   0.161E-05 0.374E-07 0.973E-06
   0.108E+03 0.950E+02 0.622E+01   -.114E+03 -.101E+03 -.410E+01   0.534E+01 0.592E+01 -.212E+01   0.170E-05 -.786E-07 0.663E-06
   0.108E+03 0.950E+02 0.624E+01   -.114E+03 -.101E+03 -.413E+01   0.534E+01 0.592E+01 -.212E+01   0.160E-05 -.101E-06 0.675E-06
   -.728E+02 -.962E+02 -.633E+02   0.756E+02 0.106E+03 0.654E+02   -.274E+01 -.971E+01 -.207E+01   -.828E-06 -.491E-06 -.482E-06
   -.728E+02 -.962E+02 -.633E+02   0.755E+02 0.106E+03 0.653E+02   -.274E+01 -.971E+01 -.207E+01   -.871E-06 -.477E-06 -.555E-06
   -.219E+02 -.938E+02 -.888E+02   0.206E+02 0.100E+03 0.939E+02   0.133E+01 -.628E+01 -.509E+01   -.281E-06 0.144E-06 -.146E-05
   -.218E+02 -.938E+02 -.889E+02   0.205E+02 0.100E+03 0.940E+02   0.133E+01 -.628E+01 -.509E+01   -.327E-06 0.165E-06 -.149E-05
   0.218E+02 0.938E+02 0.889E+02   -.205E+02 -.100E+03 -.940E+02   -.133E+01 0.628E+01 0.509E+01   0.273E-06 -.160E-06 0.138E-05
   0.218E+02 0.938E+02 0.889E+02   -.205E+02 -.100E+03 -.940E+02   -.133E+01 0.628E+01 0.509E+01   0.289E-06 -.138E-06 0.145E-05
   -.728E+02 0.962E+02 0.633E+02   0.755E+02 -.106E+03 -.654E+02   -.274E+01 0.971E+01 0.207E+01   -.849E-06 0.475E-06 0.558E-06
   -.728E+02 0.961E+02 0.633E+02   0.755E+02 -.106E+03 -.653E+02   -.274E+01 0.971E+01 0.207E+01   -.882E-06 0.449E-06 0.563E-06
   0.124E+02 -.420E+02 0.127E+03   -.126E+02 0.472E+02 -.134E+03   0.246E+00 -.519E+01 0.705E+01   -.666E-07 0.144E-08 0.126E-05
   0.124E+02 -.420E+02 0.127E+03   -.126E+02 0.472E+02 -.134E+03   0.246E+00 -.519E+01 0.705E+01   -.151E-06 -.219E-08 0.122E-05
 -----------------------------------------------------------------------------------------------
   -.580E-02 0.885E-02 -.193E-01   0.924E-13 0.185E-12 0.000E+00   0.580E-02 -.884E-02 0.193E-01   -.250E-07 -.355E-08 -.176E-07


 POSITION                                       TOTAL-FORCE (eV/Angst)
 -----------------------------------------------------------------------------------
      7.84031      7.96182     -7.59135         0.002410     -0.001251      0.000911
     16.23455      7.96182     -7.59135         0.002466     -0.001322      0.000989
      3.16872      2.44282     -6.01943         0.018352     -0.007637     -0.014609
     11.56297      2.44282     -6.01943         0.002148     -0.000875     -0.002530
      1.76685      7.82725    -10.10485         0.000064     -0.000213     -0.000271
     10.16110      7.82725    -10.10485        -0.000048      0.000017     -0.000501
      5.05050      1.12402     -8.41421         0.004198      0.075969      0.080071
     13.44475      1.12562     -8.40433         0.001616     -0.000677     -0.000710
      5.13205      1.09979     -2.45651        -0.000067      0.000321     -0.000517
     13.52630      1.09979     -2.45651        -0.000084      0.000447     -0.000314
      3.26219      7.47505     -8.62356        -0.000096     -0.000383      0.000168
     11.65644      7.47505     -8.62356         0.000106     -0.000445      0.000281
      3.34375      7.44923     -2.67574        -0.001663      0.000674      0.000696
     11.73799      7.44923     -2.67574        -0.001569      0.000612      0.000671
      7.36585      0.97835     -4.87422         0.001927      0.001152      0.002431
     15.76010      0.97835     -4.87422         0.002191      0.000919      0.002574
      2.43027      2.67356     -9.91842        -0.010554      0.008648     -0.006259
     10.82452      2.67356     -9.91842         0.000014      0.000008     -0.000387
      4.75106      2.80814     -7.40493         0.004344     -0.073953     -0.037320
     13.14531      2.80814     -7.40493        -0.002483     -0.001230      0.000981
      7.45932      6.25348     -2.64294        -0.000037      0.000405     -0.000295
     15.85356      6.25348     -2.64294         0.000121      0.000441     -0.000272
      1.02840      7.59650     -6.20585        -0.002165     -0.000729     -0.002593
      9.42265      7.59650     -6.20585        -0.002140     -0.000917     -0.002519
      0.85338      2.29554     -2.48931         0.001625      0.000827      0.000779
      9.24762      2.29554     -2.48931         0.001383      0.000794      0.000784
      3.64318      5.76671     -3.67515         0.002578      0.001289     -0.000940
     12.03743      5.76671     -3.67515         0.002476      0.001283     -0.000929
      0.55394      0.61303     -3.48872        -0.002481      0.001052     -0.001029
      8.94819      0.61303     -3.48872        -0.002582      0.000803     -0.001102
      5.79350     -0.03143     -4.03202        -0.001048      0.001790      0.000129
     14.18775     -0.03143     -4.03202        -0.001229      0.001780      0.000285
      4.85766      7.53946     -1.03917        -0.003915      0.001932     -0.000340
     13.25190      7.53946     -1.03917        -0.003942      0.002040     -0.000264
      5.96398      5.90128     -1.16165        -0.000005      0.000158      0.000571
     14.35822      5.90128     -1.16165        -0.000062      0.000006      0.000466
      3.53659      1.03539    -10.04090        -0.012345     -0.008381     -0.022793
     11.93084      1.03539    -10.04090         0.003942     -0.002086      0.000248
      6.62739      0.74760     -0.97522        -0.000100     -0.000144      0.000511
     15.02164      0.74760     -0.97522         0.000093     -0.000005      0.000364
      1.59638      3.45260     -6.86163        -0.001574     -0.001283     -0.002663
      9.99063      3.45260     -6.86163        -0.001224     -0.001823     -0.000286
      0.93493      2.32137     -8.43713         0.001506     -0.000326      0.001505
      9.32918      2.32137     -8.43713        -0.000081     -0.000352      0.000302
      7.54087      6.27930     -8.59076        -0.001567     -0.000634     -0.000634
     15.93512      6.27930     -8.59076        -0.001597     -0.000629     -0.000717
      2.60074      8.60628     -7.04805         0.001505     -0.001743     -0.000347
     10.99499      8.60628     -7.04805         0.001220     -0.001772     -0.000206
      7.73371      2.38578     -0.85274         0.004304      0.002411     -0.000125
     16.12796      2.38578     -0.85274         0.003895      0.002098     -0.000068
      0.66053      6.18907    -10.22733        -0.004029     -0.002133      0.000192
      9.05478      6.18907    -10.22733        -0.003958     -0.002055      0.000280
      6.79787      5.12225     -4.21845         0.001242      0.001701      0.000220
     15.19211      5.12225     -4.21845         0.001191      0.001794      0.000238
      5.22552      6.13203     -5.06065        -0.002104      0.000736      0.002402
     13.61977      6.13203     -5.06065        -0.002170      0.000892      0.002490
 -----------------------------------------------------------------------------------
    total drift:                               -0.000001      0.000002     -0.000008


--------------------------------------------------------------------------------------------------------



  FREE ENERGIE OF THE ION-ELECTRON SYSTEM (eV)
  ---------------------------------------------------
  free  energy   TOTEN  =      -229.37614877 eV

  energy  without entropy=     -229.37614877  energy(sigma->0) =     -229.37614877



--------------------------------------------------------------------------------------------------------


    POTLOK:  cpu time      8.1405: real time      8.1793


--------------------------------------------------------------------------------------------------------


     LOOP+:  cpu time   2541.3728: real time   2541.8617
    4ORBIT:  cpu time      0.0000: real time      0.0000



 total charge

# of ion       s       p       d       tot
------------------------------------------
    1        1.376   2.247   0.000   3.623
    2        1.376   2.247   0.000   3.623
    3        1.376   2.258   0.000   3.634
    4        1.376   2.258   0.000   3.635
    5        1.376   2.247   0.000   3.623
    6        1.376   2.247   0.000   3.623
    7        1.375   2.261   0.000   3.636
    8        1.375   2.262   0.000   3.638
    9        1.377   2.257   0.000   3.634
   10        1.377   2.257   0.000   3.634
   11        1.377   2.257   0.000   3.634
   12        1.377   2.257   0.000   3.634
   13        1.375   2.262   0.000   3.638
   14        1.375   2.262   0.000   3.638
   15        1.376   2.258   0.000   3.635
   16        1.376   2.258   0.000   3.635
   17        1.376   2.247   0.000   3.623
   18        1.376   2.247   0.000   3.623
   19        1.376   2.245   0.000   3.620
   20        1.376   2.247   0.000   3.623
   21        1.377   2.257   0.000   3.634
   22        1.377   2.257   0.000   3.634
   23        1.376   2.258   0.000   3.635
   24        1.376   2.258   0.000   3.635
   25        1.375   2.262   0.000   3.638
   26        1.375   2.262   0.000   3.638
   27        1.376   2.247   0.000   3.623
   28        1.376   2.247   0.000   3.623
   29        1.376   2.247   0.000   3.623
   30        1.376   2.247   0.000   3.623
   31        1.376   2.254   0.000   3.630
   32        1.376   2.254   0.000   3.630
   33        1.375   2.263   0.000   3.638
   34        1.375   2.263   0.000   3.638
   35        1.376   2.247   0.000   3.623
   36        1.376   2.247   0.000   3.623
   37        1.375   2.264   0.000   3.639
   38        1.375   2.263   0.000   3.638
   39        1.376   2.247   0.000   3.623
   40        1.376   2.247   0.000   3.623
   41        1.376   2.255   0.000   3.630
   42        1.376   2.254   0.000   3.630
   43        1.377   2.257   0.000   3.634
   44        1.377   2.257   0.000   3.634
   45        1.375   2.262   0.000   3.638
   46        1.375   2.262   0.000   3.638
   47        1.376   2.254   0.000   3.630
   48        1.376   2.254   0.000   3.630
   49        1.375   2.263   0.000   3.638
   50        1.375   2.263   0.000   3.638
   51        1.375   2.263   0.000   3.638
   52        1.375   2.263   0.000   3.638
   53        1.376   2.254   0.000   3.630
   54        1.376   2.254   0.000   3.630
   55        1.376   2.258   0.000   3.635
   56        1.376   2.258   0.000   3.635
--------------------------------------------------
tot         77.049 126.310   0.000 203.358



 magnetization (x)

# of ion       s       p       d       tot
------------------------------------------
    1        0.000   0.000   0.000   0.000
    2        0.000   0.000   0.000   0.000
    3        0.000   0.000   0.000   0.000
    4        0.000   0.000   0.000   0.000
    5        0.000   0.000   0.000   0.000
    6        0.000   0.000   0.000   0.000
    7        0.000   0.000   0.000   0.000
    8        0.000   0.000   0.000   0.000
    9        0.000   0.000   0.000   0.000
   10        0.000   0.000   0.000   0.000
   11        0.000   0.000   0.000   0.000
   12        0.000   0.000   0.000   0.000
   13        0.000   0.000   0.000   0.000
   14        0.000   0.000   0.000   0.000
   15        0.000   0.000   0.000   0.000
   16        0.000   0.000   0.000   0.000
   17        0.000   0.000   0.000   0.000
   18        0.000   0.000   0.000   0.000
   19        0.000   0.000   0.000   0.000
   20        0.000   0.000   0.000   0.000
   21        0.000   0.000   0.000   0.000
   22        0.000   0.000   0.000   0.000
   23        0.000   0.000   0.000   0.000
   24        0.000   0.000   0.000   0.000
   25        0.000   0.000   0.000   0.000
   26        0.000   0.000   0.000   0.000
   27        0.000   0.000   0.000   0.000
   28        0.000   0.000   0.000   0.000
   29        0.000   0.000   0.000   0.000
   30        0.000   0.000   0.000   0.000
   31        0.000   0.000   0.000   0.000
   32        0.000   0.000   0.000   0.000
   33        0.000   0.000   0.000   0.000
   34        0.000   0.000   0.000   0.000
   35        0.000   0.000   0.000   0.000
   36        0.000   0.000   0.000   0.000
   37        0.000   0.000   0.000   0.000
   38        0.000   0.000   0.000   0.000
   39        0.000   0.000   0.000   0.000
   40        0.000   0.000   0.000   0.000
   41        0.000   0.000   0.000   0.000
   42        0.000   0.000   0.000   0.000
   43        0.000   0.000   0.000   0.000
   44        0.000   0.000   0.000   0.000
   45        0.000   0.000   0.000   0.000
   46        0.000   0.000   0.000   0.000
   47        0.000   0.000   0.000   0.000
   48        0.000   0.000   0.000   0.000
   49        0.000   0.000   0.000   0.000
   50        0.000   0.000   0.000   0.000
   51        0.000   0.000   0.000   0.000
   52        0.000   0.000   0.000   0.000
   53        0.000   0.000   0.000   0.000
   54        0.000   0.000   0.000   0.000
   55        0.000   0.000   0.000   0.000
   56        0.000   0.000   0.000   0.000
--------------------------------------------------
tot          0.000   0.000   0.000   0.000

 BZINTS: Fermi energy:    0.079879;  336.000000 electrons
         Band energy:-0.201115E+04;  BLOECHL correction:    0.000000

 total amount of memory used by VASP MPI-rank0   322725. kBytes
=======================================================================

   base      :      30000. kBytes
   nonl-proj :      70692. kBytes
   fftplans  :      34504. kBytes
   grid      :      83442. kBytes
   one-center:        344. kBytes
   wavefun   :     103743. kBytes

  
  
 General timing and accounting informations for this job:
 ========================================================
  
                  Total CPU time used (sec):     2579.274
                            User time (sec):     2577.618
                          System time (sec):        1.656
                         Elapsed time (sec):     2580.082
  
                   Maximum memory used (kb):      604812.
                   Average memory used (kb):          N/A
  
                          Minor page faults:       805177
                          Major page faults:          189
                 Voluntary context switches:         2890
