  55  55   0   0
  0.2301251E+02  0.1218282E-08  0.7661564E-09  0.1373046E-08  0.5000000E-15
   1.0000000000000000E-004
  CAR 
 endpoint_relax                          
      9.88850047    -23.65213108  301      1.29408750      1.00000000
    -23.652  0.0000E+00  0.0000E+00
    -23.540  0.0000E+00  0.0000E+00
    -23.429  0.0000E+00  0.0000E+00
    -23.317 -0.1153E-30 -0.1289E-31
    -23.205 -0.8752E-27 -0.9787E-28
    -23.093 -0.3516E-23 -0.3932E-24
    -22.981 -0.7533E-20 -0.8426E-21
    -22.870 -0.8611E-17 -0.9636E-18
    -22.758 -0.5090E-14 -0.5700E-15
    -22.646 -0.1647E-11 -0.1847E-12
    -22.534 -0.2848E-09 -0.3202E-10
    -22.422 -0.2636E-07 -0.2979E-08
    -22.311 -0.1310E-05 -0.1494E-06
    -22.199 -0.3495E-04 -0.4057E-05
    -22.087 -0.4979E-03 -0.5973E-04
    -21.975 -0.3678E-02 -0.4709E-03
    -21.863 -0.1258E-01 -0.1878E-02
    -21.751 -0.7865E-02 -0.2757E-02
    -21.640  0.7675E-01  0.5824E-02
    -21.528  0.3068E+00  0.4013E-01
    -21.416  0.6830E+00  0.1165E+00
    -21.304  0.1028E+01  0.2314E+00
    -21.192  0.1056E+01  0.3495E+00
    -21.081  0.7287E+00  0.4309E+00
    -20.969  0.2832E+00  0.4626E+00
    -20.857  0.1755E-01  0.4646E+00
    -20.745 -0.2866E-01  0.4613E+00
    -20.633 -0.1043E-01  0.4602E+00
    -20.522 -0.1524E-02  0.4600E+00
    -20.410 -0.1093E-03  0.4600E+00
    -20.298 -0.4054E-05  0.4600E+00
    -20.186 -0.7938E-07  0.4600E+00
    -20.074 -0.8276E-09  0.4600E+00
    -19.963 -0.4613E-11  0.4600E+00
    -19.851 -0.1378E-13  0.4600E+00
    -19.739 -0.1324E-16  0.4600E+00
    -19.627  0.0000E+00  0.4600E+00
    -19.515  0.0000E+00  0.4600E+00
    -19.404  0.0000E+00  0.4600E+00
    -19.292  0.0000E+00  0.4600E+00
    -19.180  0.0000E+00  0.4600E+00
    -19.068  0.0000E+00  0.4600E+00
    -18.956  0.0000E+00  0.4600E+00
    -18.845  0.0000E+00  0.4600E+00
    -18.733  0.0000E+00  0.4600E+00
    -18.621  0.0000E+00  0.4600E+00
    -18.509  0.0000E+00  0.4600E+00
    -18.397  0.0000E+00  0.4600E+00
    -18.286  0.0000E+00  0.4600E+00
    -18.174  0.0000E+00  0.4600E+00
    -18.062  0.0000E+00  0.4600E+00
    -17.950  0.0000E+00  0.4600E+00
    -17.838  0.0000E+00  0.4600E+00
    -17.727  0.0000E+00  0.4600E+00
    -17.615  0.0000E+00  0.4600E+00
    -17.503  0.0000E+00  0.4600E+00
    -17.391  0.0000E+00  0.4600E+00
    -17.279  0.0000E+00  0.4600E+00
    -17.168  0.0000E+00  0.4600E+00
    -17.056  0.0000E+00  0.4600E+00
    -16.944  0.0000E+00  0.4600E+00
    -16.832  0.0000E+00  0.4600E+00
    -16.720  0.0000E+00  0.4600E+00
    -16.609  0.0000E+00  0.4600E+00
    -16.497  0.0000E+00  0.4600E+00
    -16.385  0.0000E+00  0.4600E+00
    -16.273  0.0000E+00  0.4600E+00
    -16.161  0.0000E+00  0.4600E+00
    -16.050  0.0000E+00  0.4600E+00
    -15.938  0.0000E+00  0.4600E+00
    -15.826  0.0000E+00  0.4600E+00
    -15.714  0.0000E+00  0.4600E+00
    -15.602  0.0000E+00  0.4600E+00
    -15.491  0.0000E+00  0.4600E+00
    -15.379  0.0000E+00  0.4600E+00
    -15.267  0.0000E+00  0.4600E+00
    -15.155  0.0000E+00  0.4600E+00
    -15.043  0.0000E+00  0.4600E+00
    -14.932  0.0000E+00  0.4600E+00
    -14.820  0.0000E+00  0.4600E+00
    -14.708  0.0000E+00  0.4600E+00
    -14.596  0.0000E+00  0.4600E+00
    -14.484  0.0000E+00  0.4600E+00
    -14.373  0.0000E+00  0.4600E+00
    -14.261  0.0000E+00  0.4600E+00
    -14.149  0.0000E+00  0.4600E+00
    -14.037  0.0000E+00  0.4600E+00
    -13.925  0.0000E+00  0.4600E+00
    -13.814  0.0000E+00  0.4600E+00
    -13.702  0.0000E+00  0.4600E+00
    -13.590  0.0000E+00  0.4600E+00
    -13.478  0.0000E+00  0.4600E+00
    -13.366  0.0000E+00  0.4600E+00
    -13.255  0.0000E+00  0.4600E+00
    -13.143  0.0000E+00  0.4600E+00
    -13.031  0.0000E+00  0.4600E+00
    -12.919  0.0000E+00  0.4600E+00
    -12.807  0.0000E+00  0.4600E+00
    -12.696  0.0000E+00  0.4600E+00
    -12.584 -0.1242E-31  0.4600E+00
    -12.472 -0.1086E-27  0.4600E+00
    -12.360 -0.5054E-24  0.4600E+00
    -12.248 -0.1252E-20  0.4600E+00
    -12.137 -0.1652E-17  0.4600E+00
    -12.025 -0.1122E-14  0.4600E+00
    -11.913 -0.4159E-12  0.4600E+00
    -11.801 -0.8158E-10  0.4600E+00
    -11.689 -0.8459E-08  0.4600E+00
    -11.578 -0.4618E-06  0.4600E+00
    -11.466 -0.1317E-04  0.4600E+00
    -11.354 -0.1927E-03  0.4600E+00
    -11.242 -0.1370E-02  0.4598E+00
    -11.130 -0.3767E-02  0.4594E+00
    -11.018  0.3843E-02  0.4598E+00
    -10.907  0.4369E-01  0.4647E+00
    -10.795  0.9208E-01  0.4750E+00
    -10.683  0.8182E-01  0.4842E+00
    -10.571  0.2807E-01  0.4873E+00
    -10.459 -0.1755E-02  0.4871E+00
    -10.348 -0.4837E-02  0.4866E+00
    -10.236 -0.4654E-02  0.4860E+00
    -10.124  0.4040E-02  0.4865E+00
    -10.012  0.4179E-01  0.4912E+00
     -9.900  0.9578E-01  0.5019E+00
     -9.789  0.1294E+00  0.5163E+00
     -9.677  0.1369E+00  0.5316E+00
     -9.565  0.1458E+00  0.5479E+00
     -9.453  0.1883E+00  0.5690E+00
     -9.341  0.2230E+00  0.5939E+00
     -9.230  0.1739E+00  0.6134E+00
     -9.118  0.6754E-01  0.6209E+00
     -9.006  0.1677E-02  0.6211E+00
     -8.894 -0.7313E-02  0.6203E+00
     -8.782 -0.2247E-02  0.6200E+00
     -8.671 -0.2809E-03  0.6200E+00
     -8.559 -0.1703E-04  0.6200E+00
     -8.447 -0.5260E-06  0.6200E+00
     -8.335 -0.8452E-08  0.6200E+00
     -8.223 -0.7135E-10  0.6200E+00
     -8.112 -0.3182E-12  0.6200E+00
     -8.000 -0.7547E-15  0.6200E+00
     -7.888  0.0000E+00  0.6200E+00
     -7.776  0.0000E+00  0.6200E+00
     -7.664  0.0000E+00  0.6200E+00
     -7.553  0.0000E+00  0.6200E+00
     -7.441  0.0000E+00  0.6200E+00
     -7.329  0.0000E+00  0.6200E+00
     -7.217  0.0000E+00  0.6200E+00
     -7.105  0.0000E+00  0.6200E+00
     -6.994  0.0000E+00  0.6200E+00
     -6.882  0.0000E+00  0.6200E+00
     -6.770  0.0000E+00  0.6200E+00
     -6.658  0.0000E+00  0.6200E+00
     -6.546  0.0000E+00  0.6200E+00
     -6.435  0.0000E+00  0.6200E+00
     -6.323  0.0000E+00  0.6200E+00
     -6.211  0.0000E+00  0.6200E+00
     -6.099  0.0000E+00  0.6200E+00
     -5.987  0.0000E+00  0.6200E+00
     -5.876  0.0000E+00  0.6200E+00
     -5.764  0.0000E+00  0.6200E+00
     -5.652  0.0000E+00  0.6200E+00
     -5.540  0.0000E+00  0.6200E+00
     -5.428  0.0000E+00  0.6200E+00
     -5.317  0.0000E+00  0.6200E+00
     -5.205  0.0000E+00  0.6200E+00
     -5.093  0.0000E+00  0.6200E+00
     -4.981  0.0000E+00  0.6200E+00
     -4.869 -0.1959E-31  0.6200E+00
     -4.758 -0.1701E-27  0.6200E+00
     -4.646 -0.7723E-24  0.6200E+00
     -4.534 -0.1870E-20  0.6200E+00
     -4.422 -0.2414E-17  0.6200E+00
     -4.310 -0.1610E-14  0.6200E+00
     -4.199 -0.5848E-12  0.6200E+00
     -4.087 -0.1127E-09  0.6200E+00
     -3.975 -0.1149E-07  0.6200E+00
     -3.863 -0.6147E-06  0.6200E+00
     -3.751 -0.1709E-04  0.6200E+00
     -3.640 -0.2410E-03  0.6200E+00
     -3.528 -0.1625E-02  0.6198E+00
     -3.416 -0.4182E-02  0.6193E+00
     -3.304  0.3781E-02  0.6197E+00
     -3.192  0.4367E-01  0.6246E+00
     -3.081  0.1082E+00  0.6367E+00
     -2.969  0.1517E+00  0.6537E+00
     -2.857  0.1265E+00  0.6678E+00
     -2.745  0.5264E-01  0.6737E+00
     -2.633  0.3615E-02  0.6741E+00
     -2.522 -0.4903E-02  0.6736E+00
     -2.410 -0.1790E-02  0.6734E+00
     -2.298 -0.3742E-03  0.6733E+00
     -2.186 -0.9619E-03  0.6732E+00
     -2.074 -0.3388E-02  0.6728E+00
     -1.963 -0.6838E-03  0.6728E+00
     -1.851  0.2814E-01  0.6759E+00
     -1.739  0.8086E-01  0.6849E+00
     -1.627  0.1126E+00  0.6975E+00
     -1.515  0.1146E+00  0.7103E+00
     -1.404  0.1172E+00  0.7234E+00
     -1.292  0.1131E+00  0.7361E+00
     -1.180  0.8715E-01  0.7458E+00
     -1.068  0.6683E-01  0.7533E+00
     -0.956  0.7775E-01  0.7620E+00
     -0.845  0.9433E-01  0.7725E+00
     -0.733  0.7994E-01  0.7815E+00
     -0.621  0.6119E-01  0.7883E+00
     -0.509  0.9958E-01  0.7995E+00
     -0.397  0.1835E+00  0.8200E+00
     -0.285  0.2310E+00  0.8458E+00
     -0.174  0.1994E+00  0.8681E+00
     -0.062  0.1360E+00  0.8833E+00
      0.050  0.1115E+00  0.8958E+00
      0.162  0.1365E+00  0.9110E+00
      0.274  0.1466E+00  0.9274E+00
      0.385  0.1195E+00  0.9408E+00
      0.497  0.1148E+00  0.9536E+00
      0.609  0.1684E+00  0.9724E+00
      0.721  0.2356E+00  0.9988E+00
      0.833  0.2500E+00  0.1027E+01
      0.944  0.2161E+00  0.1051E+01
      1.056  0.1687E+00  0.1070E+01
      1.168  0.1325E+00  0.1085E+01
      1.280  0.9942E-01  0.1096E+01
      1.392  0.4309E-01  0.1100E+01
      1.503  0.1983E-02  0.1101E+01
      1.615 -0.4640E-02  0.1100E+01
      1.727 -0.1477E-02  0.1100E+01
      1.839 -0.1874E-03  0.1100E+01
      1.951 -0.1153E-04  0.1100E+01
      2.062 -0.3634E-06  0.1100E+01
      2.174 -0.5993E-08  0.1100E+01
      2.286 -0.5220E-10  0.1100E+01
      2.398 -0.2412E-12  0.1100E+01
      2.510 -0.5958E-15  0.1100E+01
      2.621 -0.1537E-28  0.1100E+01
      2.733 -0.8210E-25  0.1100E+01
      2.845 -0.2334E-21  0.1100E+01
      2.957 -0.3528E-18  0.1100E+01
      3.069 -0.2732E-15  0.1100E+01
      3.180 -0.1161E-12  0.1100E+01
      3.292 -0.2586E-10  0.1100E+01
      3.404 -0.3020E-08  0.1100E+01
      3.516 -0.1834E-06  0.1100E+01
      3.628 -0.5694E-05  0.1100E+01
      3.739 -0.8748E-04  0.1100E+01
      3.851 -0.6111E-03  0.1100E+01
      3.963 -0.1346E-02  0.1100E+01
      4.075  0.3399E-02  0.1100E+01
      4.187  0.1882E-01  0.1102E+01
      4.298  0.2673E-01  0.1105E+01
      4.410  0.1364E-01  0.1107E+01
      4.522  0.7931E-03  0.1107E+01
      4.634 -0.1280E-02  0.1107E+01
      4.746 -0.3800E-03  0.1107E+01
      4.857 -0.1582E-03  0.1107E+01
      4.969 -0.9725E-03  0.1107E+01
      5.081 -0.3326E-02  0.1106E+01
      5.193  0.1737E-03  0.1106E+01
      5.305  0.2976E-01  0.1110E+01
      5.416  0.7989E-01  0.1118E+01
      5.528  0.1008E+00  0.1130E+01
      5.640  0.7830E-01  0.1138E+01
      5.752  0.6634E-01  0.1146E+01
      5.864  0.7863E-01  0.1155E+01
      5.975  0.7440E-01  0.1163E+01
      6.087  0.7524E-01  0.1171E+01
      6.199  0.1036E+00  0.1183E+01
      6.311  0.1151E+00  0.1196E+01
      6.423  0.1008E+00  0.1207E+01
      6.534  0.9886E-01  0.1218E+01
      6.646  0.1128E+00  0.1231E+01
      6.758  0.1146E+00  0.1244E+01
      6.870  0.1169E+00  0.1257E+01
      6.982  0.1481E+00  0.1273E+01
      7.093  0.1730E+00  0.1293E+01
      7.205  0.1377E+00  0.1308E+01
      7.317  0.7539E-01  0.1316E+01
      7.429  0.5861E-01  0.1323E+01
      7.541  0.1050E+00  0.1335E+01
      7.652  0.1546E+00  0.1352E+01
      7.764  0.1524E+00  0.1369E+01
      7.876  0.1075E+00  0.1381E+01
      7.988  0.4898E-01  0.1387E+01
      8.100  0.7476E-02  0.1387E+01
      8.211 -0.3852E-02  0.1387E+01
      8.323 -0.1957E-02  0.1387E+01
      8.435 -0.3405E-03  0.1387E+01
      8.547 -0.2782E-04  0.1387E+01
      8.659 -0.1146E-05  0.1387E+01
      8.770 -0.2444E-07  0.1387E+01
      8.882 -0.2733E-09  0.1387E+01
      8.994 -0.1612E-11  0.1387E+01
      9.106 -0.5031E-14  0.1387E+01
      9.218 -0.1324E-16  0.1387E+01
      9.329  0.0000E+00  0.1387E+01
      9.441  0.0000E+00  0.1387E+01
      9.553  0.0000E+00  0.1387E+01
      9.665  0.0000E+00  0.1387E+01
      9.777  0.0000E+00  0.1387E+01
      9.889  0.0000E+00  0.1387E+01
