       N       E                     dE             d eps       ncg     rms          rms(c)
DAV:   1     0.289281126224E+04    0.28928E+04   -0.13285E+05   464   0.130E+03
DAV:   2     0.152461232616E+03   -0.27404E+04   -0.26290E+04   448   0.361E+02
DAV:   3    -0.214854899159E+03   -0.36732E+03   -0.36330E+03   496   0.146E+02
DAV:   4    -0.233618141786E+03   -0.18763E+02   -0.18640E+02   496   0.325E+01
DAV:   5    -0.234386747636E+03   -0.76861E+00   -0.76733E+00   560   0.679E+00    0.247E+01
RMM:   6    -0.223198449249E+03    0.11188E+02   -0.18976E+01   434   0.555E+00    0.167E+01
RMM:   7    -0.222918423213E+03    0.28003E+00   -0.21459E+01   439   0.515E+00    0.102E+01
RMM:   8    -0.222499177060E+03    0.41925E+00   -0.23603E+00   549   0.284E+00    0.642E+00
RMM:   9    -0.222189244563E+03    0.30993E+00   -0.17452E+00   426   0.166E+00    0.209E+00
RMM:  10    -0.222089701202E+03    0.99543E-01   -0.30218E-01   534   0.970E-01    0.179E+00
RMM:  11    -0.222062187439E+03    0.27514E-01   -0.77550E-02   476   0.442E-01    0.878E-01
RMM:  12    -0.222061990829E+03    0.19661E-03   -0.42607E-02   478   0.306E-01    0.625E-01
RMM:  13    -0.222061108015E+03    0.88281E-03   -0.11066E-02   466   0.208E-01    0.435E-01
RMM:  14    -0.222061220330E+03   -0.11231E-03   -0.63687E-03   494   0.131E-01    0.299E-01
RMM:  15    -0.222060667818E+03    0.55251E-03   -0.17233E-03   507   0.757E-02    0.232E-01
RMM:  16    -0.222061224570E+03   -0.55675E-03   -0.10869E-03   399   0.501E-02    0.132E-01
RMM:  17    -0.222061141773E+03    0.82796E-04   -0.58443E-04   409   0.422E-02    0.705E-02
RMM:  18    -0.222061086208E+03    0.55565E-04   -0.11250E-04   433   0.217E-02    0.379E-02
RMM:  19    -0.222061068779E+03    0.17429E-04   -0.38463E-05   361   0.140E-02    0.206E-02
RMM:  20    -0.222061072200E+03   -0.34212E-05   -0.18550E-05   276   0.865E-03
   1 F= -.22206107E+03 E0= -.22208610E+03  d E =-.222061E+03
       N       E                     dE             d eps       ncg     rms          rms(c)
DAV:   1    -0.222101002852E+03   -0.39934E-01   -0.47106E+00   480   0.375E+00    0.121E+00
RMM:   2    -0.222116650143E+03   -0.15647E-01   -0.17845E-01   499   0.954E-01    0.212E-01
RMM:   3    -0.222120585078E+03   -0.39349E-02   -0.45888E-02   526   0.473E-01    0.435E-01
RMM:   4    -0.222120572689E+03    0.12389E-04   -0.51328E-03   537   0.170E-01    0.334E-01
RMM:   5    -0.222120284721E+03    0.28797E-03   -0.63961E-04   468   0.483E-02    0.281E-01
RMM:   6    -0.222120127968E+03    0.15675E-03   -0.14766E-04   434   0.230E-02    0.244E-01
RMM:   7    -0.222119874151E+03    0.25382E-03   -0.11316E-03   477   0.381E-02    0.760E-02
RMM:   8    -0.222119860319E+03    0.13832E-04   -0.38461E-04   457   0.267E-02    0.350E-02
RMM:   9    -0.222119853382E+03    0.69370E-05   -0.36267E-05   355   0.123E-02
   2 F= -.22211985E+03 E0= -.22214441E+03  d E =-.587812E-01
       N       E                     dE             d eps       ncg     rms          rms(c)
DAV:   1    -0.222115522730E+03    0.43376E-02   -0.96537E+00   448   0.546E+00    0.180E+00
RMM:   2    -0.222145503699E+03   -0.29981E-01   -0.34766E-01   490   0.138E+00    0.346E-01
RMM:   3    -0.222153961194E+03   -0.84575E-02   -0.10005E-01   544   0.727E-01    0.667E-01
RMM:   4    -0.222154102844E+03   -0.14165E-03   -0.10253E-02   519   0.248E-01    0.495E-01
RMM:   5    -0.222153839449E+03    0.26339E-03   -0.12958E-03   526   0.700E-02    0.459E-01
RMM:   6    -0.222153880742E+03   -0.41293E-04   -0.13286E-04   450   0.243E-02    0.471E-01
RMM:   7    -0.222152775376E+03    0.11054E-02   -0.41477E-03   528   0.730E-02    0.128E-01
RMM:   8    -0.222152819531E+03   -0.44155E-04   -0.10753E-03   505   0.449E-02    0.833E-02
RMM:   9    -0.222152777749E+03    0.41781E-04   -0.65738E-05   405   0.178E-02    0.729E-02
RMM:  10    -0.222152714748E+03    0.63002E-04   -0.30609E-04   465   0.244E-02    0.160E-02
RMM:  11    -0.222152714014E+03    0.73330E-06   -0.25708E-05   315   0.995E-03
   3 F= -.22215271E+03 E0= -.22217600E+03  d E =-.916418E-01
       N       E                     dE             d eps       ncg     rms          rms(c)
DAV:   1    -0.222180642098E+03   -0.27927E-01   -0.55067E+00   448   0.410E+00    0.918E-01
RMM:   2    -0.222194643419E+03   -0.14001E-01   -0.15578E-01   501   0.956E-01    0.145E-01
RMM:   3    -0.222198333289E+03   -0.36899E-02   -0.40404E-02   535   0.478E-01    0.373E-01
RMM:   4    -0.222198496891E+03   -0.16360E-03   -0.55534E-03   531   0.180E-01    0.298E-01
RMM:   5    -0.222198153265E+03    0.34363E-03   -0.50160E-04   443   0.482E-02    0.221E-01
RMM:   6    -0.222197937884E+03    0.21538E-03   -0.14854E-03   384   0.503E-02    0.767E-02
RMM:   7    -0.222198031528E+03   -0.93645E-04   -0.90178E-04   433   0.417E-02    0.647E-02
RMM:   8    -0.222197958090E+03    0.73438E-04   -0.81121E-05   370   0.203E-02    0.452E-02
RMM:   9    -0.222197933760E+03    0.24330E-04   -0.44164E-04   446   0.232E-02    0.158E-02
RMM:  10    -0.222197924329E+03    0.94309E-05   -0.21710E-05   298   0.106E-02
   4 F= -.22219792E+03 E0= -.22222047E+03  d E =-.452103E-01
       N       E                     dE             d eps       ncg     rms          rms(c)
DAV:   1    -0.222113190975E+03    0.84743E-01   -0.49889E+01   416   0.124E+01    0.312E+00
RMM:   2    -0.222245258116E+03   -0.13207E+00   -0.14736E+00   500   0.290E+00    0.454E-01
RMM:   3    -0.222282061940E+03   -0.36804E-01   -0.40559E-01   538   0.154E+00    0.118E+00
RMM:   4    -0.222283351563E+03   -0.12896E-02   -0.46843E-02   521   0.548E-01    0.991E-01
RMM:   5    -0.222280708023E+03    0.26435E-02   -0.54487E-03   494   0.162E-01    0.793E-01
RMM:   6    -0.222278487718E+03    0.22203E-02   -0.69418E-03   412   0.120E-01    0.405E-01
RMM:   7    -0.222278851409E+03   -0.36369E-03   -0.10579E-02   489   0.128E-01    0.158E-01
RMM:   8    -0.222278630243E+03    0.22117E-03   -0.66251E-04   457   0.630E-02    0.147E-01
RMM:   9    -0.222278273498E+03    0.35674E-03   -0.18541E-03   422   0.584E-02    0.399E-02
RMM:  10    -0.222278289872E+03   -0.16374E-04   -0.22768E-04   487   0.292E-02    0.359E-02
RMM:  11    -0.222278270274E+03    0.19598E-04   -0.53237E-05   335   0.121E-02    0.218E-02
RMM:  12    -0.222278276098E+03   -0.58237E-05   -0.44897E-05   345   0.965E-03
   5 F= -.22227828E+03 E0= -.22229848E+03  d E =-.125562E+00
       N       E                     dE             d eps       ncg     rms          rms(c)
DAV:   1    -0.222252209827E+03    0.26060E-01   -0.10646E+01   448   0.556E+00    0.130E+00
RMM:   2    -0.222279572512E+03   -0.27363E-01   -0.30415E-01   501   0.131E+00    0.203E-01
RMM:   3    -0.222287121536E+03   -0.75490E-02   -0.82119E-02   533   0.662E-01    0.539E-01
RMM:   4    -0.222287324573E+03   -0.20304E-03   -0.89229E-03   532   0.234E-01    0.431E-01
RMM:   5    -0.222286782091E+03    0.54248E-03   -0.90515E-04   459   0.644E-02    0.350E-01
RMM:   6    -0.222286210104E+03    0.57199E-03   -0.17285E-03   373   0.566E-02    0.170E-01
RMM:   7    -0.222286360354E+03   -0.15025E-03   -0.25799E-03   457   0.620E-02    0.799E-02
RMM:   8    -0.222286291999E+03    0.68355E-04   -0.14119E-04   398   0.290E-02    0.706E-02
RMM:   9    -0.222286202613E+03    0.89386E-04   -0.61301E-04   431   0.284E-02    0.197E-02
RMM:  10    -0.222286199238E+03    0.33749E-05   -0.27682E-05   366   0.132E-02
   6 F= -.22228620E+03 E0= -.22230539E+03  d E =-.133485E+00
       N       E                     dE             d eps       ncg     rms          rms(c)
DAV:   1    -0.222267506916E+03    0.18696E-01   -0.22558E+01   448   0.815E+00    0.174E+00
RMM:   2    -0.222320542958E+03   -0.53036E-01   -0.58874E-01   510   0.185E+00    0.289E-01
RMM:   3    -0.222333868865E+03   -0.13326E-01   -0.14862E-01   519   0.922E-01    0.627E-01
RMM:   4    -0.222334288966E+03   -0.42010E-03   -0.17409E-02   545   0.346E-01    0.524E-01
RMM:   5    -0.222333250456E+03    0.10385E-02   -0.17196E-03   455   0.902E-02    0.393E-01
RMM:   6    -0.222332571373E+03    0.67908E-03   -0.33770E-03   405   0.823E-02    0.144E-01
RMM:   7    -0.222332777648E+03   -0.20628E-03   -0.22048E-03   456   0.687E-02    0.802E-02
RMM:   8    -0.222332620111E+03    0.15754E-03   -0.30799E-04   383   0.372E-02    0.376E-02
RMM:   9    -0.222332665184E+03   -0.45074E-04   -0.72715E-04   418   0.342E-02    0.426E-02
RMM:  10    -0.222332613501E+03    0.51683E-04   -0.97626E-05   351   0.185E-02    0.189E-02
RMM:  11    -0.222332616382E+03   -0.28813E-05   -0.12144E-04   388   0.136E-02    0.170E-02
RMM:  12    -0.222332612195E+03    0.41873E-05   -0.14982E-05   261   0.788E-03
   7 F= -.22233261E+03 E0= -.22235028E+03  d E =-.464130E-01
       N       E                     dE             d eps       ncg     rms          rms(c)
DAV:   1    -0.222310824268E+03    0.21792E-01   -0.11602E+01   448   0.585E+00    0.122E+00
RMM:   2    -0.222337588295E+03   -0.26764E-01   -0.29701E-01   509   0.131E+00    0.203E-01
RMM:   3    -0.222344240044E+03   -0.66517E-02   -0.74005E-02   517   0.646E-01    0.452E-01
RMM:   4    -0.222344487688E+03   -0.24764E-03   -0.90754E-03   546   0.244E-01    0.373E-01
RMM:   5    -0.222343926003E+03    0.56168E-03   -0.81824E-04   434   0.627E-02    0.274E-01
RMM:   6    -0.222343609618E+03    0.31639E-03   -0.27560E-03   406   0.699E-02    0.647E-02
RMM:   7    -0.222343704755E+03   -0.95138E-04   -0.78955E-04   472   0.473E-02    0.601E-02
RMM:   8    -0.222343604098E+03    0.10066E-03   -0.32617E-04   361   0.268E-02    0.207E-02
RMM:   9    -0.222343631487E+03   -0.27389E-04   -0.21789E-04   428   0.214E-02    0.250E-02
RMM:  10    -0.222343609361E+03    0.22126E-04   -0.42221E-05   349   0.117E-02    0.129E-02
RMM:  11    -0.222343611066E+03   -0.17049E-05   -0.47499E-05   342   0.891E-03
   8 F= -.22234361E+03 E0= -.22236014E+03  d E =-.574118E-01
       N       E                     dE             d eps       ncg     rms          rms(c)
DAV:   1    -0.222329350341E+03    0.14259E-01   -0.22537E+01   464   0.800E+00    0.137E+00
RMM:   2    -0.222374337443E+03   -0.44987E-01   -0.48594E-01   522   0.171E+00    0.235E-01
RMM:   3    -0.222385266698E+03   -0.10929E-01   -0.11965E-01   506   0.835E-01    0.438E-01
RMM:   4    -0.222386374524E+03   -0.11078E-02   -0.17461E-02   562   0.340E-01    0.354E-01
RMM:   5    -0.222385853068E+03    0.52146E-03   -0.10650E-03   456   0.745E-02    0.286E-01
RMM:   6    -0.222385387952E+03    0.46512E-03   -0.22927E-03   406   0.726E-02    0.119E-01
RMM:   7    -0.222385563399E+03   -0.17545E-03   -0.15484E-03   437   0.601E-02    0.653E-02
RMM:   8    -0.222385429657E+03    0.13374E-03   -0.25421E-04   388   0.323E-02    0.288E-02
RMM:   9    -0.222385462583E+03   -0.32926E-04   -0.51535E-04   422   0.305E-02    0.282E-02
RMM:  10    -0.222385426998E+03    0.35585E-04   -0.84249E-05   347   0.173E-02    0.136E-02
RMM:  11    -0.222385430873E+03   -0.38743E-05   -0.64554E-05   375   0.105E-02
   9 F= -.22238543E+03 E0= -.22240082E+03  d E =-.418198E-01
       N       E                     dE             d eps       ncg     rms          rms(c)
DAV:   1    -0.222275030449E+03    0.11040E+00   -0.49741E+01   448   0.120E+01    0.209E+00
RMM:   2    -0.222381286677E+03   -0.10626E+00   -0.11449E+00   525   0.258E+00    0.382E-01
RMM:   3    -0.222405951166E+03   -0.24664E-01   -0.27286E-01   504   0.132E+00    0.640E-01
RMM:   4    -0.222408803592E+03   -0.28524E-02   -0.42587E-02   564   0.513E-01    0.530E-01
RMM:   5    -0.222407647695E+03    0.11559E-02   -0.24930E-03   463   0.116E-01    0.425E-01
RMM:   6    -0.222406670140E+03    0.97756E-03   -0.52287E-03   411   0.110E-01    0.164E-01
RMM:   7    -0.222407030098E+03   -0.35996E-03   -0.30836E-03   451   0.871E-02    0.956E-02
RMM:   8    -0.222406734554E+03    0.29554E-03   -0.76998E-04   407   0.513E-02    0.355E-02
RMM:   9    -0.222406821094E+03   -0.86540E-04   -0.80810E-04   420   0.411E-02    0.404E-02
RMM:  10    -0.222406748771E+03    0.72323E-04   -0.18603E-04   372   0.259E-02    0.174E-02
RMM:  11    -0.222406760497E+03   -0.11727E-04   -0.11671E-04   391   0.150E-02    0.172E-02
RMM:  12    -0.222406752258E+03    0.82394E-05   -0.21454E-05   293   0.947E-03
  10 F= -.22240675E+03 E0= -.22241978E+03  d E =-.631412E-01
       N       E                     dE             d eps       ncg     rms          rms(c)
DAV:   1    -0.222390299968E+03    0.16461E-01   -0.19581E+01   464   0.727E+00    0.105E+00
RMM:   2    -0.222425905341E+03   -0.35605E-01   -0.38018E-01   538   0.147E+00    0.249E-01
RMM:   3    -0.222433899427E+03   -0.79941E-02   -0.87619E-02   513   0.721E-01    0.297E-01
RMM:   4    -0.222435103965E+03   -0.12045E-02   -0.16155E-02   562   0.308E-01    0.244E-01
RMM:   5    -0.222434842534E+03    0.26143E-03   -0.96378E-04   448   0.689E-02    0.191E-01
RMM:   6    -0.222434689592E+03    0.15294E-03   -0.93066E-04   403   0.520E-02    0.922E-02
RMM:   7    -0.222434754360E+03   -0.64768E-04   -0.65081E-04   469   0.424E-02    0.420E-02
RMM:   8    -0.222434711728E+03    0.42632E-04   -0.90997E-05   365   0.207E-02    0.230E-02
RMM:   9    -0.222434716427E+03   -0.46992E-05   -0.14803E-04   362   0.182E-02    0.146E-02
RMM:  10    -0.222434711380E+03    0.50475E-05   -0.14806E-05   275   0.106E-02
  11 F= -.22243471E+03 E0= -.22244660E+03  d E =-.279591E-01
       N       E                     dE             d eps       ncg     rms          rms(c)
DAV:   1    -0.222398748089E+03    0.35968E-01   -0.22003E+01   464   0.782E+00    0.112E+00
RMM:   2    -0.222438644157E+03   -0.39896E-01   -0.42796E-01   539   0.158E+00    0.274E-01
RMM:   3    -0.222447780333E+03   -0.91362E-02   -0.10086E-01   512   0.753E-01    0.308E-01
RMM:   4    -0.222449049035E+03   -0.12687E-02   -0.17309E-02   564   0.322E-01    0.255E-01
RMM:   5    -0.222448747984E+03    0.30105E-03   -0.94771E-04   450   0.705E-02    0.201E-01
RMM:   6    -0.222448578726E+03    0.16926E-03   -0.10529E-03   404   0.554E-02    0.975E-02
RMM:   7    -0.222448650811E+03   -0.72085E-04   -0.71940E-04   467   0.448E-02    0.444E-02
RMM:   8    -0.222448600429E+03    0.50382E-04   -0.11424E-04   369   0.228E-02    0.242E-02
RMM:   9    -0.222448609039E+03   -0.86103E-05   -0.16286E-04   364   0.194E-02    0.157E-02
RMM:  10    -0.222448602126E+03    0.69132E-05   -0.16212E-05   281   0.111E-02
  12 F= -.22244860E+03 E0= -.22245929E+03  d E =-.418499E-01
       N       E                     dE             d eps       ncg     rms          rms(c)
DAV:   1    -0.222443849669E+03    0.47594E-02   -0.27808E+00   464   0.272E+00    0.391E-01
RMM:   2    -0.222448603266E+03   -0.47536E-02   -0.50669E-02   542   0.548E-01    0.973E-02
RMM:   3    -0.222449614512E+03   -0.10112E-02   -0.10764E-02   511   0.250E-01    0.103E-01
RMM:   4    -0.222449749433E+03   -0.13492E-03   -0.19245E-03   565   0.108E-01    0.848E-02
RMM:   5    -0.222449715990E+03    0.33443E-04   -0.12574E-04   409   0.245E-02    0.662E-02
RMM:   6    -0.222449699037E+03    0.16953E-04   -0.12543E-04   365   0.191E-02    0.305E-02
RMM:   7    -0.222449707753E+03   -0.87160E-05   -0.71985E-05   405   0.147E-02
  13 F= -.22244971E+03 E0= -.22245998E+03  d E =-.429555E-01
       N       E                     dE             d eps       ncg     rms          rms(c)
DAV:   1    -0.222444530826E+03    0.51682E-02   -0.14679E+01   464   0.604E+00    0.784E-01
RMM:   2    -0.222468922311E+03   -0.24391E-01   -0.26094E-01   527   0.120E+00    0.177E-01
RMM:   3    -0.222475372390E+03   -0.64501E-02   -0.70144E-02   526   0.587E-01    0.237E-01
RMM:   4    -0.222475875114E+03   -0.50272E-03   -0.75996E-03   544   0.222E-01    0.193E-01
RMM:   5    -0.222475744094E+03    0.13102E-03   -0.61602E-04   461   0.552E-02    0.155E-01
RMM:   6    -0.222475642739E+03    0.10135E-03   -0.45951E-04   387   0.368E-02    0.814E-02
RMM:   7    -0.222475667230E+03   -0.24491E-04   -0.43824E-04   431   0.331E-02    0.307E-02
RMM:   8    -0.222475644675E+03    0.22555E-04   -0.46567E-05   376   0.181E-02    0.155E-02
RMM:   9    -0.222475644302E+03    0.37326E-06   -0.71978E-05   354   0.142E-02
  14 F= -.22247564E+03 E0= -.22248569E+03  d E =-.259365E-01
       N       E                     dE             d eps       ncg     rms          rms(c)
DAV:   1    -0.222430155134E+03    0.45490E-01   -0.29597E+01   448   0.851E+00    0.112E+00
RMM:   2    -0.222483269162E+03   -0.53114E-01   -0.56601E-01   525   0.172E+00    0.252E-01
RMM:   3    -0.222497030544E+03   -0.13761E-01   -0.15059E-01   529   0.854E-01    0.337E-01
RMM:   4    -0.222498331411E+03   -0.13009E-02   -0.18414E-02   540   0.334E-01    0.275E-01
RMM:   5    -0.222498069514E+03    0.26190E-03   -0.12559E-03   477   0.775E-02    0.220E-01
RMM:   6    -0.222497882715E+03    0.18680E-03   -0.82082E-04   407   0.506E-02    0.120E-01
RMM:   7    -0.222497907773E+03   -0.25058E-04   -0.83220E-04   447   0.454E-02    0.411E-02
RMM:   8    -0.222497875777E+03    0.31996E-04   -0.76095E-05   394   0.250E-02    0.231E-02
RMM:   9    -0.222497869467E+03    0.63104E-05   -0.10479E-04   355   0.187E-02    0.146E-02
RMM:  10    -0.222497869335E+03    0.13158E-06   -0.14518E-05   285   0.943E-03
  15 F= -.22249787E+03 E0= -.22250766E+03  d E =-.481616E-01
       N       E                     dE             d eps       ncg     rms          rms(c)
DAV:   1    -0.222147541431E+03    0.35033E+00   -0.12507E+02   448   0.181E+01    0.232E+00
RMM:   2    -0.222421478708E+03   -0.27394E+00   -0.28890E+00   527   0.376E+00    0.558E-01
RMM:   3    -0.222487032890E+03   -0.65554E-01   -0.71479E-01   526   0.190E+00    0.672E-01
RMM:   4    -0.222493334464E+03   -0.63016E-02   -0.83462E-02   549   0.707E-01    0.568E-01
RMM:   5    -0.222492474025E+03    0.86044E-03   -0.57000E-03   489   0.171E-01    0.473E-01
RMM:   6    -0.222491841088E+03    0.63294E-03   -0.24056E-03   441   0.957E-02    0.308E-01
RMM:   7    -0.222491729504E+03    0.11158E-03   -0.34338E-03   457   0.910E-02    0.876E-02
RMM:   8    -0.222491751686E+03   -0.22182E-04   -0.68689E-04   544   0.565E-02    0.694E-02
RMM:   9    -0.222491624472E+03    0.12721E-03   -0.52123E-04   378   0.397E-02    0.385E-02
RMM:  10    -0.222491652167E+03   -0.27695E-04   -0.21549E-04   478   0.257E-02    0.395E-02
RMM:  11    -0.222491627695E+03    0.24472E-04   -0.11513E-04   348   0.168E-02    0.151E-02
RMM:  12    -0.222491633052E+03   -0.53568E-05   -0.40907E-05   369   0.110E-02
  16 F= -.22249163E+03 E0= -.22250107E+03  d E =-.419253E-01
       N       E                     dE             d eps       ncg     rms          rms(c)
DAV:   1    -0.222400757749E+03    0.90870E-01   -0.43083E+01   448   0.104E+01    0.138E+00
RMM:   2    -0.222481189502E+03   -0.80432E-01   -0.85915E-01   523   0.207E+00    0.299E-01
RMM:   3    -0.222502100193E+03   -0.20911E-01   -0.22929E-01   528   0.111E+00    0.417E-01
RMM:   4    -0.222504351032E+03   -0.22508E-02   -0.29639E-02   544   0.423E-01    0.333E-01
RMM:   5    -0.222503880329E+03    0.47070E-03   -0.19883E-03   456   0.986E-02    0.248E-01
RMM:   6    -0.222503719676E+03    0.16065E-03   -0.28665E-03   427   0.836E-02    0.862E-02
RMM:   7    -0.222503793985E+03   -0.74309E-04   -0.96509E-04   513   0.555E-02    0.674E-02
RMM:   8    -0.222503656396E+03    0.13759E-03   -0.25497E-04   369   0.274E-02    0.355E-02
RMM:   9    -0.222503695528E+03   -0.39132E-04   -0.60135E-04   442   0.353E-02    0.285E-02
RMM:  10    -0.222503653275E+03    0.42253E-04   -0.82273E-05   355   0.173E-02    0.142E-02
RMM:  11    -0.222503654258E+03   -0.98317E-06   -0.81650E-05   373   0.113E-02
  17 F= -.22250365E+03 E0= -.22251328E+03  d E =-.539465E-01
       N       E                     dE             d eps       ncg     rms          rms(c)
DAV:   1    -0.222496800957E+03    0.68523E-02   -0.14077E+01   464   0.587E+00    0.697E-01
RMM:   2    -0.222519479142E+03   -0.22678E-01   -0.24070E-01   530   0.114E+00    0.177E-01
RMM:   3    -0.222525491199E+03   -0.60121E-02   -0.64986E-02   534   0.564E-01    0.197E-01
RMM:   4    -0.222526043166E+03   -0.55197E-03   -0.75160E-03   540   0.209E-01    0.162E-01
RMM:   5    -0.222525925158E+03    0.11801E-03   -0.43948E-04   454   0.494E-02    0.131E-01
RMM:   6    -0.222525844266E+03    0.80892E-04   -0.37631E-04   392   0.351E-02    0.673E-02
RMM:   7    -0.222525867217E+03   -0.22950E-04   -0.31878E-04   420   0.303E-02    0.268E-02
RMM:   8    -0.222525849513E+03    0.17704E-04   -0.48460E-05   377   0.181E-02    0.115E-02
RMM:   9    -0.222525852708E+03   -0.31952E-05   -0.38553E-05   350   0.114E-02
  18 F= -.22252585E+03 E0= -.22253505E+03  d E =-.221984E-01
       N       E                     dE             d eps       ncg     rms          rms(c)
DAV:   1    -0.222490918235E+03    0.34931E-01   -0.24224E+01   448   0.749E+00    0.910E-01
RMM:   2    -0.222533040802E+03   -0.42123E-01   -0.44325E-01   531   0.148E+00    0.235E-01
RMM:   3    -0.222543778363E+03   -0.10738E-01   -0.11528E-01   530   0.725E-01    0.261E-01
RMM:   4    -0.222544698116E+03   -0.91975E-03   -0.12753E-02   551   0.281E-01    0.215E-01
RMM:   5    -0.222544488502E+03    0.20961E-03   -0.73835E-04   458   0.640E-02    0.174E-01
RMM:   6    -0.222544352981E+03    0.13552E-03   -0.72280E-04   403   0.479E-02    0.873E-02
RMM:   7    -0.222544395509E+03   -0.42529E-04   -0.51744E-04   434   0.381E-02    0.357E-02
RMM:   8    -0.222544365137E+03    0.30372E-04   -0.92997E-05   385   0.235E-02    0.147E-02
RMM:   9    -0.222544370427E+03   -0.52894E-05   -0.56661E-05   372   0.141E-02
  19 F= -.22254437E+03 E0= -.22255297E+03  d E =-.407162E-01
       N       E                     dE             d eps       ncg     rms          rms(c)
DAV:   1    -0.222284358386E+03    0.26001E+00   -0.10196E+02   448   0.157E+01    0.187E+00
RMM:   2    -0.222493290304E+03   -0.20893E+00   -0.21856E+00   531   0.319E+00    0.498E-01
RMM:   3    -0.222543498861E+03   -0.50209E-01   -0.54189E-01   525   0.161E+00    0.538E-01
RMM:   4    -0.222548465696E+03   -0.49668E-02   -0.63400E-02   552   0.607E-01    0.452E-01
RMM:   5    -0.222547712950E+03    0.75275E-03   -0.33428E-03   466   0.138E-01    0.379E-01
RMM:   6    -0.222547139589E+03    0.57336E-03   -0.21179E-03   423   0.892E-02    0.229E-01
RMM:   7    -0.222547232567E+03   -0.92978E-04   -0.26585E-03   447   0.824E-02    0.734E-02
RMM:   8    -0.222547148806E+03    0.83761E-04   -0.25314E-04   433   0.490E-02    0.381E-02
RMM:   9    -0.222547133911E+03    0.14894E-04   -0.24425E-04   383   0.332E-02    0.234E-02
RMM:  10    -0.222547132873E+03    0.10384E-05   -0.28797E-05   347   0.149E-02
  20 F= -.22254713E+03 E0= -.22255443E+03  d E =-.434786E-01
       N       E                     dE             d eps       ncg     rms          rms(c)
DAV:   1    -0.222504870015E+03    0.42264E-01   -0.21096E+01   464   0.690E+00    0.860E-01
RMM:   2    -0.222541552603E+03   -0.36683E-01   -0.38640E-01   529   0.138E+00    0.224E-01
RMM:   3    -0.222550917367E+03   -0.93648E-02   -0.10102E-01   529   0.687E-01    0.251E-01
RMM:   4    -0.222551778489E+03   -0.86112E-03   -0.11691E-02   546   0.265E-01    0.208E-01
RMM:   5    -0.222551576934E+03    0.20155E-03   -0.63093E-04   457   0.597E-02    0.169E-01
RMM:   6    -0.222551436941E+03    0.13999E-03   -0.79691E-04   403   0.479E-02    0.769E-02
RMM:   7    -0.222551486505E+03   -0.49564E-04   -0.48681E-04   440   0.375E-02    0.371E-02
RMM:   8    -0.222551449987E+03    0.36518E-04   -0.11041E-04   383   0.235E-02    0.161E-02
RMM:   9    -0.222551457990E+03   -0.80030E-05   -0.74478E-05   378   0.152E-02
  21 F= -.22255146E+03 E0= -.22255939E+03  d E =-.478037E-01
       N       E                     dE             d eps       ncg     rms          rms(c)
DAV:   1    -0.222535454831E+03    0.15995E-01   -0.16917E+01   448   0.615E+00    0.902E-01
RMM:   2    -0.222565284326E+03   -0.29829E-01   -0.31643E-01   526   0.127E+00    0.198E-01
RMM:   3    -0.222572665169E+03   -0.73808E-02   -0.80104E-02   519   0.615E-01    0.247E-01
RMM:   4    -0.222573247719E+03   -0.58255E-03   -0.88358E-03   553   0.234E-01    0.195E-01
RMM:   5    -0.222573055042E+03    0.19268E-03   -0.65261E-04   441   0.566E-02    0.142E-01
RMM:   6    -0.222572981579E+03    0.73463E-04   -0.75380E-04   403   0.452E-02    0.580E-02
RMM:   7    -0.222573016646E+03   -0.35067E-04   -0.32282E-04   484   0.323E-02    0.334E-02
RMM:   8    -0.222572987325E+03    0.29321E-04   -0.13160E-04   350   0.184E-02    0.186E-02
RMM:   9    -0.222572997204E+03   -0.98797E-05   -0.67849E-05   365   0.143E-02
  22 F= -.22257300E+03 E0= -.22258107E+03  d E =-.215392E-01
       N       E                     dE             d eps       ncg     rms          rms(c)
DAV:   1    -0.222526830110E+03    0.46157E-01   -0.25787E+01   432   0.776E+00    0.113E+00
RMM:   2    -0.222572756499E+03   -0.45926E-01   -0.48815E-01   521   0.158E+00    0.229E-01
RMM:   3    -0.222584857597E+03   -0.12101E-01   -0.13246E-01   521   0.768E-01    0.320E-01
RMM:   4    -0.222585757289E+03   -0.89969E-03   -0.13650E-02   548   0.291E-01    0.252E-01
RMM:   5    -0.222585441911E+03    0.31538E-03   -0.89379E-04   447   0.682E-02    0.186E-01
RMM:   6    -0.222585310534E+03    0.13138E-03   -0.13502E-03   407   0.586E-02    0.691E-02
RMM:   7    -0.222585370452E+03   -0.59918E-04   -0.55974E-04   497   0.422E-02    0.441E-02
RMM:   8    -0.222585309961E+03    0.60491E-04   -0.21719E-04   356   0.239E-02    0.231E-02
RMM:   9    -0.222585332384E+03   -0.22423E-04   -0.16713E-04   369   0.207E-02    0.186E-02
RMM:  10    -0.222585316113E+03    0.16271E-04   -0.22913E-05   327   0.111E-02    0.104E-02
RMM:  11    -0.222585314614E+03    0.14992E-05   -0.32162E-05   351   0.814E-03
  23 F= -.22258531E+03 E0= -.22259357E+03  d E =-.338566E-01
       N       E                     dE             d eps       ncg     rms          rms(c)
DAV:   1    -0.222580812133E+03    0.45040E-02   -0.25522E+00   464   0.238E+00    0.343E-01
RMM:   2    -0.222584895745E+03   -0.40836E-02   -0.43101E-02   525   0.475E-01    0.697E-02
RMM:   3    -0.222585897465E+03   -0.10017E-02   -0.10607E-02   515   0.222E-01    0.977E-02
RMM:   4    -0.222585974262E+03   -0.76797E-04   -0.12300E-03   555   0.887E-02    0.776E-02
RMM:   5    -0.222585942938E+03    0.31323E-04   -0.77140E-05   388   0.201E-02    0.574E-02
RMM:   6    -0.222585930567E+03    0.12372E-04   -0.12338E-04   354   0.179E-02    0.216E-02
RMM:   7    -0.222585936576E+03   -0.60089E-05   -0.52541E-05   392   0.128E-02
  24 F= -.22258594E+03 E0= -.22259424E+03  d E =-.344786E-01
       N       E                     dE             d eps       ncg     rms          rms(c)
DAV:   1    -0.222554415551E+03    0.31515E-01   -0.23708E+01   448   0.714E+00    0.887E-01
RMM:   2    -0.222595961659E+03   -0.41546E-01   -0.43795E-01   531   0.146E+00    0.272E-01
RMM:   3    -0.222606636638E+03   -0.10675E-01   -0.11477E-01   532   0.679E-01    0.258E-01
RMM:   4    -0.222607494446E+03   -0.85781E-03   -0.12237E-02   553   0.269E-01    0.210E-01
RMM:   5    -0.222607288253E+03    0.20619E-03   -0.68728E-04   445   0.610E-02    0.160E-01
RMM:   6    -0.222607213585E+03    0.74669E-04   -0.76036E-04   415   0.482E-02    0.775E-02
RMM:   7    -0.222607252707E+03   -0.39122E-04   -0.39518E-04   486   0.353E-02    0.401E-02
RMM:   8    -0.222607217129E+03    0.35578E-04   -0.15223E-04   361   0.225E-02    0.181E-02
RMM:   9    -0.222607224310E+03   -0.71811E-05   -0.62161E-05   391   0.144E-02
  25 F= -.22260722E+03 E0= -.22261586E+03  d E =-.212877E-01
       N       E                     dE             d eps       ncg     rms          rms(c)
DAV:   1    -0.222573936818E+03    0.33280E-01   -0.19685E+01   464   0.639E+00    0.808E-01
RMM:   2    -0.222608580666E+03   -0.34644E-01   -0.36389E-01   530   0.127E+00    0.235E-01
RMM:   3    -0.222617388474E+03   -0.88078E-02   -0.93913E-02   535   0.614E-01    0.235E-01
RMM:   4    -0.222618054499E+03   -0.66602E-03   -0.96688E-03   548   0.241E-01    0.191E-01
RMM:   5    -0.222617884674E+03    0.16982E-03   -0.57753E-04   447   0.551E-02    0.145E-01
RMM:   6    -0.222617820926E+03    0.63748E-04   -0.63854E-04   405   0.439E-02    0.674E-02
RMM:   7    -0.222617855568E+03   -0.34641E-04   -0.32964E-04   473   0.321E-02    0.349E-02
RMM:   8    -0.222617826568E+03    0.29000E-04   -0.11868E-04   361   0.203E-02    0.158E-02
RMM:   9    -0.222617832679E+03   -0.61118E-05   -0.51399E-05   374   0.131E-02
  26 F= -.22261783E+03 E0= -.22262675E+03  d E =-.318961E-01
       N       E                     dE             d eps       ncg     rms          rms(c)
DAV:   1    -0.222397243974E+03    0.22058E+00   -0.82725E+01   448   0.134E+01    0.167E+00
RMM:   2    -0.222571592041E+03   -0.17435E+00   -0.18200E+00   530   0.275E+00    0.486E-01
RMM:   3    -0.222613305773E+03   -0.41714E-01   -0.44677E-01   528   0.134E+00    0.484E-01
RMM:   4    -0.222616497704E+03   -0.31919E-02   -0.43231E-02   553   0.498E-01    0.401E-01
RMM:   5    -0.222615846315E+03    0.65139E-03   -0.23672E-03   460   0.113E-01    0.318E-01
RMM:   6    -0.222615512932E+03    0.33338E-03   -0.21607E-03   424   0.843E-02    0.164E-01
RMM:   7    -0.222615658973E+03   -0.14604E-03   -0.16733E-03   473   0.690E-02    0.731E-02
RMM:   8    -0.222615542406E+03    0.11657E-03   -0.25155E-04   400   0.401E-02    0.357E-02
RMM:   9    -0.222615548903E+03   -0.64964E-05   -0.30848E-04   374   0.304E-02    0.218E-02
RMM:  10    -0.222615538694E+03    0.10209E-04   -0.27288E-05   332   0.151E-02    0.138E-02
RMM:  11    -0.222615542582E+03   -0.38880E-05   -0.52146E-05   374   0.123E-02
  27 F= -.22261554E+03 E0= -.22262488E+03  d E =-.296060E-01
       N       E                     dE             d eps       ncg     rms          rms(c)
DAV:   1    -0.222554702889E+03    0.60836E-01   -0.28902E+01   448   0.799E+00    0.975E-01
RMM:   2    -0.222606562987E+03   -0.51860E-01   -0.54726E-01   532   0.158E+00    0.284E-01
RMM:   3    -0.222619950063E+03   -0.13387E-01   -0.14456E-01   531   0.767E-01    0.287E-01
RMM:   4    -0.222621149938E+03   -0.11999E-02   -0.16250E-02   551   0.302E-01    0.238E-01
RMM:   5    -0.222620893036E+03    0.25690E-03   -0.70113E-04   456   0.638E-02    0.189E-01
RMM:   6    -0.222620752964E+03    0.14007E-03   -0.96839E-04   411   0.538E-02    0.884E-02
RMM:   7    -0.222620813275E+03   -0.60311E-04   -0.61139E-04   442   0.416E-02    0.436E-02
RMM:   8    -0.222620762337E+03    0.50939E-04   -0.13420E-04   382   0.253E-02    0.185E-02
RMM:   9    -0.222620771087E+03   -0.87499E-05   -0.10720E-04   377   0.175E-02    0.141E-02
RMM:  10    -0.222620764625E+03    0.64616E-05   -0.15855E-05   269   0.983E-03
  28 F= -.22262076E+03 E0= -.22262987E+03  d E =-.348280E-01
       N       E                     dE             d eps       ncg     rms          rms(c)
DAV:   1    -0.222545619128E+03    0.75152E-01   -0.39760E+01   448   0.936E+00    0.132E+00
RMM:   2    -0.222625352549E+03   -0.79733E-01   -0.83854E-01   533   0.195E+00    0.321E-01
RMM:   3    -0.222644794655E+03   -0.19442E-01   -0.21085E-01   513   0.930E-01    0.382E-01
RMM:   4    -0.222646141996E+03   -0.13473E-02   -0.20482E-02   569   0.360E-01    0.321E-01
RMM:   5    -0.222645781818E+03    0.36018E-03   -0.10427E-03   473   0.755E-02    0.279E-01
RMM:   6    -0.222645581123E+03    0.20070E-03   -0.50524E-04   423   0.461E-02    0.211E-01
RMM:   7    -0.222645496090E+03    0.85032E-04   -0.13512E-03   448   0.533E-02    0.500E-02
RMM:   8    -0.222645526394E+03   -0.30303E-04   -0.27642E-04   502   0.318E-02    0.396E-02
RMM:   9    -0.222645482959E+03    0.43435E-04   -0.16145E-04   353   0.202E-02    0.244E-02
RMM:  10    -0.222645494262E+03   -0.11303E-04   -0.87698E-05   397   0.151E-02    0.271E-02
RMM:  11    -0.222645485297E+03    0.89647E-05   -0.16910E-05   264   0.784E-03
  29 F= -.22264549E+03 E0= -.22265410E+03  d E =-.247207E-01
       N       E                     dE             d eps       ncg     rms          rms(c)
DAV:   1    -0.222596105944E+03    0.49388E-01   -0.23405E+01   464   0.716E+00    0.101E+00
RMM:   2    -0.222639952537E+03   -0.43847E-01   -0.46320E-01   533   0.148E+00    0.246E-01
RMM:   3    -0.222650872118E+03   -0.10920E-01   -0.11829E-01   516   0.704E-01    0.283E-01
RMM:   4    -0.222651621717E+03   -0.74960E-03   -0.11553E-02   565   0.271E-01    0.237E-01
RMM:   5    -0.222651420511E+03    0.20121E-03   -0.72777E-04   476   0.599E-02    0.204E-01
RMM:   6    -0.222651300230E+03    0.12028E-03   -0.30383E-04   398   0.350E-02    0.148E-01
RMM:   7    -0.222651272233E+03    0.27997E-04   -0.78555E-04   419   0.408E-02    0.345E-02
RMM:   8    -0.222651281718E+03   -0.94846E-05   -0.12386E-04   481   0.235E-02    0.258E-02
RMM:   9    -0.222651262532E+03    0.19186E-04   -0.76848E-05   344   0.143E-02    0.173E-02
RMM:  10    -0.222651266903E+03   -0.43717E-05   -0.33359E-05   339   0.980E-03
  30 F= -.22265127E+03 E0= -.22265944E+03  d E =-.305023E-01
       N       E                     dE             d eps       ncg     rms          rms(c)
DAV:   1    -0.222619480471E+03    0.31782E-01   -0.21802E+01   464   0.712E+00    0.888E-01
RMM:   2    -0.222658605798E+03   -0.39125E-01   -0.41271E-01   533   0.144E+00    0.244E-01
RMM:   3    -0.222668258522E+03   -0.96527E-02   -0.10387E-01   540   0.700E-01    0.264E-01
RMM:   4    -0.222669164482E+03   -0.90596E-03   -0.12782E-02   537   0.274E-01    0.216E-01
RMM:   5    -0.222668946622E+03    0.21786E-03   -0.70391E-04   457   0.615E-02    0.166E-01
RMM:   6    -0.222668855687E+03    0.90935E-04   -0.83320E-04   416   0.488E-02    0.775E-02
RMM:   7    -0.222668896214E+03   -0.40527E-04   -0.41357E-04   464   0.356E-02    0.390E-02
RMM:   8    -0.222668864178E+03    0.32036E-04   -0.84750E-05   365   0.194E-02    0.208E-02
RMM:   9    -0.222668872827E+03   -0.86486E-05   -0.10842E-04   361   0.170E-02    0.145E-02
RMM:  10    -0.222668866232E+03    0.65942E-05   -0.12844E-05   260   0.874E-03
  31 F= -.22266887E+03 E0= -.22267700E+03  d E =-.175993E-01
       N       E                     dE             d eps       ncg     rms          rms(c)
DAV:   1    -0.222599452774E+03    0.69420E-01   -0.34263E+01   448   0.911E+00    0.112E+00
RMM:   2    -0.222662990491E+03   -0.63538E-01   -0.67257E-01   530   0.182E+00    0.303E-01
RMM:   3    -0.222679414288E+03   -0.16424E-01   -0.17798E-01   543   0.897E-01    0.343E-01
RMM:   4    -0.222680640548E+03   -0.12263E-02   -0.18174E-02   532   0.337E-01    0.279E-01
RMM:   5    -0.222680292350E+03    0.34820E-03   -0.12532E-03   459   0.805E-02    0.216E-01
RMM:   6    -0.222680131147E+03    0.16120E-03   -0.13546E-03   423   0.625E-02    0.101E-01
RMM:   7    -0.222680201346E+03   -0.70199E-04   -0.75281E-04   475   0.468E-02    0.506E-02
RMM:   8    -0.222680147175E+03    0.54171E-04   -0.12529E-04   371   0.248E-02    0.273E-02
RMM:   9    -0.222680159025E+03   -0.11850E-04   -0.19427E-04   368   0.221E-02    0.184E-02
RMM:  10    -0.222680148273E+03    0.10752E-04   -0.20483E-05   289   0.110E-02    0.108E-02
RMM:  11    -0.222680148343E+03   -0.69685E-07   -0.37048E-05   368   0.885E-03
  32 F= -.22268015E+03 E0= -.22268820E+03  d E =-.288814E-01
       N       E                     dE             d eps       ncg     rms          rms(c)
DAV:   1    -0.222247709124E+03    0.43244E+00   -0.14783E+02   448   0.194E+01    0.241E+00
RMM:   2    -0.222583841908E+03   -0.33613E+00   -0.35060E+00   526   0.400E+00    0.577E-01
RMM:   3    -0.222659279789E+03   -0.75438E-01   -0.80259E-01   535   0.201E+00    0.742E-01
RMM:   4    -0.222667630366E+03   -0.83506E-02   -0.10686E-01   537   0.778E-01    0.622E-01
RMM:   5    -0.222666281309E+03    0.13491E-02   -0.56389E-03   470   0.174E-01    0.502E-01
RMM:   6    -0.222665422689E+03    0.85862E-03   -0.41893E-03   433   0.118E-01    0.274E-01
RMM:   7    -0.222665677150E+03   -0.25446E-03   -0.38809E-03   462   0.997E-02    0.104E-01
RMM:   8    -0.222665518466E+03    0.15868E-03   -0.35251E-04   424   0.548E-02    0.594E-02
RMM:   9    -0.222665473222E+03    0.45244E-04   -0.57195E-04   393   0.430E-02    0.341E-02
RMM:  10    -0.222665474489E+03   -0.12671E-05   -0.74975E-05   451   0.200E-02
  33 F= -.22266547E+03 E0= -.22267320E+03  d E =-.142076E-01
       N       E                     dE             d eps       ncg     rms          rms(c)
DAV:   1    -0.222437518649E+03    0.22795E+00   -0.88978E+01   448   0.148E+01    0.185E+00
RMM:   2    -0.222633518217E+03   -0.19600E+00   -0.20452E+00   529   0.302E+00    0.474E-01
RMM:   3    -0.222678704169E+03   -0.45186E-01   -0.48228E-01   536   0.155E+00    0.569E-01
RMM:   4    -0.222682914693E+03   -0.42105E-02   -0.56194E-02   543   0.566E-01    0.478E-01
RMM:   5    -0.222681947885E+03    0.96681E-03   -0.28762E-03   468   0.128E-01    0.383E-01
RMM:   6    -0.222681370064E+03    0.57782E-03   -0.30177E-03   429   0.954E-02    0.199E-01
RMM:   7    -0.222681561079E+03   -0.19101E-03   -0.24024E-03   464   0.782E-02    0.850E-02
RMM:   8    -0.222681421129E+03    0.13995E-03   -0.30068E-04   407   0.449E-02    0.453E-02
RMM:   9    -0.222681436335E+03   -0.15207E-04   -0.46419E-04   391   0.360E-02    0.323E-02
RMM:  10    -0.222681415813E+03    0.20522E-04   -0.35836E-05   375   0.170E-02    0.201E-02
RMM:  11    -0.222681414183E+03    0.16299E-05   -0.91512E-05   353   0.139E-02
  34 F= -.22268141E+03 E0= -.22268941E+03  d E =-.301473E-01
       N       E                     dE             d eps       ncg     rms          rms(c)
DAV:   1    -0.222624393493E+03    0.57022E-01   -0.29286E+01   448   0.870E+00    0.133E+00
RMM:   2    -0.222680044718E+03   -0.55651E-01   -0.59172E-01   523   0.178E+00    0.236E-01
RMM:   3    -0.222693999957E+03   -0.13955E-01   -0.15341E-01   518   0.920E-01    0.394E-01
RMM:   4    -0.222695442175E+03   -0.14422E-02   -0.20738E-02   549   0.359E-01    0.312E-01
RMM:   5    -0.222695063729E+03    0.37845E-03   -0.10237E-03   475   0.760E-02    0.258E-01
RMM:   6    -0.222694720539E+03    0.34319E-03   -0.14860E-03   410   0.625E-02    0.114E-01
RMM:   7    -0.222694801887E+03   -0.81348E-04   -0.11696E-03   431   0.525E-02    0.502E-02
RMM:   8    -0.222694744779E+03    0.57109E-04   -0.10594E-04   389   0.276E-02    0.291E-02
RMM:   9    -0.222694750205E+03   -0.54259E-05   -0.29566E-04   403   0.248E-02    0.255E-02
RMM:  10    -0.222694736326E+03    0.13879E-04   -0.24410E-05   310   0.124E-02    0.151E-02
RMM:  11    -0.222694733471E+03    0.28544E-05   -0.31693E-05   344   0.833E-03
  35 F= -.22269473E+03 E0= -.22270295E+03  d E =-.133193E-01
       N       E                     dE             d eps       ncg     rms          rms(c)
DAV:   1    -0.222694568768E+03    0.16756E-03   -0.84693E-02   480   0.469E-01    0.694E-02
RMM:   2    -0.222694714723E+03   -0.14596E-03   -0.15493E-03   532   0.947E-02    0.154E-02
RMM:   3    -0.222694742560E+03   -0.27837E-04   -0.29684E-04   470   0.429E-02    0.177E-02
RMM:   4    -0.222694748388E+03   -0.58277E-05   -0.83267E-05   308   0.201E-02
  36 F= -.22269475E+03 E0= -.22270298E+03  d E =-.133342E-01
       N       E                     dE             d eps       ncg     rms          rms(c)
DAV:   1    -0.222687176726E+03    0.75658E-02   -0.72656E+00   464   0.476E+00    0.630E-01
RMM:   2    -0.222700294232E+03   -0.13118E-01   -0.13903E-01   536   0.952E-01    0.172E-01
RMM:   3    -0.222702953881E+03   -0.26596E-02   -0.28826E-02   515   0.437E-01    0.173E-01
RMM:   4    -0.222703294088E+03   -0.34021E-03   -0.54960E-03   567   0.192E-01    0.134E-01
RMM:   5    -0.222703202252E+03    0.91836E-04   -0.34397E-04   443   0.418E-02    0.951E-02
RMM:   6    -0.222703181736E+03    0.20516E-04   -0.28993E-04   396   0.306E-02    0.412E-02
RMM:   7    -0.222703191781E+03   -0.10046E-04   -0.10726E-04   467   0.209E-02    0.210E-02
RMM:   8    -0.222703184530E+03    0.72513E-05   -0.41320E-05   334   0.117E-02
  37 F= -.22270318E+03 E0= -.22271126E+03  d E =-.843614E-02
       N       E                     dE             d eps       ncg     rms          rms(c)
DAV:   1    -0.222700318549E+03    0.28732E-02   -0.26107E+00   464   0.285E+00    0.383E-01
RMM:   2    -0.222704931912E+03   -0.46134E-02   -0.48709E-02   530   0.572E-01    0.863E-02
RMM:   3    -0.222705904870E+03   -0.97296E-03   -0.10386E-02   516   0.262E-01    0.110E-01
RMM:   4    -0.222706023689E+03   -0.11882E-03   -0.19338E-03   559   0.114E-01    0.834E-02
RMM:   5    -0.222705987350E+03    0.36339E-04   -0.11637E-04   413   0.245E-02    0.599E-02
RMM:   6    -0.222705976121E+03    0.11229E-04   -0.12749E-04   362   0.194E-02    0.235E-02
RMM:   7    -0.222705981178E+03   -0.50564E-05   -0.49135E-05   385   0.135E-02
  38 F= -.22270598E+03 E0= -.22271397E+03  d E =-.112328E-01
       N       E                     dE             d eps       ncg     rms          rms(c)
DAV:   1    -0.222682786715E+03    0.23189E-01   -0.10453E+01   448   0.567E+00    0.765E-01
RMM:   2    -0.222701879207E+03   -0.19092E-01   -0.20288E-01   534   0.115E+00    0.197E-01
RMM:   3    -0.222705894202E+03   -0.40150E-02   -0.43415E-02   520   0.532E-01    0.212E-01
RMM:   4    -0.222706394776E+03   -0.50057E-03   -0.80083E-03   561   0.232E-01    0.165E-01
RMM:   5    -0.222706256983E+03    0.13779E-03   -0.49667E-04   447   0.506E-02    0.119E-01
RMM:   6    -0.222706219153E+03    0.37831E-04   -0.48505E-04   407   0.384E-02    0.487E-02
RMM:   7    -0.222706236008E+03   -0.16855E-04   -0.17006E-04   483   0.260E-02    0.256E-02
RMM:   8    -0.222706223169E+03    0.12839E-04   -0.59008E-05   346   0.140E-02    0.134E-02
RMM:   9    -0.222706226680E+03   -0.35110E-05   -0.26463E-05   299   0.998E-03
  39 F= -.22270623E+03 E0= -.22271402E+03  d E =-.114783E-01
       N       E                     dE             d eps       ncg     rms          rms(c)
DAV:   1    -0.222701458786E+03    0.47644E-02   -0.25483E+00   464   0.280E+00    0.373E-01
RMM:   2    -0.222706038806E+03   -0.45800E-02   -0.48680E-02   540   0.558E-01    0.108E-01
RMM:   3    -0.222706914465E+03   -0.87566E-03   -0.94099E-03   514   0.249E-01    0.970E-02
RMM:   4    -0.222707021091E+03   -0.10663E-03   -0.18243E-03   567   0.110E-01    0.738E-02
RMM:   5    -0.222706993450E+03    0.27641E-04   -0.12398E-04   414   0.248E-02    0.516E-02
RMM:   6    -0.222706989199E+03    0.42518E-05   -0.74980E-05   377   0.164E-02
  40 F= -.22270699E+03 E0= -.22271487E+03  d E =-.122408E-01
       N       E                     dE             d eps       ncg     rms          rms(c)
DAV:   1    -0.222697616318E+03    0.93771E-02   -0.79827E+00   448   0.511E+00    0.639E-01
RMM:   2    -0.222711523225E+03   -0.13907E-01   -0.14698E-01   536   0.100E+00    0.161E-01
RMM:   3    -0.222714359381E+03   -0.28362E-02   -0.30411E-02   525   0.468E-01    0.164E-01
RMM:   4    -0.222714795615E+03   -0.43623E-03   -0.65039E-03   553   0.205E-01    0.127E-01
RMM:   5    -0.222714701911E+03    0.93704E-04   -0.36006E-04   441   0.445E-02    0.882E-02
RMM:   6    -0.222714691660E+03    0.10251E-04   -0.42532E-04   408   0.350E-02    0.256E-02
RMM:   7    -0.222714696611E+03   -0.49511E-05   -0.73997E-05   440   0.206E-02
  41 F= -.22271470E+03 E0= -.22272236E+03  d E =-.770741E-02
       N       E                     dE             d eps       ncg     rms          rms(c)
DAV:   1    -0.222704798423E+03    0.98932E-02   -0.57486E+00   464   0.435E+00    0.539E-01
RMM:   2    -0.222714814924E+03   -0.10017E-01   -0.10603E-01   536   0.849E-01    0.142E-01
RMM:   3    -0.222716853240E+03   -0.20383E-02   -0.21706E-02   526   0.393E-01    0.146E-01
RMM:   4    -0.222717158963E+03   -0.30572E-03   -0.46665E-03   550   0.173E-01    0.111E-01
RMM:   5    -0.222717091111E+03    0.67852E-04   -0.27432E-04   433   0.380E-02    0.746E-02
RMM:   6    -0.222717091700E+03   -0.58948E-06   -0.30723E-04   402   0.301E-02    0.217E-02
RMM:   7    -0.222717094112E+03   -0.24120E-05   -0.52515E-05   417   0.176E-02
  42 F= -.22271709E+03 E0= -.22272459E+03  d E =-.101049E-01
       N       E                     dE             d eps       ncg     rms          rms(c)
DAV:   1    -0.222709880521E+03    0.72112E-02   -0.58458E+00   448   0.443E+00    0.621E-01
RMM:   2    -0.222720442766E+03   -0.10562E-01   -0.11340E-01   527   0.891E-01    0.128E-01
RMM:   3    -0.222722563296E+03   -0.21205E-02   -0.23202E-02   520   0.423E-01    0.173E-01
RMM:   4    -0.222722901680E+03   -0.33838E-03   -0.53282E-03   556   0.189E-01    0.126E-01
RMM:   5    -0.222722804363E+03    0.97317E-04   -0.33942E-04   435   0.419E-02    0.806E-02
RMM:   6    -0.222722800417E+03    0.39465E-05   -0.35247E-04   404   0.323E-02    0.257E-02
RMM:   7    -0.222722805800E+03   -0.53834E-05   -0.83011E-05   467   0.201E-02
  43 F= -.22272281E+03 E0= -.22273013E+03  d E =-.571169E-02
       N       E                     dE             d eps       ncg     rms          rms(c)
DAV:   1    -0.222720678861E+03    0.21216E-02   -0.12987E+00   464   0.210E+00    0.297E-01
RMM:   2    -0.222723014737E+03   -0.23359E-02   -0.24961E-02   521   0.421E-01    0.532E-02
RMM:   3    -0.222723505074E+03   -0.49034E-03   -0.53431E-03   518   0.201E-01    0.915E-02
RMM:   4    -0.222723578390E+03   -0.73316E-04   -0.11479E-03   548   0.873E-02    0.680E-02
RMM:   5    -0.222723551563E+03    0.26827E-04   -0.64171E-05   384   0.188E-02    0.461E-02
RMM:   6    -0.222723547617E+03    0.39458E-05   -0.12349E-04   355   0.177E-02    0.113E-02
RMM:   7    -0.222723549740E+03   -0.21228E-05   -0.29799E-05   325   0.114E-02
  44 F= -.22272355E+03 E0= -.22273078E+03  d E =-.645563E-02
       N       E                     dE             d eps       ncg     rms          rms(c)
DAV:   1    -0.222717061029E+03    0.64866E-02   -0.55076E+00   448   0.428E+00    0.527E-01
RMM:   2    -0.222726649675E+03   -0.95886E-02   -0.10197E-01   528   0.843E-01    0.122E-01
RMM:   3    -0.222728687356E+03   -0.20377E-02   -0.21717E-02   533   0.403E-01    0.160E-01
RMM:   4    -0.222729007516E+03   -0.32016E-03   -0.46622E-03   548   0.174E-01    0.123E-01
RMM:   5    -0.222728918114E+03    0.89402E-04   -0.24547E-04   435   0.371E-02    0.881E-02
RMM:   6    -0.222728895404E+03    0.22710E-04   -0.36833E-04   399   0.311E-02    0.309E-02
RMM:   7    -0.222728907072E+03   -0.11669E-04   -0.10942E-04   445   0.204E-02    0.203E-02
RMM:   8    -0.222728895784E+03    0.11289E-04   -0.41221E-05   323   0.110E-02    0.112E-02
RMM:   9    -0.222728901008E+03   -0.52239E-05   -0.35140E-05   318   0.931E-03
  45 F= -.22272890E+03 E0= -.22273610E+03  d E =-.535127E-02
       N       E                     dE             d eps       ncg     rms          rms(c)
DAV:   1    -0.222719125723E+03    0.97701E-02   -0.60886E+00   448   0.452E+00    0.554E-01
RMM:   2    -0.222729649573E+03   -0.10524E-01   -0.11182E-01   526   0.890E-01    0.123E-01
RMM:   3    -0.222731894453E+03   -0.22449E-02   -0.23966E-02   533   0.428E-01    0.166E-01
RMM:   4    -0.222732273465E+03   -0.37901E-03   -0.53774E-03   547   0.186E-01    0.128E-01
RMM:   5    -0.222732177208E+03    0.96257E-04   -0.26834E-04   440   0.393E-02    0.922E-02
RMM:   6    -0.222732150033E+03    0.27174E-04   -0.42211E-04   398   0.333E-02    0.296E-02
RMM:   7    -0.222732163305E+03   -0.13272E-04   -0.12825E-04   446   0.220E-02    0.213E-02
RMM:   8    -0.222732150239E+03    0.13066E-04   -0.42612E-05   323   0.113E-02    0.119E-02
RMM:   9    -0.222732156359E+03   -0.61204E-05   -0.43144E-05   334   0.100E-02
  46 F= -.22273216E+03 E0= -.22273932E+03  d E =-.860662E-02
       N       E                     dE             d eps       ncg     rms          rms(c)
DAV:   1    -0.222676658945E+03    0.55491E-01   -0.24407E+01   448   0.911E+00    0.113E+00
RMM:   2    -0.222720195116E+03   -0.43536E-01   -0.46447E-01   527   0.180E+00    0.259E-01
RMM:   3    -0.222729629357E+03   -0.94342E-02   -0.10266E-01   536   0.897E-01    0.334E-01
RMM:   4    -0.222731415509E+03   -0.17862E-02   -0.24134E-02   544   0.387E-01    0.266E-01
RMM:   5    -0.222731039036E+03    0.37647E-03   -0.11395E-03   452   0.817E-02    0.199E-01
RMM:   6    -0.222730892821E+03    0.14622E-03   -0.16924E-03   422   0.667E-02    0.615E-02
RMM:   7    -0.222730949197E+03   -0.56375E-04   -0.52172E-04   509   0.434E-02    0.423E-02
RMM:   8    -0.222730903125E+03    0.46072E-04   -0.11494E-04   355   0.197E-02    0.256E-02
RMM:   9    -0.222730922823E+03   -0.19698E-04   -0.18450E-04   392   0.213E-02    0.251E-02
RMM:  10    -0.222730906460E+03    0.16362E-04   -0.29444E-05   311   0.110E-02    0.141E-02
RMM:  11    -0.222730905727E+03    0.73373E-06   -0.39457E-05   343   0.896E-03
  47 F= -.22273091E+03 E0= -.22273799E+03  d E =-.735599E-02
       N       E                     dE             d eps       ncg     rms          rms(c)
DAV:   1    -0.222711130441E+03    0.19776E-01   -0.10069E+01   448   0.578E+00    0.738E-01
RMM:   2    -0.222728624835E+03   -0.17494E-01   -0.18659E-01   525   0.114E+00    0.153E-01
RMM:   3    -0.222732459950E+03   -0.38351E-02   -0.41010E-02   537   0.556E-01    0.224E-01
RMM:   4    -0.222733121237E+03   -0.66129E-03   -0.92967E-03   543   0.242E-01    0.170E-01
RMM:   5    -0.222732953216E+03    0.16802E-03   -0.46468E-04   442   0.509E-02    0.119E-01
RMM:   6    -0.222732921659E+03    0.31557E-04   -0.76398E-04   423   0.444E-02    0.351E-02
RMM:   7    -0.222732938182E+03   -0.16524E-04   -0.17292E-04   484   0.273E-02    0.275E-02
RMM:   8    -0.222732915978E+03    0.22204E-04   -0.82768E-05   339   0.146E-02    0.140E-02
RMM:   9    -0.222732924030E+03   -0.80525E-05   -0.55303E-05   367   0.124E-02
  48 F= -.22273292E+03 E0= -.22274006E+03  d E =-.937429E-02
       N       E                     dE             d eps       ncg     rms          rms(c)
DAV:   1    -0.222719185281E+03    0.13731E-01   -0.80756E+00   448   0.522E+00    0.728E-01
RMM:   2    -0.222733984702E+03   -0.14799E-01   -0.15871E-01   525   0.105E+00    0.154E-01
RMM:   3    -0.222737119027E+03   -0.31343E-02   -0.33957E-02   536   0.507E-01    0.210E-01
RMM:   4    -0.222737551641E+03   -0.43261E-03   -0.70657E-03   545   0.215E-01    0.151E-01
RMM:   5    -0.222737411354E+03    0.14029E-03   -0.44619E-04   439   0.487E-02    0.987E-02
RMM:   6    -0.222737400480E+03    0.10873E-04   -0.51267E-04   424   0.378E-02    0.355E-02
RMM:   7    -0.222737410304E+03   -0.98239E-05   -0.11750E-04   479   0.231E-02    0.246E-02
RMM:   8    -0.222737401946E+03    0.83579E-05   -0.11723E-04   349   0.158E-02    0.140E-02
RMM:   9    -0.222737401336E+03    0.61006E-06   -0.15888E-05   267   0.936E-03
  49 F= -.22273740E+03 E0= -.22274441E+03  d E =-.447731E-02
       N       E                     dE             d eps       ncg     rms          rms(c)
DAV:   1    -0.222736239946E+03    0.11620E-02   -0.68127E-01   464   0.151E+00    0.209E-01
RMM:   2    -0.222737457347E+03   -0.12174E-02   -0.12925E-02   522   0.301E-01    0.403E-02
RMM:   3    -0.222737702242E+03   -0.24489E-03   -0.26460E-03   532   0.144E-01    0.608E-02
RMM:   4    -0.222737746322E+03   -0.44080E-04   -0.67636E-04   521   0.643E-02    0.422E-02
RMM:   5    -0.222737734952E+03    0.11371E-04   -0.34447E-05   332   0.136E-02    0.273E-02
RMM:   6    -0.222737733913E+03    0.10384E-05   -0.38043E-05   340   0.109E-02
  50 F= -.22273773E+03 E0= -.22274470E+03  d E =-.480988E-02
       N       E                     dE             d eps       ncg     rms          rms(c)
DAV:   1    -0.222731805522E+03    0.59294E-02   -0.43317E+00   448   0.385E+00    0.562E-01
RMM:   2    -0.222740066139E+03   -0.82606E-02   -0.89347E-02   519   0.787E-01    0.942E-02
RMM:   3    -0.222741947166E+03   -0.18810E-02   -0.20086E-02   533   0.381E-01    0.197E-01
RMM:   4    -0.222742173101E+03   -0.22594E-03   -0.37935E-03   535   0.158E-01    0.145E-01
RMM:   5    -0.222742067650E+03    0.10545E-03   -0.22783E-04   433   0.350E-02    0.105E-01
RMM:   6    -0.222742022404E+03    0.45246E-04   -0.40398E-04   375   0.314E-02    0.350E-02
RMM:   7    -0.222742044334E+03   -0.21930E-04   -0.19313E-04   438   0.233E-02    0.238E-02
RMM:   8    -0.222742025127E+03    0.19207E-04   -0.53624E-05   345   0.127E-02    0.997E-03
RMM:   9    -0.222742031929E+03   -0.68023E-05   -0.59388E-05   348   0.108E-02
  51 F= -.22274203E+03 E0= -.22274908E+03  d E =-.429802E-02
       N       E                     dE             d eps       ncg     rms          rms(c)
DAV:   1    -0.222735226371E+03    0.67988E-02   -0.39171E+00   448   0.365E+00    0.533E-01
RMM:   2    -0.222742641083E+03   -0.74147E-02   -0.79733E-02   517   0.749E-01    0.829E-02
RMM:   3    -0.222744364264E+03   -0.17232E-02   -0.18430E-02   534   0.363E-01    0.189E-01
RMM:   4    -0.222744555468E+03   -0.19120E-03   -0.32744E-03   533   0.147E-01    0.139E-01
RMM:   5    -0.222744460207E+03    0.95262E-04   -0.19742E-04   431   0.331E-02    0.103E-01
RMM:   6    -0.222744411763E+03    0.48444E-04   -0.39205E-04   371   0.305E-02    0.318E-02
RMM:   7    -0.222744431658E+03   -0.19895E-04   -0.17771E-04   431   0.224E-02    0.228E-02
RMM:   8    -0.222744414464E+03    0.17194E-04   -0.41549E-05   338   0.120E-02    0.961E-03
RMM:   9    -0.222744420700E+03   -0.62365E-05   -0.57901E-05   354   0.105E-02
  52 F= -.22274442E+03 E0= -.22275154E+03  d E =-.668679E-02
       N       E                     dE             d eps       ncg     rms          rms(c)
DAV:   1    -0.222706656296E+03    0.37758E-01   -0.15689E+01   448   0.734E+00    0.110E+00
RMM:   2    -0.222736887755E+03   -0.30231E-01   -0.32614E-01   517   0.152E+00    0.175E-01
RMM:   3    -0.222744021017E+03   -0.71333E-02   -0.77105E-02   537   0.749E-01    0.382E-01
RMM:   4    -0.222744860223E+03   -0.83921E-03   -0.13653E-02   531   0.301E-01    0.294E-01
RMM:   5    -0.222744459257E+03    0.40097E-03   -0.84652E-04   458   0.688E-02    0.219E-01
RMM:   6    -0.222744255583E+03    0.20367E-03   -0.14632E-03   416   0.592E-02    0.761E-02
RMM:   7    -0.222744327746E+03   -0.72163E-04   -0.72442E-04   477   0.441E-02    0.436E-02
RMM:   8    -0.222744267039E+03    0.60707E-04   -0.15661E-04   374   0.250E-02    0.209E-02
RMM:   9    -0.222744288042E+03   -0.21002E-04   -0.19801E-04   367   0.205E-02    0.236E-02
RMM:  10    -0.222744270351E+03    0.17690E-04   -0.34624E-05   326   0.120E-02    0.120E-02
RMM:  11    -0.222744270636E+03   -0.28438E-06   -0.27617E-05   337   0.769E-03
  53 F= -.22274427E+03 E0= -.22275149E+03  d E =-.653672E-02
       N       E                     dE             d eps       ncg     rms          rms(c)
DAV:   1    -0.222734054200E+03    0.10216E-01   -0.47646E+00   448   0.404E+00    0.592E-01
RMM:   2    -0.222743065694E+03   -0.90115E-02   -0.97176E-02   514   0.822E-01    0.956E-02
RMM:   3    -0.222745164485E+03   -0.20988E-02   -0.22476E-02   540   0.405E-01    0.208E-01
RMM:   4    -0.222745406813E+03   -0.24233E-03   -0.40662E-03   529   0.163E-01    0.152E-01
RMM:   5    -0.222745276602E+03    0.13021E-03   -0.27060E-04   430   0.379E-02    0.103E-01
RMM:   6    -0.222745242798E+03    0.33804E-04   -0.54889E-04   398   0.348E-02    0.286E-02
RMM:   7    -0.222745258014E+03   -0.15216E-04   -0.13801E-04   459   0.222E-02    0.253E-02
RMM:   8    -0.222745238593E+03    0.19421E-04   -0.88074E-05   349   0.143E-02    0.100E-02
RMM:   9    -0.222745243651E+03   -0.50579E-05   -0.35857E-05   327   0.967E-03
  54 F= -.22274524E+03 E0= -.22275241E+03  d E =-.750974E-02
       N       E                     dE             d eps       ncg     rms          rms(c)
DAV:   1    -0.222743838775E+03    0.13998E-02   -0.17671E+00   464   0.244E+00    0.344E-01
RMM:   2    -0.222747159538E+03   -0.33208E-02   -0.35926E-02   519   0.498E-01    0.621E-02
RMM:   3    -0.222747915487E+03   -0.75595E-03   -0.79631E-03   541   0.237E-01    0.118E-01
RMM:   4    -0.222747989000E+03   -0.73513E-04   -0.13990E-03   523   0.953E-02    0.832E-02
RMM:   5    -0.222747946491E+03    0.42509E-04   -0.11780E-04   391   0.235E-02    0.509E-02
RMM:   6    -0.222747951023E+03   -0.45318E-05   -0.21109E-04   381   0.212E-02    0.148E-02
RMM:   7    -0.222747948752E+03    0.22712E-05   -0.24675E-05   347   0.123E-02
  55 F= -.22274795E+03 E0= -.22275506E+03  d E =-.270510E-02
       N       E                     dE             d eps       ncg     rms          rms(c)
DAV:   1    -0.222714299143E+03    0.33652E-01   -0.15932E+01   448   0.735E+00    0.109E+00
RMM:   2    -0.222744775364E+03   -0.30476E-01   -0.32865E-01   517   0.152E+00    0.181E-01
RMM:   3    -0.222752011881E+03   -0.72365E-02   -0.77672E-02   543   0.750E-01    0.371E-01
RMM:   4    -0.222752794632E+03   -0.78275E-03   -0.13231E-02   522   0.295E-01    0.283E-01
RMM:   5    -0.222752382262E+03    0.41237E-03   -0.97002E-04   449   0.717E-02    0.196E-01
RMM:   6    -0.222752306001E+03    0.76261E-04   -0.20673E-03   431   0.662E-02    0.436E-02
RMM:   7    -0.222752309789E+03   -0.37881E-05   -0.25527E-04   484   0.379E-02    0.334E-02
RMM:   8    -0.222752285786E+03    0.24003E-04   -0.10980E-04   365   0.192E-02    0.195E-02
RMM:   9    -0.222752294549E+03   -0.87629E-05   -0.56425E-05   413   0.127E-02
  56 F= -.22275229E+03 E0= -.22275929E+03  d E =-.705090E-02
       N       E                     dE             d eps       ncg     rms          rms(c)
DAV:   1    -0.222751133383E+03    0.11524E-02   -0.59516E-01   464   0.142E+00    0.198E-01
RMM:   2    -0.222752222501E+03   -0.10891E-02   -0.11703E-02   518   0.286E-01    0.330E-02
RMM:   3    -0.222752461017E+03   -0.23852E-03   -0.25255E-03   535   0.137E-01    0.655E-02
RMM:   4    -0.222752496351E+03   -0.35334E-04   -0.56748E-04   492   0.589E-02    0.464E-02
RMM:   5    -0.222752483497E+03    0.12854E-04   -0.33272E-05   336   0.135E-02    0.300E-02
RMM:   6    -0.222752482945E+03    0.55219E-06   -0.65009E-05   355   0.128E-02
  57 F= -.22275248E+03 E0= -.22275946E+03  d E =-.723929E-02
       N       E                     dE             d eps       ncg     rms          rms(c)
DAV:   1    -0.222751389533E+03    0.10940E-02   -0.17514E+00   464   0.242E+00    0.365E-01
RMM:   2    -0.222754732925E+03   -0.33434E-02   -0.36632E-02   517   0.500E-01    0.623E-02
RMM:   3    -0.222755505235E+03   -0.77231E-03   -0.82466E-03   534   0.241E-01    0.122E-01
RMM:   4    -0.222755583668E+03   -0.78433E-04   -0.15061E-03   527   0.984E-02    0.819E-02
RMM:   5    -0.222755539629E+03    0.44039E-04   -0.13315E-04   386   0.245E-02    0.443E-02
RMM:   6    -0.222755546626E+03   -0.69970E-05   -0.18392E-04   381   0.210E-02    0.152E-02
RMM:   7    -0.222755544697E+03    0.19291E-05   -0.25442E-05   340   0.125E-02
  58 F= -.22275554E+03 E0= -.22276249E+03  d E =-.306175E-02
       N       E                     dE             d eps       ncg     rms          rms(c)
DAV:   1    -0.222737104189E+03    0.18442E-01   -0.90372E+00   448   0.552E+00    0.853E-01
RMM:   2    -0.222754309625E+03   -0.17205E-01   -0.18713E-01   509   0.114E+00    0.126E-01
RMM:   3    -0.222758647333E+03   -0.43377E-02   -0.46665E-02   534   0.575E-01    0.306E-01
RMM:   4    -0.222759106404E+03   -0.45907E-03   -0.77759E-03   526   0.227E-01    0.226E-01
RMM:   5    -0.222758814347E+03    0.29206E-03   -0.63139E-04   431   0.556E-02    0.138E-01
RMM:   6    -0.222758822148E+03   -0.78004E-05   -0.15392E-03   425   0.551E-02    0.434E-02
RMM:   7    -0.222758792912E+03    0.29236E-04   -0.12825E-04   402   0.304E-02    0.318E-02
RMM:   8    -0.222758783546E+03    0.93658E-05   -0.21963E-04   378   0.222E-02    0.217E-02
RMM:   9    -0.222758780618E+03    0.29276E-05   -0.19851E-05   316   0.110E-02
  59 F= -.22275878E+03 E0= -.22276570E+03  d E =-.629767E-02
       N       E                     dE             d eps       ncg     rms          rms(c)
DAV:   1    -0.222757086840E+03    0.16967E-02   -0.19579E+00   464   0.253E+00    0.381E-01
RMM:   2    -0.222760863634E+03   -0.37768E-02   -0.40583E-02   513   0.525E-01    0.568E-02
RMM:   3    -0.222761751612E+03   -0.88798E-03   -0.94691E-03   531   0.253E-01    0.140E-01
RMM:   4    -0.222761835735E+03   -0.84122E-04   -0.16177E-03   527   0.102E-01    0.984E-02
RMM:   5    -0.222761777690E+03    0.58045E-04   -0.12513E-04   391   0.244E-02    0.623E-02
RMM:   6    -0.222761773857E+03    0.38333E-05   -0.28268E-04   376   0.240E-02    0.157E-02
RMM:   7    -0.222761775246E+03   -0.13898E-05   -0.43584E-05   390   0.144E-02
  60 F= -.22276178E+03 E0= -.22276867E+03  d E =-.299463E-02
       N       E                     dE             d eps       ncg     rms          rms(c)
DAV:   1    -0.222752495426E+03    0.92784E-02   -0.50483E+00   448   0.407E+00    0.627E-01
RMM:   2    -0.222762424736E+03   -0.99293E-02   -0.10709E-01   513   0.851E-01    0.949E-02
RMM:   3    -0.222764809257E+03   -0.23845E-02   -0.25448E-02   533   0.415E-01    0.232E-01
RMM:   4    -0.222765030244E+03   -0.22099E-03   -0.41584E-03   527   0.165E-01    0.169E-01
RMM:   5    -0.222764869974E+03    0.16027E-03   -0.32596E-04   422   0.397E-02    0.111E-01
RMM:   6    -0.222764854371E+03    0.15603E-04   -0.83485E-04   395   0.403E-02    0.267E-02
RMM:   7    -0.222764856504E+03   -0.21335E-05   -0.11349E-04   440   0.236E-02    0.264E-02
RMM:   8    -0.222764837581E+03    0.18924E-04   -0.10334E-04   359   0.145E-02    0.118E-02
RMM:   9    -0.222764841897E+03   -0.43159E-05   -0.29473E-05   326   0.947E-03
  61 F= -.22276484E+03 E0= -.22277173E+03  d E =-.606128E-02
       N       E                     dE             d eps       ncg     rms          rms(c)
DAV:   1    -0.222720108601E+03    0.44729E-01   -0.20230E+01   464   0.818E+00    0.131E+00
RMM:   2    -0.222756173354E+03   -0.36065E-01   -0.39246E-01   514   0.165E+00    0.187E-01
RMM:   3    -0.222764814104E+03   -0.86407E-02   -0.93508E-02   540   0.795E-01    0.465E-01
RMM:   4    -0.222765688266E+03   -0.87416E-03   -0.15642E-02   527   0.316E-01    0.362E-01
RMM:   5    -0.222765058526E+03    0.62974E-03   -0.12967E-03   444   0.804E-02    0.256E-01
RMM:   6    -0.222764881393E+03    0.17713E-03   -0.31684E-03   425   0.782E-02    0.530E-02
RMM:   7    -0.222764922940E+03   -0.41546E-04   -0.50806E-04   500   0.464E-02    0.490E-02
RMM:   8    -0.222764851868E+03    0.71072E-04   -0.19909E-04   365   0.235E-02    0.250E-02
RMM:   9    -0.222764881276E+03   -0.29409E-04   -0.19786E-04   401   0.204E-02    0.313E-02
RMM:  10    -0.222764854765E+03    0.26511E-04   -0.62293E-05   355   0.133E-02    0.146E-02
RMM:  11    -0.222764856697E+03   -0.19320E-05   -0.35551E-05   346   0.831E-03
  62 F= -.22276486E+03 E0= -.22277168E+03  d E =-.607608E-02
       N       E                     dE             d eps       ncg     rms          rms(c)
DAV:   1    -0.222753772351E+03    0.11082E-01   -0.49533E+00   432   0.404E+00    0.620E-01
RMM:   2    -0.222763529453E+03   -0.97571E-02   -0.10546E-01   517   0.844E-01    0.997E-02
RMM:   3    -0.222765753732E+03   -0.22243E-02   -0.23849E-02   532   0.403E-01    0.217E-01
RMM:   4    -0.222765976499E+03   -0.22277E-03   -0.42769E-03   531   0.166E-01    0.153E-01
RMM:   5    -0.222765831685E+03    0.14481E-03   -0.34603E-04   419   0.398E-02    0.931E-02
RMM:   6    -0.222765831032E+03    0.65253E-06   -0.63145E-04   400   0.370E-02    0.245E-02
RMM:   7    -0.222765835284E+03   -0.42516E-05   -0.10550E-04   454   0.227E-02    0.240E-02
RMM:   8    -0.222765821652E+03    0.13632E-04   -0.13563E-04   363   0.157E-02    0.127E-02
RMM:   9    -0.222765820700E+03    0.95187E-06   -0.14103E-05   255   0.888E-03
  63 F= -.22276582E+03 E0= -.22277268E+03  d E =-.704008E-02
       N       E                     dE             d eps       ncg     rms          rms(c)
DAV:   1    -0.222758257844E+03    0.75638E-02   -0.43155E+00   448   0.373E+00    0.601E-01
RMM:   2    -0.222766966644E+03   -0.87088E-02   -0.94463E-02   512   0.786E-01    0.881E-02
RMM:   3    -0.222769083523E+03   -0.21169E-02   -0.22617E-02   534   0.384E-01    0.221E-01
RMM:   4    -0.222769264977E+03   -0.18145E-03   -0.34822E-03   528   0.151E-01    0.161E-01
RMM:   5    -0.222769110608E+03    0.15437E-03   -0.29383E-04   409   0.371E-02    0.105E-01
RMM:   6    -0.222769104520E+03    0.60887E-05   -0.82760E-04   401   0.389E-02    0.280E-02
RMM:   7    -0.222769095805E+03    0.87143E-05   -0.76742E-05   413   0.215E-02
  64 F= -.22276910E+03 E0= -.22277589E+03  d E =-.327511E-02
       N       E                     dE             d eps       ncg     rms          rms(c)
DAV:   1    -0.222754037911E+03    0.15067E-01   -0.64618E+00   416   0.456E+00    0.746E-01
RMM:   2    -0.222767224880E+03   -0.13187E-01   -0.14235E-01   511   0.966E-01    0.104E-01
RMM:   3    -0.222770480044E+03   -0.32552E-02   -0.35034E-02   527   0.476E-01    0.282E-01
RMM:   4    -0.222770751765E+03   -0.27172E-03   -0.51137E-03   533   0.184E-01    0.212E-01
RMM:   5    -0.222770513542E+03    0.23822E-03   -0.40908E-04   421   0.451E-02    0.148E-01
RMM:   6    -0.222770468714E+03    0.44828E-04   -0.14400E-03   408   0.511E-02    0.344E-02
RMM:   7    -0.222770455680E+03    0.13033E-04   -0.13312E-04   412   0.279E-02    0.266E-02
RMM:   8    -0.222770439954E+03    0.15726E-04   -0.11330E-04   357   0.164E-02    0.130E-02
RMM:   9    -0.222770442968E+03   -0.30136E-05   -0.25435E-05   319   0.982E-03
  65 F= -.22277044E+03 E0= -.22277715E+03  d E =-.462227E-02
       N       E                     dE             d eps       ncg     rms          rms(c)
DAV:   1    -0.222763353019E+03    0.70869E-02   -0.41448E+00   464   0.365E+00    0.555E-01
RMM:   2    -0.222771481626E+03   -0.81286E-02   -0.87463E-02   515   0.760E-01    0.905E-02
RMM:   3    -0.222773398779E+03   -0.19172E-02   -0.20315E-02   535   0.368E-01    0.199E-01
RMM:   4    -0.222773588185E+03   -0.18941E-03   -0.34041E-03   531   0.148E-01    0.145E-01
RMM:   5    -0.222773464174E+03    0.12401E-03   -0.25566E-04   414   0.356E-02    0.982E-02
RMM:   6    -0.222773461738E+03    0.24365E-05   -0.77784E-04   401   0.383E-02    0.278E-02
RMM:   7    -0.222773448413E+03    0.13325E-04   -0.63639E-05   384   0.208E-02    0.206E-02
RMM:   8    -0.222773438573E+03    0.98393E-05   -0.79152E-05   359   0.132E-02
  66 F= -.22277344E+03 E0= -.22278001E+03  d E =-.299561E-02
       N       E                     dE             d eps       ncg     rms          rms(c)
DAV:   1    -0.222772911238E+03    0.53717E-03   -0.48048E-01   464   0.124E+00    0.189E-01
RMM:   2    -0.222773844305E+03   -0.93307E-03   -0.98994E-03   509   0.259E-01    0.264E-02
RMM:   3    -0.222774067823E+03   -0.22352E-03   -0.23832E-03   530   0.128E-01    0.730E-02
RMM:   4    -0.222774093293E+03   -0.25471E-04   -0.43114E-04   499   0.518E-02    0.523E-02
RMM:   5    -0.222774078779E+03    0.14514E-04   -0.28526E-05   298   0.126E-02    0.365E-02
RMM:   6    -0.222774074966E+03    0.38126E-05   -0.87790E-05   370   0.138E-02
  67 F= -.22277407E+03 E0= -.22278060E+03  d E =-.363200E-02
       N       E                     dE             d eps       ncg     rms          rms(c)
DAV:   1    -0.222770156801E+03    0.39220E-02   -0.19148E+00   464   0.247E+00    0.381E-01
RMM:   2    -0.222773949700E+03   -0.37929E-02   -0.41229E-02   517   0.519E-01    0.686E-02
RMM:   3    -0.222774824452E+03   -0.87475E-03   -0.92189E-03   534   0.247E-01    0.129E-01
RMM:   4    -0.222774898861E+03   -0.74409E-04   -0.15057E-03   530   0.994E-02    0.911E-02
RMM:   5    -0.222774845750E+03    0.53112E-04   -0.13620E-04   395   0.252E-02    0.563E-02
RMM:   6    -0.222774849611E+03   -0.38611E-05   -0.25210E-04   379   0.232E-02    0.170E-02
RMM:   7    -0.222774851266E+03   -0.16549E-05   -0.43775E-05   396   0.141E-02
  68 F= -.22277485E+03 E0= -.22278126E+03  d E =-.440830E-02
       N       E                     dE             d eps       ncg     rms          rms(c)
DAV:   1    -0.222771484159E+03    0.33655E-02   -0.24286E+00   464   0.292E+00    0.486E-01
RMM:   2    -0.222776481825E+03   -0.49977E-02   -0.54990E-02   517   0.617E-01    0.764E-02
RMM:   3    -0.222777557747E+03   -0.10759E-02   -0.11898E-02   508   0.293E-01    0.164E-01
RMM:   4    -0.222777674938E+03   -0.11719E-03   -0.22002E-03   557   0.124E-01    0.118E-01
RMM:   5    -0.222777595670E+03    0.79268E-04   -0.15014E-04   404   0.276E-02    0.783E-02
RMM:   6    -0.222777588725E+03    0.69458E-05   -0.44192E-04   381   0.295E-02    0.192E-02
RMM:   7    -0.222777582170E+03    0.65546E-05   -0.42922E-05   365   0.167E-02
  69 F= -.22277758E+03 E0= -.22278411E+03  d E =-.273090E-02
       N       E                     dE             d eps       ncg     rms          rms(c)
DAV:   1    -0.222776717292E+03    0.87143E-03   -0.42678E-01   464   0.123E+00    0.205E-01
RMM:   2    -0.222777606267E+03   -0.88897E-03   -0.97492E-03   513   0.261E-01    0.321E-02
RMM:   3    -0.222777792733E+03   -0.18647E-03   -0.20850E-03   504   0.124E-01    0.729E-02
RMM:   4    -0.222777816947E+03   -0.24214E-04   -0.42301E-04   542   0.539E-02    0.538E-02
RMM:   5    -0.222777802758E+03    0.14189E-04   -0.27788E-05   287   0.120E-02    0.380E-02
RMM:   6    -0.222777798737E+03    0.40212E-05   -0.78204E-05   358   0.131E-02
  70 F= -.22277780E+03 E0= -.22278437E+03  d E =-.294747E-02
       N       E                     dE             d eps       ncg     rms          rms(c)
DAV:   1    -0.222773376257E+03    0.44265E-02   -0.27585E+00   448   0.319E+00    0.453E-01
RMM:   2    -0.222778847405E+03   -0.54711E-02   -0.59505E-02   528   0.654E-01    0.103E-01
RMM:   3    -0.222779919398E+03   -0.10720E-02   -0.11486E-02   509   0.304E-01    0.140E-01
RMM:   4    -0.222780085164E+03   -0.16577E-03   -0.27343E-03   565   0.139E-01    0.101E-01
RMM:   5    -0.222780019486E+03    0.65678E-04   -0.15653E-04   415   0.287E-02    0.651E-02
RMM:   6    -0.222780020911E+03   -0.14250E-05   -0.29138E-04   386   0.268E-02    0.193E-02
RMM:   7    -0.222780022708E+03   -0.17966E-05   -0.51272E-05   402   0.161E-02
  71 F= -.22278002E+03 E0= -.22278643E+03  d E =-.222397E-02
       N       E                     dE             d eps       ncg     rms          rms(c)
DAV:   1    -0.222776286258E+03    0.37347E-02   -0.17785E+00   464   0.256E+00    0.364E-01
RMM:   2    -0.222779859060E+03   -0.35728E-02   -0.38476E-02   526   0.528E-01    0.815E-02
RMM:   3    -0.222780555402E+03   -0.69634E-03   -0.75164E-03   509   0.244E-01    0.121E-01
RMM:   4    -0.222780652560E+03   -0.97159E-04   -0.16956E-03   562   0.110E-01    0.875E-02
RMM:   5    -0.222780604384E+03    0.48176E-04   -0.10881E-04   389   0.236E-02    0.545E-02
RMM:   6    -0.222780607551E+03   -0.31664E-05   -0.22497E-04   371   0.229E-02    0.154E-02
RMM:   7    -0.222780606138E+03    0.14132E-05   -0.31020E-05   354   0.136E-02
  72 F= -.22278061E+03 E0= -.22278689E+03  d E =-.280740E-02
       N       E                     dE             d eps       ncg     rms          rms(c)
DAV:   1    -0.222774697679E+03    0.59099E-02   -0.34287E+00   448   0.358E+00    0.530E-01
RMM:   2    -0.222781736105E+03   -0.70384E-02   -0.76014E-02   525   0.748E-01    0.101E-01
RMM:   3    -0.222783205606E+03   -0.14695E-02   -0.15820E-02   510   0.349E-01    0.183E-01
RMM:   4    -0.222783392710E+03   -0.18710E-03   -0.31943E-03   560   0.153E-01    0.136E-01
RMM:   5    -0.222783288811E+03    0.10390E-03   -0.19117E-04   427   0.324E-02    0.966E-02
RMM:   6    -0.222783269994E+03    0.18818E-04   -0.60590E-04   394   0.356E-02    0.227E-02
RMM:   7    -0.222783266913E+03    0.30805E-05   -0.65393E-05   380   0.202E-02
  73 F= -.22278327E+03 E0= -.22278955E+03  d E =-.266078E-02
       N       E                     dE             d eps       ncg     rms          rms(c)
DAV:   1    -0.222776755893E+03    0.65141E-02   -0.27878E+00   464   0.323E+00    0.481E-01
RMM:   2    -0.222782599634E+03   -0.58437E-02   -0.63443E-02   529   0.673E-01    0.112E-01
RMM:   3    -0.222783671360E+03   -0.10717E-02   -0.11715E-02   508   0.308E-01    0.149E-01
RMM:   4    -0.222783801204E+03   -0.12984E-03   -0.26671E-03   566   0.139E-01    0.102E-01
RMM:   5    -0.222783741290E+03    0.59914E-04   -0.17937E-04   419   0.302E-02    0.627E-02
RMM:   6    -0.222783745795E+03   -0.45041E-05   -0.25634E-04   389   0.258E-02    0.162E-02
RMM:   7    -0.222783741777E+03    0.40171E-05   -0.27565E-05   319   0.143E-02
  74 F= -.22278374E+03 E0= -.22279000E+03  d E =-.313564E-02
       N       E                     dE             d eps       ncg     rms          rms(c)
DAV:   1    -0.222776996372E+03    0.67494E-02   -0.33514E+00   464   0.355E+00    0.514E-01
RMM:   2    -0.222783785554E+03   -0.67892E-02   -0.73168E-02   521   0.733E-01    0.932E-02
RMM:   3    -0.222785243461E+03   -0.14579E-02   -0.15602E-02   515   0.346E-01    0.182E-01
RMM:   4    -0.222785416089E+03   -0.17263E-03   -0.30666E-03   548   0.149E-01    0.134E-01
RMM:   5    -0.222785325207E+03    0.90883E-04   -0.18102E-04   434   0.314E-02    0.997E-02
RMM:   6    -0.222785284484E+03    0.40722E-04   -0.40454E-04   380   0.305E-02    0.291E-02
RMM:   7    -0.222785299221E+03   -0.14737E-04   -0.12796E-04   417   0.206E-02    0.208E-02
RMM:   8    -0.222785285288E+03    0.13932E-04   -0.26983E-05   288   0.103E-02    0.989E-03
RMM:   9    -0.222785289270E+03   -0.39815E-05   -0.50563E-05   382   0.992E-03
  75 F= -.22278529E+03 E0= -.22279152E+03  d E =-.154749E-02
       N       E                     dE             d eps       ncg     rms          rms(c)
DAV:   1    -0.222785205636E+03    0.79653E-04   -0.65703E-02   480   0.497E-01    0.729E-02
RMM:   2    -0.222785330902E+03   -0.12527E-03   -0.13359E-03   514   0.101E-01    0.111E-02
RMM:   3    -0.222785359647E+03   -0.28745E-04   -0.30967E-04   508   0.493E-02    0.256E-02
RMM:   4    -0.222785363040E+03   -0.33929E-05   -0.58688E-05   317   0.210E-02
  76 F= -.22278536E+03 E0= -.22279159E+03  d E =-.162126E-02
       N       E                     dE             d eps       ncg     rms          rms(c)
DAV:   1    -0.222785386189E+03   -0.26542E-04   -0.57182E-01   448   0.148E+00    0.272E-01
RMM:   2    -0.222786677457E+03   -0.12913E-02   -0.14671E-02   509   0.326E-01    0.395E-02
RMM:   3    -0.222786976536E+03   -0.29908E-03   -0.34514E-03   507   0.158E-01    0.104E-01
RMM:   4    -0.222787012279E+03   -0.35742E-04   -0.58125E-04   543   0.650E-02    0.844E-02
RMM:   5    -0.222786987776E+03    0.24503E-04   -0.40567E-05   334   0.147E-02    0.676E-02
RMM:   6    -0.222786966592E+03    0.21184E-04   -0.10866E-04   361   0.153E-02    0.237E-02
RMM:   7    -0.222786975574E+03   -0.89821E-05   -0.67962E-05   364   0.124E-02
  77 F= -.22278698E+03 E0= -.22279311E+03  d E =-.161253E-02
       N       E                     dE             d eps       ncg     rms          rms(c)
DAV:   1    -0.222786563726E+03    0.40287E-03   -0.29706E-01   464   0.107E+00    0.204E-01
RMM:   2    -0.222787253470E+03   -0.68974E-03   -0.79617E-03   511   0.237E-01    0.301E-02
RMM:   3    -0.222787412835E+03   -0.15937E-03   -0.18150E-03   501   0.113E-01    0.721E-02
RMM:   4    -0.222787429771E+03   -0.16936E-04   -0.29948E-04   537   0.469E-02    0.566E-02
RMM:   5    -0.222787415314E+03    0.14458E-04   -0.24583E-05   285   0.115E-02    0.411E-02
RMM:   6    -0.222787409092E+03    0.62218E-05   -0.57943E-05   371   0.113E-02
  78 F= -.22278741E+03 E0= -.22279350E+03  d E =-.204605E-02
       N       E                     dE             d eps       ncg     rms          rms(c)
DAV:   1    -0.222787312282E+03    0.10303E-03   -0.36621E-02   480   0.376E-01    0.714E-02
RMM:   2    -0.222787397237E+03   -0.84954E-04   -0.10306E-03   534   0.830E-02    0.154E-02
RMM:   3    -0.222787413996E+03   -0.16760E-04   -0.18905E-04   465   0.370E-02    0.201E-02
RMM:   4    -0.222787415665E+03   -0.16684E-05   -0.34839E-05   294   0.170E-02
  79 F= -.22278742E+03 E0= -.22279348E+03  d E =-.205262E-02
       N       E                     dE             d eps       ncg     rms          rms(c)
DAV:   1    -0.222786452863E+03    0.96113E-03   -0.83332E-01   464   0.174E+00    0.249E-01
RMM:   2    -0.222788099911E+03   -0.16470E-02   -0.17755E-02   524   0.359E-01    0.503E-02
RMM:   3    -0.222788462679E+03   -0.36277E-03   -0.38479E-03   513   0.168E-01    0.929E-02
RMM:   4    -0.222788514002E+03   -0.51323E-04   -0.79644E-04   551   0.738E-02    0.737E-02
RMM:   5    -0.222788483346E+03    0.30656E-04   -0.53331E-05   368   0.167E-02    0.502E-02
RMM:   6    -0.222788479977E+03    0.33689E-05   -0.16732E-04   377   0.185E-02    0.143E-02
RMM:   7    -0.222788482369E+03   -0.23920E-05   -0.25038E-05   312   0.110E-02
  80 F= -.22278848E+03 E0= -.22279445E+03  d E =-.106670E-02
       N       E                     dE             d eps       ncg     rms          rms(c)
DAV:   1    -0.222787875980E+03    0.60400E-03   -0.36459E-01   464   0.115E+00    0.173E-01
RMM:   2    -0.222788625139E+03   -0.74916E-03   -0.80415E-03   523   0.239E-01    0.327E-02
RMM:   3    -0.222788780448E+03   -0.15531E-03   -0.16645E-03   511   0.111E-01    0.595E-02
RMM:   4    -0.222788800535E+03   -0.20087E-04   -0.33854E-04   517   0.484E-02    0.463E-02
RMM:   5    -0.222788787467E+03    0.13068E-04   -0.26772E-05   298   0.119E-02    0.306E-02
RMM:   6    -0.222788785424E+03    0.20437E-05   -0.52284E-05   363   0.115E-02
  81 F= -.22278879E+03 E0= -.22279470E+03  d E =-.136976E-02
       N       E                     dE             d eps       ncg     rms          rms(c)
DAV:   1    -0.222787394829E+03    0.13926E-02   -0.98638E-01   448   0.190E+00    0.344E-01
RMM:   2    -0.222789521369E+03   -0.21265E-02   -0.23981E-02   515   0.411E-01    0.486E-02
RMM:   3    -0.222790008651E+03   -0.48728E-03   -0.54742E-03   504   0.197E-01    0.117E-01
RMM:   4    -0.222790066793E+03   -0.58142E-04   -0.96148E-04   551   0.827E-02    0.910E-02
RMM:   5    -0.222790031969E+03    0.34824E-04   -0.58979E-05   379   0.179E-02    0.705E-02
RMM:   6    -0.222790008187E+03    0.23782E-04   -0.14514E-04   348   0.178E-02    0.239E-02
RMM:   7    -0.222790015951E+03   -0.77644E-05   -0.65110E-05   366   0.134E-02
  82 F= -.22279002E+03 E0= -.22279584E+03  d E =-.123053E-02
       N       E                     dE             d eps       ncg     rms          rms(c)
DAV:   1    -0.222789791226E+03    0.21696E-03   -0.10253E-01   480   0.616E-01    0.114E-01
RMM:   2    -0.222790021529E+03   -0.23030E-03   -0.26271E-03   515   0.134E-01    0.177E-02
RMM:   3    -0.222790072880E+03   -0.51351E-04   -0.57224E-04   501   0.634E-02    0.383E-02
RMM:   4    -0.222790078498E+03   -0.56180E-05   -0.10033E-04   373   0.269E-02    0.290E-02
RMM:   5    -0.222790074870E+03    0.36284E-05   -0.98161E-06   252   0.936E-03
  83 F= -.22279007E+03 E0= -.22279587E+03  d E =-.128945E-02
       N       E                     dE             d eps       ncg     rms          rms(c)
DAV:   1    -0.222788867633E+03    0.12109E-02   -0.87874E-01   464   0.174E+00    0.242E-01
RMM:   2    -0.222790545391E+03   -0.16778E-02   -0.18153E-02   530   0.355E-01    0.541E-02
RMM:   3    -0.222790884652E+03   -0.33926E-03   -0.36089E-03   521   0.164E-01    0.802E-02
RMM:   4    -0.222790932020E+03   -0.47368E-04   -0.83228E-04   547   0.732E-02    0.551E-02
RMM:   5    -0.222790914751E+03    0.17268E-04   -0.53656E-05   365   0.164E-02    0.333E-02
RMM:   6    -0.222790916227E+03   -0.14757E-05   -0.68788E-05   371   0.137E-02
  84 F= -.22279092E+03 E0= -.22279667E+03  d E =-.841357E-03
       N       E                     dE             d eps       ncg     rms          rms(c)
DAV:   1    -0.222787910881E+03    0.30039E-02   -0.13821E+00   448   0.218E+00    0.313E-01
RMM:   2    -0.222790615336E+03   -0.27045E-02   -0.29487E-02   535   0.448E-01    0.766E-02
RMM:   3    -0.222791127765E+03   -0.51243E-03   -0.54734E-03   517   0.202E-01    0.920E-02
[...]
 124 F= -.22281245E+03 E0= -.22281712E+03  d E =0.832963E-03
       N       E                     dE             d eps       ncg     rms          rms(c)
DAV:   1    -0.222663956586E+03    0.14849E+00   -0.62597E+01   432   0.140E+01    0.210E+00
RMM:   2    -0.222785132482E+03   -0.12118E+00   -0.12961E+00   519   0.285E+00    0.345E-01
RMM:   3    -0.222816392468E+03   -0.31260E-01   -0.33686E-01   552   0.149E+00    0.732E-01
RMM:   4    -0.222820031033E+03   -0.36386E-02   -0.52372E-02   521   0.559E-01    0.591E-01
RMM:   5    -0.222818849975E+03    0.11811E-02   -0.39222E-03   467   0.141E-01    0.460E-01
RMM:   6    -0.222818097787E+03    0.75219E-03   -0.50191E-03   423   0.109E-01    0.156E-01
RMM:   7    -0.222818350050E+03   -0.25226E-03   -0.22528E-03   509   0.788E-02    0.848E-02
RMM:   8    -0.222818186794E+03    0.16326E-03   -0.24600E-04   391   0.377E-02    0.450E-02
RMM:   9    -0.222818219717E+03   -0.32922E-04   -0.93842E-04   424   0.434E-02    0.505E-02
RMM:  10    -0.222818157073E+03    0.62643E-04   -0.16489E-04   359   0.231E-02    0.188E-02
RMM:  11    -0.222818164304E+03   -0.72310E-05   -0.93350E-05   389   0.136E-02
 125 F= -.22281816E+03 E0= -.22282317E+03  d E =-.488330E-02
       N       E                     dE             d eps       ncg     rms          rms(c)
DAV:   1    -0.222807800050E+03    0.10357E-01   -0.60686E+00   448   0.420E+00    0.550E-01
RMM:   2    -0.222818161682E+03   -0.10362E-01   -0.11027E-01   517   0.840E-01    0.974E-02
RMM:   3    -0.222820863864E+03   -0.27022E-02   -0.28244E-02   556   0.416E-01    0.199E-01
RMM:   4    -0.222821094737E+03   -0.23087E-03   -0.38553E-03   509   0.155E-01    0.147E-01
RMM:   5    -0.222820968745E+03    0.12599E-03   -0.32039E-04   423   0.398E-02    0.990E-02
RMM:   6    -0.222820945731E+03    0.23014E-04   -0.54652E-04   395   0.346E-02    0.290E-02
RMM:   7    -0.222820961380E+03   -0.15649E-04   -0.13882E-04   469   0.227E-02    0.260E-02
RMM:   8    -0.222820940789E+03    0.20590E-04   -0.80073E-05   341   0.132E-02    0.959E-03
RMM:   9    -0.222820946101E+03   -0.53111E-05   -0.37684E-05   328   0.101E-02
 126 F= -.22282095E+03 E0= -.22282583E+03  d E =-.278180E-02
       N       E                     dE             d eps       ncg     rms          rms(c)
DAV:   1    -0.222818008260E+03    0.29325E-02   -0.19218E+00   464   0.237E+00    0.308E-01
RMM:   2    -0.222821242881E+03   -0.32346E-02   -0.34325E-02   516   0.469E-01    0.522E-02
RMM:   3    -0.222822068808E+03   -0.82593E-03   -0.85737E-03   553   0.231E-01    0.111E-01
RMM:   4    -0.222822148571E+03   -0.79762E-04   -0.12944E-03   504   0.885E-02    0.806E-02
RMM:   5    -0.222822110234E+03    0.38337E-04   -0.95248E-05   399   0.221E-02    0.541E-02
RMM:   6    -0.222822103569E+03    0.66645E-05   -0.18190E-04   366   0.201E-02    0.149E-02
RMM:   7    -0.222822108440E+03   -0.48705E-05   -0.44770E-05   393   0.130E-02
 127 F= -.22282211E+03 E0= -.22282693E+03  d E =-.394414E-02
       N       E                     dE             d eps       ncg     rms          rms(c)
DAV:   1    -0.222806548697E+03    0.15555E-01   -0.77079E+00   448   0.475E+00    0.627E-01
RMM:   2    -0.222819907047E+03   -0.13358E-01   -0.14231E-01   517   0.949E-01    0.113E-01
RMM:   3    -0.222823346626E+03   -0.34396E-02   -0.36089E-02   555   0.474E-01    0.228E-01
RMM:   4    -0.222823679326E+03   -0.33270E-03   -0.53321E-03   512   0.180E-01    0.170E-01
RMM:   5    -0.222823519255E+03    0.16007E-03   -0.41631E-04   431   0.455E-02    0.115E-01
RMM:   6    -0.222823486768E+03    0.32487E-04   -0.70052E-04   399   0.395E-02    0.331E-02
RMM:   7    -0.222823507010E+03   -0.20242E-04   -0.17931E-04   486   0.258E-02    0.294E-02
RMM:   8    -0.222823481053E+03    0.25957E-04   -0.10222E-04   346   0.151E-02    0.111E-02
RMM:   9    -0.222823488024E+03   -0.69708E-05   -0.49047E-05   348   0.115E-02
 128 F= -.22282349E+03 E0= -.22282819E+03  d E =-.532372E-02
       N       E                     dE             d eps       ncg     rms          rms(c)
DAV:   1    -0.222823597568E+03   -0.11651E-03   -0.10435E+00   464   0.182E+00    0.317E-01
RMM:   2    -0.222825650736E+03   -0.20532E-02   -0.22508E-02   520   0.388E-01    0.480E-02
RMM:   3    -0.222826117435E+03   -0.46670E-03   -0.51142E-03   499   0.182E-01    0.105E-01
RMM:   4    -0.222826161099E+03   -0.43664E-04   -0.80263E-04   552   0.741E-02    0.789E-02
RMM:   5    -0.222826128332E+03    0.32767E-04   -0.62399E-05   380   0.179E-02    0.551E-02
RMM:   6    -0.222826123190E+03    0.51421E-05   -0.18945E-04   364   0.193E-02    0.125E-02
RMM:   7    -0.222826121803E+03    0.13867E-05   -0.20842E-05   324   0.110E-02
 129 F= -.22282612E+03 E0= -.22283075E+03  d E =-.263378E-02
       N       E                     dE             d eps       ncg     rms          rms(c)
DAV:   1    -0.222823928764E+03    0.21944E-02   -0.14749E+00   464   0.217E+00    0.380E-01
RMM:   2    -0.222826881917E+03   -0.29532E-02   -0.32428E-02   519   0.464E-01    0.601E-02
RMM:   3    -0.222827550168E+03   -0.66825E-03   -0.73324E-03   500   0.219E-01    0.128E-01
RMM:   4    -0.222827610095E+03   -0.59927E-04   -0.11505E-03   551   0.892E-02    0.954E-02
RMM:   5    -0.222827561104E+03    0.48991E-04   -0.95963E-05   392   0.219E-02    0.640E-02
RMM:   6    -0.222827559004E+03    0.20998E-05   -0.28269E-04   370   0.234E-02    0.159E-02
RMM:   7    -0.222827553398E+03    0.56068E-05   -0.24697E-05   331   0.132E-02
 130 F= -.22282755E+03 E0= -.22283208E+03  d E =-.406537E-02
       N       E                     dE             d eps       ncg     rms          rms(c)
DAV:   1    -0.222827291331E+03    0.26767E-03   -0.13201E-01   480   0.652E-01    0.116E-01
RMM:   2    -0.222827562173E+03   -0.27084E-03   -0.29433E-03   514   0.140E-01    0.173E-02
RMM:   3    -0.222827620707E+03   -0.58534E-04   -0.65609E-04   497   0.662E-02    0.408E-02
RMM:   4    -0.222827625732E+03   -0.50248E-05   -0.10261E-04   362   0.269E-02    0.304E-02
RMM:   5    -0.222827621328E+03    0.44036E-05   -0.11779E-05   253   0.996E-03
 131 F= -.22282762E+03 E0= -.22283213E+03  d E =-.413330E-02
       N       E                     dE             d eps       ncg     rms          rms(c)
DAV:   1    -0.222826114160E+03    0.15116E-02   -0.15442E+00   464   0.226E+00    0.350E-01
RMM:   2    -0.222829114243E+03   -0.30001E-02   -0.32503E-02   521   0.473E-01    0.630E-02
RMM:   3    -0.222829793343E+03   -0.67910E-03   -0.72635E-03   509   0.221E-01    0.120E-01
RMM:   4    -0.222829849212E+03   -0.55869E-04   -0.11365E-03   551   0.901E-02    0.885E-02
RMM:   5    -0.222829805073E+03    0.44138E-04   -0.89920E-05   390   0.213E-02    0.598E-02
RMM:   6    -0.222829795926E+03    0.91473E-05   -0.18674E-04   363   0.203E-02    0.169E-02
RMM:   7    -0.222829801280E+03   -0.53543E-05   -0.49776E-05   375   0.133E-02
 132 F= -.22282980E+03 E0= -.22283408E+03  d E =-.217995E-02
       N       E                     dE             d eps       ncg     rms          rms(c)
DAV:   1    -0.222823066758E+03    0.67292E-02   -0.31684E+00   448   0.326E+00    0.511E-01
RMM:   2    -0.222829356402E+03   -0.62896E-02   -0.67767E-02   520   0.685E-01    0.895E-02
RMM:   3    -0.222830762814E+03   -0.14064E-02   -0.15204E-02   507   0.322E-01    0.178E-01
RMM:   4    -0.222830890935E+03   -0.12812E-03   -0.24562E-03   553   0.132E-01    0.134E-01
RMM:   5    -0.222830798700E+03    0.92235E-04   -0.17891E-04   416   0.303E-02    0.973E-02
RMM:   6    -0.222830763407E+03    0.35294E-04   -0.43618E-04   371   0.305E-02    0.263E-02
RMM:   7    -0.222830777221E+03   -0.13815E-04   -0.12470E-04   424   0.202E-02    0.212E-02
RMM:   8    -0.222830761225E+03    0.15996E-04   -0.43992E-05   328   0.107E-02    0.911E-03
RMM:   9    -0.222830766800E+03   -0.55754E-05   -0.44874E-05   343   0.951E-03
 133 F= -.22283077E+03 E0= -.22283473E+03  d E =-.314547E-02
       N       E                     dE             d eps       ncg     rms          rms(c)
DAV:   1    -0.222827554767E+03    0.32065E-02   -0.23676E+00   464   0.282E+00    0.401E-01
RMM:   2    -0.222831962982E+03   -0.44082E-02   -0.47400E-02   527   0.579E-01    0.830E-02
RMM:   3    -0.222832911463E+03   -0.94848E-03   -0.10179E-02   504   0.267E-01    0.124E-01
RMM:   4    -0.222833002113E+03   -0.90650E-04   -0.16492E-03   565   0.110E-01    0.940E-02
RMM:   5    -0.222832947047E+03    0.55066E-04   -0.12838E-04   401   0.259E-02    0.617E-02
RMM:   6    -0.222832940918E+03    0.61290E-05   -0.21452E-04   365   0.227E-02    0.188E-02
RMM:   7    -0.222832945479E+03   -0.45611E-05   -0.50902E-05   393   0.145E-02
 134 F= -.22283295E+03 E0= -.22283665E+03  d E =-.217868E-02
       N       E                     dE             d eps       ncg     rms          rms(c)
DAV:   1    -0.222831246468E+03    0.16945E-02   -0.99015E-01   464   0.183E+00    0.260E-01
RMM:   2    -0.222833126940E+03   -0.18805E-02   -0.20221E-02   526   0.377E-01    0.589E-02
RMM:   3    -0.222833518498E+03   -0.39156E-03   -0.42207E-03   502   0.173E-01    0.861E-02
RMM:   4    -0.222833557527E+03   -0.39029E-04   -0.72208E-04   566   0.725E-02    0.650E-02
RMM:   5    -0.222833532639E+03    0.24888E-04   -0.57327E-05   365   0.172E-02    0.416E-02
RMM:   6    -0.222833531593E+03    0.10462E-05   -0.99180E-05   357   0.154E-02
 135 F= -.22283353E+03 E0= -.22283709E+03  d E =-.276479E-02
       N       E                     dE             d eps       ncg     rms          rms(c)
DAV:   1    -0.222823672542E+03    0.98601E-02   -0.39427E+00   448   0.364E+00    0.520E-01
RMM:   2    -0.222831080025E+03   -0.74075E-02   -0.80525E-02   529   0.749E-01    0.117E-01
RMM:   3    -0.222832691775E+03   -0.16117E-02   -0.17212E-02   509   0.347E-01    0.159E-01
RMM:   4    -0.222832850392E+03   -0.15862E-03   -0.28449E-03   563   0.144E-01    0.119E-01
RMM:   5    -0.222832764264E+03    0.86128E-04   -0.22579E-04   414   0.341E-02    0.774E-02
RMM:   6    -0.222832758842E+03    0.54217E-05   -0.32152E-04   378   0.285E-02    0.261E-02
RMM:   7    -0.222832767095E+03   -0.82528E-05   -0.82741E-05   441   0.183E-02
 136 F= -.22283277E+03 E0= -.22283597E+03  d E =-.200029E-02
       N       E                     dE             d eps       ncg     rms          rms(c)
DAV:   1    -0.222828953355E+03    0.38055E-02   -0.20497E+00   448   0.262E+00    0.369E-01
RMM:   2    -0.222832721944E+03   -0.37686E-02   -0.40901E-02   530   0.534E-01    0.785E-02
RMM:   3    -0.222833532765E+03   -0.81082E-03   -0.86030E-03   511   0.245E-01    0.107E-01
RMM:   4    -0.222833616141E+03   -0.83376E-04   -0.14428E-03   562   0.102E-01    0.812E-02
RMM:   5    -0.222833573743E+03    0.42398E-04   -0.10699E-04   398   0.238E-02    0.542E-02
RMM:   6    -0.222833568859E+03    0.48841E-05   -0.16112E-04   372   0.199E-02    0.190E-02
RMM:   7    -0.222833572796E+03   -0.39368E-05   -0.36993E-05   353   0.126E-02
 137 F= -.22283357E+03 E0= -.22283702E+03  d E =-.280600E-02
       N       E                     dE             d eps       ncg     rms          rms(c)
DAV:   1    -0.222832110273E+03    0.14586E-02   -0.13788E+00   448   0.218E+00    0.311E-01
RMM:   2    -0.222834619546E+03   -0.25093E-02   -0.27157E-02   532   0.442E-01    0.648E-02
RMM:   3    -0.222835133701E+03   -0.51416E-03   -0.55296E-03   501   0.201E-01    0.866E-02
RMM:   4    -0.222835197264E+03   -0.63563E-04   -0.10847E-03   571   0.878E-02    0.639E-02
RMM:   5    -0.222835174111E+03    0.23153E-04   -0.65842E-05   380   0.190E-02    0.438E-02
RMM:   6    -0.222835169557E+03    0.45545E-05   -0.83245E-05   354   0.154E-02
 138 F= -.22283517E+03 E0= -.22283856E+03  d E =-.159676E-02
       N       E                     dE             d eps       ncg     rms          rms(c)
DAV:   1    -0.222833346581E+03    0.18275E-02   -0.94394E-01   464   0.180E+00    0.257E-01
RMM:   2    -0.222835088653E+03   -0.17421E-02   -0.18993E-02   537   0.365E-01    0.618E-02
RMM:   3    -0.222835432877E+03   -0.34422E-03   -0.36836E-03   495   0.164E-01    0.710E-02
RMM:   4    -0.222835478768E+03   -0.45891E-04   -0.75516E-04   578   0.734E-02    0.542E-02
RMM:   5    -0.222835463837E+03    0.14931E-04   -0.49263E-05   343   0.161E-02    0.380E-02
RMM:   6    -0.222835461162E+03    0.26754E-05   -0.54847E-05   348   0.126E-02
 139 F= -.22283546E+03 E0= -.22283878E+03  d E =-.188837E-02
       N       E                     dE             d eps       ncg     rms          rms(c)
DAV:   1    -0.222833489769E+03    0.19741E-02   -0.14132E+00   448   0.223E+00    0.317E-01
RMM:   2    -0.222836165848E+03   -0.26761E-02   -0.29125E-02   532   0.455E-01    0.766E-02
RMM:   3    -0.222836682299E+03   -0.51645E-03   -0.55950E-03   495   0.206E-01    0.936E-02
RMM:   4    -0.222836767879E+03   -0.85580E-04   -0.12718E-03   570   0.935E-02    0.750E-02
RMM:   5    -0.222836732529E+03    0.35350E-04   -0.77380E-05   388   0.203E-02    0.514E-02
RMM:   6    -0.222836726635E+03    0.58943E-05   -0.13051E-04   357   0.184E-02    0.173E-02
RMM:   7    -0.222836730752E+03   -0.41171E-05   -0.35525E-05   346   0.121E-02
 140 F= -.22283673E+03 E0= -.22283989E+03  d E =-.126959E-02
       N       E                     dE             d eps       ncg     rms          rms(c)
DAV:   1    -0.222835169997E+03    0.15566E-02   -0.73749E-01   464   0.162E+00    0.231E-01
RMM:   2    -0.222836581771E+03   -0.14118E-02   -0.15136E-02   527   0.331E-01    0.482E-02
RMM:   3    -0.222836863883E+03   -0.28211E-03   -0.30603E-03   493   0.152E-01    0.755E-02
RMM:   4    -0.222836908005E+03   -0.44122E-04   -0.65524E-04   563   0.675E-02    0.611E-02
RMM:   5    -0.222836887179E+03    0.20826E-04   -0.39250E-05   333   0.147E-02    0.445E-02
RMM:   6    -0.222836880042E+03    0.71364E-05   -0.89683E-05   346   0.146E-02
 141 F= -.22283688E+03 E0= -.22283996E+03  d E =-.141888E-02
       N       E                     dE             d eps       ncg     rms          rms(c)
DAV:   1    -0.222836370481E+03    0.51670E-03   -0.55060E-01   464   0.142E+00    0.233E-01
RMM:   2    -0.222837499884E+03   -0.11294E-02   -0.12528E-02   528   0.299E-01    0.446E-02
RMM:   3    -0.222837720361E+03   -0.22048E-03   -0.24359E-03   490   0.136E-01    0.695E-02
RMM:   4    -0.222837754358E+03   -0.33997E-04   -0.54080E-04   561   0.616E-02    0.539E-02
RMM:   5    -0.222837737030E+03    0.17328E-04   -0.35668E-05   326   0.138E-02    0.368E-02
RMM:   6    -0.222837732957E+03    0.40735E-05   -0.49200E-05   358   0.118E-02
 142 F= -.22283773E+03 E0= -.22284068E+03  d E =-.852914E-03
       N       E                     dE             d eps       ncg     rms          rms(c)
DAV:   1    -0.222837214215E+03    0.52282E-03   -0.25983E-01   464   0.976E-01    0.160E-01
RMM:   2    -0.222837753003E+03   -0.53879E-03   -0.60065E-03   533   0.205E-01    0.349E-02
RMM:   3    -0.222837850722E+03   -0.97719E-04   -0.10783E-03   486   0.919E-02    0.440E-02
RMM:   4    -0.222837866892E+03   -0.16170E-04   -0.26474E-04   530   0.432E-02    0.332E-02
RMM:   5    -0.222837860143E+03    0.67493E-05   -0.18550E-05   285   0.104E-02
 143 F= -.22283786E+03 E0= -.22284071E+03  d E =-.980100E-03
       N       E                     dE             d eps       ncg     rms          rms(c)
DAV:   1    -0.222836897915E+03    0.96898E-03   -0.72611E-01   448   0.161E+00    0.248E-01
RMM:   2    -0.222838357589E+03   -0.14597E-02   -0.15929E-02   521   0.338E-01    0.453E-02
RMM:   3    -0.222838685942E+03   -0.32835E-03   -0.34996E-03   501   0.159E-01    0.894E-02
RMM:   4    -0.222838723699E+03   -0.37758E-04   -0.64917E-04   547   0.676E-02    0.670E-02
RMM:   5    -0.222838704862E+03    0.18837E-04   -0.38504E-05   341   0.147E-02    0.519E-02
RMM:   6    -0.222838693623E+03    0.11239E-04   -0.69465E-05   351   0.133E-02    0.209E-02
RMM:   7    -0.222838698060E+03   -0.44371E-05   -0.41082E-05   345   0.104E-02
 144 F= -.22283870E+03 E0= -.22284157E+03  d E =-.837917E-03
       N       E                     dE             d eps       ncg     rms          rms(c)
DAV:   1    -0.222837950888E+03    0.74274E-03   -0.33737E-01   464   0.110E+00    0.177E-01
RMM:   2    -0.222838649346E+03   -0.69846E-03   -0.77122E-03   526   0.233E-01    0.343E-02
RMM:   3    -0.222838797162E+03   -0.14782E-03   -0.15760E-03   498   0.106E-01    0.556E-02
RMM:   4    -0.222838812560E+03   -0.15397E-04   -0.29706E-04   524   0.460E-02    0.404E-02
RMM:   5    -0.222838804811E+03    0.77483E-05   -0.19599E-05   286   0.110E-02
 145 F= -.22283880E+03 E0= -.22284170E+03  d E =-.944668E-03
       N       E                     dE             d eps       ncg     rms          rms(c)
DAV:   1    -0.222837404445E+03    0.14081E-02   -0.84998E-01   448   0.171E+00    0.268E-01
RMM:   2    -0.222839035073E+03   -0.16306E-02   -0.17703E-02   517   0.356E-01    0.480E-02
RMM:   3    -0.222839411663E+03   -0.37659E-03   -0.40562E-03   503   0.170E-01    0.946E-02
RMM:   4    -0.222839456801E+03   -0.45139E-04   -0.72236E-04   550   0.711E-02    0.732E-02
RMM:   5    -0.222839428888E+03    0.27914E-04   -0.51466E-05   370   0.166E-02    0.486E-02
RMM:   6    -0.222839425283E+03    0.36045E-05   -0.12950E-04   354   0.169E-02    0.129E-02
RMM:   7    -0.222839428915E+03   -0.36323E-05   -0.32299E-05   347   0.111E-02
 146 F= -.22283943E+03 E0= -.22284226E+03  d E =-.624104E-03
       N       E                     dE             d eps       ncg     rms          rms(c)
DAV:   1    -0.222839374003E+03    0.51280E-04   -0.22576E-02   480   0.282E-01    0.488E-02
RMM:   2    -0.222839422464E+03   -0.48461E-04   -0.51985E-04   509   0.607E-02    0.821E-03
RMM:   3    -0.222839432691E+03   -0.10227E-04   -0.11578E-04   449   0.289E-02    0.189E-02
RMM:   4    -0.222839433859E+03   -0.11677E-05   -0.19956E-05   271   0.122E-02
 147 F= -.22283943E+03 E0= -.22284226E+03  d E =-.629047E-03
       N       E                     dE             d eps       ncg     rms          rms(c)
DAV:   1    -0.222839416568E+03    0.16123E-04   -0.61173E-03   464   0.145E-01    0.346E-02
RMM:   2    -0.222839428751E+03   -0.12184E-04   -0.14900E-04   522   0.306E-02    0.399E-03
RMM:   3    -0.222839430866E+03   -0.21141E-05   -0.22635E-05   276   0.130E-02
 148 F= -.22283943E+03 E0= -.22284226E+03  d E =-.626054E-03
       N       E                     dE             d eps       ncg     rms          rms(c)
DAV:   1    -0.222839426837E+03    0.19148E-05   -0.23209E-03   464   0.901E-02    0.150E-02
RMM:   2    -0.222839431772E+03   -0.49352E-05   -0.55832E-05   458   0.191E-02
 149 F= -.22283943E+03 E0= -.22284226E+03  d E =-.626961E-03
       N       E                     dE             d eps       ncg     rms          rms(c)
DAV:   1    -0.222839430778E+03   -0.39412E-05   -0.56603E-04   448   0.438E-02    0.830E-03
RMM:   2    -0.222839431725E+03   -0.94698E-06   -0.12623E-05   219   0.915E-03
 150 F= -.22283943E+03 E0= -.22284226E+03  d E =-.626913E-03
       N       E                     dE             d eps       ncg     rms          rms(c)
DAV:   1    -0.222839431992E+03   -0.12144E-05   -0.10815E-04   400   0.202E-02    0.240E-03
RMM:   2    -0.222839432267E+03   -0.27477E-06   -0.34255E-06   211   0.494E-03
 151 F= -.22283943E+03 E0= -.22284226E+03  d E =-.627456E-03
       N       E                     dE             d eps       ncg     rms          rms(c)
DAV:   1    -0.222839067705E+03    0.36429E-03   -0.39273E-01   448   0.115E+00    0.171E-01
RMM:   2    -0.222839777935E+03   -0.71023E-03   -0.76602E-03   525   0.232E-01    0.342E-02
RMM:   3    -0.222839921619E+03   -0.14368E-03   -0.15678E-03   504   0.108E-01    0.504E-02
RMM:   4    -0.222839946457E+03   -0.24837E-04   -0.35569E-04   522   0.481E-02    0.412E-02
RMM:   5    -0.222839936329E+03    0.10128E-04   -0.21381E-05   286   0.114E-02    0.289E-02
RMM:   6    -0.222839933794E+03    0.25344E-05   -0.35381E-05   351   0.102E-02
 152 F= -.22283993E+03 E0= -.22284267E+03  d E =-.501527E-03
