  10  10   0   0
  0.2078586E+02  0.5847929E-09  0.6381081E-09  0.7053821E-09  0.5000000E-15
   1.0000000000000000E-004
  CAR 
 unknown system                          
     16.12365597    -23.38414648  301      1.39053797      1.00000000
    -23.384  0.0000E+00  0.0000E+00
    -23.252  0.0000E+00  0.0000E+00
    -23.121  0.0000E+00  0.0000E+00
    -22.989  0.0000E+00  0.0000E+00
    -22.857  0.0000E+00  0.0000E+00
    -22.726  0.0000E+00  0.0000E+00
    -22.594  0.0000E+00  0.0000E+00
    -22.462  0.0000E+00  0.0000E+00
    -22.331  0.0000E+00  0.0000E+00
    -22.199  0.0000E+00  0.0000E+00
    -22.067  0.0000E+00  0.0000E+00
    -21.936  0.0000E+00  0.0000E+00
    -21.804  0.1169E-09  0.1540E-10
    -21.672  0.3959E-02  0.5213E-03
    -21.540  0.1206E+01  0.1594E+00
    -21.409  0.6117E+00  0.2400E+00
    -21.277  0.2619E-03  0.2400E+00
    -21.145  0.6116E-12  0.2400E+00
    -21.014  0.0000E+00  0.2400E+00
    -20.882  0.0000E+00  0.2400E+00
    -20.750  0.0000E+00  0.2400E+00
    -20.619  0.0000E+00  0.2400E+00
    -20.487  0.0000E+00  0.2400E+00
    -20.355  0.0000E+00  0.2400E+00
    -20.224  0.0000E+00  0.2400E+00
    -20.092  0.0000E+00  0.2400E+00
    -19.960  0.0000E+00  0.2400E+00
    -19.828  0.0000E+00  0.2400E+00
    -19.697  0.0000E+00  0.2400E+00
    -19.565  0.0000E+00  0.2400E+00
    -19.433  0.0000E+00  0.2400E+00
    -19.302  0.0000E+00  0.2400E+00
    -19.170  0.0000E+00  0.2400E+00
    -19.038  0.0000E+00  0.2400E+00
    -18.907  0.0000E+00  0.2400E+00
    -18.775  0.0000E+00  0.2400E+00
    -18.643  0.0000E+00  0.2400E+00
    -18.512  0.0000E+00  0.2400E+00
    -18.380  0.0000E+00  0.2400E+00
    -18.248  0.0000E+00  0.2400E+00
    -18.116  0.0000E+00  0.2400E+00
    -17.985  0.0000E+00  0.2400E+00
    -17.853  0.0000E+00  0.2400E+00
    -17.721  0.0000E+00  0.2400E+00
    -17.590  0.0000E+00  0.2400E+00
    -17.458  0.0000E+00  0.2400E+00
    -17.326  0.0000E+00  0.2400E+00
    -17.195  0.0000E+00  0.2400E+00
    -17.063  0.0000E+00  0.2400E+00
    -16.931  0.0000E+00  0.2400E+00
    -16.800  0.0000E+00  0.2400E+00
    -16.668  0.0000E+00  0.2400E+00
    -16.536  0.0000E+00  0.2400E+00
    -16.404  0.0000E+00  0.2400E+00
    -16.273  0.0000E+00  0.2400E+00
    -16.141  0.0000E+00  0.2400E+00
    -16.009  0.0000E+00  0.2400E+00
    -15.878  0.0000E+00  0.2400E+00
    -15.746  0.0000E+00  0.2400E+00
    -15.614  0.0000E+00  0.2400E+00
    -15.483  0.0000E+00  0.2400E+00
    -15.351  0.0000E+00  0.2400E+00
    -15.219  0.0000E+00  0.2400E+00
    -15.088  0.0000E+00  0.2400E+00
    -14.956  0.0000E+00  0.2400E+00
    -14.824  0.0000E+00  0.2400E+00
    -14.692  0.0000E+00  0.2400E+00
    -14.561  0.0000E+00  0.2400E+00
    -14.429  0.0000E+00  0.2400E+00
    -14.297  0.0000E+00  0.2400E+00
    -14.166  0.0000E+00  0.2400E+00
    -14.034  0.0000E+00  0.2400E+00
    -13.902  0.0000E+00  0.2400E+00
    -13.771  0.0000E+00  0.2400E+00
    -13.639  0.0000E+00  0.2400E+00
    -13.507  0.0000E+00  0.2400E+00
    -13.376  0.0000E+00  0.2400E+00
    -13.244  0.0000E+00  0.2400E+00
    -13.112  0.0000E+00  0.2400E+00
    -12.980  0.0000E+00  0.2400E+00
    -12.849  0.0000E+00  0.2400E+00
    -12.717  0.0000E+00  0.2400E+00
    -12.585  0.0000E+00  0.2400E+00
    -12.454  0.0000E+00  0.2400E+00
    -12.322  0.0000E+00  0.2400E+00
    -12.190  0.0000E+00  0.2400E+00
    -12.059  0.0000E+00  0.2400E+00
    -11.927  0.0000E+00  0.2400E+00
    -11.795  0.0000E+00  0.2400E+00
    -11.663  0.0000E+00  0.2400E+00
    -11.532  0.0000E+00  0.2400E+00
    -11.400  0.0000E+00  0.2400E+00
    -11.268  0.0000E+00  0.2400E+00
    -11.137  0.0000E+00  0.2400E+00
    -11.005  0.0000E+00  0.2400E+00
    -10.873  0.7073E-13  0.2400E+00
    -10.742  0.7738E-05  0.2400E+00
    -10.610  0.3721E-02  0.2405E+00
    -10.478  0.4188E-01  0.2460E+00
    -10.347  0.6368E-01  0.2544E+00
    -10.215  0.1637E-01  0.2565E+00
    -10.083  0.6248E-01  0.2648E+00
     -9.951  0.9282E-02  0.2660E+00
     -9.820  0.1996E+00  0.2923E+00
     -9.688  0.2059E+00  0.3194E+00
     -9.556  0.4588E-02  0.3200E+00
     -9.425  0.4551E-07  0.3200E+00
     -9.293  0.0000E+00  0.3200E+00
     -9.161  0.0000E+00  0.3200E+00
     -9.030  0.0000E+00  0.3200E+00
     -8.898  0.0000E+00  0.3200E+00
     -8.766  0.0000E+00  0.3200E+00
     -8.635  0.0000E+00  0.3200E+00
     -8.503  0.0000E+00  0.3200E+00
     -8.371  0.0000E+00  0.3200E+00
     -8.239  0.0000E+00  0.3200E+00
     -8.108  0.0000E+00  0.3200E+00
     -7.976  0.0000E+00  0.3200E+00
     -7.844  0.0000E+00  0.3200E+00
     -7.713  0.0000E+00  0.3200E+00
     -7.581  0.0000E+00  0.3200E+00
     -7.449  0.0000E+00  0.3200E+00
     -7.318  0.0000E+00  0.3200E+00
     -7.186  0.0000E+00  0.3200E+00
     -7.054  0.0000E+00  0.3200E+00
     -6.923  0.0000E+00  0.3200E+00
     -6.791  0.0000E+00  0.3200E+00
     -6.659  0.0000E+00  0.3200E+00
     -6.527  0.0000E+00  0.3200E+00
     -6.396  0.0000E+00  0.3200E+00
     -6.264  0.0000E+00  0.3200E+00
     -6.132  0.0000E+00  0.3200E+00
     -6.001  0.0000E+00  0.3200E+00
     -5.869  0.0000E+00  0.3200E+00
     -5.737  0.0000E+00  0.3200E+00
     -5.606  0.0000E+00  0.3200E+00
     -5.474  0.0000E+00  0.3200E+00
     -5.342  0.0000E+00  0.3200E+00
     -5.211  0.9486E-12  0.3200E+00
     -5.079  0.4690E-04  0.3200E+00
     -4.947  0.2755E-01  0.3236E+00
     -4.815  0.8012E-01  0.3342E+00
     -4.684  0.2054E+00  0.3612E+00
     -4.552  0.5076E+00  0.4281E+00
     -4.420  0.5496E+00  0.5004E+00
     -4.289  0.1479E+00  0.5199E+00
     -4.157  0.5957E-03  0.5200E+00
     -4.025  0.2079E-10  0.5200E+00
     -3.894  0.0000E+00  0.5200E+00
     -3.762  0.0000E+00  0.5200E+00
     -3.630  0.0000E+00  0.5200E+00
     -3.499  0.0000E+00  0.5200E+00
     -3.367  0.0000E+00  0.5200E+00
     -3.235  0.0000E+00  0.5200E+00
     -3.103  0.1873E-17  0.5200E+00
     -2.972  0.6103E-07  0.5200E+00
     -2.840  0.4380E-02  0.5206E+00
     -2.708  0.7731E-01  0.5308E+00
     -2.577  0.1125E+00  0.5456E+00
     -2.445  0.6965E-01  0.5547E+00
     -2.313  0.1056E-01  0.5561E+00
     -2.182  0.2357E-01  0.5592E+00
     -2.050  0.5788E-02  0.5600E+00
     -1.918  0.1746E-06  0.5600E+00
     -1.787  0.7308E-05  0.5600E+00
     -1.655  0.1109E-01  0.5615E+00
     -1.523  0.3825E-01  0.5665E+00
     -1.391  0.6130E-01  0.5746E+00
     -1.260  0.5125E-01  0.5813E+00
     -1.128  0.3287E-01  0.5856E+00
     -0.996  0.5059E-01  0.5923E+00
     -0.865  0.2076E-01  0.5950E+00
     -0.733  0.6232E-01  0.6033E+00
     -0.601  0.6407E-01  0.6117E+00
     -0.470  0.4247E-01  0.6173E+00
     -0.338  0.6709E-01  0.6261E+00
     -0.206  0.5623E-01  0.6335E+00
     -0.075  0.7232E-01  0.6430E+00
      0.057  0.6448E-01  0.6515E+00
      0.189  0.1157E+00  0.6668E+00
      0.321  0.1104E+00  0.6813E+00
      0.452  0.9059E-01  0.6932E+00
      0.584  0.9711E-01  0.7060E+00
      0.716  0.9905E-01  0.7191E+00
      0.847  0.1259E+00  0.7357E+00
      0.979  0.1357E+00  0.7535E+00
      1.111  0.4016E-01  0.7588E+00
      1.242  0.8876E-02  0.7600E+00
      1.374  0.5453E-04  0.7600E+00
      1.506  0.4308E-11  0.7600E+00
      1.637  0.0000E+00  0.7600E+00
      1.769  0.0000E+00  0.7600E+00
      1.901  0.0000E+00  0.7600E+00
      2.033  0.0000E+00  0.7600E+00
      2.164  0.0000E+00  0.7600E+00
      2.296  0.0000E+00  0.7600E+00
      2.428  0.0000E+00  0.7600E+00
      2.559  0.0000E+00  0.7600E+00
      2.691  0.0000E+00  0.7600E+00
      2.823  0.0000E+00  0.7600E+00
      2.954  0.0000E+00  0.7600E+00
      3.086  0.0000E+00  0.7600E+00
      3.218  0.0000E+00  0.7600E+00
      3.349  0.7136E-11  0.7600E+00
      3.481  0.6062E-04  0.7600E+00
      3.613  0.3896E-02  0.7605E+00
      3.745  0.2617E-03  0.7606E+00
      3.876  0.2995E-09  0.7606E+00
      4.008  0.0000E+00  0.7606E+00
      4.140  0.0000E+00  0.7606E+00
      4.271  0.8697E-15  0.7606E+00
      4.403  0.1243E-05  0.7606E+00
      4.535  0.4570E-02  0.7612E+00
      4.666  0.4185E-02  0.7617E+00
      4.798  0.2166E-01  0.7646E+00
      4.930  0.6033E-01  0.7725E+00
      5.061  0.3812E-01  0.7775E+00
      5.193  0.5506E-01  0.7848E+00
      5.325  0.3395E-01  0.7892E+00
      5.457  0.2566E-02  0.7896E+00
      5.588  0.6129E-01  0.7977E+00
      5.720  0.3768E-01  0.8026E+00
      5.852  0.4418E-01  0.8084E+00
      5.983  0.8899E-01  0.8202E+00
      6.115  0.9512E-01  0.8327E+00
      6.247  0.4535E-01  0.8387E+00
      6.378  0.9283E-02  0.8399E+00
      6.510  0.2649E-01  0.8434E+00
      6.642  0.6849E-01  0.8524E+00
      6.773  0.2223E-01  0.8553E+00
      6.905  0.7530E-01  0.8652E+00
      7.037  0.3368E-01  0.8697E+00
      7.169  0.4606E-01  0.8757E+00
      7.300  0.7155E-01  0.8852E+00
      7.432  0.4873E-01  0.8916E+00
      7.564  0.8790E-01  0.9031E+00
      7.695  0.7513E-01  0.9130E+00
      7.827  0.4990E-01  0.9196E+00
      7.959  0.9089E-01  0.9316E+00
      8.090  0.6296E-01  0.9399E+00
      8.222  0.4303E-01  0.9455E+00
      8.354  0.6972E-01  0.9547E+00
      8.485  0.1062E+00  0.9687E+00
      8.617  0.7132E-01  0.9781E+00
      8.749  0.5716E-01  0.9856E+00
      8.881  0.9502E-01  0.9981E+00
      9.012  0.7690E-01  0.1008E+01
      9.144  0.7454E-01  0.1018E+01
      9.276  0.3515E-01  0.1023E+01
      9.407  0.6398E-01  0.1031E+01
      9.539  0.3501E-01  0.1036E+01
      9.671  0.3777E-01  0.1041E+01
      9.802  0.6063E-01  0.1049E+01
      9.934  0.3849E-01  0.1054E+01
     10.066  0.2664E-01  0.1057E+01
     10.197  0.5727E-01  0.1065E+01
     10.329  0.4894E-01  0.1071E+01
     10.461  0.4077E-01  0.1077E+01
     10.593  0.2891E-01  0.1080E+01
     10.724  0.5300E-01  0.1087E+01
     10.856  0.6131E-01  0.1096E+01
     10.988  0.4428E-01  0.1101E+01
     11.119  0.2211E-01  0.1104E+01
     11.251  0.5578E-01  0.1112E+01
     11.383  0.6632E-01  0.1120E+01
     11.514  0.3299E-01  0.1125E+01
     11.646  0.6556E-01  0.1133E+01
     11.778  0.7286E-01  0.1143E+01
     11.909  0.6162E-01  0.1151E+01
     12.041  0.7651E-01  0.1161E+01
     12.173  0.8439E-01  0.1172E+01
     12.305  0.5596E-01  0.1180E+01
     12.436  0.5889E-01  0.1187E+01
     12.568  0.6115E-01  0.1195E+01
     12.700  0.5165E-01  0.1202E+01
     12.831  0.7953E-01  0.1213E+01
     12.963  0.6265E-01  0.1221E+01
     13.095  0.5440E-01  0.1228E+01
     13.226  0.6253E-01  0.1236E+01
     13.358  0.7202E-01  0.1246E+01
     13.490  0.3604E-01  0.1251E+01
     13.621  0.3897E-01  0.1256E+01
     13.753  0.8101E-01  0.1266E+01
     13.885  0.4436E-01  0.1272E+01
     14.017  0.2253E-01  0.1275E+01
     14.148  0.1935E-01  0.1278E+01
     14.280  0.7665E-02  0.1279E+01
     14.412  0.9730E-02  0.1280E+01
     14.543  0.7502E-04  0.1280E+01
     14.675  0.4612E-11  0.1280E+01
     14.807  0.0000E+00  0.1280E+01
     14.938  0.0000E+00  0.1280E+01
     15.070  0.0000E+00  0.1280E+01
     15.202  0.0000E+00  0.1280E+01
     15.333  0.0000E+00  0.1280E+01
     15.465  0.0000E+00  0.1280E+01
     15.597  0.0000E+00  0.1280E+01
     15.729  0.0000E+00  0.1280E+01
     15.860  0.0000E+00  0.1280E+01
     15.992  0.0000E+00  0.1280E+01
     16.124  0.0000E+00  0.1280E+01
