       N       E                     dE             d eps       ncg     rms          rms(c)
DAV:   1     0.442436964957E+03    0.44244E+03   -0.33724E+04  1792   0.114E+03
DAV:   2    -0.854887360648E+01   -0.45099E+03   -0.43661E+03  2112   0.282E+02
DAV:   3    -0.356770292708E+02   -0.27128E+02   -0.27047E+02  2496   0.704E+01
DAV:   4    -0.360206818931E+02   -0.34365E+00   -0.34362E+00  2208   0.852E+00
DAV:   5    -0.360291121345E+02   -0.84302E-02   -0.84301E-02  2336   0.125E+00    0.113E+01
DAV:   6    -0.338773574245E+02    0.21518E+01   -0.44074E+00  2848   0.300E+01    0.937E+00
DAV:   7    -0.337615406702E+02    0.11582E+00   -0.13557E+00  2624   0.475E+00    0.534E+00
DAV:   8    -0.337642004802E+02   -0.26598E-02   -0.47475E-02  2176   0.132E+00    0.149E+00
DAV:   9    -0.337683743185E+02   -0.41738E-02   -0.11165E-02  2656   0.446E-01    0.279E-01
DAV:  10    -0.337693957113E+02   -0.10214E-02   -0.80196E-04  2400   0.113E-01    0.109E-01
DAV:  11    -0.337699237514E+02   -0.52804E-03   -0.85207E-04  2528   0.999E-02    0.198E-02
DAV:  12    -0.337699268882E+02   -0.31368E-05   -0.19113E-05  2112   0.245E-02
   1 F= -.33769927E+02 E0= -.33769927E+02  d E =-.337699E+02
       N       E                     dE             d eps       ncg     rms          rms(c)
DAV:   1    -0.341823932323E+02   -0.41247E+00   -0.67879E+00  2272   0.236E+01    0.439E+00
DAV:   2    -0.338588093174E+02    0.32358E+00   -0.85732E-01  2336   0.923E+00    0.197E+00
DAV:   3    -0.338072736299E+02    0.51536E-01   -0.71998E-02  2592   0.129E+00    0.812E-01
DAV:   4    -0.337967972284E+02    0.10476E-01   -0.56606E-03  2464   0.597E-01    0.397E-01
DAV:   5    -0.337949786673E+02    0.18186E-02   -0.14526E-03  2432   0.231E-01    0.122E-01
DAV:   6    -0.337949096039E+02    0.69063E-04   -0.20645E-04  2400   0.588E-02    0.393E-02
DAV:   7    -0.337949125069E+02   -0.29029E-05   -0.10394E-05  1952   0.162E-02
   2 F= -.33794913E+02 E0= -.33794913E+02  d E =-.249856E-01
       N       E                     dE             d eps       ncg     rms          rms(c)
DAV:   1    -0.337967472356E+02   -0.18376E-02   -0.28981E-02  2272   0.149E+00    0.294E-01
DAV:   2    -0.337953184070E+02    0.14288E-02   -0.40301E-03  2432   0.686E-01    0.130E-01
DAV:   3    -0.337951010024E+02    0.21740E-03   -0.30954E-04  2464   0.967E-02    0.537E-02
DAV:   4    -0.337950592107E+02    0.41792E-04   -0.35427E-05  2464   0.499E-02    0.288E-02
DAV:   5    -0.337950540053E+02    0.52054E-05   -0.62569E-06  1536   0.157E-02
   3 F= -.33795054E+02 E0= -.33795054E+02  d E =-.251271E-01
       N       E                     dE             d eps       ncg     rms          rms(c)
DAV:   1    -0.337950705240E+02   -0.11313E-04   -0.33297E-04  2400   0.161E-01    0.326E-02
DAV:   2    -0.337950551171E+02    0.15407E-04   -0.46154E-05  1984   0.732E-02    0.154E-02
DAV:   3    -0.337950521277E+02    0.29893E-05   -0.39600E-06  1280   0.109E-02
   4 F= -.33795052E+02 E0= -.33795052E+02  d E =-.251252E-01
       N       E                     dE             d eps       ncg     rms          rms(c)
DAV:   1    -0.337950601650E+02   -0.50479E-05   -0.13801E-04  2368   0.104E-01    0.197E-02
DAV:   2    -0.337950534718E+02    0.66932E-05   -0.18043E-05  1664   0.451E-02
   5 F= -.33795053E+02 E0= -.33795053E+02  d E =-.251266E-01
       N       E                     dE             d eps       ncg     rms          rms(c)
DAV:   1    -0.337950552399E+02    0.49251E-05   -0.17429E-05  1568   0.406E-02    0.999E-03
DAV:   2    -0.337950536983E+02    0.15416E-05   -0.36229E-06  1088   0.214E-02
   6 F= -.33795054E+02 E0= -.33795054E+02  d E =-.251268E-01
       N       E                     dE             d eps       ncg     rms          rms(c)
DAV:   1    -0.337977511518E+02   -0.26959E-02   -0.77309E-02  2144   0.158E+00    0.320E-01
DAV:   2    -0.337964637549E+02    0.12874E-02   -0.69559E-03  2368   0.720E-01    0.145E-01
DAV:   3    -0.337961580032E+02    0.30575E-03   -0.45989E-04  2464   0.122E-01    0.660E-02
DAV:   4    -0.337960746573E+02    0.83346E-04   -0.76583E-05  2560   0.533E-02    0.293E-02
DAV:   5    -0.337960670681E+02    0.75891E-05   -0.13161E-05  1728   0.197E-02
   7 F= -.33796067E+02 E0= -.33796067E+02  d E =-.101337E-02
