 vasp.6.3.2 27Jun22 (build Jun 14 2024 17:29:11) complex                         
 executed on             LinuxGNU date 2026.03.29  20:48:42
 running on   32 total cores
 distrk:  each k-point on   32 cores,    1 groups
 distr:  one band on NCORE=   1 cores,   32 groups


--------------------------------------------------------------------------------------------------------


 INCAR:
   EDIFF = 1e-05
   EDIFFG = -0.05
   ENCUT = 400.0
   IBRION = 2
   ISIF = 3
   ISMEAR = 0
   LCHARG = False
   LREAL = Auto
   LWAVE = False
   NSW = 100
   SIGMA = 0.05

 POTCAR:    PAW_PBE Na_pv 19Sep2006               
 POTCAR:    PAW_PBE Zn 06Sep2000                  
 POTCAR:    PAW_PBE S 06Sep2000                   
 -----------------------------------------------------------------------------
|                                                                             |
|           W    W    AA    RRRRR   N    N  II  N    N   GGGG   !!!           |
|           W    W   A  A   R    R  NN   N  II  NN   N  G    G  !!!           |
|           W    W  A    A  R    R  N N  N  II  N N  N  G       !!!           |
|           W WW W  AAAAAA  RRRRR   N  N N  II  N  N N  G  GGG   !            |
|           WW  WW  A    A  R   R   N   NN  II  N   NN  G    G                |
|           W    W  A    A  R    R  N    N  II  N    N   GGGG   !!!           |
|                                                                             |
|     For optimal performance we recommend to set                             |
|       NCORE = 2 up to number-of-cores-per-socket                            |
|     NCORE specifies how many cores store one orbital (NPAR=cpu/NCORE).      |
|     This setting can greatly improve the performance of VASP for DFT.       |
|     The default, NCORE=1 might be grossly inefficient on modern             |
|     multi-core architectures or massively parallel machines. Do your        |
|     own testing! More info at https://www.vasp.at/wiki/index.php/NCORE      |
|     Unfortunately you need to use the default for GW and RPA                |
|     calculations (for HF NCORE is supported but not extensively tested      |
|     yet).                                                                   |
|                                                                             |
 -----------------------------------------------------------------------------

 POTCAR:    PAW_PBE Na_pv 19Sep2006               
   SHA256 =  6a2f546d9e11350984debacf3dc457d8cffc0868e817d445faca461816a32b94 Na_pv/POTCAR          
   COPYR  = (c) Copyright 19Sep2006 Georg Kresse                                                    
   COPYR  = This file is part of the software VASP. Any use, copying, and all other rights are regul
   COPYR  = If you do not have a valid VASP license, you may not use, copy or distribute this file. 
   VRHFIN =Na: p6s1                                                                                 
   LEXCH  = PE                                                                                      
   EATOM  =   766.0439 eV,   56.3026 Ry                                                             
                                                                                                    
   TITEL  = PAW_PBE Na_pv 19Sep2006                                                                 
   LULTRA =        F    use ultrasoft PP ?                                                          
   IUNSCR =        1    unscreen: 0-lin 1-nonlin 2-no                                               
   RPACOR =    1.800    partial core radius                                                         
   POMASS =   22.990; ZVAL   =    7.000    mass and valenz                                          
   RCORE  =    2.200    outmost cutoff radius                                                       
   RWIGS  =    2.200; RWIGS  =    1.164    wigner-seitz radius (au A)                               
   ENMAX  =  259.561; ENMIN  =  194.671 eV                                                          
   ICORE  =        2    local potential                                                             
   LCOR   =        T    correct aug charges                                                         
   LPAW   =        T    paw PP                                                                      
   EAUG   =  368.056                                                                                
   DEXC   =    0.000                                                                                
   RMAX   =    2.245    core radius for proj-oper                                                   
   RAUG   =    1.300    factor for augmentation sphere                                              
   RDEP   =    2.259    radius for radial grids                                                     
   RDEPT  =    1.738    core radius for aug-charge                                                  
                                                                                                    
   Atomic configuration                                                                             
    5 entries                                                                                       
     n  l   j            E        occ.                                                              
     1  0  0.50     -1033.6933   2.0000                                                             
     2  0  0.50       -56.7526   2.0000                                                             
     2  1  1.50       -28.6721   6.0000                                                             
     3  0  0.50        -2.7440   1.0000                                                             
     3  2  1.50        -1.3606   0.0000                                                             
   Description                                                                                      
     l       E           TYP  RCUT    TYP  RCUT                                                     
     1    -28.6720912     23  2.000                                                                 
     1      6.8029130     23  2.000                                                                 
     0     -2.7439560     23  2.200                                                                 
     0     34.0145650     23  2.200                                                                 
     2     -1.3605826     23  2.200                                                                 
  local pseudopotential read in
  partial core-charges read in
  partial kinetic energy density read in
  atomic valenz-charges read in
  non local Contribution for L=           1  read in
    real space projection operators read in
  non local Contribution for L=           1  read in
    real space projection operators read in
  non local Contribution for L=           0  read in
    real space projection operators read in
  non local Contribution for L=           0  read in
    real space projection operators read in
    PAW grid and wavefunctions read in

   number of l-projection  operators is LMAX  =           4
   number of lm-projection operators is LMMAX =           8

 POTCAR:    PAW_PBE Zn 06Sep2000                  
   SHA256 =  501fddbd8274dd8e9725d4f3de27861d7f1e553a7e18441bc79fed8f346e7f23 Zn/POTCAR             
   COPYR  = (c) Copyright 06Sep2000 Georg Kresse                                                    
   COPYR  = This file is part of the software VASP. Any use, copying, and all other rights are regul
   COPYR  = If you do not have a valid VASP license, you may not use, copy or distribute this file. 
   VRHFIN =Zn: d10 p2                                                                               
   LEXCH  = PE                                                                                      
   EATOM  =  1748.8345 eV,  128.5357 Ry                                                             
                                                                                                    
   TITEL  = PAW_PBE Zn 06Sep2000                                                                    
   LULTRA =        F    use ultrasoft PP ?                                                          
   IUNSCR =        1    unscreen: 0-lin 1-nonlin 2-no                                               
   RPACOR =    2.000    partial core radius                                                         
   POMASS =   65.390; ZVAL   =   12.000    mass and valenz                                          
   RCORE  =    2.300    outmost cutoff radius                                                       
   RWIGS  =    2.400; RWIGS  =    1.270    wigner-seitz radius (au A)                               
   ENMAX  =  276.723; ENMIN  =  207.542 eV                                                          
   RCLOC  =    1.828    cutoff for local pot                                                        
   LCOR   =        T    correct aug charges                                                         
   LPAW   =        T    paw PP                                                                      
   EAUG   =  575.892                                                                                
   DEXC   =    0.000                                                                                
   RMAX   =    2.347    core radius for proj-oper                                                   
   RAUG   =    1.300    factor for augmentation sphere                                              
   RDEP   =    2.324    radius for radial grids                                                     
   RDEPT  =    1.788    core radius for aug-charge                                                  
                                                                                                    
   Atomic configuration                                                                             
    9 entries                                                                                       
     n  l   j            E        occ.                                                              
     1  0  0.50     -9524.6913   2.0000                                                             
     2  0  0.50     -1158.1882   2.0000                                                             
     2  1  1.50     -1003.8506   6.0000                                                             
     3  0  0.50      -129.2194   2.0000                                                             
     3  1  1.50       -83.3890   6.0000                                                             
     3  2  2.50       -10.1410  10.0000                                                             
     4  0  0.50        -5.9785   2.0000                                                             
     4  1  0.50        -4.0817   0.0000                                                             
     4  3  2.50        -1.3606   0.0000                                                             
   Description                                                                                      
     l       E           TYP  RCUT    TYP  RCUT                                                     
     2    -10.1410010     23  2.300                                                                 
     2    -11.5015836     23  2.300                                                                 
     0     -5.9785163     23  2.300                                                                 
     0      1.1858015     23  2.300                                                                 
     1     -2.7211652     23  2.300                                                                 
     1     13.2444212     23  2.300                                                                 
  local pseudopotential read in
  partial core-charges read in
  partial kinetic energy density read in
  atomic valenz-charges read in
  non local Contribution for L=           2  read in
    real space projection operators read in
  non local Contribution for L=           2  read in
    real space projection operators read in
  non local Contribution for L=           0  read in
    real space projection operators read in
  non local Contribution for L=           0  read in
    real space projection operators read in
  non local Contribution for L=           1  read in
    real space projection operators read in
  non local Contribution for L=           1  read in
    real space projection operators read in
    PAW grid and wavefunctions read in

   number of l-projection  operators is LMAX  =           6
   number of lm-projection operators is LMMAX =          18

 POTCAR:    PAW_PBE S 06Sep2000                   
   SHA256 =  0fc7481fb0695f01bdc6462160264c5c84044ae9ec85a907d398b887a2bc3132 S/POTCAR              
   COPYR  = (c) Copyright 06Sep2000 Georg Kresse                                                    
   COPYR  = This file is part of the software VASP. Any use, copying, and all other rights are regul
   COPYR  = If you do not have a valid VASP license, you may not use, copy or distribute this file. 
   VRHFIN =S : s2p4                                                                                 
   LEXCH  = PE                                                                                      
   EATOM  =   276.8230 eV,   20.3459 Ry                                                             
                                                                                                    
   TITEL  = PAW_PBE S 06Sep2000                                                                     
   LULTRA =        F    use ultrasoft PP ?                                                          
   IUNSCR =        1    unscreen: 0-lin 1-nonlin 2-no                                               
   RPACOR =    1.500    partial core radius                                                         
   POMASS =   32.066; ZVAL   =    6.000    mass and valenz                                          
   RCORE  =    1.900    outmost cutoff radius                                                       
   RWIGS  =    2.200; RWIGS  =    1.164    wigner-seitz radius (au A)                               
   ENMAX  =  258.689; ENMIN  =  194.016 eV                                                          
   ICORE  =        2    local potential                                                             
   LCOR   =        T    correct aug charges                                                         
   LPAW   =        T    paw PP                                                                      
   EAUG   =  335.092                                                                                
   DEXC   =    0.000                                                                                
   RMAX   =    1.942    core radius for proj-oper                                                   
   RAUG   =    1.300    factor for augmentation sphere                                              
   RDEP   =    1.954    radius for radial grids                                                     
   RDEPT  =    1.744    core radius for aug-charge                                                  
                                                                                                    
   Atomic configuration                                                                             
    6 entries                                                                                       
     n  l   j            E        occ.                                                              
     1  0  0.50     -2405.8406   2.0000                                                             
     2  0  0.50      -211.7007   2.0000                                                             
     2  1  1.50      -156.4958   6.0000                                                             
     3  0  0.50       -17.2562   2.0000                                                             
     3  1  0.50        -7.0085   4.0000                                                             
     3  2  1.50        -6.8029   0.0000                                                             
   Description                                                                                      
     l       E           TYP  RCUT    TYP  RCUT                                                     
     0    -17.2561641     23  1.900                                                                 
     0    -15.8743224     23  1.900                                                                 
     1     -7.0085400     23  1.900                                                                 
     1     -2.7779785     23  1.900                                                                 
     2     -6.8029130     23  1.900                                                                 
  local pseudopotential read in
  partial core-charges read in
  partial kinetic energy density read in
  atomic valenz-charges read in
  non local Contribution for L=           0  read in
    real space projection operators read in
  non local Contribution for L=           0  read in
    real space projection operators read in
  non local Contribution for L=           1  read in
    real space projection operators read in
  non local Contribution for L=           1  read in
    real space projection operators read in
    PAW grid and wavefunctions read in

   number of l-projection  operators is LMAX  =           4
   number of lm-projection operators is LMMAX =           8

 Optimization of the real space projectors (new method)

 maximal supplied QI-value         = 17.01
 optimisation between [QCUT,QGAM] = [ 10.20, 20.41] = [ 29.16,116.64] Ry 
 Optimized for a Real-space Cutoff    1.30 Angstroem

   l    n(q)    QCUT    max X(q) W(low)/X(q) W(high)/X(q)  e(spline) 
   1      7    10.205     4.940    0.23E-03    0.84E-03    0.11E-06
   1      7    10.205     6.253    0.40E-03    0.13E-02    0.18E-06
   0      8    10.205    37.438    0.23E-03    0.37E-03    0.42E-07
   0      8    10.205     9.606    0.16E-03    0.26E-03    0.31E-07
 Optimization of the real space projectors (new method)

 maximal supplied QI-value         = 16.25
 optimisation between [QCUT,QGAM] = [ 10.24, 20.48] = [ 29.35,117.42] Ry 
 Optimized for a Real-space Cutoff    1.38 Angstroem

   l    n(q)    QCUT    max X(q) W(low)/X(q) W(high)/X(q)  e(spline) 
   2      7    10.239    46.356    0.21E-03    0.48E-03    0.10E-06
   2      7    10.239    41.843    0.21E-03    0.50E-03    0.10E-06
   0      8    10.239    48.958    0.37E-03    0.79E-04    0.11E-06
   0      8    10.239    32.776    0.35E-03    0.73E-04    0.10E-06
   1      8    10.239    17.787    0.49E-03    0.70E-03    0.14E-06
   1      8    10.239    14.435    0.42E-03    0.61E-03    0.13E-06
 Optimization of the real space projectors (new method)

 maximal supplied QI-value         = 19.84
 optimisation between [QCUT,QGAM] = [ 10.12, 20.44] = [ 28.68,116.96] Ry 
 Optimized for a Real-space Cutoff    1.23 Angstroem

   l    n(q)    QCUT    max X(q) W(low)/X(q) W(high)/X(q)  e(spline) 
   0      7    10.119   187.594    0.62E-04    0.28E-03    0.52E-07
   0      7    10.119   164.243    0.61E-04    0.28E-03    0.52E-07
   1      7    10.119    67.533    0.45E-03    0.63E-03    0.13E-06
   1      7    10.119    50.729    0.44E-03    0.62E-03    0.12E-06
  PAW_PBE Na_pv 19Sep2006               :
 energy of atom  1       EATOM= -766.0439
 kinetic energy error for atom=    0.0103 (will be added to EATOM!!)
  PAW_PBE Zn 06Sep2000                  :
 energy of atom  2       EATOM=-1748.8345
 kinetic energy error for atom=    0.0107 (will be added to EATOM!!)
  PAW_PBE S 06Sep2000                   :
 energy of atom  3       EATOM= -276.8230
 kinetic energy error for atom=    0.0046 (will be added to EATOM!!)


 POSCAR: Na4 Zn2 S4
  positions in direct lattice
  No initial velocities read in
 exchange correlation table for  LEXCH =        8
   RHO(1)=    0.500       N(1)  =     2000
   RHO(2)=  100.500       N(2)  =     4000



--------------------------------------------------------------------------------------------------------


 ion  position               nearest neighbor table
   1  0.142  0.489  0.284-   8 2.77
   2  0.858  0.511  0.716-   7 2.77
   3  0.358  0.206  0.716-  10 2.77
   4  0.642  0.794  0.284-   9 2.77
   5  0.250  0.000  0.000-   7 2.36   9 2.36   8 2.36  10 2.36   6 2.92   6 2.92
   6  0.750  0.000  0.000-   8 2.36  10 2.36   7 2.36   9 2.36   5 2.92   5 2.92
   7  0.612  0.326  0.223-   5 2.36   6 2.36   2 2.77
   8  0.388  0.674  0.777-   6 2.36   5 2.36   1 2.77
   9  0.888  0.102  0.777-   5 2.36   6 2.36   4 2.77
  10  0.112  0.898  0.223-   6 2.36   5 2.36   3 2.77

  LATTYP: Found a body centered orthorhombic cell.
 ALAT       =     5.8479287200
 B/A-ratio  =     1.0911694064
 C/A-ratio  =     1.9050206811
  
  Lattice vectors:
  
 A1 = (   0.0000000000,   0.0000000000,  -7.0538209500)
 A2 = (  -4.0071599713,  -5.5370887954,  -1.7434734767)
 A3 = (  -1.3146844172,   5.5370887954,   4.1675697247)


Analysis of symmetry for initial positions (statically):
=====================================================================
 Subroutine PRICEL returns:
 Original cell was already a primitive cell.
 

 Routine SETGRP: Setting up the symmetry group for a 
 body centered orthorhombic supercell.


 Subroutine GETGRP returns: Found  8 space group operations
 (whereof  4 operations were pure point group operations)
 out of a pool of  8 trial point group operations.


The static configuration has the point symmetry C_2h.
 The point group associated with its full space group is D_2h.


Analysis of symmetry for dynamics (positions and initial velocities):
=====================================================================
 Subroutine PRICEL returns:
 Original cell was already a primitive cell.
 

 Routine SETGRP: Setting up the symmetry group for a 
 body centered orthorhombic supercell.


 Subroutine GETGRP returns: Found  8 space group operations
 (whereof  4 operations were pure point group operations)
 out of a pool of  8 trial point group operations.


The dynamic configuration has the point symmetry C_2h.
 The point group associated with its full space group is D_2h.


 Subroutine INISYM returns: Found  8 space group operations
 (whereof  4 operations are pure point group operations),
 and found     1 'primitive' translations


----------------------------------------------------------------------------------------

                                     Primitive cell                                     

  volume of cell :     207.8586

  direct lattice vectors                    reciprocal lattice vectors
     5.321844388  0.000000000 -2.424096248     0.187904780  0.044614688 -0.000000000
    -1.314684417  5.537088795 -2.886251225    -0.000000000  0.180600318  0.000000000
     0.000000000  0.000000000  7.053820950     0.064574828  0.089229397  0.141767137

  length of vectors
     5.847928720  6.381080910  7.053820950     0.193128653  0.180600318  0.179526362

  position of ions in fractional coordinates (direct lattice)
     0.141766440  0.489389420  0.283531870
     0.858233560  0.510610580  0.716468130
     0.358233560  0.205857540  0.716468130
     0.641766440  0.794142460  0.283531870
     0.250000000  0.000000000  1.000000000
     0.750000000  0.000000000  1.000000000
     0.611666210  0.325674430  0.223333410
     0.388333790  0.674325570  0.776666590
     0.888333790  0.102342010  0.776666590
     0.111666210  0.897657990  0.223333410

  ion indices of the primitive-cell ions
   primitive index   ion index
                 1           1
                 2           2
                 3           3
                 4           4
                 5           5
                 6           6
                 7           7
                 8           8
                 9           9
                10          10

----------------------------------------------------------------------------------------



 KPOINTS: pymatgen with grid density = 500 / numbe

Automatic generation of k-mesh.
 Grid dimensions read from file:
 generate k-points for:    4    3    3

 Generating k-lattice:

  Cartesian coordinates                     Fractional coordinates (reciprocal lattice)
     0.046976195  0.011153672 -0.000000000     0.250000000 -0.000000000  0.000000000
    -0.000000000  0.060200106  0.000000000     0.000000000  0.333333333  0.000000000
     0.021524943  0.029743132  0.047255712     0.000000000 -0.000000000  0.333333333

  Length of vectors
     0.048282163  0.060200106  0.059842121

  Shift w.r.t. Gamma in fractional coordinates (k-lattice)
     0.000000000  0.000000000  0.000000000

 -----------------------------------------------------------------------------
|                                                                             |
|           W    W    AA    RRRRR   N    N  II  N    N   GGGG   !!!           |
|           W    W   A  A   R    R  NN   N  II  NN   N  G    G  !!!           |
|           W    W  A    A  R    R  N N  N  II  N N  N  G       !!!           |
|           W WW W  AAAAAA  RRRRR   N  N N  II  N  N N  G  GGG   !            |
|           WW  WW  A    A  R   R   N   NN  II  N   NN  G    G                |
|           W    W  A    A  R    R  N    N  II  N    N   GGGG   !!!           |
|                                                                             |
|     Your reciprocal lattice and k-lattice belong to different lattice       |
|     classes:                                                                |
|                                                                             |
|        The reciprocal lattice is face-centered orthorhombic,                |
|        whereas your k-lattice is base-centered monoclinic.                  |
|                                                                             |
|     Results are often still useful ...                                      |
|                                                                             |
 -----------------------------------------------------------------------------

 WARNING: IBZKPT: internal override: KBLOWUP is changed to .FALSE.
      ... skipping the blow-up phase ...

 
 Subroutine IBZKPT returns following result:
 ===========================================
 
 Found     14 irreducible k-points:
 
 Following reciprocal coordinates:
            Coordinates               Weight
  0.000000  0.000000  0.000000      1.000000
  0.250000  0.000000  0.000000      2.000000
  0.500000  0.000000  0.000000      1.000000
  0.000000  0.333333  0.000000      4.000000
  0.250000  0.333333  0.000000      4.000000
  0.500000  0.333333  0.000000      4.000000
 -0.250000  0.333333  0.000000      4.000000
  0.000000  0.000000  0.333333      2.000000
  0.250000  0.000000  0.333333      2.000000
  0.500000  0.000000  0.333333      2.000000
 -0.250000  0.000000  0.333333      2.000000
  0.000000  0.333333  0.333333      2.000000
  0.250000  0.333333  0.333333      4.000000
  0.500000  0.333333  0.333333      2.000000
 
 Following cartesian coordinates:
            Coordinates               Weight
  0.000000  0.000000  0.000000      1.000000
  0.046976  0.011154  0.000000      2.000000
  0.093952  0.022307  0.000000      1.000000
  0.000000  0.060200  0.000000      4.000000
  0.046976  0.071354  0.000000      4.000000
  0.093952  0.082507  0.000000      4.000000
 -0.046976  0.049046  0.000000      4.000000
  0.021525  0.029743  0.047256      2.000000
  0.068501  0.040897  0.047256      2.000000
  0.115477  0.052050  0.047256      2.000000
 -0.025451  0.018589  0.047256      2.000000
  0.021525  0.089943  0.047256      2.000000
  0.068501  0.101097  0.047256      4.000000
  0.115477  0.112251  0.047256      2.000000
 


--------------------------------------------------------------------------------------------------------




 Dimension of arrays:
   k-points           NKPTS =     14   k-points in BZ     NKDIM =     14   number of bands    NBANDS=     64
   number of dos      NEDOS =    301   number of ions     NIONS =     10
   non local maximal  LDIM  =      6   non local SUM 2l+1 LMDIM =     18
   total plane-waves  NPLWV =  34560
   max r-space proj   IRMAX =   1882   max aug-charges    IRDMAX=   5437
   dimension x,y,z NGX =    30 NGY =   32 NGZ =   36
   dimension x,y,z NGXF=    60 NGYF=   64 NGZF=   72
   support grid    NGXF=    60 NGYF=   64 NGZF=   72
   ions per type =               4   2   4
   NGX,Y,Z   is equivalent  to a cutoff of   8.53,  8.34,  8.48 a.u.
   NGXF,Y,Z  is equivalent  to a cutoff of  17.06, 16.67, 16.97 a.u.

 SYSTEM =  unknown system                          
 POSCAR =  Na4 Zn2 S4                              

 Startparameter for this run:
   NWRITE =      2    write-flag & timer
   PREC   = normal    normal or accurate (medium, high low for compatibility)
   ISTART =      0    job   : 0-new  1-cont  2-samecut
   ICHARG =      2    charge: 1-file 2-atom 10-const
   ISPIN  =      1    spin polarized calculation?
   LNONCOLLINEAR =      F non collinear calculations
   LSORBIT =      F    spin-orbit coupling
   INIWAV =      1    electr: 0-lowe 1-rand  2-diag
   LASPH  =      F    aspherical Exc in radial PAW
 Electronic Relaxation 1
   ENCUT  =  400.0 eV  29.40 Ry    5.42 a.u.   9.54 10.41 11.50*2*pi/ulx,y,z
   ENINI  =  400.0     initial cutoff
   ENAUG  =  575.9 eV  augmentation charge cutoff
   NELM   =     60;   NELMIN=  2; NELMDL= -5     # of ELM steps 
   EDIFF  = 0.1E-04   stopping-criterion for ELM
   LREAL  =      T    real-space projection
   NLSPLINE    = F    spline interpolate recip. space projectors
   LCOMPAT=      F    compatible to vasp.4.4
   GGA_COMPAT  = T    GGA compatible to vasp.4.4-vasp.4.6
   LMAXPAW     = -100 max onsite density
   LMAXMIX     =    2 max onsite mixed and CHGCAR
   VOSKOWN=      0    Vosko Wilk Nusair interpolation
   ROPT   =   -0.00050  -0.00050  -0.00050
 Ionic relaxation
   EDIFFG = -.5E-01   stopping-criterion for IOM
   NSW    =    100    number of steps for IOM
   NBLOCK =      1;   KBLOCK =    100    inner block; outer block 
   IBRION =      2    ionic relax: 0-MD 1-quasi-New 2-CG
   NFREE  =      1    steps in history (QN), initial steepest desc. (CG)
   ISIF   =      3    stress and relaxation
   IWAVPR =     11    prediction:  0-non 1-charg 2-wave 3-comb
   ISYM   =      2    0-nonsym 1-usesym 2-fastsym
   LCORR  =      T    Harris-Foulkes like correction to forces

   POTIM  = 0.5000    time-step for ionic-motion
   TEIN   =    0.0    initial temperature
   TEBEG  =    0.0;   TEEND  =   0.0 temperature during run
   SMASS  =  -3.00    Nose mass-parameter (am)
   estimated Nose-frequenzy (Omega)   =  0.10E-29 period in steps = 0.13E+47 mass=  -0.782E-27a.u.
   SCALEE = 1.0000    scale energy and forces
   NPACO  =    256;   APACO  = 10.0  distance and # of slots for P.C.
   PSTRESS=    0.0 pullay stress

  Mass of Ions in am
   POMASS =  22.99 65.39 32.07
  Ionic Valenz
   ZVAL   =   7.00 12.00  6.00
  Atomic Wigner-Seitz radii
   RWIGS  =  -1.00 -1.00 -1.00
  virtual crystal weights 
   VCA    =   1.00  1.00  1.00
   NELECT =      76.0000    total number of electrons
   NUPDOWN=      -1.0000    fix difference up-down

 DOS related values:
   EMIN   =  10.00;   EMAX   =-10.00  energy-range for DOS
   EFERMI =   0.00
   ISMEAR =     0;   SIGMA  =   0.05  broadening in eV -4-tet -1-fermi 0-gaus

 Electronic relaxation 2 (details)
   IALGO  =     38    algorithm
   LDIAG  =      T    sub-space diagonalisation (order eigenvalues)
   LSUBROT=      F    optimize rotation matrix (better conditioning)
   TURBO    =      0    0=normal 1=particle mesh
   IRESTART =      0    0=no restart 2=restart with 2 vectors
   NREBOOT  =      0    no. of reboots
   NMIN     =      0    reboot dimension
   EREF     =   0.00    reference energy to select bands
   IMIX   =      4    mixing-type and parameters
     AMIX     =   0.40;   BMIX     =  1.00
     AMIX_MAG =   1.60;   BMIX_MAG =  1.00
     AMIN     =   0.10
     WC   =   100.;   INIMIX=   1;  MIXPRE=   1;  MAXMIX= -45

 Intra band minimization:
   WEIMIN = 0.0010     energy-eigenvalue tresh-hold
   EBREAK =  0.39E-07  absolut break condition
   DEPER  =   0.30     relativ break condition  

   TIME   =   0.40     timestep for ELM

  volume/ion in A,a.u.               =      20.79       140.27
  Fermi-wavevector in a.u.,A,eV,Ry     =   1.170640  2.212189 18.645394  1.370398
  Thomas-Fermi vector in A             =   2.307095

 Write flags
   LWAVE        =      F    write WAVECAR
   LDOWNSAMPLE  =      F    k-point downsampling of WAVECAR
   LCHARG       =      F    write CHGCAR
   LVTOT        =      F    write LOCPOT, total local potential
   LVHAR        =      F    write LOCPOT, Hartree potential only
   LELF         =      F    write electronic localiz. function (ELF)
   LORBIT       =      0    0 simple, 1 ext, 2 COOP (PROOUT), +10 PAW based schemes


 Dipole corrections
   LMONO  =      F    monopole corrections only (constant potential shift)
   LDIPOL =      F    correct potential (dipole corrections)
   IDIPOL =      0    1-x, 2-y, 3-z, 4-all directions 
   EPSILON=  1.0000000 bulk dielectric constant

 Exchange correlation treatment:
   GGA     =    --    GGA type
   LEXCH   =     8    internal setting for exchange type
   LIBXC   =     F    Libxc                    
   VOSKOWN =     0    Vosko Wilk Nusair interpolation
   LHFCALC =     F    Hartree Fock is set to
   LHFONE  =     F    Hartree Fock one center treatment
   AEXX    =    0.0000 exact exchange contribution

 Linear response parameters
   LEPSILON=     F    determine dielectric tensor
   LRPA    =     F    only Hartree local field effects (RPA)
   LNABLA  =     F    use nabla operator in PAW spheres
   LVEL    =     F    velocity operator in full k-point grid
   CSHIFT  =0.1000    complex shift for real part using Kramers Kronig
   OMEGAMAX=  -1.0    maximum frequency
   DEG_THRESHOLD= 0.2000000E-02 threshold for treating states as degnerate
   RTIME   =   -0.100 relaxation time in fs
  (WPLASMAI=    0.000 imaginary part of plasma frequency in eV, 0.658/RTIME)
   DFIELD  = 0.0000000 0.0000000 0.0000000 field for delta impulse in time

  Optional k-point grid parameters
   LKPOINTS_OPT  =     F    use optional k-point grid
   KPOINTS_OPT_MODE=     1    mode for optional k-point grid

 Orbital magnetization related:
   ORBITALMAG=     F  switch on orbital magnetization
   LCHIMAG   =     F  perturbation theory with respect to B field
   DQ        =  0.001000  dq finite difference perturbation B field
   LLRAUG    =     F  two centre corrections for induced B field



--------------------------------------------------------------------------------------------------------


 conjugate gradient relaxation of ions
 charge density and potential will be updated during run
 non-spin polarized calculation
 Variant of blocked Davidson
 Davidson routine will perform the subspace rotation
 perform sub-space diagonalisation
    after iterative eigenvector-optimisation
 modified Broyden-mixing scheme, WC =      100.0
 initial mixing is a Kerker type mixing with AMIX =  0.4000 and BMIX =      1.0000
 Hartree-type preconditioning will be used
 using additional bands           26
 real space projection scheme for non local part
 use partial core corrections
 calculate Harris-corrections to forces   (improved forces if not selfconsistent)
 use gradient corrections 
 use of overlap-Matrix (Vanderbilt PP)
 Gauss-broadening in eV      SIGMA  =   0.05


--------------------------------------------------------------------------------------------------------


  energy-cutoff  :      400.00
  volume of cell :      207.86
      direct lattice vectors                 reciprocal lattice vectors
     5.321844388  0.000000000 -2.424096248     0.187904780  0.044614688 -0.000000000
    -1.314684417  5.537088795 -2.886251225    -0.000000000  0.180600318  0.000000000
     0.000000000  0.000000000  7.053820950     0.064574828  0.089229397  0.141767137

  length of vectors
     5.847928720  6.381080910  7.053820950     0.193128653  0.180600318  0.179526362



 k-points in units of 2pi/SCALE and weight: pymatgen with grid density = 500 / numbe
   0.00000000  0.00000000  0.00000000       0.028
   0.04697620  0.01115367  0.00000000       0.056
   0.09395239  0.02230734  0.00000000       0.028
   0.00000000  0.06020011  0.00000000       0.111
   0.04697620  0.07135378  0.00000000       0.111
   0.09395239  0.08250745  0.00000000       0.111
  -0.04697620  0.04904643  0.00000000       0.111
   0.02152494  0.02974313  0.04725571       0.056
   0.06850114  0.04089680  0.04725571       0.056
   0.11547733  0.05205048  0.04725571       0.056
  -0.02545125  0.01858946  0.04725571       0.056
   0.02152494  0.08994324  0.04725571       0.056
   0.06850114  0.10109691  0.04725571       0.111
   0.11547733  0.11225058  0.04725571       0.056

 k-points in reciprocal lattice and weights: pymatgen with grid density = 500 / numbe
   0.00000000  0.00000000  0.00000000       0.028
   0.25000000  0.00000000  0.00000000       0.056
   0.50000000  0.00000000  0.00000000       0.028
   0.00000000  0.33333333  0.00000000       0.111
   0.25000000  0.33333333  0.00000000       0.111
   0.50000000  0.33333333  0.00000000       0.111
  -0.25000000  0.33333333  0.00000000       0.111
   0.00000000  0.00000000  0.33333333       0.056
   0.25000000  0.00000000  0.33333333       0.056
   0.50000000  0.00000000  0.33333333       0.056
  -0.25000000  0.00000000  0.33333333       0.056
   0.00000000  0.33333333  0.33333333       0.056
   0.25000000  0.33333333  0.33333333       0.111
   0.50000000  0.33333333  0.33333333       0.056

 position of ions in fractional coordinates (direct lattice) 
   0.14176644  0.48938942  0.28353187
   0.85823356  0.51061058  0.71646813
   0.35823356  0.20585754  0.71646813
   0.64176644  0.79414246  0.28353187
   0.25000000  0.00000000  0.00000000
   0.75000000  0.00000000  0.00000000
   0.61166621  0.32567443  0.22333341
   0.38833379  0.67432557  0.77666659
   0.88833379  0.10234201  0.77666659
   0.11166621  0.89765799  0.22333341

 position of ions in cartesian coordinates  (Angst):
   0.11106629  2.70979267  0.24382674
   3.89609368  2.82729612  1.49964674
   1.63582556  1.13985148  3.59128870
   2.37133441  4.39723732 -1.84781522
   1.33046110  0.00000000 -0.60602406
   3.99138329  0.00000000 -1.81807219
   2.82703329  1.80328824 -0.84736210
   1.18012668  3.73380056  2.59083558
   4.59302675  0.56667680  3.02967570
  -0.58586678  4.97041200 -1.28620223



--------------------------------------------------------------------------------------------------------


 k-point   1 :   0.0000 0.0000 0.0000  plane waves:    3793
 k-point   2 :   0.2500 0.0000 0.0000  plane waves:    3797
 k-point   3 :   0.5000 0.0000 0.0000  plane waves:    3776
 k-point   4 :   0.0000 0.3333 0.0000  plane waves:    3780
 k-point   5 :   0.2500 0.3333 0.0000  plane waves:    3772
 k-point   6 :   0.5000 0.3333 0.0000  plane waves:    3766
 k-point   7 :  -0.2500 0.3333 0.0000  plane waves:    3776
 k-point   8 :   0.0000 0.0000 0.3333  plane waves:    3796
 k-point   9 :   0.2500 0.0000 0.3333  plane waves:    3767
 k-point  10 :   0.5000 0.0000 0.3333  plane waves:    3775
 k-point  11 :  -0.2500 0.0000 0.3333  plane waves:    3799
 k-point  12 :   0.0000 0.3333 0.3333  plane waves:    3778
 k-point  13 :   0.2500 0.3333 0.3333  plane waves:    3771
 k-point  14 :   0.5000 0.3333 0.3333  plane waves:    3768

 maximum and minimum number of plane-waves per node :      3799     3766

 maximum number of plane-waves:      3799
 maximum index in each direction: 
   IXMAX=    9   IYMAX=   10   IZMAX=   11
   IXMIN=  -10   IYMIN=  -10   IZMIN=  -11


 serial   3D FFT for wavefunctions
 parallel 3D FFT for charge:
    minimum data exchange during FFTs selected (reduces bandwidth)


 total amount of memory used by VASP MPI-rank0    36024. kBytes
=======================================================================

   base      :      30000. kBytes
   nonlr-proj:       1646. kBytes
   fftplans  :        461. kBytes
   grid      :       1999. kBytes
   one-center:        155. kBytes
   wavefun   :       1763. kBytes

     INWAV:  cpu time      0.0000: real time      0.0000
 Broyden mixing: mesh for mixing (old mesh)
   NGX = 19   NGY = 21   NGZ = 23
  (NGX  = 60   NGY  = 64   NGZ  = 72)
  gives a total of   9177 points

 initial charge density was supplied:
 charge density of overlapping atoms calculated
 number of electron      76.0000000 magnetization 
 keeping initial charge density in first step


--------------------------------------------------------------------------------------------------------


 Maximum index for non-local projection operator         1782
 Maximum index for augmentation-charges          284 (set IRDMAX)


--------------------------------------------------------------------------------------------------------


 First call to EWALD:  gamma=   0.299
 Maximum number of real-space cells 3x 3x 3
 Maximum number of reciprocal cells 3x 3x 3

    FEWALD:  cpu time      0.0007: real time      0.0007


--------------------------------------- Iteration      1(   1)  ---------------------------------------


    POTLOK:  cpu time      0.0097: real time      0.0099
    SETDIJ:  cpu time      0.0019: real time      0.0020
     EDDAV:  cpu time      0.6135: real time      0.6139
       DOS:  cpu time      0.0009: real time      0.0010
    --------------------------------------------
      LOOP:  cpu time      0.6260: real time      0.6268

 eigenvalue-minimisations  :  1792
 total energy-change (2. order) : 0.4424370E+03  (-0.3372351E+04)
 number of electron      76.0000000 magnetization 
 augmentation part       76.0000000 magnetization 

 Free energy of the ion-electron system (eV)
  ---------------------------------------------------
  alpha Z        PSCENC =       196.95006952
  Ewald energy   TEWEN  =     -4134.18447358
  -Hartree energ DENC   =     -2660.03869504
  -exchange      EXHF   =         0.00000000
  -V(xc)+E(xc)   XCENC  =       262.33934306
  PAW double counting   =      5789.78626624    -6486.44662597
  entropy T*S    EENTRO =        -0.00268467
  eigenvalues    EBANDS =      -195.02170172
  atomic energy  EATOM  =      7669.05546713
  Solvation  Ediel_sol  =         0.00000000
  ---------------------------------------------------
  free energy    TOTEN  =       442.43696496 eV

  energy without entropy =      442.43964963  energy(sigma->0) =      442.43830729


--------------------------------------------------------------------------------------------------------




--------------------------------------- Iteration      1(   2)  ---------------------------------------


     EDDAV:  cpu time      0.7898: real time      0.8615
       DOS:  cpu time      0.0006: real time      0.0007
    --------------------------------------------
      LOOP:  cpu time      0.7904: real time      0.8622

 eigenvalue-minimisations  :  2112
 total energy-change (2. order) :-0.4509858E+03  (-0.4366080E+03)
 number of electron      76.0000000 magnetization 
 augmentation part       76.0000000 magnetization 

 Free energy of the ion-electron system (eV)
  ---------------------------------------------------
  alpha Z        PSCENC =       196.95006952
  Ewald energy   TEWEN  =     -4134.18447358
  -Hartree energ DENC   =     -2660.03869504
  -exchange      EXHF   =         0.00000000
  -V(xc)+E(xc)   XCENC  =       262.33934306
  PAW double counting   =      5789.78626624    -6486.44662597
  entropy T*S    EENTRO =        -0.00000000
  eigenvalues    EBANDS =      -646.01022496
  atomic energy  EATOM  =      7669.05546713
  Solvation  Ediel_sol  =         0.00000000
  ---------------------------------------------------
  free energy    TOTEN  =        -8.54887361 eV

  energy without entropy =       -8.54887361  energy(sigma->0) =       -8.54887361


--------------------------------------------------------------------------------------------------------




--------------------------------------- Iteration      1(   3)  ---------------------------------------


     EDDAV:  cpu time      1.0500: real time      1.0522
       DOS:  cpu time      0.0006: real time      0.0007
    --------------------------------------------
      LOOP:  cpu time      1.0506: real time      1.0529

 eigenvalue-minimisations  :  2496
 total energy-change (2. order) :-0.2712816E+02  (-0.2704732E+02)
 number of electron      76.0000000 magnetization 
 augmentation part       76.0000000 magnetization 

 Free energy of the ion-electron system (eV)
  ---------------------------------------------------
  alpha Z        PSCENC =       196.95006952
  Ewald energy   TEWEN  =     -4134.18447358
  -Hartree energ DENC   =     -2660.03869504
  -exchange      EXHF   =         0.00000000
  -V(xc)+E(xc)   XCENC  =       262.33934306
  PAW double counting   =      5789.78626624    -6486.44662597
  entropy T*S    EENTRO =        -0.00000000
  eigenvalues    EBANDS =      -673.13838062
  atomic energy  EATOM  =      7669.05546713
  Solvation  Ediel_sol  =         0.00000000
  ---------------------------------------------------
  free energy    TOTEN  =       -35.67702927 eV

  energy without entropy =      -35.67702927  energy(sigma->0) =      -35.67702927


--------------------------------------------------------------------------------------------------------




--------------------------------------- Iteration      1(   4)  ---------------------------------------


     EDDAV:  cpu time      0.8771: real time      0.8792
       DOS:  cpu time      0.0006: real time      0.0007
    --------------------------------------------
      LOOP:  cpu time      0.8778: real time      0.8800

 eigenvalue-minimisations  :  2208
 total energy-change (2. order) :-0.3436526E+00  (-0.3436163E+00)
 number of electron      76.0000000 magnetization 
 augmentation part       76.0000000 magnetization 

 Free energy of the ion-electron system (eV)
  ---------------------------------------------------
  alpha Z        PSCENC =       196.95006952
  Ewald energy   TEWEN  =     -4134.18447358
  -Hartree energ DENC   =     -2660.03869504
  -exchange      EXHF   =         0.00000000
  -V(xc)+E(xc)   XCENC  =       262.33934306
  PAW double counting   =      5789.78626624    -6486.44662597
  entropy T*S    EENTRO =        -0.00000000
  eigenvalues    EBANDS =      -673.48203325
  atomic energy  EATOM  =      7669.05546713
  Solvation  Ediel_sol  =         0.00000000
  ---------------------------------------------------
  free energy    TOTEN  =       -36.02068189 eV

  energy without entropy =      -36.02068189  energy(sigma->0) =      -36.02068189


--------------------------------------------------------------------------------------------------------




--------------------------------------- Iteration      1(   5)  ---------------------------------------


     EDDAV:  cpu time      0.9724: real time      0.9732
       DOS:  cpu time      0.0006: real time      0.0007
    CHARGE:  cpu time      0.0183: real time      0.0185
    MIXING:  cpu time      0.0009: real time      0.0010
    --------------------------------------------
      LOOP:  cpu time      0.9922: real time      0.9935

 eigenvalue-minimisations  :  2336
 total energy-change (2. order) :-0.8430241E-02  (-0.8430058E-02)
 number of electron      76.0000076 magnetization 
 augmentation part       30.2999106 magnetization 

 Broyden mixing:
  rms(total) = 0.11341E+01    rms(broyden)= 0.11341E+01
  rms(prec ) = 0.17829E+01
  weight for this iteration     100.00

 Free energy of the ion-electron system (eV)
  ---------------------------------------------------
  alpha Z        PSCENC =       196.95006952
  Ewald energy   TEWEN  =     -4134.18447358
  -Hartree energ DENC   =     -2660.03869504
  -exchange      EXHF   =         0.00000000
  -V(xc)+E(xc)   XCENC  =       262.33934306
  PAW double counting   =      5789.78626624    -6486.44662597
  entropy T*S    EENTRO =        -0.00000000
  eigenvalues    EBANDS =      -673.49046349
  atomic energy  EATOM  =      7669.05546713
  Solvation  Ediel_sol  =         0.00000000
  ---------------------------------------------------
  free energy    TOTEN  =       -36.02911213 eV

  energy without entropy =      -36.02911213  energy(sigma->0) =      -36.02911213


--------------------------------------------------------------------------------------------------------




--------------------------------------- Iteration      1(   6)  ---------------------------------------


    POTLOK:  cpu time      0.0079: real time      0.0081
    SETDIJ:  cpu time      0.0016: real time      0.0016
     EDDAV:  cpu time      1.1875: real time      1.1893
       DOS:  cpu time      0.0007: real time      0.0008
    CHARGE:  cpu time      0.0172: real time      0.0172
    MIXING:  cpu time      0.0005: real time      0.0005
    --------------------------------------------
      LOOP:  cpu time      1.2154: real time      1.2174

 eigenvalue-minimisations  :  2848
 total energy-change (2. order) : 0.2151755E+01  (-0.4407414E+00)
 number of electron      76.0000076 magnetization 
 augmentation part       30.7122638 magnetization 

 Broyden mixing:
  rms(total) = 0.93720E+00    rms(broyden)= 0.93720E+00
  rms(prec ) = 0.10425E+01
  weight for this iteration     100.00

 eigenvalues of (default mixing * dielectric matrix)
  average eigenvalue GAMMA=   1.3266
  1.3266

 Free energy of the ion-electron system (eV)
  ---------------------------------------------------
  alpha Z        PSCENC =       196.95006952
  Ewald energy   TEWEN  =     -4134.18447358
  -Hartree energ DENC   =     -2641.32987818
  -exchange      EXHF   =         0.00000000
  -V(xc)+E(xc)   XCENC  =       263.02102146
  PAW double counting   =      6172.87792865    -6862.67339555
  entropy T*S    EENTRO =        -0.00000000
  eigenvalues    EBANDS =      -697.59409688
  atomic energy  EATOM  =      7669.05546713
  Solvation  Ediel_sol  =         0.00000000
  ---------------------------------------------------
  free energy    TOTEN  =       -33.87735742 eV

  energy without entropy =      -33.87735742  energy(sigma->0) =      -33.87735742


--------------------------------------------------------------------------------------------------------




--------------------------------------- Iteration      1(   7)  ---------------------------------------


    POTLOK:  cpu time      0.0075: real time      0.0077
    SETDIJ:  cpu time      0.0017: real time      0.0017
     EDDAV:  cpu time      1.1449: real time      1.1461
       DOS:  cpu time      0.0006: real time      0.0008
    CHARGE:  cpu time      0.0171: real time      0.0172
    MIXING:  cpu time      0.0004: real time      0.0004
    --------------------------------------------
      LOOP:  cpu time      1.1723: real time      1.1738

 eigenvalue-minimisations  :  2624
 total energy-change (2. order) : 0.1158168E+00  (-0.1355728E+00)
 number of electron      76.0000075 magnetization 
 augmentation part       30.6916533 magnetization 

 Broyden mixing:
  rms(total) = 0.53449E+00    rms(broyden)= 0.53449E+00
  rms(prec ) = 0.56897E+00
  weight for this iteration     100.00

 eigenvalues of (default mixing * dielectric matrix)
  average eigenvalue GAMMA=   1.6408
  0.9431  2.3386

 Free energy of the ion-electron system (eV)
  ---------------------------------------------------
  alpha Z        PSCENC =       196.95006952
  Ewald energy   TEWEN  =     -4134.18447358
  -Hartree energ DENC   =     -2646.12095109
  -exchange      EXHF   =         0.00000000
  -V(xc)+E(xc)   XCENC  =       263.88026712
  PAW double counting   =      6685.01995268    -7381.42904109
  entropy T*S    EENTRO =        -0.00000000
  eigenvalues    EBANDS =      -686.93283135
  atomic energy  EATOM  =      7669.05546713
  Solvation  Ediel_sol  =         0.00000000
  ---------------------------------------------------
  free energy    TOTEN  =       -33.76154067 eV

  energy without entropy =      -33.76154067  energy(sigma->0) =      -33.76154067


--------------------------------------------------------------------------------------------------------




--------------------------------------- Iteration      1(   8)  ---------------------------------------


    POTLOK:  cpu time      0.0074: real time      0.0076
    SETDIJ:  cpu time      0.0016: real time      0.0016
     EDDAV:  cpu time      0.8487: real time      0.8489
       DOS:  cpu time      0.0006: real time      0.0008
    CHARGE:  cpu time      0.0192: real time      0.0192
    MIXING:  cpu time      0.0004: real time      0.0004
    --------------------------------------------
      LOOP:  cpu time      0.8779: real time      0.8785

 eigenvalue-minimisations  :  2176
 total energy-change (2. order) :-0.2659810E-02  (-0.4747461E-02)
 number of electron      76.0000075 magnetization 
 augmentation part       30.7045681 magnetization 

 Broyden mixing:
  rms(total) = 0.14933E+00    rms(broyden)= 0.14933E+00
  rms(prec ) = 0.16585E+00
  weight for this iteration     100.00

 eigenvalues of (default mixing * dielectric matrix)
  average eigenvalue GAMMA=   1.5315
  2.4334  0.9191  1.2419

 Free energy of the ion-electron system (eV)
  ---------------------------------------------------
  alpha Z        PSCENC =       196.95006952
  Ewald energy   TEWEN  =     -4134.18447358
  -Hartree energ DENC   =     -2642.11158266
  -exchange      EXHF   =         0.00000000
  -V(xc)+E(xc)   XCENC  =       264.04708034
  PAW double counting   =      7198.11572895    -7896.52087029
  entropy T*S    EENTRO =        -0.00000000
  eigenvalues    EBANDS =      -689.11561989
  atomic energy  EATOM  =      7669.05546713
  Solvation  Ediel_sol  =         0.00000000
  ---------------------------------------------------
  free energy    TOTEN  =       -33.76420048 eV

  energy without entropy =      -33.76420048  energy(sigma->0) =      -33.76420048


--------------------------------------------------------------------------------------------------------




--------------------------------------- Iteration      1(   9)  ---------------------------------------


    POTLOK:  cpu time      0.0074: real time      0.0076
    SETDIJ:  cpu time      0.0016: real time      0.0016
     EDDAV:  cpu time      1.1585: real time      1.1593
       DOS:  cpu time      0.0006: real time      0.0008
    CHARGE:  cpu time      0.0170: real time      0.0170
    MIXING:  cpu time      0.0004: real time      0.0003
    --------------------------------------------
      LOOP:  cpu time      1.1855: real time      1.1867

 eigenvalue-minimisations  :  2656
 total energy-change (2. order) :-0.4173838E-02  (-0.1116508E-02)
 number of electron      76.0000076 magnetization 
 augmentation part       30.7002096 magnetization 

 Broyden mixing:
  rms(total) = 0.27918E-01    rms(broyden)= 0.27917E-01
  rms(prec ) = 0.34154E-01
  weight for this iteration     100.00

 eigenvalues of (default mixing * dielectric matrix)
  average eigenvalue GAMMA=   1.4010
  2.3023  1.2534  1.0242  1.0242

 Free energy of the ion-electron system (eV)
  ---------------------------------------------------
  alpha Z        PSCENC =       196.95006952
  Ewald energy   TEWEN  =     -4134.18447358
  -Hartree energ DENC   =     -2640.70318827
  -exchange      EXHF   =         0.00000000
  -V(xc)+E(xc)   XCENC  =       264.10336734
  PAW double counting   =      7394.36436736    -8093.76357598
  entropy T*S    EENTRO =        -0.00000000
  eigenvalues    EBANDS =      -689.59040784
  atomic energy  EATOM  =      7669.05546713
  Solvation  Ediel_sol  =         0.00000000
  ---------------------------------------------------
  free energy    TOTEN  =       -33.76837432 eV

  energy without entropy =      -33.76837432  energy(sigma->0) =      -33.76837432


--------------------------------------------------------------------------------------------------------




--------------------------------------- Iteration      1(  10)  ---------------------------------------


    POTLOK:  cpu time      0.0081: real time      0.0083
    SETDIJ:  cpu time      0.0016: real time      0.0016
     EDDAV:  cpu time      0.9913: real time      0.9919
       DOS:  cpu time      0.0006: real time      0.0008
    CHARGE:  cpu time      0.0196: real time      0.0196
    MIXING:  cpu time      0.0004: real time      0.0004
    --------------------------------------------
      LOOP:  cpu time      1.0217: real time      1.0226

 eigenvalue-minimisations  :  2400
 total energy-change (2. order) :-0.1021393E-02  (-0.8019616E-04)
 number of electron      76.0000076 magnetization 
 augmentation part       30.7011148 magnetization 

 Broyden mixing:
  rms(total) = 0.10894E-01    rms(broyden)= 0.10894E-01
  rms(prec ) = 0.16493E-01
  weight for this iteration     100.00

 eigenvalues of (default mixing * dielectric matrix)
  average eigenvalue GAMMA=   1.7527
  3.0032  2.5467  1.2870  0.9070  1.0196

 Free energy of the ion-electron system (eV)
  ---------------------------------------------------
  alpha Z        PSCENC =       196.95006952
  Ewald energy   TEWEN  =     -4134.18447358
  -Hartree energ DENC   =     -2640.66099948
  -exchange      EXHF   =         0.00000000
  -V(xc)+E(xc)   XCENC  =       264.10451744
  PAW double counting   =      7350.52226582    -8049.84020495
  entropy T*S    EENTRO =        -0.00000000
  eigenvalues    EBANDS =      -689.71603762
  atomic energy  EATOM  =      7669.05546713
  Solvation  Ediel_sol  =         0.00000000
  ---------------------------------------------------
  free energy    TOTEN  =       -33.76939571 eV

  energy without entropy =      -33.76939571  energy(sigma->0) =      -33.76939571


--------------------------------------------------------------------------------------------------------




--------------------------------------- Iteration      1(  11)  ---------------------------------------


    POTLOK:  cpu time      0.0078: real time      0.0080
    SETDIJ:  cpu time      0.0016: real time      0.0016
     EDDAV:  cpu time      1.0730: real time      1.0736
       DOS:  cpu time      0.0006: real time      0.0007
    CHARGE:  cpu time      0.0171: real time      0.0171
    MIXING:  cpu time      0.0004: real time      0.0004
    --------------------------------------------
      LOOP:  cpu time      1.1005: real time      1.1014

 eigenvalue-minimisations  :  2528
 total energy-change (2. order) :-0.5280401E-03  (-0.8520680E-04)
 number of electron      76.0000076 magnetization 
 augmentation part       30.7011468 magnetization 

 Broyden mixing:
  rms(total) = 0.19843E-02    rms(broyden)= 0.19842E-02
  rms(prec ) = 0.25476E-02
  weight for this iteration     100.00

 eigenvalues of (default mixing * dielectric matrix)
  average eigenvalue GAMMA=   1.6052
  2.8793  2.5465  1.3193  1.1326  0.8355  0.9181

 Free energy of the ion-electron system (eV)
  ---------------------------------------------------
  alpha Z        PSCENC =       196.95006952
  Ewald energy   TEWEN  =     -4134.18447358
  -Hartree energ DENC   =     -2640.61065834
  -exchange      EXHF   =         0.00000000
  -V(xc)+E(xc)   XCENC  =       264.12397032
  PAW double counting   =      7338.74970356    -8038.18839871
  entropy T*S    EENTRO =        -0.00000000
  eigenvalues    EBANDS =      -689.66560365
  atomic energy  EATOM  =      7669.05546713
  Solvation  Ediel_sol  =         0.00000000
  ---------------------------------------------------
  free energy    TOTEN  =       -33.76992375 eV

  energy without entropy =      -33.76992375  energy(sigma->0) =      -33.76992375


--------------------------------------------------------------------------------------------------------




--------------------------------------- Iteration      1(  12)  ---------------------------------------


    POTLOK:  cpu time      0.0073: real time      0.0076
    SETDIJ:  cpu time      0.0017: real time      0.0017
     EDDAV:  cpu time      0.8015: real time      0.8020
       DOS:  cpu time      0.0006: real time      0.0007
    --------------------------------------------
      LOOP:  cpu time      0.8111: real time      0.8119

 eigenvalue-minimisations  :  2112
 total energy-change (2. order) :-0.3136805E-05  (-0.1911260E-05)
 number of electron      76.0000076 magnetization 
 augmentation part       30.7011468 magnetization 

 Free energy of the ion-electron system (eV)
  ---------------------------------------------------
  alpha Z        PSCENC =       196.95006952
  Ewald energy   TEWEN  =     -4134.18447358
  -Hartree energ DENC   =     -2640.62304394
  -exchange      EXHF   =         0.00000000
  -V(xc)+E(xc)   XCENC  =       264.12492855
  PAW double counting   =      7339.44767391    -8038.89198223
  entropy T*S    EENTRO =        -0.00000000
  eigenvalues    EBANDS =      -689.64856625
  atomic energy  EATOM  =      7669.05546713
  Solvation  Ediel_sol  =         0.00000000
  ---------------------------------------------------
  free energy    TOTEN  =       -33.76992689 eV

  energy without entropy =      -33.76992689  energy(sigma->0) =      -33.76992689


--------------------------------------------------------------------------------------------------------




 average (electrostatic) potential at core
  the test charge radii are     0.9254  0.9521  0.9698
  (the norm of the test charge is              1.0000)
       1 -47.1743       2 -47.1743       3 -47.1743       4 -47.1743       5 -36.8606
       6 -36.8606       7 -88.4698       8 -88.4698       9 -88.4698      10 -88.4698



 E-fermi :   1.5590     XC(G=0):  -8.7370     alpha+bet : -8.3849

 Fermi energy:         1.5590416241

 k-point     1 :       0.0000    0.0000    0.0000
  band No.  band energies     occupation 
      1     -21.3997      2.00000
      2     -21.3970      2.00000
      3     -21.3913      2.00000
      4     -21.3860      2.00000
      5     -21.3834      2.00000
      6     -21.3805      2.00000
      7     -21.3778      2.00000
      8     -21.3726      2.00000
      9     -21.3513      2.00000
     10     -21.3437      2.00000
     11     -21.3338      2.00000
     12     -21.3333      2.00000
     13     -10.6033      2.00000
     14      -9.6963      2.00000
     15      -9.6889      2.00000
     16      -9.6114      2.00000
     17      -4.9057      2.00000
     18      -4.5646      2.00000
     19      -4.5436      2.00000
     20      -4.5408      2.00000
     21      -4.4665      2.00000
     22      -4.3990      2.00000
     23      -4.3674      2.00000
     24      -4.3398      2.00000
     25      -4.2635      2.00000
     26      -4.2568      2.00000
     27      -2.5235      2.00000
     28      -2.1065      2.00000
     29      -1.4733      2.00000
     30      -0.5824      2.00000
     31      -0.5075      2.00000
     32      -0.4962      2.00000
     33      -0.4683      2.00000
     34      -0.2410      2.00000
     35       0.5906      2.00000
     36       1.2166      2.00000
     37       1.3156      2.00000
     38       1.3443      2.00000
     39       3.8305      0.00000
     40       5.2373      0.00000
     41       5.3431      0.00000
     42       7.0683      0.00000
     43       7.3562      0.00000
     44       7.9885      0.00000
     45       8.0177      0.00000
     46       8.0635      0.00000
     47       8.1843      0.00000
     48       8.2205      0.00000
     49       8.4042      0.00000
     50       9.2786      0.00000
     51      10.0084      0.00000
     52      10.3587      0.00000
     53      10.8492      0.00000
     54      11.0354      0.00000
     55      11.4664      0.00000
     56      12.1034      0.00000
     57      12.4637      0.00000
     58      12.4837      0.00000
     59      12.5954      0.00000
     60      12.7632      0.00000
     61      12.7779      0.00000
     62      13.3981      0.00000
     63      13.4515      0.00000
     64      13.6126      0.00000

 k-point     2 :       0.2500    0.0000    0.0000
  band No.  band energies     occupation 
      1     -21.3992      2.00000
      2     -21.3978      2.00000
      3     -21.3942      2.00000
      4     -21.3880      2.00000
      5     -21.3810      2.00000
      6     -21.3785      2.00000
      7     -21.3766      2.00000
      8     -21.3742      2.00000
      9     -21.3494      2.00000
     10     -21.3436      2.00000
     11     -21.3347      2.00000
     12     -21.3341      2.00000
     13     -10.4638      2.00000
     14      -9.8135      2.00000
     15      -9.6976      2.00000
     16      -9.6409      2.00000
     17      -4.7885      2.00000
     18      -4.5659      2.00000
     19      -4.5491      2.00000
     20      -4.5463      2.00000
     21      -4.4491      2.00000
     22      -4.4402      2.00000
     23      -4.3831      2.00000
     24      -4.3601      2.00000
     25      -4.3185      2.00000
     26      -4.2439      2.00000
     27      -2.5501      2.00000
     28      -2.5037      2.00000
     29      -1.2080      2.00000
     30      -0.9042      2.00000
     31      -0.6219      2.00000
     32      -0.2687      2.00000
     33       0.0996      2.00000
     34       0.3636      2.00000
     35       0.4750      2.00000
     36       0.5818      2.00000
     37       1.1071      2.00000
     38       1.2314      2.00000
     39       4.8174      0.00000
     40       5.3881      0.00000
     41       5.9087      0.00000
     42       6.8060      0.00000
     43       7.1220      0.00000
     44       7.3831      0.00000
     45       7.6902      0.00000
     46       8.1643      0.00000
     47       8.1795      0.00000
     48       8.4688      0.00000
     49       8.7674      0.00000
     50       8.8861      0.00000
     51       9.0743      0.00000
     52      10.4096      0.00000
     53      10.5700      0.00000
     54      10.6494      0.00000
     55      10.9728      0.00000
     56      11.6314      0.00000
     57      11.9281      0.00000
     58      11.9293      0.00000
     59      12.3020      0.00000
     60      12.6007      0.00000
     61      12.8179      0.00000
     62      13.2856      0.00000
     63      13.3859      0.00000
     64      13.8932      0.00000

 k-point     3 :       0.5000    0.0000    0.0000
  band No.  band energies     occupation 
      1     -21.3977      2.00000
      2     -21.3977      2.00000
      3     -21.3941      2.00000
      4     -21.3941      2.00000
      5     -21.3777      2.00000
      6     -21.3777      2.00000
      7     -21.3757      2.00000
      8     -21.3757      2.00000
      9     -21.3453      2.00000
     10     -21.3453      2.00000
     11     -21.3353      2.00000
     12     -21.3353      2.00000
     13     -10.1289      2.00000
     14     -10.1289      2.00000
     15      -9.6879      2.00000
     16      -9.6878      2.00000
     17      -4.5754      2.00000
     18      -4.5754      2.00000
     19      -4.5435      2.00000
     20      -4.5435      2.00000
     21      -4.4661      2.00000
     22      -4.4661      2.00000
     23      -4.3872      2.00000
     24      -4.3872      2.00000
     25      -4.3638      2.00000
     26      -4.3637      2.00000
     27      -2.5749      2.00000
     28      -2.5748      2.00000
     29      -1.2452      2.00000
     30      -1.2452      2.00000
     31      -0.1240      2.00000
     32      -0.1239      2.00000
     33       0.1906      2.00000
     34       0.1906      2.00000
     35       0.6089      2.00000
     36       0.6089      2.00000
     37       1.0361      2.00000
     38       1.0361      2.00000
     39       6.0158      0.00000
     40       6.0158      0.00000
     41       6.2181      0.00000
     42       6.2181      0.00000
     43       7.4612      0.00000
     44       7.4613      0.00000
     45       7.6958      0.00000
     46       7.6958      0.00000
     47       7.7534      0.00000
     48       7.7534      0.00000
     49       8.4112      0.00000
     50       8.4112      0.00000
     51       9.2259      0.00000
     52       9.2260      0.00000
     53      10.3208      0.00000
     54      10.3208      0.00000
     55      11.0261      0.00000
     56      11.0261      0.00000
     57      12.1025      0.00000
     58      12.1026      0.00000
     59      12.8117      0.00000
     60      12.8117      0.00000
     61      13.1669      0.00000
     62      13.1670      0.00000
     63      14.1180      0.00000
     64      14.1180      0.00000

 k-point     4 :       0.0000    0.3333    0.0000
  band No.  band energies     occupation 
      1     -21.4000      2.00000
      2     -21.3969      2.00000
      3     -21.3901      2.00000
      4     -21.3871      2.00000
      5     -21.3834      2.00000
      6     -21.3814      2.00000
      7     -21.3765      2.00000
      8     -21.3737      2.00000
      9     -21.3496      2.00000
     10     -21.3426      2.00000
     11     -21.3362      2.00000
     12     -21.3334      2.00000
     13     -10.4932      2.00000
     14      -9.7821      2.00000
     15      -9.6974      2.00000
     16      -9.6451      2.00000
     17      -4.8799      2.00000
     18      -4.6073      2.00000
     19      -4.5686      2.00000
     20      -4.5483      2.00000
     21      -4.4583      2.00000
     22      -4.3972      2.00000
     23      -4.3679      2.00000
     24      -4.3355      2.00000
     25      -4.2647      2.00000
     26      -4.2602      2.00000
     27      -2.4216      2.00000
     28      -2.1139      2.00000
     29      -1.5998      2.00000
     30      -0.7006      2.00000
     31      -0.6556      2.00000
     32      -0.3676      2.00000
     33      -0.1760      2.00000
     34       0.2699      2.00000
     35       0.3710      2.00000
     36       0.8445      2.00000
     37       1.0688      2.00000
     38       1.1497      2.00000
     39       5.1398      0.00000
     40       5.9396      0.00000
     41       6.0550      0.00000
     42       6.3030      0.00000
     43       6.8350      0.00000
     44       7.4090      0.00000
     45       7.4552      0.00000
     46       7.8498      0.00000
     47       8.1235      0.00000
     48       8.6921      0.00000
     49       8.6926      0.00000
     50       8.9791      0.00000
     51       9.1912      0.00000
     52      10.0190      0.00000
     53      10.2874      0.00000
     54      10.9030      0.00000
     55      10.9092      0.00000
     56      11.3593      0.00000
     57      11.5705      0.00000
     58      12.1613      0.00000
     59      12.3344      0.00000
     60      12.4791      0.00000
     61      12.9200      0.00000
     62      13.4178      0.00000
     63      13.9920      0.00000
     64      14.3669      0.00000

 k-point     5 :       0.2500    0.3333    0.0000
  band No.  band energies     occupation 
      1     -21.3996      2.00000
      2     -21.3978      2.00000
      3     -21.3929      2.00000
      4     -21.3899      2.00000
      5     -21.3805      2.00000
      6     -21.3792      2.00000
      7     -21.3759      2.00000
      8     -21.3743      2.00000
      9     -21.3475      2.00000
     10     -21.3427      2.00000
     11     -21.3369      2.00000
     12     -21.3341      2.00000
     13     -10.3523      2.00000
     14      -9.8145      2.00000
     15      -9.7728      2.00000
     16      -9.6847      2.00000
     17      -4.7662      2.00000
     18      -4.5841      2.00000
     19      -4.5638      2.00000
     20      -4.5553      2.00000
     21      -4.4451      2.00000
     22      -4.4346      2.00000
     23      -4.4033      2.00000
     24      -4.3650      2.00000
     25      -4.3214      2.00000
     26      -4.2439      2.00000
     27      -2.6283      2.00000
     28      -2.4466      2.00000
     29      -1.3385      2.00000
     30      -0.9883      2.00000
     31      -0.6654      2.00000
     32       0.0134      2.00000
     33       0.2190      2.00000
     34       0.3201      2.00000
     35       0.6291      2.00000
     36       0.8048      2.00000
     37       0.9397      2.00000
     38       1.1070      2.00000
     39       5.0530      0.00000
     40       5.7989      0.00000
     41       6.2129      0.00000
     42       6.3194      0.00000
     43       6.8183      0.00000
     44       7.1263      0.00000
     45       7.6971      0.00000
     46       7.8776      0.00000
     47       8.2883      0.00000
     48       8.6101      0.00000
     49       8.6996      0.00000
     50       8.8271      0.00000
     51       9.4079      0.00000
     52       9.5910      0.00000
     53       9.6720      0.00000
     54      10.4838      0.00000
     55      11.1069      0.00000
     56      11.5213      0.00000
     57      11.8899      0.00000
     58      12.0157      0.00000
     59      12.4108      0.00000
     60      12.6719      0.00000
     61      13.1325      0.00000
     62      13.4224      0.00000
     63      13.9320      0.00000
     64      14.3123      0.00000

 k-point     6 :       0.5000    0.3333    0.0000
  band No.  band energies     occupation 
      1     -21.3976      2.00000
      2     -21.3968      2.00000
      3     -21.3960      2.00000
      4     -21.3948      2.00000
      5     -21.3774      2.00000
      6     -21.3767      2.00000
      7     -21.3762      2.00000
      8     -21.3757      2.00000
      9     -21.3455      2.00000
     10     -21.3446      2.00000
     11     -21.3359      2.00000
     12     -21.3348      2.00000
     13     -10.1133      2.00000
     14     -10.0699      2.00000
     15      -9.7289      2.00000
     16      -9.7081      2.00000
     17      -4.5669      2.00000
     18      -4.5534      2.00000
     19      -4.5451      2.00000
     20      -4.5436      2.00000
     21      -4.4714      2.00000
     22      -4.4682      2.00000
     23      -4.3897      2.00000
     24      -4.3861      2.00000
     25      -4.3740      2.00000
     26      -4.3651      2.00000
     27      -2.7194      2.00000
     28      -2.6649      2.00000
     29      -1.4628      2.00000
     30      -1.3692      2.00000
     31      -0.0378      2.00000
     32       0.2560      2.00000
     33       0.3308      2.00000
     34       0.5227      2.00000
     35       0.5473      2.00000
     36       0.7534      2.00000
     37       0.9151      2.00000
     38       1.0976      2.00000
     39       5.3058      0.00000
     40       5.3678      0.00000
     41       6.1319      0.00000
     42       6.2868      0.00000
     43       7.0848      0.00000
     44       7.4677      0.00000
     45       7.7660      0.00000
     46       8.0021      0.00000
     47       8.2365      0.00000
     48       8.5662      0.00000
     49       8.7137      0.00000
     50       9.1027      0.00000
     51       9.1658      0.00000
     52       9.2597      0.00000
     53       9.5835      0.00000
     54      10.0220      0.00000
     55      11.1194      0.00000
     56      11.5306      0.00000
     57      11.8359      0.00000
     58      12.2665      0.00000
     59      12.3989      0.00000
     60      12.8284      0.00000
     61      13.0532      0.00000
     62      13.3721      0.00000
     63      13.6351      0.00000
     64      14.0653      0.00000

 k-point     7 :      -0.2500    0.3333    0.0000
  band No.  band energies     occupation 
      1     -21.3989      2.00000
      2     -21.3985      2.00000
      3     -21.3933      2.00000
      4     -21.3892      2.00000
      5     -21.3804      2.00000
      6     -21.3798      2.00000
      7     -21.3756      2.00000
      8     -21.3745      2.00000
      9     -21.3486      2.00000
     10     -21.3435      2.00000
     11     -21.3349      2.00000
     12     -21.3343      2.00000
     13     -10.3994      2.00000
     14      -9.8096      2.00000
     15      -9.7492      2.00000
     16      -9.6549      2.00000
     17      -4.7762      2.00000
     18      -4.5738      2.00000
     19      -4.5550      2.00000
     20      -4.5489      2.00000
     21      -4.4369      2.00000
     22      -4.4354      2.00000
     23      -4.3974      2.00000
     24      -4.3584      2.00000
     25      -4.3191      2.00000
     26      -4.2429      2.00000
     27      -2.6522      2.00000
     28      -2.5158      2.00000
     29      -1.2415      2.00000
     30      -1.1306      2.00000
     31      -0.6067      2.00000
     32      -0.0082      2.00000
     33       0.1202      2.00000
     34       0.4018      2.00000
     35       0.6413      2.00000
     36       0.7840      2.00000
     37       0.9831      2.00000
     38       1.0419      2.00000
     39       5.3160      0.00000
     40       5.5015      0.00000
     41       6.2610      0.00000
     42       6.4191      0.00000
     43       6.9240      0.00000
     44       7.0010      0.00000
     45       7.5574      0.00000
     46       8.1195      0.00000
     47       8.3382      0.00000
     48       8.8071      0.00000
     49       8.9992      0.00000
     50       9.1565      0.00000
     51       9.2544      0.00000
     52       9.5174      0.00000
     53      10.0891      0.00000
     54      10.4701      0.00000
     55      10.7087      0.00000
     56      11.2853      0.00000
     57      11.4716      0.00000
     58      12.2357      0.00000
     59      12.4757      0.00000
     60      12.6781      0.00000
     61      12.9568      0.00000
     62      13.1363      0.00000
     63      13.6265      0.00000
     64      14.0475      0.00000

 k-point     8 :       0.0000    0.0000    0.3333
  band No.  band energies     occupation 
      1     -21.4024      2.00000
      2     -21.3944      2.00000
      3     -21.3919      2.00000
      4     -21.3856      2.00000
      5     -21.3842      2.00000
      6     -21.3787      2.00000
      7     -21.3771      2.00000
      8     -21.3734      2.00000
      9     -21.3484      2.00000
     10     -21.3419      2.00000
     11     -21.3376      2.00000
     12     -21.3349      2.00000
     13     -10.4926      2.00000
     14      -9.7262      2.00000
     15      -9.7252      2.00000
     16      -9.6910      2.00000
     17      -4.8812      2.00000
     18      -4.6214      2.00000
     19      -4.5698      2.00000
     20      -4.5678      2.00000
     21      -4.4616      2.00000
     22      -4.3966      2.00000
     23      -4.3662      2.00000
     24      -4.3435      2.00000
     25      -4.2749      2.00000
     26      -4.2670      2.00000
     27      -2.4563      2.00000
     28      -2.2544      2.00000
     29      -1.2273      2.00000
     30      -0.3972      2.00000
     31      -0.3531      2.00000
     32      -0.3467      2.00000
     33      -0.1345      2.00000
     34      -0.0660      2.00000
     35       0.4895      2.00000
     36       0.7666      2.00000
     37       1.0350      2.00000
     38       1.0540      2.00000
     39       5.0557      0.00000
     40       5.1664      0.00000
     41       5.7790      0.00000
     42       5.8423      0.00000
     43       6.0249      0.00000
     44       6.6382      0.00000
     45       7.0569      0.00000
     46       8.0439      0.00000
     47       8.9855      0.00000
     48       9.0441      0.00000
     49       9.1948      0.00000
     50       9.3210      0.00000
     51       9.9188      0.00000
     52      10.4224      0.00000
     53      10.7780      0.00000
     54      10.9801      0.00000
     55      11.5699      0.00000
     56      12.0501      0.00000
[...]
     19      -4.6565      2.00000
     20      -4.6547      2.00000
     21      -4.5831      2.00000
     22      -4.5768      2.00000
     23      -4.5109      2.00000
     24      -4.5060      2.00000
     25      -4.4961      2.00000
     26      -4.4924      2.00000
     27      -2.7503      2.00000
     28      -2.5719      2.00000
     29      -1.5137      2.00000
     30      -1.0813      2.00000
     31      -0.3561      2.00000
     32      -0.2845      2.00000
     33       0.0229      2.00000
     34       0.2536      2.00000
     35       0.3353      2.00000
     36       0.5374      2.00000
     37       0.7316      2.00000
     38       0.9983      2.00000
     39       5.5346      0.00000
     40       5.5590      0.00000
     41       6.1677      0.00000
     42       6.2617      0.00000
     43       6.9178      0.00000
     44       7.0672      0.00000
     45       7.4176      0.00000
     46       7.5216      0.00000
     47       7.5794      0.00000
     48       8.0208      0.00000
     49       8.1365      0.00000
     50       8.3458      0.00000
     51       8.8002      0.00000
     52       9.1485      0.00000
     53       9.7202      0.00000
     54      10.0747      0.00000
     55      10.4706      0.00000
     56      10.6607      0.00000
     57      11.6863      0.00000
     58      12.0878      0.00000
     59      12.2109      0.00000
     60      12.9979      0.00000
     61      13.2577      0.00000
     62      13.5386      0.00000
     63      13.6680      0.00000
     64      13.8668      0.00000

 k-point    11 :      -0.2500    0.0000    0.3333
  band No.  band energies     occupation 
      1     -21.5857      2.00000
      2     -21.5835      2.00000
      3     -21.5801      2.00000
      4     -21.5746      2.00000
      5     -21.5681      2.00000
      6     -21.5655      2.00000
      7     -21.5649      2.00000
      8     -21.5626      2.00000
      9     -21.5353      2.00000
     10     -21.5305      2.00000
     11     -21.5230      2.00000
     12     -21.5228      2.00000
     13     -10.4796      2.00000
     14      -9.9056      2.00000
     15      -9.7951      2.00000
     16      -9.7608      2.00000
     17      -4.8754      2.00000
     18      -4.6818      2.00000
     19      -4.6668      2.00000
     20      -4.6608      2.00000
     21      -4.5671      2.00000
     22      -4.5577      2.00000
     23      -4.5099      2.00000
     24      -4.4916      2.00000
     25      -4.4502      2.00000
     26      -4.3772      2.00000
     27      -2.6202      2.00000
     28      -2.5891      2.00000
     29      -1.2106      2.00000
     30      -0.9809      2.00000
     31      -0.7089      2.00000
     32      -0.4341      2.00000
     33       0.0495      2.00000
     34       0.1910      2.00000
     35       0.3593      2.00000
     36       0.3661      2.00000
     37       0.9115      2.00000
     38       1.0723      2.00000
     39       4.7293      0.00000
     40       5.0301      0.00000
     41       5.8396      0.00000
     42       6.3890      0.00000
     43       6.6161      0.00000
     44       6.8809      0.00000
     45       7.3905      0.00000
     46       7.8982      0.00000
     47       8.0420      0.00000
     48       8.2358      0.00000
     49       8.4417      0.00000
     50       8.8307      0.00000
     51       8.8516      0.00000
     52      10.1815      0.00000
     53      10.3038      0.00000
     54      10.4099      0.00000
     55      10.9228      0.00000
     56      11.3084      0.00000
     57      11.5529      0.00000
     58      11.6091      0.00000
     59      11.7149      0.00000
     60      12.3962      0.00000
     61      12.8016      0.00000
     62      13.0881      0.00000
     63      13.1824      0.00000
     64      13.6718      0.00000

 k-point    12 :       0.0000    0.3333    0.3333
  band No.  band energies     occupation 
      1     -21.5876      2.00000
      2     -21.5820      2.00000
      3     -21.5762      2.00000
      4     -21.5735      2.00000
      5     -21.5708      2.00000
      6     -21.5670      2.00000
      7     -21.5640      2.00000
      8     -21.5633      2.00000
      9     -21.5342      2.00000
     10     -21.5297      2.00000
     11     -21.5247      2.00000
     12     -21.5230      2.00000
     13     -10.4677      2.00000
     14      -9.8810      2.00000
     15      -9.8405      2.00000
     16      -9.7634      2.00000
     17      -4.9527      2.00000
     18      -4.7183      2.00000
     19      -4.7112      2.00000
     20      -4.6819      2.00000
     21      -4.5710      2.00000
     22      -4.5170      2.00000
     23      -4.4916      2.00000
     24      -4.4596      2.00000
     25      -4.4068      2.00000
     26      -4.3916      2.00000
     27      -2.4878      2.00000
     28      -2.2842      2.00000
     29      -1.5691      2.00000
     30      -0.6231      2.00000
     31      -0.5627      2.00000
     32      -0.3965      2.00000
     33      -0.3883      2.00000
     34      -0.1248      2.00000
     35       0.4578      2.00000
     36       0.7432      2.00000
     37       0.7681      2.00000
     38       0.8256      2.00000
     39       5.2611      0.00000
     40       5.2829      0.00000
     41       5.7565      0.00000
     42       6.1010      0.00000
     43       6.5043      0.00000
     44       7.0648      0.00000
     45       7.2047      0.00000
     46       7.6107      0.00000
     47       7.6641      0.00000
     48       7.7289      0.00000
     49       8.3771      0.00000
     50       9.0610      0.00000
     51       9.2780      0.00000
     52       9.6370      0.00000
     53       9.6985      0.00000
     54       9.8760      0.00000
     55      10.8322      0.00000
     56      11.2344      0.00000
     57      11.4155      0.00000
     58      12.5317      0.00000
     59      12.6816      0.00000
     60      12.8075      0.00000
     61      12.8240      0.00000
     62      13.0454      0.00000
     63      13.7938      0.00000
     64      14.3278      0.00000

 k-point    13 :       0.2500    0.3333    0.3333
  band No.  band energies     occupation 
      1     -21.5858      2.00000
      2     -21.5837      2.00000
      3     -21.5787      2.00000
      4     -21.5765      2.00000
      5     -21.5677      2.00000
      6     -21.5662      2.00000
      7     -21.5642      2.00000
      8     -21.5627      2.00000
      9     -21.5337      2.00000
     10     -21.5301      2.00000
     11     -21.5247      2.00000
     12     -21.5224      2.00000
     13     -10.3826      2.00000
     14      -9.9050      2.00000
     15      -9.8619      2.00000
     16      -9.7957      2.00000
     17      -4.8573      2.00000
     18      -4.6923      2.00000
     19      -4.6755      2.00000
     20      -4.6735      2.00000
     21      -4.5612      2.00000
     22      -4.5542      2.00000
     23      -4.5234      2.00000
     24      -4.4948      2.00000
     25      -4.4518      2.00000
     26      -4.3770      2.00000
     27      -2.6826      2.00000
     28      -2.5650      2.00000
     29      -1.4105      2.00000
     30      -1.0601      2.00000
     31      -0.7263      2.00000
     32      -0.2001      2.00000
     33       0.1187      2.00000
     34       0.2399      2.00000
     35       0.5495      2.00000
     36       0.6103      2.00000
     37       0.7476      2.00000
     38       0.8997      2.00000
     39       4.8815      0.00000
     40       5.5181      0.00000
     41       5.9442      0.00000
     42       6.0887      0.00000
     43       6.5554      0.00000
     44       6.8853      0.00000
     45       7.3719      0.00000
     46       7.6885      0.00000
     47       7.8902      0.00000
     48       8.2976      0.00000
     49       8.3983      0.00000
     50       8.6417      0.00000
     51       9.0753      0.00000
     52       9.3097      0.00000
     53       9.6936      0.00000
     54      10.1061      0.00000
     55      10.8468      0.00000
     56      11.4616      0.00000
     57      11.6015      0.00000
     58      11.7316      0.00000
     59      11.9476      0.00000
     60      12.4706      0.00000
     61      12.8584      0.00000
     62      13.2916      0.00000
     63      13.6019      0.00000
     64      13.8704      0.00000

 k-point    14 :       0.5000    0.3333    0.3333
  band No.  band energies     occupation 
      1     -21.5830      2.00000
      2     -21.5830      2.00000
      3     -21.5814      2.00000
      4     -21.5814      2.00000
      5     -21.5649      2.00000
      6     -21.5649      2.00000
      7     -21.5638      2.00000
      8     -21.5638      2.00000
      9     -21.5321      2.00000
     10     -21.5320      2.00000
     11     -21.5232      2.00000
     12     -21.5231      2.00000
     13     -10.1580      2.00000
     14     -10.1579      2.00000
     15      -9.8107      2.00000
     16      -9.8107      2.00000
     17      -4.6684      2.00000
     18      -4.6683      2.00000
     19      -4.6557      2.00000
     20      -4.6556      2.00000
     21      -4.5827      2.00000
     22      -4.5826      2.00000
     23      -4.5100      2.00000
     24      -4.5099      2.00000
     25      -4.4978      2.00000
     26      -4.4977      2.00000
     27      -2.7709      2.00000
     28      -2.7708      2.00000
     29      -1.5258      2.00000
     30      -1.5258      2.00000
     31       0.0485      2.00000
     32       0.0485      2.00000
     33       0.2614      2.00000
     34       0.2614      2.00000
     35       0.4847      2.00000
     36       0.4848      2.00000
     37       0.8377      2.00000
     38       0.8377      2.00000
     39       5.1494      0.00000
     40       5.1494      0.00000
     41       5.8924      0.00000
     42       5.8924      0.00000
     43       7.0756      0.00000
     44       7.0756      0.00000
     45       7.5339      0.00000
     46       7.5339      0.00000
     47       8.3496      0.00000
     48       8.3496      0.00000
     49       8.5171      0.00000
     50       8.5171      0.00000
     51       8.9699      0.00000
     52       8.9699      0.00000
     53       9.5545      0.00000
     54       9.5546      0.00000
     55      11.2028      0.00000
     56      11.2029      0.00000
     57      11.8587      0.00000
     58      11.8588      0.00000
     59      12.2081      0.00000
     60      12.2082      0.00000
     61      12.9671      0.00000
     62      12.9671      0.00000
     63      13.4523      0.00000
     64      13.4523      0.00000


--------------------------------------------------------------------------------------------------------


 soft charge-density along one line, spin component           1
         0         1         2         3         4         5         6         7         8         9
 total charge-density along one line

 pseudopotential strength for first ion, spin component:           1
-25.578   0.007   0.003   2.673  -0.003  -0.001  -0.004  -0.013
  0.007 -25.565   0.010  -0.003   2.667  -0.004  -0.000  -0.001
  0.003   0.010 -25.582  -0.001  -0.004   2.674  -0.000  -0.001
  2.673  -0.003  -0.001   6.531   0.000   0.000   0.000   0.000
 -0.003   2.667  -0.004   0.000   6.532   0.001   0.000   0.000
 -0.001  -0.004   2.674   0.000   0.001   6.531   0.000   0.000
 -0.004  -0.000  -0.000   0.000   0.000   0.000   1.431   7.013
 -0.013  -0.001  -0.001   0.000   0.000   0.000   7.013  34.107
 total augmentation occupancy for first ion, spin component:           1
  2.001  -0.000  -0.000  -0.001  -0.001  -0.000   0.013  -0.004
 -0.000   2.001  -0.000  -0.001  -0.003  -0.001   0.001  -0.001
 -0.000  -0.000   2.001  -0.000  -0.001  -0.001   0.001  -0.000
 -0.001  -0.001  -0.000   0.018   0.002   0.001   0.010   0.000
 -0.001  -0.003  -0.001   0.002   0.020   0.003   0.001  -0.000
 -0.000  -0.001  -0.001   0.001   0.003   0.014   0.001  -0.000
  0.013   0.001   0.001   0.010   0.001   0.001   0.457  -0.001
 -0.004  -0.001  -0.000   0.000  -0.000  -0.000  -0.001   0.000


------------------------ aborting loop because EDIFF is reached ----------------------------------------


    CHARGE:  cpu time      0.0174: real time      0.0174
    FORLOC:  cpu time      0.0008: real time      0.0008
    FORNL :  cpu time      0.0867: real time      0.0867
    STRESS:  cpu time      0.2607: real time      0.2607
    FORCOR:  cpu time      0.0065: real time      0.0065
    FORHAR:  cpu time      0.0021: real time      0.0021
    MIXING:  cpu time      0.0003: real time      0.0003
    OFIELD:  cpu time      0.0000: real time      0.0000

  FORCE on cell =-STRESS in cart. coord.  units (eV):
  Direction    XX          YY          ZZ          XY          YZ          ZX
  --------------------------------------------------------------------------------------
  Alpha Z   191.93048   191.93048   191.93048
  Ewald    -991.68407 -1555.89941 -1557.92768   -53.09914  -116.57412  -325.44618
  Hartree  1180.50744   735.15179   738.46729   -39.72172   -87.20451  -254.06166
  E(xc)    -381.50563  -381.70292  -381.69961    -0.01791    -0.03885    -0.11234
  Local    -970.18028    33.03508    30.19325    91.53895   200.96421   574.96047
  n-local   132.84213   134.50702   135.18206     0.48368     0.51903     1.13840
  augment   179.33835   179.75510   180.05484     0.16313     0.36372     0.40334
  Kinetic   658.90326   663.09257   663.77385     0.49329     1.88904     3.08492
  Fock        0.00000     0.00000     0.00000     0.00000     0.00000     0.00000
  -------------------------------------------------------------------------------------
  Total       0.10002    -0.02800    -0.07616    -0.03332    -0.07314    -0.10126
  in kB       0.75133    -0.21031    -0.57204    -0.25025    -0.54940    -0.76061
  external pressure =       -0.01 kB  Pullay stress =        0.00 kB


 VOLUME and BASIS-vectors are now :
 -----------------------------------------------------------------------------
  energy-cutoff  :      400.00
  volume of cell :      213.29
      direct lattice vectors                 reciprocal lattice vectors
     5.378310492  0.000000004 -2.449816525     0.186062352  0.044326411  0.000286184
    -1.326278468  5.585919779 -2.911704765     0.000073626  0.179123283  0.000161637
    -0.009405750 -0.006410266  7.108014461     0.064157579  0.088652843  0.140851112

  length of vectors
     5.909976714  6.437354969  7.108023575     0.191269734  0.179123371  0.178366357


 FORCES acting on ions
    electron-ion (+dipol)            ewald-force                    non-local-force                 convergence-correction
 -----------------------------------------------------------------------------------------------
   -.697E+01 -.851E+02 -.153E+02   0.701E+01 0.861E+02 0.154E+02   -.457E-01 -.934E+00 -.100E+00   -.227E-03 0.507E-03 -.496E-03
   0.697E+01 0.851E+02 0.153E+02   -.701E+01 -.861E+02 -.154E+02   0.457E-01 0.934E+00 0.100E+00   0.227E-03 -.507E-03 0.496E-03
   0.340E+02 -.286E+02 0.746E+02   -.343E+02 0.289E+02 -.753E+02   0.357E+00 -.378E+00 0.784E+00   -.676E-04 0.727E-03 -.147E-03
   -.340E+02 0.286E+02 -.746E+02   0.343E+02 -.289E+02 0.753E+02   -.357E+00 0.378E+00 -.784E+00   0.676E-04 -.727E-03 0.147E-03
   -.221E-03 0.653E-04 0.137E-03   -.612E-03 -.108E-02 0.996E-03   -.808E-19 0.317E-19 0.501E-18   -.313E-06 -.463E-07 -.662E-06
   0.221E-03 -.653E-04 -.137E-03   0.612E-03 0.108E-02 -.996E-03   -.835E-18 0.152E-18 0.253E-17   0.313E-06 0.463E-07 0.662E-06
   -.220E+02 -.173E+03 -.484E+02   0.223E+02 0.175E+03 0.490E+02   -.296E+00 -.278E+01 -.651E+00   0.402E-04 -.287E-03 0.877E-04
   0.220E+02 0.173E+03 0.484E+02   -.223E+02 -.175E+03 -.490E+02   0.296E+00 0.278E+01 0.651E+00   -.402E-04 0.287E-03 -.877E-04
   0.729E+02 -.415E+02 0.160E+03   -.740E+02 0.423E+02 -.162E+03   0.114E+01 -.788E+00 0.251E+01   0.826E-04 -.228E-03 0.181E-03
   -.729E+02 0.415E+02 -.160E+03   0.740E+02 -.423E+02 0.162E+03   -.114E+01 0.788E+00 -.251E+01   -.826E-04 0.228E-03 -.181E-03
 -----------------------------------------------------------------------------------------------
   0.111E-11 0.447E-11 -.118E-10   0.142E-13 0.497E-13 0.000E+00   0.000E+00 -.555E-15 -.888E-15   0.164E-12 -.765E-12 -.212E-13


 POSITION                                       TOTAL-FORCE (eV/Angst)
 -----------------------------------------------------------------------------------
      0.11104      2.73284      0.24376         0.000411      0.008386      0.000903
      3.93159      2.84667      1.50273        -0.000411     -0.008386     -0.000903
      1.64643      1.14516      3.61457        -0.003206      0.003386     -0.007040
      2.39620      4.43435     -1.86807         0.003206     -0.003386      0.007040
      1.34458      0.00000     -0.61245        -0.000000     -0.000000      0.000000
      4.03373      0.00000     -1.83736        -0.000000      0.000000      0.000000
      2.85677      1.82328     -0.85692        -0.002460     -0.049112     -0.005401
      1.18585      3.75623      2.60341         0.002460      0.049112      0.005401
      4.63218      0.56725      3.04079         0.018805     -0.019727      0.041284
     -0.58955      5.01226     -1.29429        -0.018805      0.019727     -0.041284
 -----------------------------------------------------------------------------------
    total drift:                                0.000000      0.000000     -0.000000


--------------------------------------------------------------------------------------------------------



  FREE ENERGIE OF THE ION-ELECTRON SYSTEM (eV)
  ---------------------------------------------------
  free  energy   TOTEN  =       -33.79606707 eV

  energy  without entropy=      -33.79606707  energy(sigma->0) =      -33.79606707

 d Force = 0.6783264E-03[ 0.587E-03, 0.770E-03]  d Energy = 0.1013370E-02-0.335E-03
 d Force =-0.1959886E+01[-0.196E+01,-0.196E+01]  d Ewald  =-0.3482674E+01 0.152E+01


--------------------------------------------------------------------------------------------------------


    POTLOK:  cpu time      0.0089: real time      0.0089


--------------------------------------------------------------------------------------------------------


 Conjugate gradient step on ions:
 trial-energy change:   -0.001013  1 .order   -0.000998   -0.001157   -0.000839
  (g-gl).g = 0.126E-02      g.g   = 0.117E-02  gl.gl    = 0.549E-01
 g(Force)  = 0.835E-03   g(Stress)= 0.339E-03 ortho     =-0.854E-04
 gamma     =   0.02296
 trial     =   0.98699
 opt step  =   3.59589  (harmonic =   3.59589) maximal distance =0.01044783
 next E    =   -33.797161   (d E  =  -0.00211)


--------------------------------------------------------------------------------------------------------


  
 reached required accuracy - stopping structural energy minimisation
     LOOP+:  cpu time      4.9828: real time      4.9907
    4ORBIT:  cpu time      0.0000: real time      0.0000

 total amount of memory used by VASP MPI-rank0    36024. kBytes
=======================================================================

   base      :      30000. kBytes
   nonlr-proj:       1646. kBytes
   fftplans  :        461. kBytes
   grid      :       1999. kBytes
   one-center:        155. kBytes
   wavefun   :       1763. kBytes

  
  
 General timing and accounting informations for this job:
 ========================================================
  
                  Total CPU time used (sec):       38.738
                            User time (sec):       37.244
                          System time (sec):        1.495
                         Elapsed time (sec):       39.517
  
                   Maximum memory used (kb):      126984.
                   Average memory used (kb):          N/A
  
                          Minor page faults:        33728
                          Major page faults:          119
                 Voluntary context switches:         1448
