   3   3   1   0
  0.2666667E+04  0.2000000E-08  0.2000000E-08  0.2000000E-08  0.5000000E-15
   1.0000000000000000E-004
  CAR 
 H2O gas phase                           
      2.59614202    -26.61857920  301     -6.93516078      1.00000000
    -26.619  0.0000E+00  0.0000E+00
    -26.521  0.0000E+00  0.0000E+00
    -26.424  0.0000E+00  0.0000E+00
    -26.326  0.0000E+00  0.0000E+00
    -26.229  0.0000E+00  0.0000E+00
    -26.132  0.0000E+00  0.0000E+00
    -26.034  0.0000E+00  0.0000E+00
    -25.937  0.0000E+00  0.0000E+00
    -25.840  0.0000E+00  0.0000E+00
    -25.742  0.0000E+00  0.0000E+00
    -25.645  0.0000E+00  0.0000E+00
    -25.547  0.3929E-13  0.3826E-14
    -25.450  0.6746E-06  0.6569E-07
    -25.353  0.8177E-02  0.7964E-03
    -25.255  0.1647E+00  0.1683E-01
    -25.158  0.3249E-01  0.2000E-01
    -25.060  0.1773E-04  0.2000E-01
    -24.963  0.7698E-11  0.2000E-01
    -24.866  0.0000E+00  0.2000E-01
    -24.768  0.0000E+00  0.2000E-01
    -24.671  0.0000E+00  0.2000E-01
    -24.574  0.0000E+00  0.2000E-01
    -24.476  0.0000E+00  0.2000E-01
    -24.379  0.0000E+00  0.2000E-01
    -24.281  0.0000E+00  0.2000E-01
    -24.184  0.0000E+00  0.2000E-01
    -24.087  0.0000E+00  0.2000E-01
    -23.989  0.0000E+00  0.2000E-01
    -23.892  0.0000E+00  0.2000E-01
    -23.794  0.0000E+00  0.2000E-01
    -23.697  0.0000E+00  0.2000E-01
    -23.600  0.0000E+00  0.2000E-01
    -23.502  0.0000E+00  0.2000E-01
    -23.405  0.0000E+00  0.2000E-01
    -23.308  0.0000E+00  0.2000E-01
    -23.210  0.0000E+00  0.2000E-01
    -23.113  0.0000E+00  0.2000E-01
    -23.015  0.0000E+00  0.2000E-01
    -22.918  0.0000E+00  0.2000E-01
    -22.821  0.0000E+00  0.2000E-01
    -22.723  0.0000E+00  0.2000E-01
    -22.626  0.0000E+00  0.2000E-01
    -22.529  0.0000E+00  0.2000E-01
    -22.431  0.0000E+00  0.2000E-01
    -22.334  0.0000E+00  0.2000E-01
    -22.236  0.0000E+00  0.2000E-01
    -22.139  0.0000E+00  0.2000E-01
    -22.042  0.0000E+00  0.2000E-01
    -21.944  0.0000E+00  0.2000E-01
    -21.847  0.0000E+00  0.2000E-01
    -21.749  0.0000E+00  0.2000E-01
    -21.652  0.0000E+00  0.2000E-01
    -21.555  0.0000E+00  0.2000E-01
    -21.457  0.0000E+00  0.2000E-01
    -21.360  0.0000E+00  0.2000E-01
    -21.263  0.0000E+00  0.2000E-01
    -21.165  0.0000E+00  0.2000E-01
    -21.068  0.0000E+00  0.2000E-01
    -20.970  0.0000E+00  0.2000E-01
    -20.873  0.0000E+00  0.2000E-01
    -20.776  0.0000E+00  0.2000E-01
    -20.678  0.0000E+00  0.2000E-01
    -20.581  0.0000E+00  0.2000E-01
    -20.483  0.0000E+00  0.2000E-01
    -20.386  0.0000E+00  0.2000E-01
    -20.289  0.0000E+00  0.2000E-01
    -20.191  0.0000E+00  0.2000E-01
    -20.094  0.0000E+00  0.2000E-01
    -19.997  0.0000E+00  0.2000E-01
    -19.899  0.0000E+00  0.2000E-01
    -19.802  0.0000E+00  0.2000E-01
    -19.704  0.0000E+00  0.2000E-01
    -19.607  0.0000E+00  0.2000E-01
    -19.510  0.0000E+00  0.2000E-01
    -19.412  0.0000E+00  0.2000E-01
    -19.315  0.0000E+00  0.2000E-01
    -19.218  0.0000E+00  0.2000E-01
    -19.120  0.0000E+00  0.2000E-01
    -19.023  0.0000E+00  0.2000E-01
    -18.925  0.0000E+00  0.2000E-01
    -18.828  0.0000E+00  0.2000E-01
    -18.731  0.0000E+00  0.2000E-01
    -18.633  0.0000E+00  0.2000E-01
    -18.536  0.0000E+00  0.2000E-01
    -18.438  0.0000E+00  0.2000E-01
    -18.341  0.0000E+00  0.2000E-01
    -18.244  0.0000E+00  0.2000E-01
    -18.146  0.0000E+00  0.2000E-01
    -18.049  0.0000E+00  0.2000E-01
    -17.952  0.0000E+00  0.2000E-01
    -17.854  0.0000E+00  0.2000E-01
    -17.757  0.0000E+00  0.2000E-01
    -17.659  0.0000E+00  0.2000E-01
    -17.562  0.0000E+00  0.2000E-01
    -17.465  0.0000E+00  0.2000E-01
    -17.367  0.0000E+00  0.2000E-01
    -17.270  0.0000E+00  0.2000E-01
    -17.172  0.0000E+00  0.2000E-01
    -17.075  0.0000E+00  0.2000E-01
    -16.978  0.0000E+00  0.2000E-01
    -16.880  0.0000E+00  0.2000E-01
    -16.783  0.0000E+00  0.2000E-01
    -16.686  0.0000E+00  0.2000E-01
    -16.588  0.0000E+00  0.2000E-01
    -16.491  0.0000E+00  0.2000E-01
    -16.393  0.0000E+00  0.2000E-01
    -16.296  0.0000E+00  0.2000E-01
    -16.199  0.0000E+00  0.2000E-01
    -16.101  0.0000E+00  0.2000E-01
    -16.004  0.0000E+00  0.2000E-01
    -15.907  0.0000E+00  0.2000E-01
    -15.809  0.0000E+00  0.2000E-01
    -15.712  0.0000E+00  0.2000E-01
    -15.614  0.0000E+00  0.2000E-01
    -15.517  0.0000E+00  0.2000E-01
    -15.420  0.0000E+00  0.2000E-01
    -15.322  0.0000E+00  0.2000E-01
    -15.225  0.0000E+00  0.2000E-01
    -15.127  0.0000E+00  0.2000E-01
    -15.030  0.0000E+00  0.2000E-01
    -14.933  0.0000E+00  0.2000E-01
    -14.835  0.0000E+00  0.2000E-01
    -14.738  0.0000E+00  0.2000E-01
    -14.641  0.0000E+00  0.2000E-01
    -14.543  0.0000E+00  0.2000E-01
    -14.446  0.0000E+00  0.2000E-01
    -14.348  0.0000E+00  0.2000E-01
    -14.251  0.0000E+00  0.2000E-01
    -14.154  0.0000E+00  0.2000E-01
    -14.056  0.0000E+00  0.2000E-01
    -13.959  0.0000E+00  0.2000E-01
    -13.861  0.0000E+00  0.2000E-01
    -13.764  0.0000E+00  0.2000E-01
    -13.667  0.0000E+00  0.2000E-01
    -13.569  0.0000E+00  0.2000E-01
    -13.472  0.0000E+00  0.2000E-01
    -13.375  0.6840E-16  0.2000E-01
    -13.277  0.1008E-07  0.2000E-01
    -13.180  0.1027E-02  0.2010E-01
    -13.082  0.1162E+00  0.3142E-01
    -12.985  0.8778E-01  0.3997E-01
    -12.888  0.3447E-03  0.4000E-01
    -12.790  0.1324E-08  0.4000E-01
    -12.693  0.0000E+00  0.4000E-01
    -12.596  0.0000E+00  0.4000E-01
    -12.498  0.0000E+00  0.4000E-01
    -12.401  0.0000E+00  0.4000E-01
    -12.303  0.0000E+00  0.4000E-01
    -12.206  0.0000E+00  0.4000E-01
    -12.109  0.0000E+00  0.4000E-01
    -12.011  0.0000E+00  0.4000E-01
    -11.914  0.0000E+00  0.4000E-01
    -11.816  0.0000E+00  0.4000E-01
    -11.719  0.0000E+00  0.4000E-01
    -11.622  0.0000E+00  0.4000E-01
    -11.524  0.0000E+00  0.4000E-01
    -11.427  0.0000E+00  0.4000E-01
    -11.330  0.0000E+00  0.4000E-01
    -11.232  0.0000E+00  0.4000E-01
    -11.135  0.0000E+00  0.4000E-01
    -11.037  0.0000E+00  0.4000E-01
    -10.940  0.0000E+00  0.4000E-01
    -10.843  0.0000E+00  0.4000E-01
    -10.745  0.0000E+00  0.4000E-01
    -10.648  0.0000E+00  0.4000E-01
    -10.550  0.0000E+00  0.4000E-01
    -10.453  0.0000E+00  0.4000E-01
    -10.356  0.0000E+00  0.4000E-01
    -10.258  0.0000E+00  0.4000E-01
    -10.161  0.0000E+00  0.4000E-01
    -10.064  0.0000E+00  0.4000E-01
     -9.966  0.0000E+00  0.4000E-01
     -9.869  0.0000E+00  0.4000E-01
     -9.771  0.0000E+00  0.4000E-01
     -9.674  0.0000E+00  0.4000E-01
     -9.577  0.0000E+00  0.4000E-01
     -9.479  0.2324E-10  0.4000E-01
     -9.382  0.3423E-04  0.4000E-01
     -9.285  0.4151E-01  0.4405E-01
     -9.187  0.1582E+00  0.5945E-01
     -9.090  0.5622E-02  0.6000E-01
     -8.992  0.3015E-06  0.6000E-01
     -8.895  0.1117E-13  0.6000E-01
     -8.798  0.0000E+00  0.6000E-01
     -8.700  0.0000E+00  0.6000E-01
     -8.603  0.0000E+00  0.6000E-01
     -8.505  0.0000E+00  0.6000E-01
     -8.408  0.0000E+00  0.6000E-01
     -8.311  0.0000E+00  0.6000E-01
     -8.213  0.0000E+00  0.6000E-01
     -8.116  0.0000E+00  0.6000E-01
     -8.019  0.0000E+00  0.6000E-01
     -7.921  0.0000E+00  0.6000E-01
     -7.824  0.0000E+00  0.6000E-01
     -7.726  0.0000E+00  0.6000E-01
     -7.629  0.0000E+00  0.6000E-01
     -7.532  0.0000E+00  0.6000E-01
     -7.434  0.7270E-12  0.6000E-01
     -7.337  0.4212E-05  0.6000E-01
     -7.239  0.1826E-01  0.6178E-01
     -7.142  0.1707E+00  0.7841E-01
     -7.045  0.1636E-01  0.8000E-01
     -6.947  0.3246E-05  0.8000E-01
     -6.850  0.4773E-12  0.8000E-01
     -6.753  0.0000E+00  0.8000E-01
     -6.655  0.0000E+00  0.8000E-01
     -6.558  0.0000E+00  0.8000E-01
     -6.460  0.0000E+00  0.8000E-01
     -6.363  0.0000E+00  0.8000E-01
     -6.266  0.0000E+00  0.8000E-01
     -6.168  0.0000E+00  0.8000E-01
     -6.071  0.0000E+00  0.8000E-01
     -5.974  0.0000E+00  0.8000E-01
     -5.876  0.0000E+00  0.8000E-01
     -5.779  0.0000E+00  0.8000E-01
     -5.681  0.0000E+00  0.8000E-01
     -5.584  0.0000E+00  0.8000E-01
     -5.487  0.0000E+00  0.8000E-01
     -5.389  0.0000E+00  0.8000E-01
     -5.292  0.0000E+00  0.8000E-01
     -5.194  0.0000E+00  0.8000E-01
     -5.097  0.0000E+00  0.8000E-01
     -5.000  0.0000E+00  0.8000E-01
     -4.902  0.0000E+00  0.8000E-01
     -4.805  0.0000E+00  0.8000E-01
     -4.708  0.0000E+00  0.8000E-01
     -4.610  0.0000E+00  0.8000E-01
     -4.513  0.0000E+00  0.8000E-01
     -4.415  0.0000E+00  0.8000E-01
     -4.318  0.0000E+00  0.8000E-01
     -4.221  0.0000E+00  0.8000E-01
     -4.123  0.0000E+00  0.8000E-01
     -4.026  0.0000E+00  0.8000E-01
     -3.928  0.0000E+00  0.8000E-01
     -3.831  0.0000E+00  0.8000E-01
     -3.734  0.0000E+00  0.8000E-01
     -3.636  0.0000E+00  0.8000E-01
     -3.539  0.0000E+00  0.8000E-01
     -3.442  0.0000E+00  0.8000E-01
     -3.344  0.0000E+00  0.8000E-01
     -3.247  0.0000E+00  0.8000E-01
     -3.149  0.0000E+00  0.8000E-01
     -3.052  0.0000E+00  0.8000E-01
     -2.955  0.0000E+00  0.8000E-01
     -2.857  0.0000E+00  0.8000E-01
     -2.760  0.0000E+00  0.8000E-01
     -2.663  0.0000E+00  0.8000E-01
     -2.565  0.0000E+00  0.8000E-01
     -2.468  0.0000E+00  0.8000E-01
     -2.370  0.0000E+00  0.8000E-01
     -2.273  0.0000E+00  0.8000E-01
     -2.176  0.0000E+00  0.8000E-01
     -2.078  0.0000E+00  0.8000E-01
     -1.981  0.0000E+00  0.8000E-01
     -1.883  0.0000E+00  0.8000E-01
     -1.786  0.0000E+00  0.8000E-01
     -1.689  0.0000E+00  0.8000E-01
     -1.591  0.0000E+00  0.8000E-01
     -1.494  0.0000E+00  0.8000E-01
     -1.397  0.0000E+00  0.8000E-01
     -1.299  0.0000E+00  0.8000E-01
     -1.202  0.8238E-10  0.8000E-01
     -1.104  0.7175E-04  0.8001E-01
     -1.007  0.5384E-01  0.8525E-01
     -0.910  0.1480E+00  0.9966E-01
     -0.812  0.3503E-02  0.1000E+00
     -0.715  0.1128E-06  0.1000E+00
     -0.617  0.2463E-14  0.1000E+00
     -0.520  0.0000E+00  0.1000E+00
     -0.423  0.0000E+00  0.1000E+00
     -0.325  0.0000E+00  0.1000E+00
     -0.228  0.2579E-12  0.1000E+00
     -0.131  0.2212E-05  0.1000E+00
     -0.033  0.1388E-01  0.1014E+00
      0.064  0.1702E+00  0.1179E+00
      0.162  0.3411E-01  0.1212E+00
      0.259  0.1909E+00  0.1398E+00
      0.356  0.5432E+00  0.1927E+00
      0.454  0.3475E+00  0.2266E+00
      0.551  0.3129E+00  0.2570E+00
      0.648  0.2849E+00  0.2848E+00
      0.746  0.1247E+01  0.4062E+00
      0.843  0.5507E+00  0.4598E+00
      0.941  0.1607E+00  0.4755E+00
      1.038  0.4547E+00  0.5198E+00
      1.135  0.9105E+00  0.6084E+00
      1.233  0.1512E+00  0.6232E+00
      1.330  0.1648E+00  0.6392E+00
      1.428  0.8177E-02  0.6400E+00
      1.525  0.6746E-06  0.6400E+00
      1.622  0.3929E-13  0.6400E+00
      1.720  0.0000E+00  0.6400E+00
      1.817  0.0000E+00  0.6400E+00
      1.914  0.0000E+00  0.6400E+00
      2.012  0.0000E+00  0.6400E+00
      2.109  0.0000E+00  0.6400E+00
      2.207  0.0000E+00  0.6400E+00
      2.304  0.0000E+00  0.6400E+00
      2.401  0.0000E+00  0.6400E+00
      2.499  0.0000E+00  0.6400E+00
      2.596  0.0000E+00  0.6400E+00
      2.59614202    -26.61857920  301     -6.93516078      1.00000000
    -26.619  0.0000E+00  0.0000E+00  0.0000E+00  0.0000E+00  0.0000E+00  0.0000E+00  0.0000E+00  0.0000E+00  0.0000E+00
    -26.521  0.0000E+00  0.0000E+00  0.0000E+00  0.0000E+00  0.0000E+00  0.0000E+00  0.0000E+00  0.0000E+00  0.0000E+00
    -26.424  0.0000E+00  0.0000E+00  0.0000E+00  0.0000E+00  0.0000E+00  0.0000E+00  0.0000E+00  0.0000E+00  0.0000E+00
    -26.326  0.0000E+00  0.0000E+00  0.0000E+00  0.0000E+00  0.0000E+00  0.0000E+00  0.0000E+00  0.0000E+00  0.0000E+00
    -26.229  0.0000E+00  0.0000E+00  0.0000E+00  0.0000E+00  0.0000E+00  0.0000E+00  0.0000E+00  0.0000E+00  0.0000E+00
    -26.132  0.0000E+00  0.0000E+00  0.0000E+00  0.0000E+00  0.0000E+00  0.0000E+00  0.0000E+00  0.0000E+00  0.0000E+00
    -26.034  0.0000E+00  0.0000E+00  0.0000E+00  0.0000E+00  0.0000E+00  0.0000E+00  0.0000E+00  0.0000E+00  0.0000E+00
    -25.937  0.0000E+00  0.0000E+00  0.0000E+00  0.0000E+00  0.0000E+00  0.0000E+00  0.0000E+00  0.0000E+00  0.0000E+00
    -25.840  0.0000E+00  0.0000E+00  0.0000E+00  0.0000E+00  0.0000E+00  0.0000E+00  0.0000E+00  0.0000E+00  0.0000E+00
    -25.742  0.0000E+00  0.0000E+00  0.0000E+00  0.0000E+00  0.0000E+00  0.0000E+00  0.0000E+00  0.0000E+00  0.0000E+00
    -25.645  0.0000E+00  0.0000E+00  0.0000E+00  0.0000E+00  0.0000E+00  0.0000E+00  0.0000E+00  0.0000E+00  0.0000E+00
    -25.547  0.2760E-11  0.2159E-40  0.1524E-12  0.1151E-37  0.0000E+00  0.0000E+00  0.0000E+00  0.0000E+00  0.0000E+00
    -25.450  0.4740E-04  0.3706E-33  0.2616E-05  0.1977E-30  0.0000E+00  0.0000E+00  0.0000E+00  0.0000E+00  0.0000E+00
    -25.353  0.5745E+00  0.4493E-29  0.3171E-01  0.2396E-26  0.0000E+00  0.0000E+00  0.0000E+00  0.0000E+00  0.0000E+00
    -25.255  0.1157E+02  0.9049E-28  0.6387E+00  0.4826E-25  0.0000E+00  0.0000E+00  0.0000E+00  0.0000E+00  0.0000E+00
    -25.158  0.2283E+01  0.1785E-28  0.1260E+00  0.9519E-26  0.0000E+00  0.0000E+00  0.0000E+00  0.0000E+00  0.0000E+00
    -25.060  0.1246E-02  0.9742E-32  0.6876E-04  0.5195E-29  0.0000E+00  0.0000E+00  0.0000E+00  0.0000E+00  0.0000E+00
    -24.963  0.5408E-09  0.4229E-38  0.2985E-10  0.2256E-35  0.0000E+00  0.0000E+00  0.0000E+00  0.0000E+00  0.0000E+00
    -24.866  0.0000E+00  0.0000E+00  0.0000E+00  0.0000E+00  0.0000E+00  0.0000E+00  0.0000E+00  0.0000E+00  0.0000E+00
    -24.768  0.0000E+00  0.0000E+00  0.0000E+00  0.0000E+00  0.0000E+00  0.0000E+00  0.0000E+00  0.0000E+00  0.0000E+00
    -24.671  0.0000E+00  0.0000E+00  0.0000E+00  0.0000E+00  0.0000E+00  0.0000E+00  0.0000E+00  0.0000E+00  0.0000E+00
    -24.574  0.0000E+00  0.0000E+00  0.0000E+00  0.0000E+00  0.0000E+00  0.0000E+00  0.0000E+00  0.0000E+00  0.0000E+00
    -24.476  0.0000E+00  0.0000E+00  0.0000E+00  0.0000E+00  0.0000E+00  0.0000E+00  0.0000E+00  0.0000E+00  0.0000E+00
    -24.379  0.0000E+00  0.0000E+00  0.0000E+00  0.0000E+00  0.0000E+00  0.0000E+00  0.0000E+00  0.0000E+00  0.0000E+00
    -24.281  0.0000E+00  0.0000E+00  0.0000E+00  0.0000E+00  0.0000E+00  0.0000E+00  0.0000E+00  0.0000E+00  0.0000E+00
    -24.184  0.0000E+00  0.0000E+00  0.0000E+00  0.0000E+00  0.0000E+00  0.0000E+00  0.0000E+00  0.0000E+00  0.0000E+00
    -24.087  0.0000E+00  0.0000E+00  0.0000E+00  0.0000E+00  0.0000E+00  0.0000E+00  0.0000E+00  0.0000E+00  0.0000E+00
    -23.989  0.0000E+00  0.0000E+00  0.0000E+00  0.0000E+00  0.0000E+00  0.0000E+00  0.0000E+00  0.0000E+00  0.0000E+00
    -23.892  0.0000E+00  0.0000E+00  0.0000E+00  0.0000E+00  0.0000E+00  0.0000E+00  0.0000E+00  0.0000E+00  0.0000E+00
    -23.794  0.0000E+00  0.0000E+00  0.0000E+00  0.0000E+00  0.0000E+00  0.0000E+00  0.0000E+00  0.0000E+00  0.0000E+00
    -23.697  0.0000E+00  0.0000E+00  0.0000E+00  0.0000E+00  0.0000E+00  0.0000E+00  0.0000E+00  0.0000E+00  0.0000E+00
    -23.600  0.0000E+00  0.0000E+00  0.0000E+00  0.0000E+00  0.0000E+00  0.0000E+00  0.0000E+00  0.0000E+00  0.0000E+00
    -23.502  0.0000E+00  0.0000E+00  0.0000E+00  0.0000E+00  0.0000E+00  0.0000E+00  0.0000E+00  0.0000E+00  0.0000E+00
    -23.405  0.0000E+00  0.0000E+00  0.0000E+00  0.0000E+00  0.0000E+00  0.0000E+00  0.0000E+00  0.0000E+00  0.0000E+00
    -23.308  0.0000E+00  0.0000E+00  0.0000E+00  0.0000E+00  0.0000E+00  0.0000E+00  0.0000E+00  0.0000E+00  0.0000E+00
    -23.210  0.0000E+00  0.0000E+00  0.0000E+00  0.0000E+00  0.0000E+00  0.0000E+00  0.0000E+00  0.0000E+00  0.0000E+00
    -23.113  0.0000E+00  0.0000E+00  0.0000E+00  0.0000E+00  0.0000E+00  0.0000E+00  0.0000E+00  0.0000E+00  0.0000E+00
    -23.015  0.0000E+00  0.0000E+00  0.0000E+00  0.0000E+00  0.0000E+00  0.0000E+00  0.0000E+00  0.0000E+00  0.0000E+00
    -22.918  0.0000E+00  0.0000E+00  0.0000E+00  0.0000E+00  0.0000E+00  0.0000E+00  0.0000E+00  0.0000E+00  0.0000E+00
    -22.821  0.0000E+00  0.0000E+00  0.0000E+00  0.0000E+00  0.0000E+00  0.0000E+00  0.0000E+00  0.0000E+00  0.0000E+00
    -22.723  0.0000E+00  0.0000E+00  0.0000E+00  0.0000E+00  0.0000E+00  0.0000E+00  0.0000E+00  0.0000E+00  0.0000E+00
    -22.626  0.0000E+00  0.0000E+00  0.0000E+00  0.0000E+00  0.0000E+00  0.0000E+00  0.0000E+00  0.0000E+00  0.0000E+00
    -22.529  0.0000E+00  0.0000E+00  0.0000E+00  0.0000E+00  0.0000E+00  0.0000E+00  0.0000E+00  0.0000E+00  0.0000E+00
    -22.431  0.0000E+00  0.0000E+00  0.0000E+00  0.0000E+00  0.0000E+00  0.0000E+00  0.0000E+00  0.0000E+00  0.0000E+00
    -22.334  0.0000E+00  0.0000E+00  0.0000E+00  0.0000E+00  0.0000E+00  0.0000E+00  0.0000E+00  0.0000E+00  0.0000E+00
    -22.236  0.0000E+00  0.0000E+00  0.0000E+00  0.0000E+00  0.0000E+00  0.0000E+00  0.0000E+00  0.0000E+00  0.0000E+00
    -22.139  0.0000E+00  0.0000E+00  0.0000E+00  0.0000E+00  0.0000E+00  0.0000E+00  0.0000E+00  0.0000E+00  0.0000E+00
    -22.042  0.0000E+00  0.0000E+00  0.0000E+00  0.0000E+00  0.0000E+00  0.0000E+00  0.0000E+00  0.0000E+00  0.0000E+00
    -21.944  0.0000E+00  0.0000E+00  0.0000E+00  0.0000E+00  0.0000E+00  0.0000E+00  0.0000E+00  0.0000E+00  0.0000E+00
    -21.847  0.0000E+00  0.0000E+00  0.0000E+00  0.0000E+00  0.0000E+00  0.0000E+00  0.0000E+00  0.0000E+00  0.0000E+00
    -21.749  0.0000E+00  0.0000E+00  0.0000E+00  0.0000E+00  0.0000E+00  0.0000E+00  0.0000E+00  0.0000E+00  0.0000E+00
    -21.652  0.0000E+00  0.0000E+00  0.0000E+00  0.0000E+00  0.0000E+00  0.0000E+00  0.0000E+00  0.0000E+00  0.0000E+00
    -21.555  0.0000E+00  0.0000E+00  0.0000E+00  0.0000E+00  0.0000E+00  0.0000E+00  0.0000E+00  0.0000E+00  0.0000E+00
    -21.457  0.0000E+00  0.0000E+00  0.0000E+00  0.0000E+00  0.0000E+00  0.0000E+00  0.0000E+00  0.0000E+00  0.0000E+00
    -21.360  0.0000E+00  0.0000E+00  0.0000E+00  0.0000E+00  0.0000E+00  0.0000E+00  0.0000E+00  0.0000E+00  0.0000E+00
    -21.263  0.0000E+00  0.0000E+00  0.0000E+00  0.0000E+00  0.0000E+00  0.0000E+00  0.0000E+00  0.0000E+00  0.0000E+00
    -21.165  0.0000E+00  0.0000E+00  0.0000E+00  0.0000E+00  0.0000E+00  0.0000E+00  0.0000E+00  0.0000E+00  0.0000E+00
    -21.068  0.0000E+00  0.0000E+00  0.0000E+00  0.0000E+00  0.0000E+00  0.0000E+00  0.0000E+00  0.0000E+00  0.0000E+00
    -20.970  0.0000E+00  0.0000E+00  0.0000E+00  0.0000E+00  0.0000E+00  0.0000E+00  0.0000E+00  0.0000E+00  0.0000E+00
    -20.873  0.0000E+00  0.0000E+00  0.0000E+00  0.0000E+00  0.0000E+00  0.0000E+00  0.0000E+00  0.0000E+00  0.0000E+00
    -20.776  0.0000E+00  0.0000E+00  0.0000E+00  0.0000E+00  0.0000E+00  0.0000E+00  0.0000E+00  0.0000E+00  0.0000E+00
    -20.678  0.0000E+00  0.0000E+00  0.0000E+00  0.0000E+00  0.0000E+00  0.0000E+00  0.0000E+00  0.0000E+00  0.0000E+00
    -20.581  0.0000E+00  0.0000E+00  0.0000E+00  0.0000E+00  0.0000E+00  0.0000E+00  0.0000E+00  0.0000E+00  0.0000E+00
    -20.483  0.0000E+00  0.0000E+00  0.0000E+00  0.0000E+00  0.0000E+00  0.0000E+00  0.0000E+00  0.0000E+00  0.0000E+00
    -20.386  0.0000E+00  0.0000E+00  0.0000E+00  0.0000E+00  0.0000E+00  0.0000E+00  0.0000E+00  0.0000E+00  0.0000E+00
    -20.289  0.0000E+00  0.0000E+00  0.0000E+00  0.0000E+00  0.0000E+00  0.0000E+00  0.0000E+00  0.0000E+00  0.0000E+00
    -20.191  0.0000E+00  0.0000E+00  0.0000E+00  0.0000E+00  0.0000E+00  0.0000E+00  0.0000E+00  0.0000E+00  0.0000E+00
    -20.094  0.0000E+00  0.0000E+00  0.0000E+00  0.0000E+00  0.0000E+00  0.0000E+00  0.0000E+00  0.0000E+00  0.0000E+00
    -19.997  0.0000E+00  0.0000E+00  0.0000E+00  0.0000E+00  0.0000E+00  0.0000E+00  0.0000E+00  0.0000E+00  0.0000E+00
    -19.899  0.0000E+00  0.0000E+00  0.0000E+00  0.0000E+00  0.0000E+00  0.0000E+00  0.0000E+00  0.0000E+00  0.0000E+00
    -19.802  0.0000E+00  0.0000E+00  0.0000E+00  0.0000E+00  0.0000E+00  0.0000E+00  0.0000E+00  0.0000E+00  0.0000E+00
    -19.704  0.0000E+00  0.0000E+00  0.0000E+00  0.0000E+00  0.0000E+00  0.0000E+00  0.0000E+00  0.0000E+00  0.0000E+00
    -19.607  0.0000E+00  0.0000E+00  0.0000E+00  0.0000E+00  0.0000E+00  0.0000E+00  0.0000E+00  0.0000E+00  0.0000E+00
    -19.510  0.0000E+00  0.0000E+00  0.0000E+00  0.0000E+00  0.0000E+00  0.0000E+00  0.0000E+00  0.0000E+00  0.0000E+00
    -19.412  0.0000E+00  0.0000E+00  0.0000E+00  0.0000E+00  0.0000E+00  0.0000E+00  0.0000E+00  0.0000E+00  0.0000E+00
    -19.315  0.0000E+00  0.0000E+00  0.0000E+00  0.0000E+00  0.0000E+00  0.0000E+00  0.0000E+00  0.0000E+00  0.0000E+00
    -19.218  0.0000E+00  0.0000E+00  0.0000E+00  0.0000E+00  0.0000E+00  0.0000E+00  0.0000E+00  0.0000E+00  0.0000E+00
    -19.120  0.0000E+00  0.0000E+00  0.0000E+00  0.0000E+00  0.0000E+00  0.0000E+00  0.0000E+00  0.0000E+00  0.0000E+00
    -19.023  0.0000E+00  0.0000E+00  0.0000E+00  0.0000E+00  0.0000E+00  0.0000E+00  0.0000E+00  0.0000E+00  0.0000E+00
    -18.925  0.0000E+00  0.0000E+00  0.0000E+00  0.0000E+00  0.0000E+00  0.0000E+00  0.0000E+00  0.0000E+00  0.0000E+00
    -18.828  0.0000E+00  0.0000E+00  0.0000E+00  0.0000E+00  0.0000E+00  0.0000E+00  0.0000E+00  0.0000E+00  0.0000E+00
    -18.731  0.0000E+00  0.0000E+00  0.0000E+00  0.0000E+00  0.0000E+00  0.0000E+00  0.0000E+00  0.0000E+00  0.0000E+00
    -18.633  0.0000E+00  0.0000E+00  0.0000E+00  0.0000E+00  0.0000E+00  0.0000E+00  0.0000E+00  0.0000E+00  0.0000E+00
    -18.536  0.0000E+00  0.0000E+00  0.0000E+00  0.0000E+00  0.0000E+00  0.0000E+00  0.0000E+00  0.0000E+00  0.0000E+00
    -18.438  0.0000E+00  0.0000E+00  0.0000E+00  0.0000E+00  0.0000E+00  0.0000E+00  0.0000E+00  0.0000E+00  0.0000E+00
    -18.341  0.0000E+00  0.0000E+00  0.0000E+00  0.0000E+00  0.0000E+00  0.0000E+00  0.0000E+00  0.0000E+00  0.0000E+00
    -18.244  0.0000E+00  0.0000E+00  0.0000E+00  0.0000E+00  0.0000E+00  0.0000E+00  0.0000E+00  0.0000E+00  0.0000E+00
    -18.146  0.0000E+00  0.0000E+00  0.0000E+00  0.0000E+00  0.0000E+00  0.0000E+00  0.0000E+00  0.0000E+00  0.0000E+00
    -18.049  0.0000E+00  0.0000E+00  0.0000E+00  0.0000E+00  0.0000E+00  0.0000E+00  0.0000E+00  0.0000E+00  0.0000E+00
    -17.952  0.0000E+00  0.0000E+00  0.0000E+00  0.0000E+00  0.0000E+00  0.0000E+00  0.0000E+00  0.0000E+00  0.0000E+00
    -17.854  0.0000E+00  0.0000E+00  0.0000E+00  0.0000E+00  0.0000E+00  0.0000E+00  0.0000E+00  0.0000E+00  0.0000E+00
    -17.757  0.0000E+00  0.0000E+00  0.0000E+00  0.0000E+00  0.0000E+00  0.0000E+00  0.0000E+00  0.0000E+00  0.0000E+00
    -17.659  0.0000E+00  0.0000E+00  0.0000E+00  0.0000E+00  0.0000E+00  0.0000E+00  0.0000E+00  0.0000E+00  0.0000E+00
    -17.562  0.0000E+00  0.0000E+00  0.0000E+00  0.0000E+00  0.0000E+00  0.0000E+00  0.0000E+00  0.0000E+00  0.0000E+00
    -17.465  0.0000E+00  0.0000E+00  0.0000E+00  0.0000E+00  0.0000E+00  0.0000E+00  0.0000E+00  0.0000E+00  0.0000E+00
    -17.367  0.0000E+00  0.0000E+00  0.0000E+00  0.0000E+00  0.0000E+00  0.0000E+00  0.0000E+00  0.0000E+00  0.0000E+00
    -17.270  0.0000E+00  0.0000E+00  0.0000E+00  0.0000E+00  0.0000E+00  0.0000E+00  0.0000E+00  0.0000E+00  0.0000E+00
    -17.172  0.0000E+00  0.0000E+00  0.0000E+00  0.0000E+00  0.0000E+00  0.0000E+00  0.0000E+00  0.0000E+00  0.0000E+00
    -17.075  0.0000E+00  0.0000E+00  0.0000E+00  0.0000E+00  0.0000E+00  0.0000E+00  0.0000E+00  0.0000E+00  0.0000E+00
    -16.978  0.0000E+00  0.0000E+00  0.0000E+00  0.0000E+00  0.0000E+00  0.0000E+00  0.0000E+00  0.0000E+00  0.0000E+00
    -16.880  0.0000E+00  0.0000E+00  0.0000E+00  0.0000E+00  0.0000E+00  0.0000E+00  0.0000E+00  0.0000E+00  0.0000E+00
    -16.783  0.0000E+00  0.0000E+00  0.0000E+00  0.0000E+00  0.0000E+00  0.0000E+00  0.0000E+00  0.0000E+00  0.0000E+00
    -16.686  0.0000E+00  0.0000E+00  0.0000E+00  0.0000E+00  0.0000E+00  0.0000E+00  0.0000E+00  0.0000E+00  0.0000E+00
    -16.588  0.0000E+00  0.0000E+00  0.0000E+00  0.0000E+00  0.0000E+00  0.0000E+00  0.0000E+00  0.0000E+00  0.0000E+00
    -16.491  0.0000E+00  0.0000E+00  0.0000E+00  0.0000E+00  0.0000E+00  0.0000E+00  0.0000E+00  0.0000E+00  0.0000E+00
    -16.393  0.0000E+00  0.0000E+00  0.0000E+00  0.0000E+00  0.0000E+00  0.0000E+00  0.0000E+00  0.0000E+00  0.0000E+00
    -16.296  0.0000E+00  0.0000E+00  0.0000E+00  0.0000E+00  0.0000E+00  0.0000E+00  0.0000E+00  0.0000E+00  0.0000E+00
    -16.199  0.0000E+00  0.0000E+00  0.0000E+00  0.0000E+00  0.0000E+00  0.0000E+00  0.0000E+00  0.0000E+00  0.0000E+00
    -16.101  0.0000E+00  0.0000E+00  0.0000E+00  0.0000E+00  0.0000E+00  0.0000E+00  0.0000E+00  0.0000E+00  0.0000E+00
    -16.004  0.0000E+00  0.0000E+00  0.0000E+00  0.0000E+00  0.0000E+00  0.0000E+00  0.0000E+00  0.0000E+00  0.0000E+00
    -15.907  0.0000E+00  0.0000E+00  0.0000E+00  0.0000E+00  0.0000E+00  0.0000E+00  0.0000E+00  0.0000E+00  0.0000E+00
    -15.809  0.0000E+00  0.0000E+00  0.0000E+00  0.0000E+00  0.0000E+00  0.0000E+00  0.0000E+00  0.0000E+00  0.0000E+00
    -15.712  0.0000E+00  0.0000E+00  0.0000E+00  0.0000E+00  0.0000E+00  0.0000E+00  0.0000E+00  0.0000E+00  0.0000E+00
    -15.614  0.0000E+00  0.0000E+00  0.0000E+00  0.0000E+00  0.0000E+00  0.0000E+00  0.0000E+00  0.0000E+00  0.0000E+00
    -15.517  0.0000E+00  0.0000E+00  0.0000E+00  0.0000E+00  0.0000E+00  0.0000E+00  0.0000E+00  0.0000E+00  0.0000E+00
    -15.420  0.0000E+00  0.0000E+00  0.0000E+00  0.0000E+00  0.0000E+00  0.0000E+00  0.0000E+00  0.0000E+00  0.0000E+00
    -15.322  0.0000E+00  0.0000E+00  0.0000E+00  0.0000E+00  0.0000E+00  0.0000E+00  0.0000E+00  0.0000E+00  0.0000E+00
    -15.225  0.0000E+00  0.0000E+00  0.0000E+00  0.0000E+00  0.0000E+00  0.0000E+00  0.0000E+00  0.0000E+00  0.0000E+00
    -15.127  0.0000E+00  0.0000E+00  0.0000E+00  0.0000E+00  0.0000E+00  0.0000E+00  0.0000E+00  0.0000E+00  0.0000E+00
    -15.030  0.0000E+00  0.0000E+00  0.0000E+00  0.0000E+00  0.0000E+00  0.0000E+00  0.0000E+00  0.0000E+00  0.0000E+00
    -14.933  0.0000E+00  0.0000E+00  0.0000E+00  0.0000E+00  0.0000E+00  0.0000E+00  0.0000E+00  0.0000E+00  0.0000E+00
    -14.835  0.0000E+00  0.0000E+00  0.0000E+00  0.0000E+00  0.0000E+00  0.0000E+00  0.0000E+00  0.0000E+00  0.0000E+00
    -14.738  0.0000E+00  0.0000E+00  0.0000E+00  0.0000E+00  0.0000E+00  0.0000E+00  0.0000E+00  0.0000E+00  0.0000E+00
    -14.641  0.0000E+00  0.0000E+00  0.0000E+00  0.0000E+00  0.0000E+00  0.0000E+00  0.0000E+00  0.0000E+00  0.0000E+00
    -14.543  0.0000E+00  0.0000E+00  0.0000E+00  0.0000E+00  0.0000E+00  0.0000E+00  0.0000E+00  0.0000E+00  0.0000E+00
    -14.446  0.0000E+00  0.0000E+00  0.0000E+00  0.0000E+00  0.0000E+00  0.0000E+00  0.0000E+00  0.0000E+00  0.0000E+00
    -14.348  0.0000E+00  0.0000E+00  0.0000E+00  0.0000E+00  0.0000E+00  0.0000E+00  0.0000E+00  0.0000E+00  0.0000E+00
    -14.251  0.0000E+00  0.0000E+00  0.0000E+00  0.0000E+00  0.0000E+00  0.0000E+00  0.0000E+00  0.0000E+00  0.0000E+00
    -14.154  0.0000E+00  0.0000E+00  0.0000E+00  0.0000E+00  0.0000E+00  0.0000E+00  0.0000E+00  0.0000E+00  0.0000E+00
    -14.056  0.0000E+00  0.0000E+00  0.0000E+00  0.0000E+00  0.0000E+00  0.0000E+00  0.0000E+00  0.0000E+00  0.0000E+00
    -13.959  0.0000E+00  0.0000E+00  0.0000E+00  0.0000E+00  0.0000E+00  0.0000E+00  0.0000E+00  0.0000E+00  0.0000E+00
    -13.861  0.0000E+00  0.0000E+00  0.0000E+00  0.0000E+00  0.0000E+00  0.0000E+00  0.0000E+00  0.0000E+00  0.0000E+00
    -13.764  0.0000E+00  0.0000E+00  0.0000E+00  0.0000E+00  0.0000E+00  0.0000E+00  0.0000E+00  0.0000E+00  0.0000E+00
    -13.667  0.0000E+00  0.0000E+00  0.0000E+00  0.0000E+00  0.0000E+00  0.0000E+00  0.0000E+00  0.0000E+00  0.0000E+00
    -13.569  0.0000E+00  0.0000E+00  0.0000E+00  0.0000E+00  0.0000E+00  0.0000E+00  0.0000E+00  0.0000E+00  0.0000E+00
    -13.472  0.0000E+00  0.0000E+00  0.0000E+00  0.0000E+00  0.0000E+00  0.0000E+00  0.0000E+00  0.0000E+00  0.0000E+00
    -13.375  0.1754E-39  0.1468E-44  0.1052E-39  0.3710E-14  0.0000E+00  0.0000E+00  0.0000E+00  0.0000E+00  0.0000E+00
    -13.277  0.2585E-31  0.2163E-36  0.1550E-31  0.5467E-06  0.0000E+00  0.0000E+00  0.0000E+00  0.0000E+00  0.0000E+00
    -13.180  0.2635E-26  0.2204E-31  0.1580E-26  0.5572E-01  0.0000E+00  0.0000E+00  0.0000E+00  0.0000E+00  0.0000E+00
    -13.082  0.2981E-24  0.2494E-29  0.1788E-24  0.6304E+01  0.0000E+00  0.0000E+00  0.0000E+00  0.0000E+00  0.0000E+00
    -12.985  0.2251E-24  0.1884E-29  0.1350E-24  0.4762E+01  0.0000E+00  0.0000E+00  0.0000E+00  0.0000E+00  0.0000E+00
    -12.888  0.8840E-27  0.7395E-32  0.5302E-27  0.1870E-01  0.0000E+00  0.0000E+00  0.0000E+00  0.0000E+00  0.0000E+00
    -12.790  0.3396E-32  0.2841E-37  0.2037E-32  0.7183E-07  0.0000E+00  0.0000E+00  0.0000E+00  0.0000E+00  0.0000E+00
    -12.693  0.0000E+00  0.0000E+00  0.0000E+00  0.0000E+00  0.0000E+00  0.0000E+00  0.0000E+00  0.0000E+00  0.0000E+00
    -12.596  0.0000E+00  0.0000E+00  0.0000E+00  0.0000E+00  0.0000E+00  0.0000E+00  0.0000E+00  0.0000E+00  0.0000E+00
    -12.498  0.0000E+00  0.0000E+00  0.0000E+00  0.0000E+00  0.0000E+00  0.0000E+00  0.0000E+00  0.0000E+00  0.0000E+00
    -12.401  0.0000E+00  0.0000E+00  0.0000E+00  0.0000E+00  0.0000E+00  0.0000E+00  0.0000E+00  0.0000E+00  0.0000E+00
    -12.303  0.0000E+00  0.0000E+00  0.0000E+00  0.0000E+00  0.0000E+00  0.0000E+00  0.0000E+00  0.0000E+00  0.0000E+00
    -12.206  0.0000E+00  0.0000E+00  0.0000E+00  0.0000E+00  0.0000E+00  0.0000E+00  0.0000E+00  0.0000E+00  0.0000E+00
    -12.109  0.0000E+00  0.0000E+00  0.0000E+00  0.0000E+00  0.0000E+00  0.0000E+00  0.0000E+00  0.0000E+00  0.0000E+00
    -12.011  0.0000E+00  0.0000E+00  0.0000E+00  0.0000E+00  0.0000E+00  0.0000E+00  0.0000E+00  0.0000E+00  0.0000E+00
    -11.914  0.0000E+00  0.0000E+00  0.0000E+00  0.0000E+00  0.0000E+00  0.0000E+00  0.0000E+00  0.0000E+00  0.0000E+00
    -11.816  0.0000E+00  0.0000E+00  0.0000E+00  0.0000E+00  0.0000E+00  0.0000E+00  0.0000E+00  0.0000E+00  0.0000E+00
    -11.719  0.0000E+00  0.0000E+00  0.0000E+00  0.0000E+00  0.0000E+00  0.0000E+00  0.0000E+00  0.0000E+00  0.0000E+00
    -11.622  0.0000E+00  0.0000E+00  0.0000E+00  0.0000E+00  0.0000E+00  0.0000E+00  0.0000E+00  0.0000E+00  0.0000E+00
    -11.524  0.0000E+00  0.0000E+00  0.0000E+00  0.0000E+00  0.0000E+00  0.0000E+00  0.0000E+00  0.0000E+00  0.0000E+00
    -11.427  0.0000E+00  0.0000E+00  0.0000E+00  0.0000E+00  0.0000E+00  0.0000E+00  0.0000E+00  0.0000E+00  0.0000E+00