       N       E                     dE             d eps       ncg     rms          rms(c)
DAV:   1     0.601683179623E+02    0.60168E+02   -0.14562E+03    96   0.978E+01
DAV:   2    -0.124911197082E+02   -0.72659E+02   -0.72659E+02   128   0.300E+01
DAV:   3    -0.163178883674E+02   -0.38268E+01   -0.38268E+01    64   0.102E+01
DAV:   4    -0.163426715313E+02   -0.24783E-01   -0.24783E-01    64   0.103E+00
DAV:   5    -0.163429375385E+02   -0.26601E-03   -0.26601E-03   128   0.890E-02    0.813E+00
DAV:   6    -0.143819610460E+02    0.19610E+01   -0.98692E+00    64   0.566E+00    0.326E+00
DAV:   7    -0.142771292974E+02    0.10483E+00   -0.89098E-02    96   0.655E-01    0.206E+00
DAV:   8    -0.141877076644E+02    0.89422E-01   -0.72544E-02    96   0.654E-01    0.191E-01
DAV:   9    -0.141891920446E+02   -0.14844E-02   -0.16735E-03    64   0.632E-02    0.143E-01
DAV:  10    -0.141941360980E+02   -0.49441E-02   -0.47034E-03    64   0.134E-01    0.573E-02
DAV:  11    -0.142010606119E+02   -0.69245E-02   -0.36549E-03    64   0.854E-02    0.767E-02
DAV:  12    -0.142031836848E+02   -0.21231E-02   -0.13195E-03    64   0.614E-02    0.174E-02
DAV:  13    -0.142056789956E+02   -0.24953E-02   -0.33075E-04    64   0.272E-02    0.135E-02
DAV:  14    -0.142061821670E+02   -0.50317E-03   -0.42187E-05    96   0.108E-02    0.630E-03
DAV:  15    -0.142068734150E+02   -0.69125E-03   -0.66904E-05    96   0.986E-03    0.254E-03
DAV:  16    -0.142070272246E+02   -0.15381E-03   -0.32088E-06    96   0.254E-03    0.175E-03
DAV:  17    -0.142071188894E+02   -0.91665E-04   -0.24766E-06    96   0.187E-03    0.925E-04
DAV:  18    -0.142071667689E+02   -0.47879E-04   -0.90677E-07    64   0.132E-03    0.708E-04
DAV:  19    -0.142071774075E+02   -0.10639E-04   -0.12702E-07    96   0.505E-04    0.279E-04
DAV:  20    -0.142071819668E+02   -0.45593E-05   -0.65649E-08    64   0.292E-04    0.151E-04
DAV:  21    -0.142071848093E+02   -0.28425E-05   -0.59043E-08    64   0.232E-04    0.109E-04
DAV:  22    -0.142071855517E+02   -0.74248E-06   -0.33165E-08    64   0.976E-05
   1 F= -.14216969E+02 E0= -.14216969E+02  d E =-.142170E+02
       N       E                     dE             d eps       ncg     rms          rms(c)
DAV:   1    -0.141417774993E+02    0.65407E-01   -0.12367E+01    64   0.903E+00    0.142E+00
DAV:   2    -0.141227628228E+02    0.19015E-01   -0.39917E-01    64   0.133E+00    0.472E-01
DAV:   3    -0.141201880027E+02    0.25748E-02   -0.66063E-03    96   0.203E-01    0.269E-01
DAV:   4    -0.141197579724E+02    0.43003E-03   -0.51926E-03    96   0.187E-01    0.513E-02
DAV:   5    -0.141197988258E+02   -0.40853E-04   -0.76564E-04    64   0.619E-02    0.232E-02
DAV:   6    -0.141198366735E+02   -0.37848E-04   -0.39616E-05    96   0.138E-02    0.153E-02
DAV:   7    -0.141198733719E+02   -0.36698E-04   -0.34781E-05    96   0.101E-02    0.422E-03
DAV:   8    -0.141199023882E+02   -0.29016E-04   -0.31093E-06    96   0.273E-03    0.147E-03
DAV:   9    -0.141199474774E+02   -0.45089E-04   -0.60518E-06    96   0.275E-03    0.169E-03
DAV:  10    -0.141199728182E+02   -0.25341E-04   -0.22562E-06    64   0.171E-03    0.700E-04
DAV:  11    -0.141199823720E+02   -0.95538E-05   -0.40514E-07    96   0.781E-04    0.457E-04
DAV:  12    -0.141199895537E+02   -0.71818E-05   -0.24327E-07    96   0.516E-04    0.248E-04
DAV:  13    -0.141199921507E+02   -0.25970E-05   -0.66434E-08    96   0.225E-04    0.132E-04
DAV:  14    -0.141199936680E+02   -0.15172E-05   -0.45044E-08    96   0.199E-04    0.138E-04
DAV:  15    -0.141199944614E+02   -0.79341E-06   -0.33240E-08    96   0.131E-04
   2 F= -.14129788E+02 E0= -.14129788E+02  d E =0.871816E-01
       N       E                     dE             d eps       ncg     rms          rms(c)
DAV:   1    -0.142285761275E+02   -0.10858E+00   -0.71452E+00    64   0.686E+00    0.970E-01
DAV:   2    -0.142194781368E+02    0.90980E-02   -0.16594E-01    96   0.906E-01    0.351E-01
DAV:   3    -0.142179297436E+02    0.15484E-02   -0.33219E-03    64   0.142E-01    0.171E-01
DAV:   4    -0.142178057052E+02    0.12404E-03   -0.14274E-03    96   0.979E-02    0.310E-02
DAV:   5    -0.142178645812E+02   -0.58876E-04   -0.12697E-04    64   0.263E-02    0.133E-02
DAV:   6    -0.142178980505E+02   -0.33469E-04   -0.12545E-05    96   0.854E-03    0.558E-03
DAV:   7    -0.142179251852E+02   -0.27135E-04   -0.75809E-06    64   0.513E-03    0.254E-03
DAV:   8    -0.142179588471E+02   -0.33662E-04   -0.25467E-06    96   0.228E-03    0.995E-04
DAV:   9    -0.142179884813E+02   -0.29634E-04   -0.20377E-06    64   0.153E-03    0.117E-03
DAV:  10    -0.142180133946E+02   -0.24913E-04   -0.19313E-06   128   0.162E-03    0.361E-04
DAV:  11    -0.142180203801E+02   -0.69856E-05   -0.23061E-07    64   0.529E-04    0.317E-04
DAV:  12    -0.142180260022E+02   -0.56221E-05   -0.23401E-07    96   0.474E-04    0.116E-04
DAV:  13    -0.142180274674E+02   -0.14652E-05   -0.49471E-08    96   0.140E-04    0.387E-05
DAV:  14    -0.142180282374E+02   -0.76999E-06   -0.41194E-08    96   0.102E-04
   3 F= -.14227813E+02 E0= -.14227813E+02  d E =-.108433E-01
       N       E                     dE             d eps       ncg     rms          rms(c)
DAV:   1    -0.142180290054E+02   -0.15380E-05   -0.16019E-05    96   0.103E-02    0.165E-03
DAV:   2    -0.142180289729E+02    0.32471E-07   -0.54138E-07    64   0.148E-03
   4 F= -.14227813E+02 E0= -.14227813E+02  d E =-.108440E-01
       N       E                     dE             d eps       ncg     rms          rms(c)
DAV:   1    -0.142187639913E+02   -0.73499E-03   -0.55487E-02    64   0.644E-01    0.512E-02
DAV:   2    -0.142187737871E+02   -0.97958E-05   -0.43934E-04    96   0.546E-02    0.273E-02
DAV:   3    -0.142187751654E+02   -0.13783E-05   -0.12500E-05    96   0.659E-03    0.134E-02
DAV:   4    -0.142187779033E+02   -0.27379E-05   -0.39274E-06    64   0.482E-03    0.206E-03
DAV:   5    -0.142187798574E+02   -0.19541E-05   -0.44204E-07   128   0.126E-03    0.119E-03
DAV:   6    -0.142187849853E+02   -0.51279E-05   -0.42940E-07    96   0.935E-04    0.508E-04
DAV:   7    -0.142187882286E+02   -0.32433E-05   -0.16722E-07    64   0.511E-04    0.339E-04
DAV:   8    -0.142187938001E+02   -0.55715E-05   -0.40317E-07    64   0.698E-04    0.144E-04
DAV:   9    -0.142187962872E+02   -0.24871E-05   -0.99427E-08    96   0.291E-04    0.101E-04
DAV:  10    -0.142187979489E+02   -0.16617E-05   -0.92655E-08    64   0.252E-04    0.552E-05
DAV:  11    -0.142187987986E+02   -0.84974E-06   -0.48224E-08    96   0.144E-04
   5 F= -.14228582E+02 E0= -.14228582E+02  d E =-.769028E-03
       N       E                     dE             d eps       ncg     rms          rms(c)
DAV:   1    -0.142189086407E+02   -0.11069E-03   -0.19128E-02    64   0.378E-01    0.301E-02
DAV:   2    -0.142189106575E+02   -0.20168E-05   -0.15857E-04    64   0.332E-02    0.158E-02
DAV:   3    -0.142189122750E+02   -0.16175E-05   -0.28222E-06    64   0.404E-03    0.755E-03
DAV:   4    -0.142189133392E+02   -0.10641E-05   -0.14435E-06    64   0.275E-03    0.115E-03
DAV:   5    -0.142189141832E+02   -0.84410E-06   -0.27418E-07    64   0.949E-04
   6 F= -.14228697E+02 E0= -.14228697E+02  d E =-.883936E-03
