 vasp.6.3.2 27Jun22 (build Jun 14 2024 17:29:11) complex                         
 executed on             LinuxGNU date 2026.01.24  20:02:42
 running on   32 total cores
 distrk:  each k-point on   32 cores,    1 groups
 distr:  one band on NCORE=   1 cores,   32 groups


--------------------------------------------------------------------------------------------------------


 INCAR:
   SYSTEM = H2O gas phase
   ENCUT = 520
   EDIFF = 1E-6
   PREC = Accurate
   LREAL = .FALSE.
   IBRION = 2
   NSW = 100
   ISIF = 2
   EDIFFG = -0.02
   GGA = PE
   IVDW = 12
   ISMEAR = 0
   SIGMA = 0.05
   LORBIT = 11
   LWAVE = .FALSE.
   LCHARG = .FALSE.

 POTCAR:    PAW_PBE O 08Apr2002                   
 POTCAR:    PAW_PBE H 15Jun2001                   
 -----------------------------------------------------------------------------
|                                                                             |
|           W    W    AA    RRRRR   N    N  II  N    N   GGGG   !!!           |
|           W    W   A  A   R    R  NN   N  II  NN   N  G    G  !!!           |
|           W    W  A    A  R    R  N N  N  II  N N  N  G       !!!           |
|           W WW W  AAAAAA  RRRRR   N  N N  II  N  N N  G  GGG   !            |
|           WW  WW  A    A  R   R   N   NN  II  N   NN  G    G                |
|           W    W  A    A  R    R  N    N  II  N    N   GGGG   !!!           |
|                                                                             |
|     For optimal performance we recommend to set                             |
|       NCORE = 2 up to number-of-cores-per-socket                            |
|     NCORE specifies how many cores store one orbital (NPAR=cpu/NCORE).      |
|     This setting can greatly improve the performance of VASP for DFT.       |
|     The default, NCORE=1 might be grossly inefficient on modern             |
|     multi-core architectures or massively parallel machines. Do your        |
|     own testing! More info at https://www.vasp.at/wiki/index.php/NCORE      |
|     Unfortunately you need to use the default for GW and RPA                |
|     calculations (for HF NCORE is supported but not extensively tested      |
|     yet).                                                                   |
|                                                                             |
 -----------------------------------------------------------------------------

 POTCAR:    PAW_PBE O 08Apr2002                   
   SHA256 =  818f92134a0a090dccd8ba1447fa70422a3b330e708bb4f08108d8ae51209ddf O/POTCAR              
   COPYR  = (c) Copyright 08Apr2002 Georg Kresse                                                    
   COPYR  = This file is part of the software VASP. Any use, copying, and all other rights are regul
   COPYR  = If you do not have a valid VASP license, you may not use, copy or distribute this file. 
   VRHFIN =O: s2p4                                                                                  
   LEXCH  = PE                                                                                      
   EATOM  =   432.3788 eV,   31.7789 Ry                                                             
                                                                                                    
   TITEL  = PAW_PBE O 08Apr2002                                                                     
   LULTRA =        F    use ultrasoft PP ?                                                          
   IUNSCR =        1    unscreen: 0-lin 1-nonlin 2-no                                               
   RPACOR =    1.200    partial core radius                                                         
   POMASS =   16.000; ZVAL   =    6.000    mass and valenz                                          
   RCORE  =    1.520    outmost cutoff radius                                                       
   RWIGS  =    1.550; RWIGS  =    0.820    wigner-seitz radius (au A)                               
   ENMAX  =  400.000; ENMIN  =  300.000 eV                                                          
   ICORE  =        2    local potential                                                             
   LCOR   =        T    correct aug charges                                                         
   LPAW   =        T    paw PP                                                                      
   EAUG   =  605.392                                                                                
   DEXC   =    0.000                                                                                
   RMAX   =    1.553    core radius for proj-oper                                                   
   RAUG   =    1.300    factor for augmentation sphere                                              
   RDEP   =    1.550    radius for radial grids                                                     
   RDEPT  =    1.329    core radius for aug-charge                                                  
                                                                                                    
   Atomic configuration                                                                             
    4 entries                                                                                       
     n  l   j            E        occ.                                                              
     1  0  0.50      -514.6923   2.0000                                                             
     2  0  0.50       -23.9615   2.0000                                                             
     2  1  0.50        -9.0305   4.0000                                                             
     3  2  1.50        -9.5241   0.0000                                                             
   Description                                                                                      
     l       E           TYP  RCUT    TYP  RCUT                                                     
     0    -23.9615318     23  1.200                                                                 
     0     -9.5240782     23  1.200                                                                 
     1     -9.0304911     23  1.520                                                                 
     1      8.1634956     23  1.520                                                                 
     2     -9.5240782      7  1.500                                                                 
  local pseudopotential read in
  partial core-charges read in
  partial kinetic energy density read in
  kinetic energy density of atom read in
  atomic valenz-charges read in
  non local Contribution for L=           0  read in
    real space projection operators read in
  non local Contribution for L=           0  read in
    real space projection operators read in
  non local Contribution for L=           1  read in
    real space projection operators read in
  non local Contribution for L=           1  read in
    real space projection operators read in
    PAW grid and wavefunctions read in

   number of l-projection  operators is LMAX  =           4
   number of lm-projection operators is LMMAX =           8

 POTCAR:    PAW_PBE H 15Jun2001                   
   SHA256 =  030f79b5d3ab3cf0e668861823c8fb652ff669f3e15e46930bd03bfd63a607b6 H/POTCAR              
   COPYR  = (c) Copyright 15Jun2001 Georg Kresse                                                    
   COPYR  = This file is part of the software VASP. Any use, copying, and all other rights are regul
   COPYR  = If you do not have a valid VASP license, you may not use, copy or distribute this file. 
   VRHFIN =H: ultrasoft test                                                                        
   LEXCH  = PE                                                                                      
   EATOM  =    12.4884 eV,    0.9179 Ry                                                             
                                                                                                    
   TITEL  = PAW_PBE H 15Jun2001                                                                     
   LULTRA =        F    use ultrasoft PP ?                                                          
   IUNSCR =        0    unscreen: 0-lin 1-nonlin 2-no                                               
   RPACOR =    0.000    partial core radius                                                         
   POMASS =    1.000; ZVAL   =    1.000    mass and valenz                                          
   RCORE  =    1.100    outmost cutoff radius                                                       
   RWIGS  =    0.700; RWIGS  =    0.370    wigner-seitz radius (au A)                               
   ENMAX  =  250.000; ENMIN  =  200.000 eV                                                          
   RCLOC  =    0.701    cutoff for local pot                                                        
   LCOR   =        T    correct aug charges                                                         
   LPAW   =        T    paw PP                                                                      
   EAUG   =  400.000                                                                                
   RMAX   =    1.123    core radius for proj-oper                                                   
   RAUG   =    1.200    factor for augmentation sphere                                              
   RDEP   =    1.112    radius for radial grids                                                     
   RDEPT  =    0.926    core radius for aug-charge                                                  
                                                                                                    
   Atomic configuration                                                                             
    2 entries                                                                                       
     n  l   j            E        occ.                                                              
     1  0  0.50        -6.4927   1.0000                                                             
     2  1  0.50        -3.4015   0.0000                                                             
   Description                                                                                      
     l       E           TYP  RCUT    TYP  RCUT                                                     
     0     -6.4927494     23  1.100                                                                 
     0      6.8029130     23  1.100                                                                 
     1     -4.0817478     23  1.100                                                                 
  local pseudopotential read in
  atomic valenz-charges read in
  non local Contribution for L=           0  read in
    real space projection operators read in
  non local Contribution for L=           0  read in
    real space projection operators read in
  non local Contribution for L=           1  read in
    real space projection operators read in
    PAW grid and wavefunctions read in

   number of l-projection  operators is LMAX  =           3
   number of lm-projection operators is LMMAX =           5

  PAW_PBE O 08Apr2002                   :
 energy of atom  1       EATOM= -432.3788
 kinetic energy error for atom=    0.0208 (will be added to EATOM!!)
  PAW_PBE H 15Jun2001                   :
 energy of atom  2       EATOM=  -12.4884
 kinetic energy error for atom=    0.0014 (will be added to EATOM!!)


 POSCAR: H2O molecule in gas phase
  positions in cartesian coordinates
  No initial velocities read in
 exchange correlation table for  LEXCH =        8
   RHO(1)=    0.500       N(1)  =     2000
   RHO(2)=  100.500       N(2)  =     4000



--------------------------------------------------------------------------------------------------------


 ion  position               nearest neighbor table
   1  0.500  0.500  0.500-   2 0.96   3 0.96
   2  0.538  0.500  0.529-   1 0.96
   3  0.462  0.500  0.529-   1 0.96

  LATTYP: Found a simple cubic cell.
 ALAT       =    20.0000000000
  
  Lattice vectors:
  
 A1 = (  20.0000000000,   0.0000000000,   0.0000000000)
 A2 = (   0.0000000000,  20.0000000000,   0.0000000000)
 A3 = (   0.0000000000,   0.0000000000,  20.0000000000)


Analysis of symmetry for initial positions (statically):
=====================================================================
 Subroutine PRICEL returns:
 Original cell was already a primitive cell.
 

 Routine SETGRP: Setting up the symmetry group for a 
 simple cubic supercell.


 Subroutine GETGRP returns: Found  4 space group operations
 (whereof  4 operations were pure point group operations)
 out of a pool of 48 trial point group operations.


The static configuration has the point symmetry C_2v.


Analysis of symmetry for dynamics (positions and initial velocities):
=====================================================================
 Subroutine PRICEL returns:
 Original cell was already a primitive cell.
 

 Routine SETGRP: Setting up the symmetry group for a 
 simple cubic supercell.


 Subroutine GETGRP returns: Found  4 space group operations
 (whereof  4 operations were pure point group operations)
 out of a pool of 48 trial point group operations.


The dynamic configuration has the point symmetry C_2v.


 Subroutine INISYM returns: Found  4 space group operations
 (whereof  4 operations are pure point group operations),
 and found     1 'primitive' translations


----------------------------------------------------------------------------------------

                                     Primitive cell                                     

  volume of cell :    8000.0000

  direct lattice vectors                    reciprocal lattice vectors
    20.000000000  0.000000000  0.000000000     0.050000000  0.000000000  0.000000000
     0.000000000 20.000000000  0.000000000     0.000000000  0.050000000  0.000000000
     0.000000000  0.000000000 20.000000000     0.000000000  0.000000000  0.050000000

  length of vectors
    20.000000000 20.000000000 20.000000000     0.050000000  0.050000000  0.050000000

  position of ions in fractional coordinates (direct lattice)
     0.500000000  0.500000000  0.500000000
     0.537735000  0.500000000  0.529435000
     0.462265000  0.500000000  0.529435000

  ion indices of the primitive-cell ions
   primitive index   ion index
                 1           1
                 2           2
                 3           3

----------------------------------------------------------------------------------------



 KPOINTS: Gamma point only (isolated molecule)    

Automatic generation of k-mesh.
 Grid dimensions read from file:
 generate k-points for:    1    1    1

 Generating k-lattice:

  Cartesian coordinates                     Fractional coordinates (reciprocal lattice)
     0.050000000  0.000000000  0.000000000     1.000000000  0.000000000  0.000000000
     0.000000000  0.050000000  0.000000000     0.000000000  1.000000000  0.000000000
     0.000000000  0.000000000  0.050000000     0.000000000  0.000000000  1.000000000

  Length of vectors
     0.050000000  0.050000000  0.050000000

  Shift w.r.t. Gamma in fractional coordinates (k-lattice)
     0.000000000  0.000000000  0.000000000

 
 Subroutine IBZKPT returns following result:
 ===========================================
 
 Found      1 irreducible k-points:
 
 Following reciprocal coordinates:
            Coordinates               Weight
  0.000000  0.000000  0.000000      1.000000
 
 Following cartesian coordinates:
            Coordinates               Weight
  0.000000  0.000000  0.000000      1.000000
 


--------------------------------------------------------------------------------------------------------




 Dimension of arrays:
   k-points           NKPTS =      1   k-points in BZ     NKDIM =      1   number of bands    NBANDS=     32
   number of dos      NEDOS =    301   number of ions     NIONS =      3
   non local maximal  LDIM  =      4   non local SUM 2l+1 LMDIM =      8
   total plane-waves  NPLWV = ******
   max r-space proj   IRMAX =      1   max aug-charges    IRDMAX=   5672
   dimension x,y,z NGX =   150 NGY =  150 NGZ =  150
   dimension x,y,z NGXF=   300 NGYF=  300 NGZF=  300
   support grid    NGXF=   300 NGYF=  300 NGZF=  300
   ions per type =               1   2
   NGX,Y,Z   is equivalent  to a cutoff of  12.47, 12.47, 12.47 a.u.
   NGXF,Y,Z  is equivalent  to a cutoff of  24.94, 24.94, 24.94 a.u.

 SYSTEM =  H2O gas phase                           
 POSCAR =  H2O molecule in gas phase               

 Startparameter for this run:
   NWRITE =      2    write-flag & timer
   PREC   = accura    normal or accurate (medium, high low for compatibility)
   ISTART =      0    job   : 0-new  1-cont  2-samecut
   ICHARG =      2    charge: 1-file 2-atom 10-const
   ISPIN  =      1    spin polarized calculation?
   LNONCOLLINEAR =      F non collinear calculations
   LSORBIT =      F    spin-orbit coupling
   INIWAV =      1    electr: 0-lowe 1-rand  2-diag
   LASPH  =      F    aspherical Exc in radial PAW
 Electronic Relaxation 1
   ENCUT  =  520.0 eV  38.22 Ry    6.18 a.u.  37.19 37.19 37.19*2*pi/ulx,y,z
   ENINI  =  520.0     initial cutoff
   ENAUG  =  605.4 eV  augmentation charge cutoff
   NELM   =     60;   NELMIN=  2; NELMDL= -5     # of ELM steps 
   EDIFF  = 0.1E-05   stopping-criterion for ELM
   LREAL  =      F    real-space projection
   NLSPLINE    = F    spline interpolate recip. space projectors
   LCOMPAT=      F    compatible to vasp.4.4
   GGA_COMPAT  = T    GGA compatible to vasp.4.4-vasp.4.6
   LMAXPAW     = -100 max onsite density
   LMAXMIX     =    2 max onsite mixed and CHGCAR
   VOSKOWN=      0    Vosko Wilk Nusair interpolation
   ROPT   =    0.00000   0.00000
 Ionic relaxation
   EDIFFG = -.2E-01   stopping-criterion for IOM
   NSW    =    100    number of steps for IOM
   NBLOCK =      1;   KBLOCK =    100    inner block; outer block 
   IBRION =      2    ionic relax: 0-MD 1-quasi-New 2-CG
   NFREE  =      1    steps in history (QN), initial steepest desc. (CG)
   ISIF   =      2    stress and relaxation
   IWAVPR =     11    prediction:  0-non 1-charg 2-wave 3-comb
   ISYM   =      2    0-nonsym 1-usesym 2-fastsym
   LCORR  =      T    Harris-Foulkes like correction to forces

   POTIM  = 0.5000    time-step for ionic-motion
   TEIN   =    0.0    initial temperature
   TEBEG  =    0.0;   TEEND  =   0.0 temperature during run
   SMASS  =  -3.00    Nose mass-parameter (am)
   estimated Nose-frequenzy (Omega)   =  0.10E-29 period in steps = 0.13E+47 mass=  -0.914E-26a.u.
   SCALEE = 1.0000    scale energy and forces
   NPACO  =    256;   APACO  = 10.0  distance and # of slots for P.C.
   PSTRESS=    0.0 pullay stress

  Mass of Ions in am
   POMASS =  16.00  1.00
  Ionic Valenz
   ZVAL   =   6.00  1.00
  Atomic Wigner-Seitz radii
   RWIGS  =  -1.00 -1.00
  virtual crystal weights 
   VCA    =   1.00  1.00
   NELECT =       8.0000    total number of electrons
   NUPDOWN=      -1.0000    fix difference up-down

 DOS related values:
   EMIN   =  10.00;   EMAX   =-10.00  energy-range for DOS
   EFERMI =   0.00
   ISMEAR =     0;   SIGMA  =   0.05  broadening in eV -4-tet -1-fermi 0-gaus

 Electronic relaxation 2 (details)
   IALGO  =     38    algorithm
   LDIAG  =      T    sub-space diagonalisation (order eigenvalues)
   LSUBROT=      F    optimize rotation matrix (better conditioning)
   TURBO    =      0    0=normal 1=particle mesh
   IRESTART =      0    0=no restart 2=restart with 2 vectors
   NREBOOT  =      0    no. of reboots
   NMIN     =      0    reboot dimension
   EREF     =   0.00    reference energy to select bands
   IMIX   =      4    mixing-type and parameters
     AMIX     =   0.40;   BMIX     =  1.00
     AMIX_MAG =   1.60;   BMIX_MAG =  1.00
     AMIN     =   0.10
     WC   =   100.;   INIMIX=   1;  MIXPRE=   1;  MAXMIX= -45

 Intra band minimization:
   WEIMIN = 0.0010     energy-eigenvalue tresh-hold
   EBREAK =  0.78E-08  absolut break condition
   DEPER  =   0.30     relativ break condition  

   TIME   =   0.40     timestep for ELM

  volume/ion in A,a.u.               =    2666.67     17995.55
  Fermi-wavevector in a.u.,A,eV,Ry     =   0.163710  0.309367  0.364649  0.026801
  Thomas-Fermi vector in A             =   0.862763

 Write flags
   LWAVE        =      F    write WAVECAR
   LDOWNSAMPLE  =      F    k-point downsampling of WAVECAR
   LCHARG       =      F    write CHGCAR
   LVTOT        =      F    write LOCPOT, total local potential
   LVHAR        =      F    write LOCPOT, Hartree potential only
   LELF         =      F    write electronic localiz. function (ELF)
   LORBIT       =     11    0 simple, 1 ext, 2 COOP (PROOUT), +10 PAW based schemes


 Dipole corrections
   LMONO  =      F    monopole corrections only (constant potential shift)
   LDIPOL =      F    correct potential (dipole corrections)
   IDIPOL =      0    1-x, 2-y, 3-z, 4-all directions 
   EPSILON=  1.0000000 bulk dielectric constant

 Exchange correlation treatment:
   GGA     =    PE    GGA type
   LEXCH   =     8    internal setting for exchange type
   LIBXC   =     F    Libxc                    
   VOSKOWN =     0    Vosko Wilk Nusair interpolation
   LHFCALC =     F    Hartree Fock is set to
   LHFONE  =     F    Hartree Fock one center treatment
   AEXX    =    0.0000 exact exchange contribution

 Linear response parameters
   LEPSILON=     F    determine dielectric tensor
   LRPA    =     F    only Hartree local field effects (RPA)
   LNABLA  =     F    use nabla operator in PAW spheres
   LVEL    =     F    velocity operator in full k-point grid
   CSHIFT  =0.1000    complex shift for real part using Kramers Kronig
   OMEGAMAX=  -1.0    maximum frequency
   DEG_THRESHOLD= 0.2000000E-02 threshold for treating states as degnerate
   RTIME   =   -0.100 relaxation time in fs
  (WPLASMAI=    0.000 imaginary part of plasma frequency in eV, 0.658/RTIME)
   DFIELD  = 0.0000000 0.0000000 0.0000000 field for delta impulse in time

  Optional k-point grid parameters
   LKPOINTS_OPT  =     F    use optional k-point grid
   KPOINTS_OPT_MODE=     1    mode for optional k-point grid

 Orbital magnetization related:
   ORBITALMAG=     F  switch on orbital magnetization
   LCHIMAG   =     F  perturbation theory with respect to B field
   DQ        =  0.001000  dq finite difference perturbation B field
   LLRAUG    =     F  two centre corrections for induced B field



--------------------------------------------------------------------------------------------------------


 conjugate gradient relaxation of ions
 charge density and potential will be updated during run
 non-spin polarized calculation
 Variant of blocked Davidson
 Davidson routine will perform the subspace rotation
 perform sub-space diagonalisation
    after iterative eigenvector-optimisation
 modified Broyden-mixing scheme, WC =      100.0
 initial mixing is a Kerker type mixing with AMIX =  0.4000 and BMIX =      1.0000
 Hartree-type preconditioning will be used
 using additional bands           28
 reciprocal scheme for non local part
 use partial core corrections
 calculate Harris-corrections to forces   (improved forces if not selfconsistent)
 use gradient corrections 
 use of overlap-Matrix (Vanderbilt PP)
 Gauss-broadening in eV      SIGMA  =   0.05


--------------------------------------------------------------------------------------------------------


  energy-cutoff  :      520.00
  volume of cell :     8000.00
      direct lattice vectors                 reciprocal lattice vectors
    20.000000000  0.000000000  0.000000000     0.050000000  0.000000000  0.000000000
     0.000000000 20.000000000  0.000000000     0.000000000  0.050000000  0.000000000
     0.000000000  0.000000000 20.000000000     0.000000000  0.000000000  0.050000000

  length of vectors
    20.000000000 20.000000000 20.000000000     0.050000000  0.050000000  0.050000000



 k-points in units of 2pi/SCALE and weight: Gamma point only (isolated molecule)    
   0.00000000  0.00000000  0.00000000       1.000

 k-points in reciprocal lattice and weights: Gamma point only (isolated molecule)    
   0.00000000  0.00000000  0.00000000       1.000

 position of ions in fractional coordinates (direct lattice) 
   0.50000000  0.50000000  0.50000000
   0.53773500  0.50000000  0.52943500
   0.46226500  0.50000000  0.52943500

 position of ions in cartesian coordinates  (Angst):
  10.00000000 10.00000000 10.00000000
  10.75470000 10.00000000 10.58870000
   9.24530000 10.00000000 10.58870000



--------------------------------------------------------------------------------------------------------


 k-point   1 :   0.0000 0.0000 0.0000  plane waves:  215503

 maximum and minimum number of plane-waves per node :    215503   215503

 maximum number of plane-waves:    215503
 maximum index in each direction: 
   IXMAX=   37   IYMAX=   37   IZMAX=   37
   IXMIN=  -37   IYMIN=  -37   IZMIN=  -37


 serial   3D FFT for wavefunctions
 parallel 3D FFT for charge:
    minimum data exchange during FFTs selected (reduces bandwidth)


 total amount of memory used by VASP MPI-rank0   300945. kBytes
=======================================================================

   base      :      30000. kBytes
   nonl-proj :      37931. kBytes
   fftplans  :      43557. kBytes
   grid      :     186000. kBytes
   one-center:          9. kBytes
   wavefun   :       3448. kBytes

     INWAV:  cpu time      0.0000: real time      0.0002
 Broyden mixing: mesh for mixing (old mesh)
   NGX = 75   NGY = 75   NGZ = 75
  (NGX  =300   NGY  =300   NGZ  =300)
  gives a total of 421875 points

 initial charge density was supplied:
 charge density of overlapping atoms calculated
 number of electron       8.0000000 magnetization 
 keeping initial charge density in first step


--------------------------------------------------------------------------------------------------------


 Maximum index for augmentation-charges          185 (set IRDMAX)


--------------------------------------------------------------------------------------------------------


 First call to EWALD:  gamma=   0.089
 Maximum number of real-space cells 3x 3x 3
 Maximum number of reciprocal cells 3x 3x 3

    FEWALD:  cpu time      0.0029: real time      0.0029


--------------------------------------- Iteration      1(   1)  ---------------------------------------


    POTLOK:  cpu time      0.7884: real time      0.7901
    SETDIJ:  cpu time      0.0212: real time      0.0214
     EDDAV:  cpu time      1.1026: real time      1.1262
       DOS:  cpu time      0.0037: real time      0.0038
    --------------------------------------------
      LOOP:  cpu time      1.9159: real time      1.9414

 eigenvalue-minimisations  :    96
 total energy-change (2. order) : 0.6016832E+02  (-0.1456231E+03)
 number of electron       8.0000000 magnetization 
 augmentation part        8.0000000 magnetization 

 Free energy of the ion-electron system (eV)
  ---------------------------------------------------
  alpha Z        PSCENC =         0.02803141
  Ewald energy   TEWEN  =       124.75272355
  -Hartree energ DENC   =      -482.10381993
  -exchange      EXHF   =         0.00000000
  -V(xc)+E(xc)   XCENC  =        32.24093136
  PAW double counting   =       350.81753176     -352.63395800
  entropy T*S    EENTRO =        -0.00000000
  eigenvalues    EBANDS =       -70.26505047
  atomic energy  EATOM  =       457.33192828
  Solvation  Ediel_sol  =         0.00000000
  ---------------------------------------------------
  free energy    TOTEN  =        60.16831796 eV

  energy without entropy =       60.16831796  energy(sigma->0) =       60.16831796


--------------------------------------------------------------------------------------------------------




--------------------------------------- Iteration      1(   2)  ---------------------------------------


     EDDAV:  cpu time      1.3828: real time      1.4160
       DOS:  cpu time      0.0022: real time      0.0023
    --------------------------------------------
      LOOP:  cpu time      1.3850: real time      1.4183

 eigenvalue-minimisations  :   128
 total energy-change (2. order) :-0.7265944E+02  (-0.7265944E+02)
 number of electron       8.0000000 magnetization 
 augmentation part        8.0000000 magnetization 

 Free energy of the ion-electron system (eV)
  ---------------------------------------------------
  alpha Z        PSCENC =         0.02803141
  Ewald energy   TEWEN  =       124.75272355
  -Hartree energ DENC   =      -482.10381993
  -exchange      EXHF   =         0.00000000
  -V(xc)+E(xc)   XCENC  =        32.24093136
  PAW double counting   =       350.81753176     -352.63395800
  entropy T*S    EENTRO =        -0.00000000
  eigenvalues    EBANDS =      -142.92448814
  atomic energy  EATOM  =       457.33192828
  Solvation  Ediel_sol  =         0.00000000
  ---------------------------------------------------
  free energy    TOTEN  =       -12.49111971 eV

  energy without entropy =      -12.49111971  energy(sigma->0) =      -12.49111971


--------------------------------------------------------------------------------------------------------




--------------------------------------- Iteration      1(   3)  ---------------------------------------


     EDDAV:  cpu time      0.8318: real time      0.8388
       DOS:  cpu time      0.0011: real time      0.0012
    --------------------------------------------
      LOOP:  cpu time      0.8329: real time      0.8400

 eigenvalue-minimisations  :    64
 total energy-change (2. order) :-0.3826769E+01  (-0.3826769E+01)
 number of electron       8.0000000 magnetization 
 augmentation part        8.0000000 magnetization 

 Free energy of the ion-electron system (eV)
  ---------------------------------------------------
  alpha Z        PSCENC =         0.02803141
  Ewald energy   TEWEN  =       124.75272355
  -Hartree energ DENC   =      -482.10381993
  -exchange      EXHF   =         0.00000000
  -V(xc)+E(xc)   XCENC  =        32.24093136
  PAW double counting   =       350.81753176     -352.63395800
  entropy T*S    EENTRO =        -0.00000000
  eigenvalues    EBANDS =      -146.75125680
  atomic energy  EATOM  =       457.33192828
  Solvation  Ediel_sol  =         0.00000000
  ---------------------------------------------------
  free energy    TOTEN  =       -16.31788837 eV

  energy without entropy =      -16.31788837  energy(sigma->0) =      -16.31788837


--------------------------------------------------------------------------------------------------------




--------------------------------------- Iteration      1(   4)  ---------------------------------------


     EDDAV:  cpu time      0.9565: real time      1.0399
       DOS:  cpu time      0.0007: real time      0.0008
    --------------------------------------------
      LOOP:  cpu time      0.9572: real time      1.0408

 eigenvalue-minimisations  :    64
 total energy-change (2. order) :-0.2478316E-01  (-0.2478316E-01)
 number of electron       8.0000000 magnetization 
 augmentation part        8.0000000 magnetization 

 Free energy of the ion-electron system (eV)
  ---------------------------------------------------
  alpha Z        PSCENC =         0.02803141
  Ewald energy   TEWEN  =       124.75272355
  -Hartree energ DENC   =      -482.10381993
  -exchange      EXHF   =         0.00000000
  -V(xc)+E(xc)   XCENC  =        32.24093136
  PAW double counting   =       350.81753176     -352.63395800
  entropy T*S    EENTRO =        -0.00000000
  eigenvalues    EBANDS =      -146.77603996
  atomic energy  EATOM  =       457.33192828
  Solvation  Ediel_sol  =         0.00000000
  ---------------------------------------------------
  free energy    TOTEN  =       -16.34267153 eV

  energy without entropy =      -16.34267153  energy(sigma->0) =      -16.34267153


--------------------------------------------------------------------------------------------------------




--------------------------------------- Iteration      1(   5)  ---------------------------------------


     EDDAV:  cpu time      1.3513: real time      1.3589
       DOS:  cpu time      0.0016: real time      0.0017
    CHARGE:  cpu time      0.4974: real time      0.4981
    MIXING:  cpu time      0.0199: real time      0.0201
    --------------------------------------------
      LOOP:  cpu time      1.8702: real time      1.8788

 eigenvalue-minimisations  :   128
 total energy-change (2. order) :-0.2660073E-03  (-0.2660076E-03)
 number of electron       7.9999991 magnetization 
 augmentation part        0.8459470 magnetization 

 Broyden mixing:
  rms(total) = 0.81297E+00    rms(broyden)= 0.81235E+00
  rms(prec ) = 0.89036E+00
  weight for this iteration     100.00

 Free energy of the ion-electron system (eV)
  ---------------------------------------------------
  alpha Z        PSCENC =         0.02803141
  Ewald energy   TEWEN  =       124.75272355
  -Hartree energ DENC   =      -482.10381993
  -exchange      EXHF   =         0.00000000
  -V(xc)+E(xc)   XCENC  =        32.24093136
  PAW double counting   =       350.81753176     -352.63395800
  entropy T*S    EENTRO =        -0.00000000
  eigenvalues    EBANDS =      -146.77630597
  atomic energy  EATOM  =       457.33192828
  Solvation  Ediel_sol  =         0.00000000
  ---------------------------------------------------
  free energy    TOTEN  =       -16.34293754 eV

  energy without entropy =      -16.34293754  energy(sigma->0) =      -16.34293754


--------------------------------------------------------------------------------------------------------




--------------------------------------- Iteration      1(   6)  ---------------------------------------


    POTLOK:  cpu time      0.8400: real time      0.8417
    SETDIJ:  cpu time      0.0011: real time      0.0011
     EDDAV:  cpu time      0.7519: real time      0.7524
       DOS:  cpu time      0.0004: real time      0.0006
    CHARGE:  cpu time      0.4779: real time      0.4786
    MIXING:  cpu time      0.0159: real time      0.0159
    --------------------------------------------
      LOOP:  cpu time      2.0872: real time      2.0903

 eigenvalue-minimisations  :    64
 total energy-change (2. order) : 0.1960976E+01  (-0.9869224E+00)
 number of electron       7.9999992 magnetization 
 augmentation part        0.7060197 magnetization 

 Broyden mixing:
  rms(total) = 0.32563E+00    rms(broyden)= 0.32539E+00
  rms(prec ) = 0.34180E+00
  weight for this iteration     100.00

 eigenvalues of (default mixing * dielectric matrix)
  average eigenvalue GAMMA=   0.9235
  0.9235

 Free energy of the ion-electron system (eV)
  ---------------------------------------------------
  alpha Z        PSCENC =         0.02803141
  Ewald energy   TEWEN  =       124.75272355
  -Hartree energ DENC   =      -506.76803663
  -exchange      EXHF   =         0.00000000
  -V(xc)+E(xc)   XCENC  =        33.61739645
  PAW double counting   =       447.43519746     -449.62967784
  entropy T*S    EENTRO =        -0.00000000
  eigenvalues    EBANDS =      -121.14952374
  atomic energy  EATOM  =       457.33192828
  Solvation  Ediel_sol  =         0.00000000
  ---------------------------------------------------
  free energy    TOTEN  =       -14.38196105 eV

  energy without entropy =      -14.38196105  energy(sigma->0) =      -14.38196105


--------------------------------------------------------------------------------------------------------




--------------------------------------- Iteration      1(   7)  ---------------------------------------


    POTLOK:  cpu time      0.7981: real time      0.9137
    SETDIJ:  cpu time      0.0009: real time      0.0009
     EDDAV:  cpu time      2.4833: real time      2.5809
       DOS:  cpu time      0.0002: real time      0.0005
    CHARGE:  cpu time      0.4997: real time      0.5002
    MIXING:  cpu time      0.0168: real time      0.0169
    --------------------------------------------
      LOOP:  cpu time      3.7990: real time      4.0131

 eigenvalue-minimisations  :    96
 total energy-change (2. order) : 0.1048317E+00  (-0.8909773E-02)
 number of electron       7.9999992 magnetization 
 augmentation part        0.7028849 magnetization 

 Broyden mixing:
  rms(total) = 0.20590E+00    rms(broyden)= 0.20589E+00
  rms(prec ) = 0.21755E+00
  weight for this iteration     100.00

 eigenvalues of (default mixing * dielectric matrix)
  average eigenvalue GAMMA=   1.7240
  1.0344  2.4136

 Free energy of the ion-electron system (eV)
  ---------------------------------------------------
  alpha Z        PSCENC =         0.02803141
  Ewald energy   TEWEN  =       124.75272355
  -Hartree energ DENC   =      -510.32404657
  -exchange      EXHF   =         0.00000000
  -V(xc)+E(xc)   XCENC  =        33.80247423
  PAW double counting   =       490.99334581     -493.15538885
  entropy T*S    EENTRO =        -0.00000000
  eigenvalues    EBANDS =      -117.70619716
  atomic energy  EATOM  =       457.33192828
  Solvation  Ediel_sol  =         0.00000000
  ---------------------------------------------------
  free energy    TOTEN  =       -14.27712930 eV

  energy without entropy =      -14.27712930  energy(sigma->0) =      -14.27712930


--------------------------------------------------------------------------------------------------------




--------------------------------------- Iteration      1(   8)  ---------------------------------------


    POTLOK:  cpu time      0.8311: real time      0.8329
    SETDIJ:  cpu time      0.0095: real time      0.0095
     EDDAV:  cpu time      1.1908: real time      1.2659
       DOS:  cpu time      0.0002: real time      0.0005
    CHARGE:  cpu time      0.7794: real time      0.7804
    MIXING:  cpu time      0.0159: real time      0.0159
    --------------------------------------------
      LOOP:  cpu time      2.8268: real time      2.9051

 eigenvalue-minimisations  :    96
 total energy-change (2. order) : 0.8942163E-01  (-0.7254415E-02)
 number of electron       7.9999992 magnetization 
 augmentation part        0.7005245 magnetization 

 Broyden mixing:
  rms(total) = 0.19081E-01    rms(broyden)= 0.19077E-01
  rms(prec ) = 0.28562E-01
  weight for this iteration     100.00

 eigenvalues of (default mixing * dielectric matrix)
  average eigenvalue GAMMA=   1.4612
  2.3860  1.0603  0.9375

 Free energy of the ion-electron system (eV)
  ---------------------------------------------------
  alpha Z        PSCENC =         0.02803141
  Ewald energy   TEWEN  =       124.75272355
  -Hartree energ DENC   =      -515.96974689
  -exchange      EXHF   =         0.00000000
  -V(xc)+E(xc)   XCENC  =        34.11513994
  PAW double counting   =       563.52248875     -565.64313079
  entropy T*S    EENTRO =        -0.00000000
  eigenvalues    EBANDS =      -112.32514192
  atomic energy  EATOM  =       457.33192828
  Solvation  Ediel_sol  =         0.00000000
  ---------------------------------------------------
  free energy    TOTEN  =       -14.18770766 eV

  energy without entropy =      -14.18770766  energy(sigma->0) =      -14.18770766


--------------------------------------------------------------------------------------------------------




--------------------------------------- Iteration      1(   9)  ---------------------------------------


    POTLOK:  cpu time      3.9218: real time      5.0255
    SETDIJ:  cpu time      0.0011: real time      0.0011
     EDDAV:  cpu time      0.7508: real time      0.7525
       DOS:  cpu time      0.0002: real time      0.0005
    CHARGE:  cpu time      0.4771: real time      0.4778
    MIXING:  cpu time      0.0169: real time      0.0169
    --------------------------------------------
      LOOP:  cpu time      5.1680: real time      6.2743

 eigenvalue-minimisations  :    64
 total energy-change (2. order) :-0.1484380E-02  (-0.1673479E-03)
 number of electron       7.9999992 magnetization 
 augmentation part        0.6990433 magnetization 

 Broyden mixing:
  rms(total) = 0.14333E-01    rms(broyden)= 0.14333E-01
  rms(prec ) = 0.22279E-01
  weight for this iteration     100.00

 eigenvalues of (default mixing * dielectric matrix)
  average eigenvalue GAMMA=   1.9173
  0.9946  0.9946  2.5008  3.1791

 Free energy of the ion-electron system (eV)
  ---------------------------------------------------
  alpha Z        PSCENC =         0.02803141
  Ewald energy   TEWEN  =       124.75272355
  -Hartree energ DENC   =      -516.48284315
  -exchange      EXHF   =         0.00000000
  -V(xc)+E(xc)   XCENC  =        34.12910382
  PAW double counting   =       560.23909471     -562.36037589
  entropy T*S    EENTRO =        -0.00000000
  eigenvalues    EBANDS =      -111.82685478
  atomic energy  EATOM  =       457.33192828
  Solvation  Ediel_sol  =         0.00000000
  ---------------------------------------------------
  free energy    TOTEN  =       -14.18919204 eV

  energy without entropy =      -14.18919204  energy(sigma->0) =      -14.18919204


--------------------------------------------------------------------------------------------------------




--------------------------------------- Iteration      1(  10)  ---------------------------------------


    POTLOK:  cpu time      0.9486: real time      0.9498
    SETDIJ:  cpu time      0.0014: real time      0.0014
     EDDAV:  cpu time      0.7517: real time      0.7523
       DOS:  cpu time      0.0003: real time      0.0005
    CHARGE:  cpu time      0.6485: real time      0.6490
    MIXING:  cpu time      0.0168: real time      0.0168
    --------------------------------------------
      LOOP:  cpu time      2.3673: real time      2.3699

 eigenvalue-minimisations  :    64
 total energy-change (2. order) :-0.4944053E-02  (-0.4703418E-03)
 number of electron       7.9999992 magnetization 
 augmentation part        0.6988063 magnetization 

 Broyden mixing:
  rms(total) = 0.57340E-02    rms(broyden)= 0.57327E-02
  rms(prec ) = 0.94492E-02
  weight for this iteration     100.00

 eigenvalues of (default mixing * dielectric matrix)
  average eigenvalue GAMMA=   2.0234
  3.2517  1.0051  1.0051  2.4277  2.4277

 Free energy of the ion-electron system (eV)
  ---------------------------------------------------
  alpha Z        PSCENC =         0.02803141
  Ewald energy   TEWEN  =       124.75272355
  -Hartree energ DENC   =      -517.52522966
  -exchange      EXHF   =         0.00000000
  -V(xc)+E(xc)   XCENC  =        34.14830195
  PAW double counting   =       552.93302592     -555.04679270
  entropy T*S    EENTRO =        -0.00000000
  eigenvalues    EBANDS =      -110.81612486
  atomic energy  EATOM  =       457.33192828
  Solvation  Ediel_sol  =         0.00000000
  ---------------------------------------------------
  free energy    TOTEN  =       -14.19413610 eV

  energy without entropy =      -14.19413610  energy(sigma->0) =      -14.19413610


--------------------------------------------------------------------------------------------------------




--------------------------------------- Iteration      1(  11)  ---------------------------------------


    POTLOK:  cpu time      0.8242: real time      0.8277
    SETDIJ:  cpu time      0.0014: real time      0.0014
     EDDAV:  cpu time      0.7508: real time      0.7517
       DOS:  cpu time      0.0002: real time      0.0005
    CHARGE:  cpu time      0.4762: real time      0.4765
    MIXING:  cpu time      0.0167: real time      0.0167
    --------------------------------------------
      LOOP:  cpu time      2.0695: real time      2.0745

 eigenvalue-minimisations  :    64
 total energy-change (2. order) :-0.6924514E-02  (-0.3654907E-03)
 number of electron       7.9999992 magnetization 
 augmentation part        0.6967834 magnetization 

 Broyden mixing:
  rms(total) = 0.76700E-02    rms(broyden)= 0.76672E-02
  rms(prec ) = 0.91947E-02
  weight for this iteration     100.00

 eigenvalues of (default mixing * dielectric matrix)
  average eigenvalue GAMMA=   2.0544
  4.1167  2.9419  2.3818  1.0296  0.9281  0.9281

 Free energy of the ion-electron system (eV)
  ---------------------------------------------------
  alpha Z        PSCENC =         0.02803141
  Ewald energy   TEWEN  =       124.75272355
  -Hartree energ DENC   =      -518.09249655
  -exchange      EXHF   =         0.00000000
  -V(xc)+E(xc)   XCENC  =        34.16440087
  PAW double counting   =       556.24346357     -558.36130384
  entropy T*S    EENTRO =        -0.00000000
  eigenvalues    EBANDS =      -110.26780790
  atomic energy  EATOM  =       457.33192828
  Solvation  Ediel_sol  =         0.00000000
  ---------------------------------------------------
  free energy    TOTEN  =       -14.20106061 eV

  energy without entropy =      -14.20106061  energy(sigma->0) =      -14.20106061


--------------------------------------------------------------------------------------------------------




--------------------------------------- Iteration      1(  12)  ---------------------------------------


    POTLOK:  cpu time      0.7496: real time      0.7505
    SETDIJ:  cpu time      0.0012: real time      0.0012
     EDDAV:  cpu time      0.7521: real time      0.7527
       DOS:  cpu time      0.0007: real time      0.0010
    CHARGE:  cpu time      0.4754: real time      0.4756
    MIXING:  cpu time      0.0178: real time      0.0178
    --------------------------------------------
      LOOP:  cpu time      1.9970: real time      1.9988

 eigenvalue-minimisations  :    64
 total energy-change (2. order) :-0.2123073E-02  (-0.1319479E-03)
 number of electron       7.9999992 magnetization 
 augmentation part        0.6981129 magnetization 

 Broyden mixing:
  rms(total) = 0.17392E-02    rms(broyden)= 0.17365E-02
  rms(prec ) = 0.30871E-02
  weight for this iteration     100.00

 eigenvalues of (default mixing * dielectric matrix)
  average eigenvalue GAMMA=   2.2877
  5.2851  2.7757  2.7757  2.2349  1.0547  0.9440  0.9440

 Free energy of the ion-electron system (eV)
  ---------------------------------------------------
  alpha Z        PSCENC =         0.02803141
  Ewald energy   TEWEN  =       124.75272355
  -Hartree energ DENC   =      -517.90723690
  -exchange      EXHF   =         0.00000000
  -V(xc)+E(xc)   XCENC  =        34.14516215
  PAW double counting   =       554.25682246     -556.37087537
  entropy T*S    EENTRO =        -0.00000000
  eigenvalues    EBANDS =      -110.43973927
  atomic energy  EATOM  =       457.33192828
  Solvation  Ediel_sol  =         0.00000000
  ---------------------------------------------------
  free energy    TOTEN  =       -14.20318368 eV

  energy without entropy =      -14.20318368  energy(sigma->0) =      -14.20318368


--------------------------------------------------------------------------------------------------------




--------------------------------------- Iteration      1(  13)  ---------------------------------------


    POTLOK:  cpu time      0.7288: real time      0.8053
    SETDIJ:  cpu time      0.0011: real time      0.0011
     EDDAV:  cpu time      0.7465: real time      0.7508
       DOS:  cpu time      0.0008: real time      0.0010
    CHARGE:  cpu time      0.4768: real time      0.4769
    MIXING:  cpu time      0.0178: real time      0.0178
    --------------------------------------------
      LOOP:  cpu time      1.9717: real time      2.0529

 eigenvalue-minimisations  :    64
 total energy-change (2. order) :-0.2495311E-02  (-0.3307548E-04)
 number of electron       7.9999992 magnetization 
 augmentation part        0.6980560 magnetization 

 Broyden mixing:
  rms(total) = 0.13506E-02    rms(broyden)= 0.13503E-02
  rms(prec ) = 0.18068E-02
  weight for this iteration     100.00

 eigenvalues of (default mixing * dielectric matrix)
  average eigenvalue GAMMA=   2.2595
  6.1078  3.2743  2.5193  2.1390  1.1733  0.9722  0.9722  0.9182

 Free energy of the ion-electron system (eV)
  ---------------------------------------------------
  alpha Z        PSCENC =         0.02803141
  Ewald energy   TEWEN  =       124.75272355
  -Hartree energ DENC   =      -517.95770441
  -exchange      EXHF   =         0.00000000
  -V(xc)+E(xc)   XCENC  =        34.14231545
  PAW double counting   =       554.50741575     -556.62024538
  entropy T*S    EENTRO =        -0.00000000
  eigenvalues    EBANDS =      -110.39014365
  atomic energy  EATOM  =       457.33192828
  Solvation  Ediel_sol  =         0.00000000
  ---------------------------------------------------
  free energy    TOTEN  =       -14.20567900 eV

  energy without entropy =      -14.20567900  energy(sigma->0) =      -14.20567900


--------------------------------------------------------------------------------------------------------




--------------------------------------- Iteration      1(  14)  ---------------------------------------


    POTLOK:  cpu time      0.6903: real time      0.6919
    SETDIJ:  cpu time      0.0012: real time      0.0012
     EDDAV:  cpu time      1.0094: real time      1.0101
       DOS:  cpu time      0.0008: real time      0.0010
    CHARGE:  cpu time      0.4754: real time      0.4759
    MIXING:  cpu time      0.0175: real time      0.0175
    --------------------------------------------
      LOOP:  cpu time      2.1945: real time      2.1976

 eigenvalue-minimisations  :    96
 total energy-change (2. order) :-0.5031714E-03  (-0.4218667E-05)
 number of electron       7.9999992 magnetization 
 augmentation part        0.6978711 magnetization 

 Broyden mixing:
  rms(total) = 0.62968E-03    rms(broyden)= 0.62945E-03
  rms(prec ) = 0.10557E-02
  weight for this iteration     100.00

 eigenvalues of (default mixing * dielectric matrix)
  average eigenvalue GAMMA=   2.5648
  7.4521  4.2183  2.7216  2.5394  2.2232  1.0620  0.9844  0.9409  0.9409

 Free energy of the ion-electron system (eV)
  ---------------------------------------------------
  alpha Z        PSCENC =         0.02803141
  Ewald energy   TEWEN  =       124.75272355
  -Hartree energ DENC   =      -517.96297637
  -exchange      EXHF   =         0.00000000
  -V(xc)+E(xc)   XCENC  =        34.14198092
  PAW double counting   =       554.50523277     -556.61856321
  entropy T*S    EENTRO =        -0.00000000
  eigenvalues    EBANDS =      -110.38453952
  atomic energy  EATOM  =       457.33192828
  Solvation  Ediel_sol  =         0.00000000
  ---------------------------------------------------
  free energy    TOTEN  =       -14.20618217 eV

  energy without entropy =      -14.20618217  energy(sigma->0) =      -14.20618217


--------------------------------------------------------------------------------------------------------




--------------------------------------- Iteration      1(  15)  ---------------------------------------


    POTLOK:  cpu time      0.6814: real time      0.6820
    SETDIJ:  cpu time      0.0014: real time      0.0014
     EDDAV:  cpu time      1.1391: real time      1.2141
       DOS:  cpu time      0.0008: real time      0.0010
    CHARGE:  cpu time      0.4861: real time      0.4865
    MIXING:  cpu time      0.0187: real time      0.0187
    --------------------------------------------
      LOOP:  cpu time      2.3275: real time      2.4037

 eigenvalue-minimisations  :    96
 total energy-change (2. order) :-0.6912480E-03  (-0.6690365E-05)
 number of electron       7.9999992 magnetization 
 augmentation part        0.6979172 magnetization 

 Broyden mixing:
  rms(total) = 0.25447E-03    rms(broyden)= 0.25446E-03
  rms(prec ) = 0.41731E-03
  weight for this iteration     100.00

 eigenvalues of (default mixing * dielectric matrix)
  average eigenvalue GAMMA=   2.5319
  7.8063  4.4501  2.9890  2.3918  2.2082  1.5515  1.0612  0.9456  0.9456  0.9696

 Free energy of the ion-electron system (eV)
  ---------------------------------------------------
  alpha Z        PSCENC =         0.02803141
  Ewald energy   TEWEN  =       124.75272355
  -Hartree energ DENC   =      -517.94108188
  -exchange      EXHF   =         0.00000000
  -V(xc)+E(xc)   XCENC  =        34.13992849
  PAW double counting   =       554.19724987     -556.31025665
  entropy T*S    EENTRO =        -0.00000000
  eigenvalues    EBANDS =      -110.40539649
  atomic energy  EATOM  =       457.33192828
  Solvation  Ediel_sol  =         0.00000000
  ---------------------------------------------------
  free energy    TOTEN  =       -14.20687341 eV

  energy without entropy =      -14.20687341  energy(sigma->0) =      -14.20687341


--------------------------------------------------------------------------------------------------------




--------------------------------------- Iteration      1(  16)  ---------------------------------------


    POTLOK:  cpu time      0.8324: real time      0.8341
    SETDIJ:  cpu time      0.0012: real time      0.0012
     EDDAV:  cpu time      1.0067: real time      1.0079
       DOS:  cpu time      0.0008: real time      0.0011
    CHARGE:  cpu time      0.4739: real time      0.4742
    MIXING:  cpu time      0.0184: real time      0.0184
    --------------------------------------------
      LOOP:  cpu time      2.3333: real time      2.3368

 eigenvalue-minimisations  :    96
 total energy-change (2. order) :-0.1538096E-03  (-0.3208828E-06)
 number of electron       7.9999992 magnetization 
 augmentation part        0.6979433 magnetization 

 Broyden mixing:
  rms(total) = 0.17532E-03    rms(broyden)= 0.17528E-03
  rms(prec ) = 0.26410E-03
  weight for this iteration     100.00

 eigenvalues of (default mixing * dielectric matrix)
  average eigenvalue GAMMA=   2.6952
  8.4649  5.3054  3.5608  2.7513  2.3170  2.3170  1.0417  1.0417  0.9524  0.9524
  0.9427

 Free energy of the ion-electron system (eV)
  ---------------------------------------------------
  alpha Z        PSCENC =         0.02803141
  Ewald energy   TEWEN  =       124.75272355
  -Hartree energ DENC   =      -517.94348971
  -exchange      EXHF   =         0.00000000
  -V(xc)+E(xc)   XCENC  =        34.13980725
  PAW double counting   =       554.25890404     -556.37191225
  entropy T*S    EENTRO =        -0.00000000
  eigenvalues    EBANDS =      -110.40301980
  atomic energy  EATOM  =       457.33192828
  Solvation  Ediel_sol  =         0.00000000
  ---------------------------------------------------
  free energy    TOTEN  =       -14.20702722 eV

  energy without entropy =      -14.20702722  energy(sigma->0) =      -14.20702722


--------------------------------------------------------------------------------------------------------




--------------------------------------- Iteration      1(  17)  ---------------------------------------


    POTLOK:  cpu time      0.7961: real time      0.7972
    SETDIJ:  cpu time      0.0013: real time      0.0013
     EDDAV:  cpu time      1.0237: real time      1.1570
       DOS:  cpu time      0.0007: real time      0.0010
    CHARGE:  cpu time      0.4891: real time      0.4916
    MIXING:  cpu time      0.0186: real time      0.0210
    --------------------------------------------
      LOOP:  cpu time      2.3295: real time      2.4692

 eigenvalue-minimisations  :    96
 total energy-change (2. order) :-0.9166484E-04  (-0.2476599E-06)
 number of electron       7.9999992 magnetization 
 augmentation part        0.6979365 magnetization 

 Broyden mixing:
  rms(total) = 0.92537E-04    rms(broyden)= 0.92535E-04
  rms(prec ) = 0.12854E-03
  weight for this iteration     100.00

 eigenvalues of (default mixing * dielectric matrix)
  average eigenvalue GAMMA=   2.8222
  9.0085  5.8224  4.0333  2.9402  2.5469  2.2963  2.2963  0.9479  0.9479  1.0621
  0.9586  1.0055

 Free energy of the ion-electron system (eV)
  ---------------------------------------------------
  alpha Z        PSCENC =         0.02803141
  Ewald energy   TEWEN  =       124.75272355
  -Hartree energ DENC   =      -517.94567299
  -exchange      EXHF   =         0.00000000
  -V(xc)+E(xc)   XCENC  =        34.13973843
  PAW double counting   =       554.30001229     -556.41314176
  entropy T*S    EENTRO =        -0.00000000
  eigenvalues    EBANDS =      -110.40073811
  atomic energy  EATOM  =       457.33192828
  Solvation  Ediel_sol  =         0.00000000
  ---------------------------------------------------
  free energy    TOTEN  =       -14.20711889 eV

  energy without entropy =      -14.20711889  energy(sigma->0) =      -14.20711889


--------------------------------------------------------------------------------------------------------




--------------------------------------- Iteration      1(  18)  ---------------------------------------


    POTLOK:  cpu time      0.7216: real time      0.7224
    SETDIJ:  cpu time      0.0020: real time      0.0020
     EDDAV:  cpu time      0.7680: real time      0.7845
       DOS:  cpu time      0.0006: real time      0.0010
    CHARGE:  cpu time      0.4870: real time      0.4914
    MIXING:  cpu time      0.0208: real time      0.0209
    --------------------------------------------
      LOOP:  cpu time      2.0000: real time      2.0222

 eigenvalue-minimisations  :    64
 total energy-change (2. order) :-0.4787944E-04  (-0.9067898E-07)
 number of electron       7.9999992 magnetization 
 augmentation part        0.6979144 magnetization 

 Broyden mixing:
  rms(total) = 0.70817E-04    rms(broyden)= 0.70781E-04
  rms(prec ) = 0.81178E-04
  weight for this iteration     100.00

 eigenvalues of (default mixing * dielectric matrix)
  average eigenvalue GAMMA=   2.8081
  9.1740  6.1330  4.2925  3.0471  2.6544  2.5314  1.8718  1.8718  1.0699  0.9462
  0.9462  1.0025  0.9646

 Free energy of the ion-electron system (eV)
  ---------------------------------------------------
  alpha Z        PSCENC =         0.02803141
  Ewald energy   TEWEN  =       124.75272355
  -Hartree energ DENC   =      -517.95064052
  -exchange      EXHF   =         0.00000000
  -V(xc)+E(xc)   XCENC  =        34.13995767
  PAW double counting   =       554.31127708     -556.42439779
  entropy T*S    EENTRO =        -0.00000000
  eigenvalues    EBANDS =      -110.39604645
  atomic energy  EATOM  =       457.33192828
  Solvation  Ediel_sol  =         0.00000000
  ---------------------------------------------------
  free energy    TOTEN  =       -14.20716677 eV

  energy without entropy =      -14.20716677  energy(sigma->0) =      -14.20716677


--------------------------------------------------------------------------------------------------------




--------------------------------------- Iteration      1(  19)  ---------------------------------------


    POTLOK:  cpu time      0.7785: real time      0.7797
    SETDIJ:  cpu time      0.0014: real time      0.0014
     EDDAV:  cpu time      1.0529: real time      1.0548
       DOS:  cpu time      0.0009: real time      0.0012
    CHARGE:  cpu time      0.6935: real time      0.7025
    MIXING:  cpu time      0.0197: real time      0.0200
    --------------------------------------------
      LOOP:  cpu time      2.5468: real time      2.5595

 eigenvalue-minimisations  :    96
 total energy-change (2. order) :-0.1063859E-04  (-0.1271104E-07)
 number of electron       7.9999992 magnetization 
 augmentation part        0.6979220 magnetization 

 Broyden mixing:
  rms(total) = 0.27889E-04    rms(broyden)= 0.27883E-04
  rms(prec ) = 0.34175E-04
  weight for this iteration     100.00

 eigenvalues of (default mixing * dielectric matrix)
  average eigenvalue GAMMA=   2.8201
  9.4533  6.6705  4.6667  3.4123  2.7406  2.4437  2.0930  2.0930  0.9459  0.9459
  1.0625  0.9675  0.9929  0.9929

 Free energy of the ion-electron system (eV)
  ---------------------------------------------------
  alpha Z        PSCENC =         0.02803141
  Ewald energy   TEWEN  =       124.75272355
  -Hartree energ DENC   =      -517.94953593
  -exchange      EXHF   =         0.00000000
  -V(xc)+E(xc)   XCENC  =        34.13985427
  PAW double counting   =       554.28918010     -556.40226682
  entropy T*S    EENTRO =        -0.00000000
  eigenvalues    EBANDS =      -110.39709228
  atomic energy  EATOM  =       457.33192828
  Solvation  Ediel_sol  =         0.00000000
  ---------------------------------------------------
  free energy    TOTEN  =       -14.20717741 eV

  energy without entropy =      -14.20717741  energy(sigma->0) =      -14.20717741


--------------------------------------------------------------------------------------------------------




--------------------------------------- Iteration      1(  20)  ---------------------------------------


    POTLOK:  cpu time      0.9464: real time      0.9493
    SETDIJ:  cpu time      0.0011: real time      0.0011
     EDDAV:  cpu time      0.7492: real time      0.7507
       DOS:  cpu time      0.0008: real time      0.0010
    CHARGE:  cpu time      0.4744: real time      0.4751
    MIXING:  cpu time      0.0207: real time      0.0207
    --------------------------------------------
      LOOP:  cpu time      2.1928: real time      2.1980

 eigenvalue-minimisations  :    64
 total energy-change (2. order) :-0.4559346E-05  (-0.6569323E-08)
 number of electron       7.9999992 magnetization 
 augmentation part        0.6979268 magnetization 

 Broyden mixing:
  rms(total) = 0.15123E-04    rms(broyden)= 0.15113E-04
  rms(prec ) = 0.18600E-04
  weight for this iteration     100.00

 eigenvalues of (default mixing * dielectric matrix)
  average eigenvalue GAMMA=   2.8519
  9.5689  7.0135  4.8451  3.7546  2.8393  2.6004  2.3836  1.9088  1.9088  0.9466
  0.9466  0.9839  0.9839  1.0608  1.0342

 Free energy of the ion-electron system (eV)
  ---------------------------------------------------
  alpha Z        PSCENC =         0.02803141
  Ewald energy   TEWEN  =       124.75272355
  -Hartree energ DENC   =      -517.94893132
  -exchange      EXHF   =         0.00000000
  -V(xc)+E(xc)   XCENC  =        34.13982138
  PAW double counting   =       554.29167875     -556.40476377
  entropy T*S    EENTRO =        -0.00000000
  eigenvalues    EBANDS =      -110.39767026
  atomic energy  EATOM  =       457.33192828
  Solvation  Ediel_sol  =         0.00000000
  ---------------------------------------------------
  free energy    TOTEN  =       -14.20718197 eV

  energy without entropy =      -14.20718197  energy(sigma->0) =      -14.20718197


--------------------------------------------------------------------------------------------------------




--------------------------------------- Iteration      1(  21)  ---------------------------------------


    POTLOK:  cpu time      0.7150: real time      0.7159
    SETDIJ:  cpu time      0.0012: real time      0.0012
     EDDAV:  cpu time      0.7488: real time      0.7500
       DOS:  cpu time      0.0008: real time      0.0010
    CHARGE:  cpu time      0.4770: real time      0.4778
    MIXING:  cpu time      0.0256: real time      0.0256
    --------------------------------------------
      LOOP:  cpu time      1.9683: real time      1.9716

 eigenvalue-minimisations  :    64
 total energy-change (2. order) :-0.2842466E-05  (-0.5897212E-08)
 number of electron       7.9999992 magnetization 
 augmentation part        0.6979233 magnetization 

 Broyden mixing:
  rms(total) = 0.10913E-04    rms(broyden)= 0.10909E-04
  rms(prec ) = 0.12388E-04
  weight for this iteration     100.00

 eigenvalues of (default mixing * dielectric matrix)
  average eigenvalue GAMMA=   2.8574
  9.7320  7.2213  5.1793  4.0856  3.1816  2.6811  2.4582  2.0581  2.0581  0.9470
  0.9470  0.9758  0.9758  1.0629  1.0629  1.0925

 Free energy of the ion-electron system (eV)
  ---------------------------------------------------
  alpha Z        PSCENC =         0.02803141
  Ewald energy   TEWEN  =       124.75272355
  -Hartree energ DENC   =      -517.94932343
  -exchange      EXHF   =         0.00000000
  -V(xc)+E(xc)   XCENC  =        34.13984525
  PAW double counting   =       554.29402726     -556.40713512
  entropy T*S    EENTRO =        -0.00000000
  eigenvalues    EBANDS =      -110.39728202
  atomic energy  EATOM  =       457.33192828
  Solvation  Ediel_sol  =         0.00000000
  ---------------------------------------------------
  free energy    TOTEN  =       -14.20718481 eV

  energy without entropy =      -14.20718481  energy(sigma->0) =      -14.20718481


--------------------------------------------------------------------------------------------------------




--------------------------------------- Iteration      1(  22)  ---------------------------------------


    POTLOK:  cpu time      0.8428: real time      0.8439
    SETDIJ:  cpu time      0.0014: real time      0.0014
     EDDAV:  cpu time      0.7525: real time      0.7540
       DOS:  cpu time      0.0008: real time      0.0009
    --------------------------------------------
      LOOP:  cpu time      1.5975: real time      1.6001

 eigenvalue-minimisations  :    64
 total energy-change (2. order) :-0.7424802E-06  (-0.3315478E-08)
 number of electron       7.9999992 magnetization 
 augmentation part        0.6979233 magnetization 

 Free energy of the ion-electron system (eV)
  ---------------------------------------------------
  alpha Z        PSCENC =         0.02803141
  Ewald energy   TEWEN  =       124.75272355
  -Hartree energ DENC   =      -517.94900878
  -exchange      EXHF   =         0.00000000
  -V(xc)+E(xc)   XCENC  =        34.13982482
  PAW double counting   =       554.29499221     -556.40809659
  entropy T*S    EENTRO =        -0.00000000
  eigenvalues    EBANDS =      -110.39758045
  atomic energy  EATOM  =       457.33192828
  Solvation  Ediel_sol  =         0.00000000
  ---------------------------------------------------
  free energy    TOTEN  =       -14.20718555 eV

  energy without entropy =      -14.20718555  energy(sigma->0) =      -14.20718555


--------------------------------------------------------------------------------------------------------




 average (electrostatic) potential at core
  the test charge radii are     0.7215  0.5201
  (the norm of the test charge is              1.0000)
       1 -80.5775       2 -44.9099       3 -44.9099



 E-fermi :  -6.9714     XC(G=0):  -0.0895     alpha+bet : -0.0163

 Fermi energy:        -6.9714272640

 k-point     1 :       0.0000    0.0000    0.0000
  band No.  band energies     occupation 
      1     -25.4685      2.00000
      2     -13.2074      2.00000
      3      -9.2964      2.00000
      4      -7.2264      2.00000
      5      -0.9435      0.00000
      6       0.0233      0.00000
      7       0.2532      0.00000
      8       0.3193      0.00000
      9       0.3203      0.00000
     10       0.3527      0.00000
     11       0.3723      0.00000
     12       0.4777      0.00000
     13       0.5336      0.00000
     14       0.6279      0.00000
     15       0.6445      0.00000
     16       0.7168      0.00000
     17       0.7208      0.00000
     18       0.7262      0.00000
     19       0.7278      0.00000
     20       0.7344      0.00000
     21       0.7442      0.00000
     22       0.7484      0.00000
     23       0.7565      0.00000
     24       0.9508      0.00000
     25       0.9660      0.00000
     26       1.0366      0.00000
     27       1.0469      0.00000
     28       1.0936      0.00000
     29       1.0954      0.00000
     30       1.0983      0.00000
     31       1.1213      0.00000
     32       1.2952      0.00000


--------------------------------------------------------------------------------------------------------


 soft charge-density along one line, spin component           1
         0         1         2         3         4         5         6         7         8         9
 total charge-density along one line

 pseudopotential strength for first ion, spin component:           1
 13.808 -16.928   0.000  -0.125  -0.000  -0.000   0.157   0.000
-16.928  20.784  -0.000   0.159   0.000   0.000  -0.201  -0.000
  0.000  -0.000 -10.342  -0.000  -0.000  12.797   0.000   0.000
 -0.125   0.159  -0.000 -10.488  -0.000   0.000  12.992   0.000
 -0.000   0.000  -0.000  -0.000 -10.586   0.000   0.000  13.124
 -0.000   0.000  12.797   0.000   0.000 -15.758  -0.000  -0.000
  0.157  -0.201   0.000  12.992   0.000  -0.000 -16.021  -0.000
  0.000  -0.000   0.000   0.000  13.124  -0.000  -0.000 -16.200
 total augmentation occupancy for first ion, spin component:           1
  2.776   0.465   0.000   0.444   0.000   0.000   0.177   0.000
  0.465   0.131   0.000   0.420   0.000   0.000   0.077   0.000
  0.000   0.000   2.134   0.000   0.000   0.139   0.000   0.000
  0.444   0.420   0.000   2.322   0.000   0.000   0.337   0.000
  0.000   0.000   0.000   0.000   2.442   0.000   0.000   0.473
  0.000   0.000   0.139   0.000   0.000   0.009   0.000   0.000
  0.177   0.077   0.000   0.337   0.000   0.000   0.054   0.000
  0.000   0.000   0.000   0.000   0.473   0.000   0.000   0.092


------------------------ aborting loop because EDIFF is reached ----------------------------------------





 total charge

# of ion       s       p       d       tot
------------------------------------------
    1        1.568   3.625   0.000   5.193
    2        0.643   0.132   0.000   0.775
    3        0.643   0.132   0.000   0.775
--------------------------------------------------
tot          2.855   3.889   0.000   6.743

    CHARGE:  cpu time      0.4726: real time      0.4734
    FORLOC:  cpu time      0.0264: real time      0.0264
    FORNL :  cpu time      0.0334: real time      0.0337
    STRESS:  cpu time      1.4020: real time      1.4037
    FORCOR:  cpu time      0.7986: real time      0.7996
    FORHAR:  cpu time      0.1809: real time      0.1810
    MIXING:  cpu time      0.0222: real time      0.0222
    OFIELD:  cpu time      0.0000: real time      0.0000

 ---------------------------------------------------------------------------------------------

         DFTD3 V3.0 Rev 1        
 IVDW         = 12
 DF pbe       
 parameters
 VDW_S6       =    1.0000
 VDW_S8       =    0.7875
 VDW_A1       =    0.4289
 VDW_A2       =    4.4407
 k1-k3        =   16.0000    1.3333   -4.0000
 VDW_RADIUS   =   50.2022 A
 VDW_CNRADIUS =   21.1671 A
 Edisp (eV)   -0.00978

 E6    (eV) :    -0.0075
 E8    (eV) :    -0.0023
 % E8        : 23.84
    FORVDW:  cpu time      0.0158: real time      0.0158

  FORCE on cell =-STRESS in cart. coord.  units (eV):
  Direction    XX          YY          ZZ          XY          YZ          ZX
  --------------------------------------------------------------------------------------
  Alpha Z     0.02803     0.02803     0.02803
  Ewald     100.05025   -21.81568    46.51808    -0.00000    -0.00000     0.00000
  Hartree   182.62148   161.60632   173.72128    -0.00000    -0.00000    -0.00000
  E(xc)     -36.05249   -36.54141   -36.24356     0.00000     0.00000    -0.00000
  Local    -355.36792  -249.13265  -308.33128     0.00000     0.00000    -0.00000
  n-local   -30.56447   -31.04212   -31.38268    -0.00000    -0.00000     0.00000
  augment     5.80442     8.20959     6.77899    -0.00000     0.00000     0.00000
  Kinetic   134.43544   168.62686   149.33810     0.00000    -0.00000     0.00000
  Fock        0.00000     0.00000     0.00000     0.00000     0.00000     0.00000
  vdW        -0.00008    -0.00000     0.00004     0.00000     0.00000    -0.00000
  -------------------------------------------------------------------------------------
  Total       0.95467    -0.06106     0.42699     0.00000     0.00000     0.00000
  in kB       0.19119    -0.01223     0.08551     0.00000     0.00000     0.00000
  external pressure =        0.09 kB  Pullay stress =        0.00 kB


 VOLUME and BASIS-vectors are now :
 -----------------------------------------------------------------------------
  energy-cutoff  :      520.00
  volume of cell :     8000.00
      direct lattice vectors                 reciprocal lattice vectors
    20.000000000  0.000000000  0.000000000     0.050000000  0.000000000  0.000000000
     0.000000000 20.000000000  0.000000000     0.000000000  0.050000000  0.000000000
     0.000000000  0.000000000 20.000000000     0.000000000  0.000000000  0.050000000

  length of vectors
    20.000000000 20.000000000 20.000000000     0.050000000  0.050000000  0.050000000


 FORCES acting on ions
    electron-ion (+dipol)            ewald-force                    non-local-force                 convergence-correction
 -----------------------------------------------------------------------------------------------
   0.425E-12 0.254E-11 0.653E+02   -.142E-13 0.852E-17 -.116E+03   -.969E-26 -.631E-29 0.498E+02   0.264E-13 0.354E-13 -.199E-04
   -.729E+02 0.810E-13 -.524E+02   0.806E+02 -.644E-18 0.580E+02   -.709E+01 0.189E-28 -.517E+01   0.632E-05 0.341E-14 0.305E-05
   0.729E+02 0.330E-13 -.524E+02   -.806E+02 -.998E-18 0.580E+02   0.709E+01 0.126E-28 -.517E+01   -.632E-05 0.306E-14 0.305E-05
 -----------------------------------------------------------------------------------------------
   -.284E-12 0.265E-11 -.394E+02   0.000E+00 0.688E-17 -.711E-14   0.000E+00 0.252E-28 0.394E+02   0.308E-13 0.419E-13 -.138E-04


 POSITION                                       TOTAL-FORCE (eV/Angst)
 -----------------------------------------------------------------------------------
     10.00000     10.00000     10.00000         0.000000      0.000000     -0.829913
     10.75470     10.00000     10.58870         0.669918     -0.000000      0.414957
      9.24530     10.00000     10.58870        -0.669918      0.000000      0.414957
 -----------------------------------------------------------------------------------
    total drift:                               -0.000000      0.000000     -0.000351


--------------------------------------------------------------------------------------------------------



  FREE ENERGIE OF THE ION-ELECTRON SYSTEM (eV)
  ---------------------------------------------------
  free  energy   TOTEN  =       -14.21696942 eV

  energy  without entropy=      -14.21696942  energy(sigma->0) =      -14.21696942



--------------------------------------------------------------------------------------------------------


    POTLOK:  cpu time      1.0029: real time      1.0041


--------------------------------------------------------------------------------------------------------




--------------------------------------------------------------------------------------------------------


    WAVPRE:  cpu time      0.1404: real time      0.1493
    FEWALD:  cpu time      0.0004: real time      0.0004
    ORTHCH:  cpu time      0.0512: real time      0.0514
     LOOP+:  cpu time     52.8873: real time     54.8210


--------------------------------------- Iteration      2(   1)  ---------------------------------------


    POTLOK:  cpu time      0.7294: real time      0.7328
    SETDIJ:  cpu time      0.0012: real time      0.0012
     EDDAV:  cpu time      0.7516: real time      0.7526
       DOS:  cpu time      0.0008: real time      0.0016
    CHARGE:  cpu time      0.4815: real time      0.4819
    MIXING:  cpu time      0.0159: real time      0.0159
    --------------------------------------------
      LOOP:  cpu time      1.9804: real time      1.9860

 eigenvalue-minimisations  :    64
 total energy-change (2. order) : 0.6540730E-01  (-0.1236719E+01)
 number of electron       7.9999994 magnetization 
 augmentation part        0.6525224 magnetization 

 Broyden mixing:
  rms(total) = 0.14208E+00    rms(broyden)= 0.14200E+00
  rms(prec ) = 0.15071E+00
  weight for this iteration     100.00

 Free energy of the ion-electron system (eV)
  ---------------------------------------------------
  alpha Z        PSCENC =         0.02803141
  Ewald energy   TEWEN  =       113.25322880
  -Hartree energ DENC   =      -512.21121589
  -exchange      EXHF   =         0.00000000
  -V(xc)+E(xc)   XCENC  =        33.87746955
  PAW double counting   =       554.29447437     -556.40757163
  entropy T*S    EENTRO =        -0.00000000
  eigenvalues    EBANDS =      -104.30812239
  atomic energy  EATOM  =       457.33192828
  Solvation  Ediel_sol  =         0.00000000
  ---------------------------------------------------
  free energy    TOTEN  =       -14.14177751 eV

  energy without entropy =      -14.14177751  energy(sigma->0) =      -14.14177751


--------------------------------------------------------------------------------------------------------




--------------------------------------- Iteration      2(   2)  ---------------------------------------


    POTLOK:  cpu time      0.8179: real time      0.8189
    SETDIJ:  cpu time      0.0013: real time      0.0013
     EDDAV:  cpu time      0.7494: real time      0.7506
       DOS:  cpu time      0.0008: real time      0.0011
    CHARGE:  cpu time      0.4839: real time      0.4842
    MIXING:  cpu time      0.0154: real time      0.0154
    --------------------------------------------
      LOOP:  cpu time      2.0687: real time      2.0714

 eigenvalue-minimisations  :    64
 total energy-change (2. order) : 0.1901468E-01  (-0.3991653E-01)
 number of electron       7.9999994 magnetization 
 augmentation part        0.6706394 magnetization 

 Broyden mixing:
  rms(total) = 0.47185E-01    rms(broyden)= 0.47127E-01
  rms(prec ) = 0.49078E-01
  weight for this iteration     100.00

 eigenvalues of (default mixing * dielectric matrix)
  average eigenvalue GAMMA=   0.9758
  0.9758

 Free energy of the ion-electron system (eV)
  ---------------------------------------------------
  alpha Z        PSCENC =         0.02803141
  Ewald energy   TEWEN  =       113.25322880
  -Hartree energ DENC   =      -508.90654843
  -exchange      EXHF   =         0.00000000
  -V(xc)+E(xc)   XCENC  =        33.69150429
  PAW double counting   =       536.82525586     -538.88177147
  entropy T*S    EENTRO =        -0.00000000
  eigenvalues    EBANDS =      -107.46439156
  atomic energy  EATOM  =       457.33192828
  Solvation  Ediel_sol  =         0.00000000
  ---------------------------------------------------
  free energy    TOTEN  =       -14.12276282 eV

  energy without entropy =      -14.12276282  energy(sigma->0) =      -14.12276282


--------------------------------------------------------------------------------------------------------




--------------------------------------- Iteration      2(   3)  ---------------------------------------


    POTLOK:  cpu time      0.8298: real time      0.9038
    SETDIJ:  cpu time      0.0010: real time      0.0010
     EDDAV:  cpu time      1.0112: real time      1.0129
       DOS:  cpu time      0.0004: real time      0.0006
    CHARGE:  cpu time      0.4751: real time      0.4758
    MIXING:  cpu time      0.0156: real time      0.0156
    --------------------------------------------
      LOOP:  cpu time      2.3330: real time      2.4097

 eigenvalue-minimisations  :    96
 total energy-change (2. order) : 0.2574820E-02  (-0.6606299E-03)
 number of electron       7.9999994 magnetization 
 augmentation part        0.6689669 magnetization 

 Broyden mixing:
  rms(total) = 0.26872E-01    rms(broyden)= 0.26870E-01
  rms(prec ) = 0.27856E-01
  weight for this iteration     100.00

 eigenvalues of (default mixing * dielectric matrix)
  average eigenvalue GAMMA=   1.6199
  0.9676  2.2721

 Free energy of the ion-electron system (eV)
  ---------------------------------------------------
  alpha Z        PSCENC =         0.02803141
  Ewald energy   TEWEN  =       113.25322880
  -Hartree energ DENC   =      -508.96323259
  -exchange      EXHF   =         0.00000000
  -V(xc)+E(xc)   XCENC  =        33.69274496
  PAW double counting   =       529.48649996     -531.53540834
  entropy T*S    EENTRO =        -0.00000000
  eigenvalues    EBANDS =      -107.41398049
  atomic energy  EATOM  =       457.33192828
[...]
 d Force = 0.5073943E-01[ 0.542E-01, 0.473E-01]  d Ewald  = 0.5073890E-01 0.538E-06


--------------------------------------------------------------------------------------------------------


    POTLOK:  cpu time      0.6869: real time      0.6879


--------------------------------------------------------------------------------------------------------


 Conjugate gradient step on ions:
 trial-energy change:   -0.000769  1 .order   -0.000771   -0.001125   -0.000416
  (g-gl).g = 0.136E-02      g.g   = 0.133E-02  gl.gl    = 0.931E-01
 g(Force)  = 0.133E-02   g(Stress)= 0.000E+00 ortho     =-0.271E-04
 gamma     =   0.01455
 trial     =   0.84736
 opt step  =   1.34503  (harmonic =   1.34503) maximal distance =0.00618952
 next E    =   -14.228707   (d E  =  -0.00089)


--------------------------------------------------------------------------------------------------------


    WAVPRE:  cpu time      0.1436: real time      0.2166
    FEWALD:  cpu time      0.0249: real time      0.0257
    ORTHCH:  cpu time      0.0501: real time      0.0539
     LOOP+:  cpu time     28.0763: real time     28.6312


--------------------------------------- Iteration      6(   1)  ---------------------------------------


    POTLOK:  cpu time      0.8156: real time      0.8244
    SETDIJ:  cpu time      0.0012: real time      0.0012
     EDDAV:  cpu time      0.7481: real time      0.7491
       DOS:  cpu time      0.0008: real time      0.0010
    CHARGE:  cpu time      0.4745: real time      0.4751
    MIXING:  cpu time      0.0151: real time      0.0151
    --------------------------------------------
      LOOP:  cpu time      2.0552: real time      2.0659

 eigenvalue-minimisations  :    64
 total energy-change (2. order) :-0.1106919E-03  (-0.1912794E-02)
 number of electron       7.9999993 magnetization 
 augmentation part        0.6914361 magnetization 

 Broyden mixing:
  rms(total) = 0.30105E-02    rms(broyden)= 0.30017E-02
  rms(prec ) = 0.30991E-02
  weight for this iteration     100.00

 Free energy of the ion-electron system (eV)
  ---------------------------------------------------
  alpha Z        PSCENC =         0.02803141
  Ewald energy   TEWEN  =       121.82485508
  -Hartree energ DENC   =      -515.65092431
  -exchange      EXHF   =         0.00000000
  -V(xc)+E(xc)   XCENC  =        34.02291864
  PAW double counting   =       544.77121048     -546.86460573
  entropy T*S    EENTRO =        -0.00000000
  eigenvalues    EBANDS =      -109.68232250
  atomic energy  EATOM  =       457.33192828
  Solvation  Ediel_sol  =         0.00000000
  ---------------------------------------------------
  free energy    TOTEN  =       -14.21890864 eV

  energy without entropy =      -14.21890864  energy(sigma->0) =      -14.21890864


--------------------------------------------------------------------------------------------------------




--------------------------------------- Iteration      6(   2)  ---------------------------------------


    POTLOK:  cpu time      0.6877: real time      0.6896
    SETDIJ:  cpu time      0.0012: real time      0.0012
     EDDAV:  cpu time      0.7521: real time      0.7541
       DOS:  cpu time      0.0007: real time      0.0010
    CHARGE:  cpu time      0.4819: real time      0.4826
    MIXING:  cpu time      0.0196: real time      0.0196
    --------------------------------------------
      LOOP:  cpu time      1.9432: real time      1.9481

 eigenvalue-minimisations  :    64
 total energy-change (2. order) :-0.2016799E-05  (-0.1585726E-04)
 number of electron       7.9999993 magnetization 
 augmentation part        0.6912771 magnetization 

 Broyden mixing:
  rms(total) = 0.15794E-02    rms(broyden)= 0.15784E-02
  rms(prec ) = 0.16439E-02
  weight for this iteration     100.00

 eigenvalues of (default mixing * dielectric matrix)
  average eigenvalue GAMMA=   1.3386
  1.3386

 Free energy of the ion-electron system (eV)
  ---------------------------------------------------
  alpha Z        PSCENC =         0.02803141
  Ewald energy   TEWEN  =       121.82485508
  -Hartree energ DENC   =      -515.67617344
  -exchange      EXHF   =         0.00000000
  -V(xc)+E(xc)   XCENC  =        34.02452039
  PAW double counting   =       544.77782588     -546.87202415
  entropy T*S    EENTRO =        -0.00000000
  eigenvalues    EBANDS =      -109.65787412
  atomic energy  EATOM  =       457.33192828
  Solvation  Ediel_sol  =         0.00000000
  ---------------------------------------------------
  free energy    TOTEN  =       -14.21891066 eV

  energy without entropy =      -14.21891066  energy(sigma->0) =      -14.21891066


--------------------------------------------------------------------------------------------------------




--------------------------------------- Iteration      6(   3)  ---------------------------------------


    POTLOK:  cpu time      0.9813: real time      1.0537
    SETDIJ:  cpu time      0.0009: real time      0.0009
     EDDAV:  cpu time      0.8095: real time      0.8195
       DOS:  cpu time      0.0002: real time      0.0005
    CHARGE:  cpu time      0.4755: real time      0.4759
    MIXING:  cpu time      0.0151: real time      0.0156
    --------------------------------------------
      LOOP:  cpu time      2.2827: real time      2.3667

 eigenvalue-minimisations  :    64
 total energy-change (2. order) :-0.1617458E-05  (-0.2822217E-06)
 number of electron       7.9999993 magnetization 
 augmentation part        0.6913233 magnetization 

 Broyden mixing:
  rms(total) = 0.75503E-03    rms(broyden)= 0.75498E-03
  rms(prec ) = 0.79456E-03
  weight for this iteration     100.00

 eigenvalues of (default mixing * dielectric matrix)
  average eigenvalue GAMMA=   1.7199
  0.9493  2.4904

 Free energy of the ion-electron system (eV)
  ---------------------------------------------------
  alpha Z        PSCENC =         0.02803141
  Ewald energy   TEWEN  =       121.82485508
  -Hartree energ DENC   =      -515.67386741
  -exchange      EXHF   =         0.00000000
  -V(xc)+E(xc)   XCENC  =        34.02454838
  PAW double counting   =       544.77924125     -546.87377026
  entropy T*S    EENTRO =        -0.00000000
  eigenvalues    EBANDS =      -109.65987902
  atomic energy  EATOM  =       457.33192828
  Solvation  Ediel_sol  =         0.00000000
  ---------------------------------------------------
  free energy    TOTEN  =       -14.21891228 eV

  energy without entropy =      -14.21891228  energy(sigma->0) =      -14.21891228


--------------------------------------------------------------------------------------------------------




--------------------------------------- Iteration      6(   4)  ---------------------------------------


    POTLOK:  cpu time      0.8443: real time      0.8458
    SETDIJ:  cpu time      0.0013: real time      0.0013
     EDDAV:  cpu time      0.7495: real time      0.7507
       DOS:  cpu time      0.0002: real time      0.0005
    CHARGE:  cpu time      0.4764: real time      0.4772
    MIXING:  cpu time      0.0157: real time      0.0157
    --------------------------------------------
      LOOP:  cpu time      2.0874: real time      2.0905

 eigenvalue-minimisations  :    64
 total energy-change (2. order) :-0.1064150E-05  (-0.1443457E-06)
 number of electron       7.9999993 magnetization 
 augmentation part        0.6913402 magnetization 

 Broyden mixing:
  rms(total) = 0.11542E-03    rms(broyden)= 0.11533E-03
  rms(prec ) = 0.14573E-03
  weight for this iteration     100.00

 eigenvalues of (default mixing * dielectric matrix)
  average eigenvalue GAMMA=   1.6415
  2.4883  0.9847  1.4516

 Free energy of the ion-electron system (eV)
  ---------------------------------------------------
  alpha Z        PSCENC =         0.02803141
  Ewald energy   TEWEN  =       121.82485508
  -Hartree energ DENC   =      -515.67757424
  -exchange      EXHF   =         0.00000000
  -V(xc)+E(xc)   XCENC  =        34.02488215
  PAW double counting   =       544.79910844     -546.89411201
  entropy T*S    EENTRO =        -0.00000000
  eigenvalues    EBANDS =      -109.65603246
  atomic energy  EATOM  =       457.33192828
  Solvation  Ediel_sol  =         0.00000000
  ---------------------------------------------------
  free energy    TOTEN  =       -14.21891334 eV

  energy without entropy =      -14.21891334  energy(sigma->0) =      -14.21891334


--------------------------------------------------------------------------------------------------------




--------------------------------------- Iteration      6(   5)  ---------------------------------------


    POTLOK:  cpu time      0.7168: real time      0.7176
    SETDIJ:  cpu time      0.0013: real time      0.0013
     EDDAV:  cpu time      0.7807: real time      0.8519
       DOS:  cpu time      0.0002: real time      0.0004
    --------------------------------------------
      LOOP:  cpu time      1.4990: real time      1.5711

 eigenvalue-minimisations  :    64
 total energy-change (2. order) :-0.8440961E-06  (-0.2741421E-07)
 number of electron       7.9999993 magnetization 
 augmentation part        0.6913402 magnetization 

 Free energy of the ion-electron system (eV)
  ---------------------------------------------------
  alpha Z        PSCENC =         0.02803141
  Ewald energy   TEWEN  =       121.82485508
  -Hartree energ DENC   =      -515.68114595
  -exchange      EXHF   =         0.00000000
  -V(xc)+E(xc)   XCENC  =        34.02505364
  PAW double counting   =       544.81260446     -546.90770333
  entropy T*S    EENTRO =        -0.00000000
  eigenvalues    EBANDS =      -109.65253777
  atomic energy  EATOM  =       457.33192828
  Solvation  Ediel_sol  =         0.00000000
  ---------------------------------------------------
  free energy    TOTEN  =       -14.21891418 eV

  energy without entropy =      -14.21891418  energy(sigma->0) =      -14.21891418


--------------------------------------------------------------------------------------------------------




 average (electrostatic) potential at core
  the test charge radii are     0.7215  0.5201
  (the norm of the test charge is              1.0000)
       1 -80.5591       2 -44.7023       3 -44.7023



 E-fermi :  -6.9352     XC(G=0):  -0.0937     alpha+bet : -0.0163

 Fermi energy:        -6.9351607797

 k-point     1 :       0.0000    0.0000    0.0000
  band No.  band energies     occupation 
      1     -25.2906      2.00000
      2     -13.0887      2.00000
      3      -9.2550      2.00000
      4      -7.1918      2.00000
      5      -0.9845      0.00000
      6       0.0196      0.00000
      7       0.2159      0.00000
      8       0.3145      0.00000
      9       0.3208      0.00000
     10       0.3526      0.00000
     11       0.3682      0.00000
     12       0.4729      0.00000
     13       0.5138      0.00000
     14       0.6344      0.00000
     15       0.6535      0.00000
     16       0.7079      0.00000
     17       0.7098      0.00000
     18       0.7197      0.00000
     19       0.7255      0.00000
     20       0.7394      0.00000
     21       0.7400      0.00000
     22       0.7445      0.00000
     23       0.7487      0.00000
     24       0.9490      0.00000
     25       0.9527      0.00000
     26       1.0449      0.00000
     27       1.0580      0.00000
     28       1.0751      0.00000
     29       1.0834      0.00000
     30       1.1080      0.00000
     31       1.1087      0.00000
     32       1.2682      0.00000


--------------------------------------------------------------------------------------------------------


 soft charge-density along one line, spin component           1
         0         1         2         3         4         5         6         7         8         9
 total charge-density along one line

 pseudopotential strength for first ion, spin component:           1
 13.806 -16.926  -0.000  -0.121   0.000   0.000   0.152  -0.000
-16.926  20.781   0.000   0.154  -0.000  -0.000  -0.195   0.000
 -0.000   0.000 -10.345   0.000   0.000  12.801  -0.000  -0.000
 -0.121   0.154   0.000 -10.486  -0.000  -0.000  12.991   0.000
  0.000  -0.000   0.000  -0.000 -10.583  -0.000   0.000  13.121
  0.000  -0.000  12.801  -0.000  -0.000 -15.764   0.000   0.000
  0.152  -0.195  -0.000  12.991   0.000   0.000 -16.021  -0.000
 -0.000   0.000  -0.000   0.000  13.121   0.000  -0.000 -16.196
 total augmentation occupancy for first ion, spin component:           1
  2.739   0.445   0.000   0.422   0.000   0.000   0.168   0.000
  0.445   0.125   0.000   0.411   0.000   0.000   0.074   0.000
  0.000   0.000   2.128   0.000   0.000   0.136   0.000   0.000
  0.422   0.411   0.000   2.292   0.000   0.000   0.329   0.000
  0.000   0.000   0.000   0.000   2.404   0.000   0.000   0.463
  0.000   0.000   0.136   0.000   0.000   0.009   0.000   0.000
  0.168   0.074   0.000   0.329   0.000   0.000   0.051   0.000
  0.000   0.000   0.000   0.000   0.463   0.000   0.000   0.089


------------------------ aborting loop because EDIFF is reached ----------------------------------------





 total charge

# of ion       s       p       d       tot
------------------------------------------
    1        1.566   3.601   0.000   5.167
    2        0.626   0.120   0.000   0.746
    3        0.626   0.120   0.000   0.746
--------------------------------------------------
tot          2.818   3.842   0.000   6.660

    CHARGE:  cpu time      0.4770: real time      0.4801
    FORLOC:  cpu time      0.0266: real time      0.0267
    FORNL :  cpu time      0.0333: real time      0.0333
    STRESS:  cpu time      1.4054: real time      1.4072
    FORCOR:  cpu time      0.5913: real time      0.5925
    FORHAR:  cpu time      0.1894: real time      0.1894
    MIXING:  cpu time      0.0159: real time      0.0159
    OFIELD:  cpu time      0.0000: real time      0.0000

 ---------------------------------------------------------------------------------------------

         DFTD3 V3.0 Rev 1        
 Edisp (eV)   -0.00978

 E6    (eV) :    -0.0075
 E8    (eV) :    -0.0023
 % E8        : 23.85
    FORVDW:  cpu time      0.0037: real time      0.0037

  FORCE on cell =-STRESS in cart. coord.  units (eV):
  Direction    XX          YY          ZZ          XY          YZ          ZX
  --------------------------------------------------------------------------------------
  Alpha Z     0.02803     0.02803     0.02803
  Ewald      98.78346   -21.81650    44.85793     0.00000    -0.00000    -0.00000
  Hartree   182.05530   160.79316   172.83263    -0.00000    -0.00000    -0.00000
  E(xc)     -35.92829   -36.42139   -36.12638     0.00000     0.00000     0.00000
  Local    -354.19641  -248.06723  -306.19431     0.00000     0.00000    -0.00000
  n-local   -30.20364   -30.85496   -31.01827    -0.00000    -0.00000     0.00000
  augment     5.78423     8.16897     6.74956     0.00000     0.00000    -0.00000
  Kinetic   133.62330   168.10955   148.81023     0.00000    -0.00000    -0.00000
  Fock        0.00000     0.00000     0.00000     0.00000     0.00000     0.00000
  vdW        -0.00006    -0.00000     0.00006    -0.00000     0.00000    -0.00000
  -------------------------------------------------------------------------------------
  Total      -0.05408    -0.06036    -0.06053     0.00000     0.00000     0.00000
  in kB      -0.01083    -0.01209    -0.01212     0.00000     0.00000     0.00000
  external pressure =       -0.01 kB  Pullay stress =        0.00 kB


 VOLUME and BASIS-vectors are now :
 -----------------------------------------------------------------------------
  energy-cutoff  :      520.00
  volume of cell :     8000.00
      direct lattice vectors                 reciprocal lattice vectors
    20.000000000  0.000000000  0.000000000     0.050000000  0.000000000  0.000000000
     0.000000000 20.000000000  0.000000000     0.000000000  0.050000000  0.000000000
     0.000000000  0.000000000 20.000000000     0.000000000  0.000000000  0.050000000

  length of vectors
    20.000000000 20.000000000 20.000000000     0.050000000  0.050000000  0.050000000


 FORCES acting on ions
    electron-ion (+dipol)            ewald-force                    non-local-force                 convergence-correction
 -----------------------------------------------------------------------------------------------
   0.428E-12 0.338E-12 0.629E+02   -.142E-13 0.522E-17 -.112E+03   0.323E-26 -.162E-26 0.490E+02   0.304E-14 0.114E-12 -.174E-02
   -.716E+02 0.279E-12 -.511E+02   0.784E+02 0.101E-17 0.560E+02   -.675E+01 -.917E-28 -.486E+01   -.460E-04 0.162E-13 -.389E-03
   0.716E+02 0.174E-13 -.511E+02   -.784E+02 0.645E-18 0.560E+02   0.675E+01 -.757E-28 -.486E+01   0.460E-04 0.164E-13 -.389E-03
 -----------------------------------------------------------------------------------------------
   0.175E-11 0.635E-12 -.393E+02   0.000E+00 0.688E-17 0.711E-14   0.000E+00 -.178E-26 0.393E+02   0.704E-14 0.146E-12 -.252E-02


 POSITION                                       TOTAL-FORCE (eV/Angst)
 -----------------------------------------------------------------------------------
     10.00000     10.00000      9.99574        -0.000000     -0.000000     -0.001806
     10.76854     10.00000     10.59083         0.001413      0.000000      0.000903
      9.23146     10.00000     10.59083        -0.001413      0.000000      0.000903
 -----------------------------------------------------------------------------------
    total drift:                                0.000000      0.000000      0.000062


--------------------------------------------------------------------------------------------------------



  FREE ENERGIE OF THE ION-ELECTRON SYSTEM (eV)
  ---------------------------------------------------
  free  energy   TOTEN  =       -14.22869738 eV

  energy  without entropy=      -14.22869738  energy(sigma->0) =      -14.22869738

 d Force = 0.1228865E-03[ 0.123E-05, 0.245E-03]  d Energy = 0.1149083E-03 0.798E-05
 d Force = 0.3304322E-01[ 0.342E-01, 0.318E-01]  d Ewald  = 0.3304315E-01 0.693E-07


--------------------------------------------------------------------------------------------------------


    POTLOK:  cpu time      0.8386: real time      0.8393


--------------------------------------------------------------------------------------------------------




--------------------------------------------------------------------------------------------------------


  
 reached required accuracy - stopping structural energy minimisation
     LOOP+:  cpu time     13.4509: real time     13.6372
    4ORBIT:  cpu time      0.0000: real time      0.0000



 total charge

# of ion       s       p       d       tot
------------------------------------------
    1        1.566   3.601   0.000   5.167
    2        0.626   0.120   0.000   0.746
    3        0.626   0.120   0.000   0.746
--------------------------------------------------
tot          2.818   3.842   0.000   6.660


 total amount of memory used by VASP MPI-rank0   300945. kBytes
=======================================================================

   base      :      30000. kBytes
   nonl-proj :      37931. kBytes
   fftplans  :      43557. kBytes
   grid      :     186000. kBytes
   one-center:          9. kBytes
   wavefun   :       3448. kBytes

  
  
 General timing and accounting informations for this job:
 ========================================================
  
                  Total CPU time used (sec):      188.528
                            User time (sec):      176.236
                          System time (sec):       12.292
                         Elapsed time (sec):      194.501
  
                   Maximum memory used (kb):      514384.
                   Average memory used (kb):          N/A
  
                          Minor page faults:       267231
                          Major page faults:          227
                 Voluntary context switches:         1897
