  16  16   0   0
  0.1928087E+02  0.6756921E-09  0.6756921E-09  0.6756921E-09  0.5000000E-15
   1.0000000000000000E-004
  CAR 
 relax                                   
     21.73421644    -48.53310024  301      5.83623604      1.00000000
    -48.533  0.0000E+00  0.0000E+00
    -48.299  0.0000E+00  0.0000E+00
    -48.065  0.0000E+00  0.0000E+00
    -47.830  0.0000E+00  0.0000E+00
    -47.596  0.0000E+00  0.0000E+00
    -47.362  0.0000E+00  0.0000E+00
    -47.128  0.0000E+00  0.0000E+00
    -46.894  0.0000E+00  0.0000E+00
    -46.659  0.0000E+00  0.0000E+00
    -46.425  0.0000E+00  0.0000E+00
    -46.191  0.0000E+00  0.0000E+00
    -45.957  0.0000E+00  0.0000E+00
    -45.722  0.0000E+00  0.0000E+00
    -45.488  0.1899E-05  0.4449E-06
    -45.254  0.2533E+00  0.5932E-01
    -45.020  0.2887E-02  0.6000E-01
    -44.786  0.0000E+00  0.6000E-01
    -44.551  0.0000E+00  0.6000E-01
    -44.317  0.0000E+00  0.6000E-01
    -44.083  0.0000E+00  0.6000E-01
    -43.849  0.0000E+00  0.6000E-01
    -43.614  0.0000E+00  0.6000E-01
    -43.380  0.0000E+00  0.6000E-01
    -43.146  0.0000E+00  0.6000E-01
    -42.912  0.0000E+00  0.6000E-01
    -42.677  0.0000E+00  0.6000E-01
    -42.443  0.0000E+00  0.6000E-01
    -42.209  0.0000E+00  0.6000E-01
    -41.975  0.0000E+00  0.6000E-01
    -41.741  0.0000E+00  0.6000E-01
    -41.506  0.0000E+00  0.6000E-01
    -41.272  0.0000E+00  0.6000E-01
    -41.038  0.0000E+00  0.6000E-01
    -40.804  0.0000E+00  0.6000E-01
    -40.569  0.0000E+00  0.6000E-01
    -40.335  0.0000E+00  0.6000E-01
    -40.101  0.0000E+00  0.6000E-01
    -39.867  0.0000E+00  0.6000E-01
    -39.633  0.0000E+00  0.6000E-01
    -39.398  0.0000E+00  0.6000E-01
    -39.164  0.0000E+00  0.6000E-01
    -38.930  0.0000E+00  0.6000E-01
    -38.696  0.0000E+00  0.6000E-01
    -38.461  0.0000E+00  0.6000E-01
    -38.227  0.0000E+00  0.6000E-01
    -37.993  0.0000E+00  0.6000E-01
    -37.759  0.0000E+00  0.6000E-01
    -37.525  0.0000E+00  0.6000E-01
    -37.290  0.0000E+00  0.6000E-01
    -37.056  0.0000E+00  0.6000E-01
    -36.822  0.0000E+00  0.6000E-01
    -36.588  0.0000E+00  0.6000E-01
    -36.353  0.0000E+00  0.6000E-01
    -36.119  0.0000E+00  0.6000E-01
    -35.885  0.0000E+00  0.6000E-01
    -35.651  0.0000E+00  0.6000E-01
    -35.417  0.0000E+00  0.6000E-01
    -35.182  0.0000E+00  0.6000E-01
    -34.948  0.0000E+00  0.6000E-01
    -34.714  0.0000E+00  0.6000E-01
    -34.480  0.0000E+00  0.6000E-01
    -34.245  0.0000E+00  0.6000E-01
    -34.011  0.0000E+00  0.6000E-01
    -33.777  0.0000E+00  0.6000E-01
    -33.543  0.0000E+00  0.6000E-01
    -33.309  0.0000E+00  0.6000E-01
    -33.074  0.0000E+00  0.6000E-01
    -32.840  0.0000E+00  0.6000E-01
    -32.606  0.0000E+00  0.6000E-01
    -32.372  0.0000E+00  0.6000E-01
    -32.137  0.0000E+00  0.6000E-01
    -31.903  0.0000E+00  0.6000E-01
    -31.669  0.0000E+00  0.6000E-01
    -31.435  0.0000E+00  0.6000E-01
    -31.200  0.0000E+00  0.6000E-01
    -30.966  0.0000E+00  0.6000E-01
    -30.732  0.0000E+00  0.6000E-01
    -30.498  0.0000E+00  0.6000E-01
    -30.264  0.0000E+00  0.6000E-01
    -30.029  0.0000E+00  0.6000E-01
    -29.795  0.0000E+00  0.6000E-01
    -29.561  0.0000E+00  0.6000E-01
    -29.327  0.0000E+00  0.6000E-01
    -29.092  0.0000E+00  0.6000E-01
    -28.858  0.0000E+00  0.6000E-01
    -28.624  0.0000E+00  0.6000E-01
    -28.390  0.0000E+00  0.6000E-01
    -28.156  0.0000E+00  0.6000E-01
    -27.921  0.0000E+00  0.6000E-01
    -27.687  0.0000E+00  0.6000E-01
    -27.453  0.0000E+00  0.6000E-01
    -27.219  0.0000E+00  0.6000E-01
    -26.984  0.0000E+00  0.6000E-01
    -26.750  0.0000E+00  0.6000E-01
    -26.516  0.0000E+00  0.6000E-01
    -26.282  0.0000E+00  0.6000E-01
    -26.048  0.0000E+00  0.6000E-01
    -25.813  0.0000E+00  0.6000E-01
    -25.579  0.0000E+00  0.6000E-01
    -25.345  0.0000E+00  0.6000E-01
    -25.111  0.0000E+00  0.6000E-01
    -24.876  0.0000E+00  0.6000E-01
    -24.642  0.0000E+00  0.6000E-01
    -24.408  0.0000E+00  0.6000E-01
    -24.174  0.0000E+00  0.6000E-01
    -23.940  0.0000E+00  0.6000E-01
    -23.705  0.0000E+00  0.6000E-01
    -23.471  0.0000E+00  0.6000E-01
    -23.237  0.0000E+00  0.6000E-01
    -23.003  0.0000E+00  0.6000E-01
    -22.768  0.0000E+00  0.6000E-01
    -22.534  0.0000E+00  0.6000E-01
    -22.300  0.0000E+00  0.6000E-01
    -22.066  0.0000E+00  0.6000E-01
    -21.832  0.0000E+00  0.6000E-01
    -21.597  0.0000E+00  0.6000E-01
    -21.363  0.0000E+00  0.6000E-01
    -21.129  0.0000E+00  0.6000E-01
    -20.895  0.0000E+00  0.6000E-01
    -20.660  0.0000E+00  0.6000E-01
    -20.426  0.0000E+00  0.6000E-01
    -20.192  0.0000E+00  0.6000E-01
    -19.958  0.0000E+00  0.6000E-01
    -19.724  0.0000E+00  0.6000E-01
    -19.489  0.0000E+00  0.6000E-01
    -19.255  0.0000E+00  0.6000E-01
    -19.021  0.0000E+00  0.6000E-01
    -18.787  0.0000E+00  0.6000E-01
    -18.552  0.0000E+00  0.6000E-01
    -18.318  0.0000E+00  0.6000E-01
    -18.084  0.0000E+00  0.6000E-01
    -17.850  0.0000E+00  0.6000E-01
    -17.615  0.0000E+00  0.6000E-01
    -17.381  0.5398E-05  0.6000E-01
    -17.147  0.6741E+00  0.2179E+00
    -16.913  0.9443E-01  0.2400E+00
    -16.679  0.0000E+00  0.2400E+00
    -16.444  0.0000E+00  0.2400E+00
    -16.210  0.0000E+00  0.2400E+00
    -15.976  0.0000E+00  0.2400E+00
    -15.742  0.0000E+00  0.2400E+00
    -15.507  0.0000E+00  0.2400E+00
    -15.273  0.0000E+00  0.2400E+00
    -15.039  0.0000E+00  0.2400E+00
    -14.805  0.0000E+00  0.2400E+00
    -14.571  0.0000E+00  0.2400E+00
    -14.336  0.0000E+00  0.2400E+00
    -14.102  0.0000E+00  0.2400E+00
    -13.868  0.0000E+00  0.2400E+00
    -13.634  0.0000E+00  0.2400E+00
    -13.399  0.0000E+00  0.2400E+00
    -13.165  0.0000E+00  0.2400E+00
    -12.931  0.0000E+00  0.2400E+00
    -12.697  0.0000E+00  0.2400E+00
    -12.463  0.0000E+00  0.2400E+00
    -12.228  0.0000E+00  0.2400E+00
    -11.994  0.0000E+00  0.2400E+00
    -11.760  0.0000E+00  0.2400E+00
    -11.526  0.0000E+00  0.2400E+00
    -11.291  0.0000E+00  0.2400E+00
    -11.057  0.0000E+00  0.2400E+00
    -10.823  0.0000E+00  0.2400E+00
    -10.589  0.0000E+00  0.2400E+00
    -10.355  0.0000E+00  0.2400E+00
    -10.120  0.0000E+00  0.2400E+00
     -9.886  0.0000E+00  0.2400E+00
     -9.652  0.0000E+00  0.2400E+00
     -9.418  0.5964E-15  0.2400E+00
     -9.183  0.2238E-03  0.2401E+00
     -8.949  0.6206E-02  0.2415E+00
     -8.715  0.1241E-01  0.2444E+00
     -8.481  0.4690E-01  0.2554E+00
     -8.247  0.1579E-01  0.2591E+00
     -8.012  0.3207E-02  0.2598E+00
     -7.778  0.6489E-03  0.2600E+00
     -7.544  0.0000E+00  0.2600E+00
     -7.310  0.1976E-10  0.2600E+00
     -7.075  0.4654E-02  0.2611E+00
     -6.841  0.6721E-01  0.2768E+00
     -6.607  0.5947E-01  0.2908E+00
     -6.373  0.6172E-01  0.3052E+00
     -6.138  0.6308E-01  0.3200E+00
     -5.904  0.2319E-04  0.3200E+00
     -5.670  0.0000E+00  0.3200E+00
     -5.436  0.0000E+00  0.3200E+00
     -5.202  0.0000E+00  0.3200E+00
     -4.967  0.0000E+00  0.3200E+00
     -4.733  0.0000E+00  0.3200E+00
     -4.499  0.0000E+00  0.3200E+00
     -4.265  0.0000E+00  0.3200E+00
     -4.030  0.0000E+00  0.3200E+00
     -3.796  0.0000E+00  0.3200E+00
     -3.562  0.0000E+00  0.3200E+00
     -3.328  0.0000E+00  0.3200E+00
     -3.094  0.0000E+00  0.3200E+00
     -2.859  0.8245E-05  0.3200E+00
     -2.625  0.3485E-01  0.3282E+00
     -2.391  0.4760E-01  0.3393E+00
     -2.157  0.2803E-02  0.3400E+00
     -1.922  0.1323E-03  0.3400E+00
     -1.688  0.0000E+00  0.3400E+00
     -1.454  0.0000E+00  0.3400E+00
     -1.220  0.0000E+00  0.3400E+00
     -0.986  0.0000E+00  0.3400E+00
     -0.751  0.0000E+00  0.3400E+00
     -0.517  0.0000E+00  0.3400E+00
     -0.283  0.1475E-03  0.3400E+00
     -0.049  0.1385E-01  0.3433E+00
      0.186  0.4300E-01  0.3533E+00
      0.420  0.2663E-01  0.3596E+00
      0.654  0.1129E-02  0.3599E+00
      0.888  0.3412E-01  0.3678E+00
      1.122  0.3521E-01  0.3761E+00
      1.357  0.1806E-01  0.3803E+00
      1.591  0.2328E-01  0.3858E+00
      1.825  0.3980E-01  0.3951E+00
      2.059  0.2396E-01  0.4007E+00
      2.294  0.4797E-01  0.4119E+00
      2.528  0.5300E-01  0.4244E+00
      2.762  0.5004E-01  0.4361E+00
      2.996  0.2552E-01  0.4421E+00
      3.230  0.4047E-01  0.4515E+00
      3.465  0.7213E-01  0.4684E+00
      3.699  0.4535E-01  0.4791E+00
      3.933  0.5696E-01  0.4924E+00
      4.167  0.3409E-01  0.5004E+00
      4.402  0.3548E-01  0.5087E+00
      4.636  0.5314E-01  0.5211E+00
      4.870  0.5738E-01  0.5346E+00
      5.104  0.6765E-01  0.5504E+00
      5.339  0.3143E-01  0.5578E+00
      5.573  0.9367E-02  0.5600E+00
      5.807  0.1013E-03  0.5600E+00
      6.041  0.0000E+00  0.5600E+00
      6.275  0.0000E+00  0.5600E+00
      6.510  0.0000E+00  0.5600E+00
      6.744  0.0000E+00  0.5600E+00
      6.978  0.3613E-14  0.5600E+00
      7.212  0.6012E-02  0.5614E+00
      7.447  0.7415E-01  0.5788E+00
      7.681  0.5222E-02  0.5800E+00
      7.915  0.0000E+00  0.5800E+00
      8.149  0.7216E-05  0.5800E+00
      8.383  0.1191E-01  0.5828E+00
      8.618  0.1977E-01  0.5874E+00
      8.852  0.4080E-01  0.5970E+00
      9.086  0.1250E-01  0.5999E+00
      9.320  0.9447E-02  0.6021E+00
      9.555  0.3544E-01  0.6104E+00
      9.789  0.2810E-01  0.6170E+00
     10.023  0.7780E-02  0.6188E+00
     10.257  0.3073E-01  0.6260E+00
     10.491  0.3945E-01  0.6353E+00
     10.726  0.3424E-01  0.6433E+00
     10.960  0.1669E-01  0.6472E+00
     11.194  0.1984E-01  0.6518E+00
     11.428  0.2563E-01  0.6578E+00
     11.663  0.1914E-01  0.6623E+00
     11.897  0.4439E-01  0.6727E+00
     12.131  0.4979E-01  0.6844E+00
     12.365  0.2720E-01  0.6908E+00
     12.599  0.5863E-01  0.7045E+00
     12.834  0.6592E-01  0.7199E+00
     13.068  0.6907E-01  0.7361E+00
     13.302  0.2023E-01  0.7408E+00
     13.536  0.2477E-01  0.7466E+00
     13.771  0.4101E-01  0.7562E+00
     14.005  0.6680E-01  0.7719E+00
     14.239  0.5137E-01  0.7839E+00
     14.473  0.4278E-01  0.7939E+00
     14.707  0.3310E-01  0.8017E+00
     14.942  0.6228E-01  0.8163E+00
     15.176  0.5469E-01  0.8291E+00
     15.410  0.6433E-01  0.8442E+00
     15.644  0.5180E-01  0.8563E+00
     15.879  0.4561E-01  0.8670E+00
     16.113  0.2802E-01  0.8735E+00
     16.347  0.3994E-01  0.8829E+00
     16.581  0.4484E-01  0.8934E+00
     16.816  0.4241E-01  0.9033E+00
     17.050  0.5726E-01  0.9167E+00
     17.284  0.2875E-01  0.9235E+00
     17.518  0.6119E-01  0.9378E+00
     17.752  0.4642E-01  0.9487E+00
     17.987  0.3034E-01  0.9558E+00
     18.221  0.1264E-01  0.9587E+00
     18.455  0.4279E-04  0.9588E+00
     18.689  0.5294E-02  0.9600E+00
     18.924  0.6641E-07  0.9600E+00
     19.158  0.0000E+00  0.9600E+00
     19.392  0.0000E+00  0.9600E+00
     19.626  0.0000E+00  0.9600E+00
     19.860  0.0000E+00  0.9600E+00
     20.095  0.0000E+00  0.9600E+00
     20.329  0.0000E+00  0.9600E+00
     20.563  0.0000E+00  0.9600E+00
     20.797  0.0000E+00  0.9600E+00
     21.032  0.0000E+00  0.9600E+00
     21.266  0.0000E+00  0.9600E+00
     21.500  0.0000E+00  0.9600E+00
     21.734  0.0000E+00  0.9600E+00
