  16  16   0   0
  0.2300867E+02  0.7166997E-09  0.7166997E-09  0.7166997E-09  0.5000000E-15
   1.0000000000000000E-004
  CAR 
 relax                                   
     19.55529016    -49.73738942  301      4.57074820      1.00000000
    -49.737  0.0000E+00  0.0000E+00
    -49.506  0.0000E+00  0.0000E+00
    -49.275  0.0000E+00  0.0000E+00
    -49.044  0.0000E+00  0.0000E+00
    -48.813  0.0000E+00  0.0000E+00
    -48.583  0.0000E+00  0.0000E+00
    -48.352  0.0000E+00  0.0000E+00
    -48.121  0.0000E+00  0.0000E+00
    -47.890  0.0000E+00  0.0000E+00
    -47.659  0.0000E+00  0.0000E+00
    -47.428  0.0000E+00  0.0000E+00
    -47.197  0.0000E+00  0.0000E+00
    -46.966  0.0000E+00  0.0000E+00
    -46.735  0.6170E-05  0.1425E-05
    -46.504  0.5140E+00  0.1187E+00
    -46.273  0.5538E-02  0.1200E+00
    -46.042  0.0000E+00  0.1200E+00
    -45.811  0.0000E+00  0.1200E+00
    -45.580  0.0000E+00  0.1200E+00
    -45.349  0.0000E+00  0.1200E+00
    -45.118  0.0000E+00  0.1200E+00
    -44.887  0.0000E+00  0.1200E+00
    -44.656  0.0000E+00  0.1200E+00
    -44.425  0.0000E+00  0.1200E+00
    -44.194  0.0000E+00  0.1200E+00
    -43.963  0.0000E+00  0.1200E+00
    -43.732  0.0000E+00  0.1200E+00
    -43.501  0.0000E+00  0.1200E+00
    -43.270  0.0000E+00  0.1200E+00
    -43.039  0.0000E+00  0.1200E+00
    -42.808  0.0000E+00  0.1200E+00
    -42.577  0.0000E+00  0.1200E+00
    -42.346  0.0000E+00  0.1200E+00
    -42.115  0.0000E+00  0.1200E+00
    -41.884  0.0000E+00  0.1200E+00
    -41.653  0.0000E+00  0.1200E+00
    -41.422  0.0000E+00  0.1200E+00
    -41.191  0.0000E+00  0.1200E+00
    -40.960  0.0000E+00  0.1200E+00
    -40.729  0.0000E+00  0.1200E+00
    -40.498  0.0000E+00  0.1200E+00
    -40.267  0.0000E+00  0.1200E+00
    -40.036  0.0000E+00  0.1200E+00
    -39.805  0.0000E+00  0.1200E+00
    -39.574  0.0000E+00  0.1200E+00
    -39.343  0.0000E+00  0.1200E+00
    -39.113  0.0000E+00  0.1200E+00
    -38.882  0.0000E+00  0.1200E+00
    -38.651  0.0000E+00  0.1200E+00
    -38.420  0.0000E+00  0.1200E+00
    -38.189  0.0000E+00  0.1200E+00
    -37.958  0.0000E+00  0.1200E+00
    -37.727  0.0000E+00  0.1200E+00
    -37.496  0.0000E+00  0.1200E+00
    -37.265  0.0000E+00  0.1200E+00
    -37.034  0.0000E+00  0.1200E+00
    -36.803  0.0000E+00  0.1200E+00
    -36.572  0.0000E+00  0.1200E+00
    -36.341  0.0000E+00  0.1200E+00
    -36.110  0.0000E+00  0.1200E+00
    -35.879  0.0000E+00  0.1200E+00
    -35.648  0.0000E+00  0.1200E+00
    -35.417  0.0000E+00  0.1200E+00
    -35.186  0.0000E+00  0.1200E+00
    -34.955  0.0000E+00  0.1200E+00
    -34.724  0.0000E+00  0.1200E+00
    -34.493  0.0000E+00  0.1200E+00
    -34.262  0.0000E+00  0.1200E+00
    -34.031  0.0000E+00  0.1200E+00
    -33.800  0.0000E+00  0.1200E+00
    -33.569  0.0000E+00  0.1200E+00
    -33.338  0.0000E+00  0.1200E+00
    -33.107  0.0000E+00  0.1200E+00
    -32.876  0.0000E+00  0.1200E+00
    -32.645  0.0000E+00  0.1200E+00
    -32.414  0.0000E+00  0.1200E+00
    -32.183  0.0000E+00  0.1200E+00
    -31.952  0.0000E+00  0.1200E+00
    -31.721  0.0000E+00  0.1200E+00
    -31.490  0.0000E+00  0.1200E+00
    -31.259  0.0000E+00  0.1200E+00
    -31.028  0.0000E+00  0.1200E+00
    -30.797  0.0000E+00  0.1200E+00
    -30.566  0.0000E+00  0.1200E+00
    -30.335  0.0000E+00  0.1200E+00
    -30.104  0.0000E+00  0.1200E+00
    -29.873  0.0000E+00  0.1200E+00
    -29.643  0.0000E+00  0.1200E+00
    -29.412  0.0000E+00  0.1200E+00
    -29.181  0.0000E+00  0.1200E+00
    -28.950  0.0000E+00  0.1200E+00
    -28.719  0.0000E+00  0.1200E+00
    -28.488  0.0000E+00  0.1200E+00
    -28.257  0.0000E+00  0.1200E+00
    -28.026  0.0000E+00  0.1200E+00
    -27.795  0.0000E+00  0.1200E+00
    -27.564  0.0000E+00  0.1200E+00
    -27.333  0.0000E+00  0.1200E+00
    -27.102  0.0000E+00  0.1200E+00
    -26.871  0.0000E+00  0.1200E+00
    -26.640  0.0000E+00  0.1200E+00
    -26.409  0.0000E+00  0.1200E+00
    -26.178  0.0000E+00  0.1200E+00
    -25.947  0.0000E+00  0.1200E+00
    -25.716  0.0000E+00  0.1200E+00
    -25.485  0.0000E+00  0.1200E+00
    -25.254  0.0000E+00  0.1200E+00
    -25.023  0.0000E+00  0.1200E+00
    -24.792  0.0000E+00  0.1200E+00
    -24.561  0.0000E+00  0.1200E+00
    -24.330  0.0000E+00  0.1200E+00
    -24.099  0.0000E+00  0.1200E+00
    -23.868  0.0000E+00  0.1200E+00
    -23.637  0.0000E+00  0.1200E+00
    -23.406  0.0000E+00  0.1200E+00
    -23.175  0.0000E+00  0.1200E+00
    -22.944  0.0000E+00  0.1200E+00
    -22.713  0.0000E+00  0.1200E+00
    -22.482  0.0000E+00  0.1200E+00
    -22.251  0.0000E+00  0.1200E+00
    -22.020  0.0000E+00  0.1200E+00
    -21.789  0.0000E+00  0.1200E+00
    -21.558  0.0000E+00  0.1200E+00
    -21.327  0.0000E+00  0.1200E+00
    -21.096  0.0000E+00  0.1200E+00
    -20.865  0.0000E+00  0.1200E+00
    -20.634  0.0000E+00  0.1200E+00
    -20.403  0.0000E+00  0.1200E+00
    -20.173  0.0000E+00  0.1200E+00
    -19.942  0.0000E+00  0.1200E+00
    -19.711  0.0000E+00  0.1200E+00
    -19.480  0.0000E+00  0.1200E+00
    -19.249  0.0000E+00  0.1200E+00
    -19.018  0.0000E+00  0.1200E+00
    -18.787  0.6985E-17  0.1200E+00
    -18.556  0.1660E-01  0.1238E+00
    -18.325  0.1542E+01  0.4800E+00
    -18.094  0.1428E-03  0.4800E+00
    -17.863  0.0000E+00  0.4800E+00
    -17.632  0.0000E+00  0.4800E+00
    -17.401  0.0000E+00  0.4800E+00
    -17.170  0.0000E+00  0.4800E+00
    -16.939  0.0000E+00  0.4800E+00
    -16.708  0.0000E+00  0.4800E+00
    -16.477  0.0000E+00  0.4800E+00
    -16.246  0.0000E+00  0.4800E+00
    -16.015  0.0000E+00  0.4800E+00
    -15.784  0.0000E+00  0.4800E+00
    -15.553  0.0000E+00  0.4800E+00
    -15.322  0.0000E+00  0.4800E+00
    -15.091  0.0000E+00  0.4800E+00
    -14.860  0.0000E+00  0.4800E+00
    -14.629  0.0000E+00  0.4800E+00
    -14.398  0.0000E+00  0.4800E+00
    -14.167  0.0000E+00  0.4800E+00
    -13.936  0.0000E+00  0.4800E+00
    -13.705  0.0000E+00  0.4800E+00
    -13.474  0.0000E+00  0.4800E+00
    -13.243  0.0000E+00  0.4800E+00
    -13.012  0.0000E+00  0.4800E+00
    -12.781  0.0000E+00  0.4800E+00
    -12.550  0.0000E+00  0.4800E+00
    -12.319  0.0000E+00  0.4800E+00
    -12.088  0.0000E+00  0.4800E+00
    -11.857  0.0000E+00  0.4800E+00
    -11.626  0.0000E+00  0.4800E+00
    -11.395  0.0000E+00  0.4800E+00
    -11.164  0.0000E+00  0.4800E+00
    -10.933  0.0000E+00  0.4800E+00
    -10.703  0.0000E+00  0.4800E+00
    -10.472  0.0000E+00  0.4800E+00
    -10.241  0.0000E+00  0.4800E+00
    -10.010  0.8926E-09  0.4800E+00
     -9.779  0.2393E-02  0.4806E+00
     -9.548  0.3252E-01  0.4881E+00
     -9.317  0.1022E+00  0.5117E+00
     -9.086  0.3454E-01  0.5196E+00
     -8.855  0.1543E-02  0.5200E+00
     -8.624  0.8217E-07  0.5200E+00
     -8.393  0.0000E+00  0.5200E+00
     -8.162  0.3712E-14  0.5200E+00
     -7.931  0.2804E-02  0.5206E+00
     -7.700  0.1562E+00  0.5567E+00
     -7.469  0.1788E+00  0.5980E+00
     -7.238  0.1811E+00  0.6398E+00
     -7.007  0.6599E-03  0.6400E+00
     -6.776  0.0000E+00  0.6400E+00
     -6.545  0.0000E+00  0.6400E+00
     -6.314  0.0000E+00  0.6400E+00
     -6.083  0.0000E+00  0.6400E+00
     -5.852  0.0000E+00  0.6400E+00
     -5.621  0.0000E+00  0.6400E+00
     -5.390  0.0000E+00  0.6400E+00
     -5.159  0.0000E+00  0.6400E+00
     -4.928  0.0000E+00  0.6400E+00
     -4.697  0.0000E+00  0.6400E+00
     -4.466  0.0000E+00  0.6400E+00
     -4.235  0.0000E+00  0.6400E+00
     -4.004  0.0000E+00  0.6400E+00
     -3.773  0.1968E-06  0.6400E+00
     -3.542  0.8620E-01  0.6599E+00
     -3.311  0.8685E-01  0.6800E+00
     -3.080  0.1327E-03  0.6800E+00
     -2.849  0.0000E+00  0.6800E+00
     -2.618  0.0000E+00  0.6800E+00
     -2.387  0.0000E+00  0.6800E+00
     -2.156  0.0000E+00  0.6800E+00
     -1.925  0.0000E+00  0.6800E+00
     -1.694  0.0000E+00  0.6800E+00
     -1.463  0.0000E+00  0.6800E+00
     -1.233  0.0000E+00  0.6800E+00
     -1.002  0.5888E-07  0.6800E+00
     -0.771  0.2387E-01  0.6855E+00
     -0.540  0.9710E-01  0.7079E+00
     -0.309  0.5049E-01  0.7196E+00
     -0.078  0.2728E-01  0.7259E+00
      0.153  0.1075E+00  0.7507E+00
      0.384  0.3066E-01  0.7578E+00
      0.615  0.3691E-01  0.7663E+00
      0.846  0.6436E-01  0.7812E+00
      1.077  0.1094E+00  0.8065E+00
      1.308  0.6053E-01  0.8204E+00
      1.539  0.5319E-01  0.8327E+00
      1.770  0.1241E+00  0.8614E+00
      2.001  0.6967E-01  0.8775E+00
      2.232  0.7759E-01  0.8954E+00
      2.463  0.1546E+00  0.9311E+00
      2.694  0.1387E+00  0.9632E+00
      2.925  0.1078E+00  0.9881E+00
      3.156  0.9302E-01  0.1010E+01
      3.387  0.1003E+00  0.1033E+01
      3.618  0.1654E+00  0.1071E+01
      3.849  0.1603E+00  0.1108E+01
      4.080  0.4024E-01  0.1117E+01
      4.311  0.1191E-01  0.1120E+01
      4.542  0.4301E-06  0.1120E+01
      4.773  0.0000E+00  0.1120E+01
      5.004  0.0000E+00  0.1120E+01
      5.235  0.0000E+00  0.1120E+01
      5.466  0.0000E+00  0.1120E+01
      5.697  0.5160E-16  0.1120E+01
      5.928  0.2337E-03  0.1120E+01
      6.159  0.6629E-01  0.1135E+01
      6.390  0.1066E+00  0.1160E+01
      6.621  0.9391E-04  0.1160E+01
      6.852  0.0000E+00  0.1160E+01
      7.083  0.2015E-11  0.1160E+01
      7.314  0.1163E-01  0.1163E+01
      7.545  0.4227E-01  0.1172E+01
      7.776  0.9318E-01  0.1194E+01
      8.007  0.4358E-01  0.1204E+01
      8.237  0.5166E-01  0.1216E+01
      8.468  0.8425E-01  0.1235E+01
      8.699  0.3188E-01  0.1243E+01
      8.930  0.4183E-01  0.1252E+01
      9.161  0.9313E-01  0.1274E+01
      9.392  0.4239E-01  0.1284E+01
      9.623  0.3752E-01  0.1292E+01
      9.854  0.8967E-01  0.1313E+01
     10.085  0.4184E-01  0.1323E+01
     10.316  0.4554E-01  0.1333E+01
     10.547  0.8657E-01  0.1353E+01
     10.778  0.1407E+00  0.1386E+01
     11.009  0.7310E-01  0.1403E+01
     11.240  0.8840E-01  0.1423E+01
     11.471  0.1114E+00  0.1449E+01
     11.702  0.9562E-01  0.1471E+01
     11.933  0.5752E-01  0.1484E+01
     12.164  0.9774E-01  0.1507E+01
     12.395  0.9721E-01  0.1529E+01
     12.626  0.1150E+00  0.1556E+01
     12.857  0.1360E+00  0.1587E+01
     13.088  0.6843E-01  0.1603E+01
     13.319  0.1324E+00  0.1634E+01
     13.550  0.9280E-01  0.1655E+01
     13.781  0.1812E+00  0.1697E+01
     14.012  0.1186E+00  0.1724E+01
     14.243  0.5221E-01  0.1736E+01
     14.474  0.8210E-01  0.1755E+01
     14.705  0.8240E-01  0.1774E+01
     14.936  0.5291E-01  0.1787E+01
     15.167  0.1116E+00  0.1812E+01
     15.398  0.1185E+00  0.1840E+01
     15.629  0.3591E-01  0.1848E+01
     15.860  0.1012E+00  0.1871E+01
     16.091  0.1570E+00  0.1908E+01
     16.322  0.3791E-01  0.1916E+01
     16.553  0.1561E-01  0.1920E+01
     16.784  0.2178E-07  0.1920E+01
     17.015  0.0000E+00  0.1920E+01
     17.246  0.0000E+00  0.1920E+01
     17.477  0.0000E+00  0.1920E+01
     17.707  0.0000E+00  0.1920E+01
     17.938  0.0000E+00  0.1920E+01
     18.169  0.0000E+00  0.1920E+01
     18.400  0.0000E+00  0.1920E+01
     18.631  0.0000E+00  0.1920E+01
     18.862  0.0000E+00  0.1920E+01
     19.093  0.0000E+00  0.1920E+01
     19.324  0.0000E+00  0.1920E+01
     19.555  0.0000E+00  0.1920E+01
