       N       E                     dE             d eps       ncg     rms          rms(c)
DAV:   1     0.108882478667E+04    0.10888E+04   -0.53531E+04  1920   0.104E+03
DAV:   2     0.364036361887E+02   -0.10524E+04   -0.10186E+04  2720   0.291E+02
DAV:   3    -0.618059212822E+02   -0.98210E+02   -0.97866E+02  3200   0.922E+01
DAV:   4    -0.641048411326E+02   -0.22989E+01   -0.22982E+01  2560   0.133E+01
DAV:   5    -0.641542274617E+02   -0.49386E-01   -0.49386E-01  2880   0.138E+00    0.168E+01
DAV:   6    -0.609297132867E+02    0.32245E+01   -0.63524E+00  2208   0.495E+00    0.126E+01
DAV:   7    -0.607677220939E+02    0.16199E+00   -0.18179E+00  2528   0.255E+00    0.503E+00
DAV:   8    -0.607724686098E+02   -0.47465E-02   -0.18200E-01  2592   0.985E-01    0.176E+00
DAV:   9    -0.607779253148E+02   -0.54567E-02   -0.23924E-02  2496   0.421E-01    0.377E-01
DAV:  10    -0.607781387594E+02   -0.21344E-03   -0.12890E-03  2464   0.994E-02    0.176E-01
DAV:  11    -0.607787268771E+02   -0.58812E-03   -0.93397E-04  2688   0.915E-02    0.665E-02
DAV:  12    -0.607787191125E+02    0.77646E-05   -0.36056E-05  2784   0.178E-02    0.355E-02
DAV:  13    -0.607787297139E+02   -0.10601E-04   -0.17578E-05  2432   0.110E-02    0.565E-03
DAV:  14    -0.607787298074E+02   -0.93542E-07   -0.12287E-06  2112   0.292E-03
   1 F= -.60778730E+02 E0= -.60778730E+02  d E =-.607787E+02
       N       E                     dE             d eps       ncg     rms          rms(c)
DAV:   1    -0.172410972843E+03   -0.11163E+03   -0.30817E+03  2272   0.255E+02    0.104E+02
DAV:   2    -0.661692527946E+02    0.10624E+03   -0.22074E+02  2144   0.974E+01    0.361E+01
DAV:   3    -0.562799246302E+02    0.98893E+01   -0.85501E+01  2784   0.275E+01    0.843E+00
DAV:   4    -0.559031056754E+02    0.37682E+00   -0.27458E+00  2624   0.800E+00    0.748E+00
DAV:   5    -0.558699951564E+02    0.33111E-01   -0.16940E-01  3136   0.128E+00    0.560E+00
DAV:   6    -0.558875424858E+02   -0.17547E-01   -0.14602E-01  3360   0.867E-01    0.796E-01
DAV:   7    -0.558892642043E+02   -0.17217E-02   -0.72631E-03  3040   0.314E-01    0.153E-01
DAV:   8    -0.558893837623E+02   -0.11956E-03   -0.40459E-04  2944   0.535E-02    0.714E-02
DAV:   9    -0.558893608887E+02    0.22874E-04   -0.36876E-05  2816   0.267E-02    0.204E-02
DAV:  10    -0.558893641070E+02   -0.32182E-05   -0.26663E-06  2528   0.728E-03    0.468E-03
DAV:  11    -0.558893637214E+02    0.38552E-06   -0.28557E-07  1664   0.181E-03
   2 F= -.55889364E+02 E0= -.55889364E+02  d E =0.488937E+01
       N       E                     dE             d eps       ncg     rms          rms(c)
DAV:   1    -0.102899578609E+03   -0.47010E+02   -0.13886E+03  2496   0.204E+02    0.513E+01
DAV:   2    -0.706518574414E+02    0.32248E+02   -0.84665E+01  2368   0.438E+01    0.228E+01
DAV:   3    -0.633772419204E+02    0.72746E+01   -0.25497E+01  2624   0.212E+01    0.346E+00
DAV:   4    -0.632021547130E+02    0.17509E+00   -0.19581E+00  2848   0.529E+00    0.213E+00
DAV:   5    -0.631604901096E+02    0.41665E-01   -0.75977E-02  3328   0.910E-01    0.114E+00
DAV:   6    -0.631454543029E+02    0.15036E-01   -0.36048E-02  2752   0.854E-01    0.414E-01
DAV:   7    -0.631442239905E+02    0.12303E-02   -0.32172E-03  3296   0.198E-01    0.224E-01
DAV:   8    -0.631441591154E+02    0.64875E-04   -0.49886E-04  2144   0.103E-01    0.834E-02
DAV:   9    -0.631441081006E+02    0.51015E-04   -0.20843E-04  3168   0.584E-02    0.239E-02
DAV:  10    -0.631441088193E+02   -0.71875E-06   -0.98468E-06  2176   0.148E-02
   3 F= -.63144109E+02 E0= -.63144109E+02  d E =-.236538E+01
       N       E                     dE             d eps       ncg     rms          rms(c)
DAV:   1    -0.631886470043E+02   -0.44539E-01   -0.11570E+00  2336   0.535E+00    0.170E+00
DAV:   2    -0.631554676923E+02    0.33179E-01   -0.71405E-02  2464   0.130E+00    0.682E-01
DAV:   3    -0.631508304380E+02    0.46373E-02   -0.27617E-02  2688   0.585E-01    0.147E-01
DAV:   4    -0.631507281538E+02    0.10228E-03   -0.90168E-04  2656   0.139E-01    0.114E-01
DAV:   5    -0.631507293920E+02   -0.12382E-05   -0.10073E-04  3520   0.244E-02    0.679E-02
DAV:   6    -0.631507347515E+02   -0.53595E-05   -0.67451E-05  2688   0.391E-02    0.136E-02
DAV:   7    -0.631507388913E+02   -0.41398E-05   -0.31942E-06  2560   0.750E-03    0.873E-03
DAV:   8    -0.631507389305E+02   -0.39186E-07   -0.33922E-07  1504   0.176E-03
   4 F= -.63150739E+02 E0= -.63150739E+02  d E =-.237201E+01
       N       E                     dE             d eps       ncg     rms          rms(c)
DAV:   1    -0.643590434001E+02   -0.12083E+01   -0.64335E+01  1920   0.297E+01    0.870E+00
DAV:   2    -0.640401796603E+02    0.31886E+00   -0.47365E+00  2496   0.824E+00    0.282E+00
DAV:   3    -0.639477696107E+02    0.92410E-01   -0.36365E-01  2560   0.212E+00    0.198E+00
DAV:   4    -0.639453544323E+02    0.24152E-02   -0.25120E-02  2592   0.476E-01    0.128E+00
DAV:   5    -0.639448161825E+02    0.53825E-03   -0.18627E-02  3264   0.323E-01    0.355E-01
DAV:   6    -0.639443562795E+02    0.45990E-03   -0.13771E-03  2688   0.118E-01    0.798E-02
DAV:   7    -0.639443819866E+02   -0.25707E-04   -0.62559E-05  2528   0.241E-02    0.251E-02
DAV:   8    -0.639443814563E+02    0.53031E-06   -0.66651E-06  2720   0.101E-02
   5 F= -.63944381E+02 E0= -.63944381E+02  d E =-.793643E+00
       N       E                     dE             d eps       ncg     rms          rms(c)
DAV:   1    -0.642682206689E+02   -0.32384E+00   -0.30276E+01  1920   0.206E+01    0.539E+00
DAV:   2    -0.641187405938E+02    0.14948E+00   -0.21617E+00  2528   0.566E+00    0.188E+00
DAV:   3    -0.640713520525E+02    0.47389E-01   -0.19940E-01  2528   0.161E+00    0.883E-01
DAV:   4    -0.640713147990E+02    0.37253E-04   -0.12043E-02  2624   0.369E-01    0.752E-01
DAV:   5    -0.640711604836E+02    0.15432E-03   -0.31726E-03  2976   0.112E-01    0.238E-01
DAV:   6    -0.640712579092E+02   -0.97426E-04   -0.22790E-04  3008   0.708E-02    0.483E-02
DAV:   7    -0.640712523518E+02    0.55573E-05   -0.14086E-05  2272   0.134E-02    0.207E-02
DAV:   8    -0.640712525209E+02   -0.16902E-06   -0.23390E-06  2208   0.513E-03
   6 F= -.64071253E+02 E0= -.64071253E+02  d E =-.920514E+00
       N       E                     dE             d eps       ncg     rms          rms(c)
DAV:   1    -0.640736391227E+02   -0.23868E-02   -0.20312E-01  1920   0.171E+00    0.428E-01
DAV:   2    -0.640727167019E+02    0.92242E-03   -0.14103E-02  2528   0.461E-01    0.165E-01
DAV:   3    -0.640723821200E+02    0.33458E-03   -0.12180E-03  2528   0.129E-01    0.383E-02
DAV:   4    -0.640723723719E+02    0.97481E-05   -0.81623E-05  2656   0.241E-02    0.412E-02
DAV:   5    -0.640723704435E+02    0.19285E-05   -0.18577E-05  3200   0.769E-03    0.214E-02
DAV:   6    -0.640723682838E+02    0.21597E-05   -0.33788E-06  2272   0.919E-03    0.398E-03
DAV:   7    -0.640723677478E+02    0.53599E-06   -0.18200E-07  1088   0.155E-03
   7 F= -.64072368E+02 E0= -.64072368E+02  d E =-.921629E+00
       N       E                     dE             d eps       ncg     rms          rms(c)
DAV:   1    -0.640723703930E+02   -0.21091E-05   -0.32139E-04  1920   0.678E-02    0.163E-02
DAV:   2    -0.640723697027E+02    0.69030E-06   -0.22297E-05  2528   0.184E-02    0.637E-03
DAV:   3    -0.640723694144E+02    0.28827E-06   -0.18150E-06  1728   0.512E-03
   8 F= -.64072369E+02 E0= -.64072369E+02  d E =-.921630E+00
       N       E                     dE             d eps       ncg     rms          rms(c)
DAV:   1    -0.641140326903E+02   -0.41663E-01   -0.13098E+00  2464   0.579E+00    0.181E+00
DAV:   2    -0.640767756089E+02    0.37257E-01   -0.82137E-02  2176   0.142E+00    0.730E-01
DAV:   3    -0.640714637627E+02    0.53118E-02   -0.31615E-02  2688   0.635E-01    0.150E-01
DAV:   4    -0.640713314867E+02    0.13228E-03   -0.11094E-03  2560   0.158E-01    0.113E-01
DAV:   5    -0.640713335142E+02   -0.20275E-05   -0.11940E-04  3328   0.255E-02    0.684E-02
DAV:   6    -0.640713403874E+02   -0.68732E-05   -0.70159E-05  2592   0.408E-02    0.127E-02
DAV:   7    -0.640713444152E+02   -0.40277E-05   -0.29926E-06  2528   0.708E-03    0.749E-03
DAV:   8    -0.640713442995E+02    0.11569E-06   -0.31979E-07  1216   0.176E-03
   9 F= -.64071344E+02 E0= -.64071344E+02  d E =0.102511E-02
       N       E                     dE             d eps       ncg     rms          rms(c)
DAV:   1    -0.640873901689E+02   -0.16046E-01   -0.42690E-01  2496   0.332E+00    0.103E+00
DAV:   2    -0.640753526718E+02    0.12037E-01   -0.26786E-02  2208   0.809E-01    0.416E-01
DAV:   3    -0.640735927971E+02    0.17599E-02   -0.10179E-02  2688   0.362E-01    0.839E-02
DAV:   4    -0.640735364074E+02    0.56390E-04   -0.36700E-04  2560   0.905E-02    0.623E-02
DAV:   5    -0.640735203865E+02    0.16021E-04   -0.38421E-05  3296   0.143E-02    0.386E-02
DAV:   6    -0.640735101399E+02    0.10247E-04   -0.22497E-05  2592   0.231E-02    0.724E-03
DAV:   7    -0.640735081892E+02    0.19508E-05   -0.81319E-07  1440   0.402E-03    0.411E-03
DAV:   8    -0.640735082215E+02   -0.32314E-07   -0.19251E-07  1088   0.167E-03
  10 F= -.64073508E+02 E0= -.64073508E+02  d E =-.113881E-02
