 vasp.6.3.2 27Jun22 (build Jun 14 2024 17:29:11) complex                         
 executed on             LinuxGNU date 2026.01.24  21:28:50
 running on   32 total cores
 distrk:  each k-point on   32 cores,    1 groups
 distr:  one band on NCORE=   1 cores,   32 groups


--------------------------------------------------------------------------------------------------------


 INCAR:
   SYSTEM = relax
   ISTART = 0
   ICHARG = 2
   ENCUT = 520
   PREC = Accurate
   EDIFF = 1E-6
   EDIFFG = -0.02
   ISMEAR = 0
   SIGMA = 0.05
   IBRION = 2
   ISIF = 3
   NSW = 200
   LREAL = Auto
   ALGO = Normal
   LASPH = .TRUE.
   IVDW = 12

 POTCAR:    PAW_PBE Na_sv 28Sep2000               
 POTCAR:    PAW_PBE Sb 06Sep2000                  
 POTCAR:    PAW_PBE S 06Sep2000                   
 -----------------------------------------------------------------------------
|                                                                             |
|           W    W    AA    RRRRR   N    N  II  N    N   GGGG   !!!           |
|           W    W   A  A   R    R  NN   N  II  NN   N  G    G  !!!           |
|           W    W  A    A  R    R  N N  N  II  N N  N  G       !!!           |
|           W WW W  AAAAAA  RRRRR   N  N N  II  N  N N  G  GGG   !            |
|           WW  WW  A    A  R   R   N   NN  II  N   NN  G    G                |
|           W    W  A    A  R    R  N    N  II  N    N   GGGG   !!!           |
|                                                                             |
|     For optimal performance we recommend to set                             |
|       NCORE = 2 up to number-of-cores-per-socket                            |
|     NCORE specifies how many cores store one orbital (NPAR=cpu/NCORE).      |
|     This setting can greatly improve the performance of VASP for DFT.       |
|     The default, NCORE=1 might be grossly inefficient on modern             |
|     multi-core architectures or massively parallel machines. Do your        |
|     own testing! More info at https://www.vasp.at/wiki/index.php/NCORE      |
|     Unfortunately you need to use the default for GW and RPA                |
|     calculations (for HF NCORE is supported but not extensively tested      |
|     yet).                                                                   |
|                                                                             |
 -----------------------------------------------------------------------------

 POTCAR:    PAW_PBE Na_sv 28Sep2000               
   SHA256 =  a6776e1c685fedd948d8820863091fa2c738ea18a23b817769b932f2fb3f61be Na_sv/POTCAR          
   COPYR  = (c) Copyright 28Sep2000 Georg Kresse                                                    
   COPYR  = This file is part of the software VASP. Any use, copying, and all other rights are regul
   COPYR  = If you do not have a valid VASP license, you may not use, copy or distribute this file. 
   VRHFIN =Na: s1p0                                                                                 
   LEXCH  = PE                                                                                      
   EATOM  =  1307.8686 eV,   96.1256 Ry                                                             
                                                                                                    
   TITEL  = PAW_PBE Na_sv 28Sep2000                                                                 
   LULTRA =        F    use ultrasoft PP ?                                                          
   IUNSCR =        0    unscreen: 0-lin 1-nonlin 2-no                                               
   RPACOR =    0.000    partial core radius                                                         
   POMASS =   22.990; ZVAL   =    9.000    mass and valenz                                          
   RCORE  =    1.450    outmost cutoff radius                                                       
   RWIGS  =    1.500; RWIGS  =    0.794    wigner-seitz radius (au A)                               
   ENMAX  =  645.640; ENMIN  =  484.230 eV                                                          
   RCLOC  =    1.007    cutoff for local pot                                                        
   LCOR   =        T    correct aug charges                                                         
   LPAW   =        T    paw PP                                                                      
   EAUG   =  698.012                                                                                
   RMAX   =    1.481    core radius for proj-oper                                                   
   RAUG   =    1.300    factor for augmentation sphere                                              
   RDEP   =    1.539    radius for radial grids                                                     
   RDEPT  =    1.250    core radius for aug-charge                                                  
                                                                                                    
   Atomic configuration                                                                             
    5 entries                                                                                       
     n  l   j            E        occ.                                                              
     1  0  0.50     -1033.6933   2.0000                                                             
     2  0  0.50       -56.7526   2.0000                                                             
     3  0  0.50        -2.7440   1.0000                                                             
     2  1  1.50       -28.6721   6.0000                                                             
     3  2  1.50        -1.3606   0.0000                                                             
   Description                                                                                      
     l       E           TYP  RCUT    TYP  RCUT                                                     
     0    -56.7526473     23  1.200                                                                 
     0     -2.7439560     23  1.450                                                                 
     1    -28.6720906     23  1.250                                                                 
     1     40.8174780     23  1.400                                                                 
  local pseudopotential read in
  atomic valenz-charges read in
  non local Contribution for L=           0  read in
    real space projection operators read in
  non local Contribution for L=           0  read in
    real space projection operators read in
  non local Contribution for L=           1  read in
    real space projection operators read in
  non local Contribution for L=           1  read in
    real space projection operators read in
    PAW grid and wavefunctions read in

   number of l-projection  operators is LMAX  =           4
   number of lm-projection operators is LMMAX =           8

 POTCAR:    PAW_PBE Sb 06Sep2000                  
   SHA256 =  8a1325a3afd8ca988779475cff04188eb880a428d1acb53275fe456fa3b784fc Sb/POTCAR             
   COPYR  = (c) Copyright 06Sep2000 Georg Kresse                                                    
   COPYR  = This file is part of the software VASP. Any use, copying, and all other rights are regul
   COPYR  = If you do not have a valid VASP license, you may not use, copy or distribute this file. 
   VRHFIN =Sb: s2p3                                                                                 
   LEXCH  = PE                                                                                      
   EATOM  =   149.9515 eV,   11.0211 Ry                                                             
                                                                                                    
   TITEL  = PAW_PBE Sb 06Sep2000                                                                    
   LULTRA =        F    use ultrasoft PP ?                                                          
   IUNSCR =        1    unscreen: 0-lin 1-nonlin 2-no                                               
   RPACOR =    2.200    partial core radius                                                         
   POMASS =  121.750; ZVAL   =    5.000    mass and valenz                                          
   RCORE  =    2.300    outmost cutoff radius                                                       
   RWIGS  =    2.980; RWIGS  =    1.577    wigner-seitz radius (au A)                               
   ENMAX  =  172.069; ENMIN  =  129.052 eV                                                          
   ICORE  =        3    local potential                                                             
   LCOR   =        T    correct aug charges                                                         
   LPAW   =        T    paw PP                                                                      
   EAUG   =  380.513                                                                                
   DEXC   =    0.000                                                                                
   RMAX   =    2.346    core radius for proj-oper                                                   
   RAUG   =    1.300    factor for augmentation sphere                                              
   RDEP   =    2.360    radius for radial grids                                                     
   RDEPT  =    2.192    core radius for aug-charge                                                  
                                                                                                    
   Atomic configuration                                                                             
   13 entries                                                                                       
     n  l   j            E        occ.                                                              
     1  0  0.50    -30298.2797   2.0000                                                             
     2  0  0.50     -4610.2252   2.0000                                                             
     2  1  1.50     -4138.3407   6.0000                                                             
     3  0  0.50      -903.8815   2.0000                                                             
     3  1  1.50      -750.1337   6.0000                                                             
     3  2  2.50      -515.7092  10.0000                                                             
     4  0  0.50      -148.8034   2.0000                                                             
     4  1  1.50      -101.7581   6.0000                                                             
     4  2  2.50       -33.5048  10.0000                                                             
     5  0  0.50       -12.8298   2.0000                                                             
     5  1  0.50        -4.8276   3.0000                                                             
     5  2  1.50        -4.0817   0.0000                                                             
     4  3  2.50        -4.0817   0.0000                                                             
   Description                                                                                      
     l       E           TYP  RCUT    TYP  RCUT                                                     
     0    -12.8297861     23  2.300                                                                 
     0     13.6058260     23  2.300                                                                 
     1     -4.8275512     23  2.300                                                                 
     1     -0.7245443     23  2.300                                                                 
     2     -4.0817478     23  2.300                                                                 
     3     -1.3605826     23  2.300                                                                 
  local pseudopotential read in
  partial core-charges read in
  partial kinetic energy density read in
  atomic valenz-charges read in
  non local Contribution for L=           0  read in
    real space projection operators read in
  non local Contribution for L=           0  read in
    real space projection operators read in
  non local Contribution for L=           1  read in
    real space projection operators read in
  non local Contribution for L=           1  read in
    real space projection operators read in
  non local Contribution for L=           2  read in
    real space projection operators read in
    PAW grid and wavefunctions read in

   number of l-projection  operators is LMAX  =           5
   number of lm-projection operators is LMMAX =          13

 POTCAR:    PAW_PBE S 06Sep2000                   
   SHA256 =  0fc7481fb0695f01bdc6462160264c5c84044ae9ec85a907d398b887a2bc3132 S/POTCAR              
   COPYR  = (c) Copyright 06Sep2000 Georg Kresse                                                    
   COPYR  = This file is part of the software VASP. Any use, copying, and all other rights are regul
   COPYR  = If you do not have a valid VASP license, you may not use, copy or distribute this file. 
   VRHFIN =S : s2p4                                                                                 
   LEXCH  = PE                                                                                      
   EATOM  =   276.8230 eV,   20.3459 Ry                                                             
                                                                                                    
   TITEL  = PAW_PBE S 06Sep2000                                                                     
   LULTRA =        F    use ultrasoft PP ?                                                          
   IUNSCR =        1    unscreen: 0-lin 1-nonlin 2-no                                               
   RPACOR =    1.500    partial core radius                                                         
   POMASS =   32.066; ZVAL   =    6.000    mass and valenz                                          
   RCORE  =    1.900    outmost cutoff radius                                                       
   RWIGS  =    2.200; RWIGS  =    1.164    wigner-seitz radius (au A)                               
   ENMAX  =  258.689; ENMIN  =  194.016 eV                                                          
   ICORE  =        2    local potential                                                             
   LCOR   =        T    correct aug charges                                                         
   LPAW   =        T    paw PP                                                                      
   EAUG   =  335.092                                                                                
   DEXC   =    0.000                                                                                
   RMAX   =    1.942    core radius for proj-oper                                                   
   RAUG   =    1.300    factor for augmentation sphere                                              
   RDEP   =    1.954    radius for radial grids                                                     
   RDEPT  =    1.744    core radius for aug-charge                                                  
                                                                                                    
   Atomic configuration                                                                             
    6 entries                                                                                       
     n  l   j            E        occ.                                                              
     1  0  0.50     -2405.8406   2.0000                                                             
     2  0  0.50      -211.7007   2.0000                                                             
     2  1  1.50      -156.4958   6.0000                                                             
     3  0  0.50       -17.2562   2.0000                                                             
     3  1  0.50        -7.0085   4.0000                                                             
     3  2  1.50        -6.8029   0.0000                                                             
   Description                                                                                      
     l       E           TYP  RCUT    TYP  RCUT                                                     
     0    -17.2561641     23  1.900                                                                 
     0    -15.8743224     23  1.900                                                                 
     1     -7.0085400     23  1.900                                                                 
     1     -2.7779785     23  1.900                                                                 
     2     -6.8029130     23  1.900                                                                 
  local pseudopotential read in
  partial core-charges read in
  partial kinetic energy density read in
  atomic valenz-charges read in
  non local Contribution for L=           0  read in
    real space projection operators read in
  non local Contribution for L=           0  read in
    real space projection operators read in
  non local Contribution for L=           1  read in
    real space projection operators read in
  non local Contribution for L=           1  read in
    real space projection operators read in
    PAW grid and wavefunctions read in

   number of l-projection  operators is LMAX  =           4
   number of lm-projection operators is LMMAX =           8

 Optimization of the real space projectors (new method)

 maximal supplied QI-value         = 25.89
 optimisation between [QCUT,QGAM] = [ 11.65, 23.30] = [ 38.01,152.03] Ry 
 Optimized for a Real-space Cutoff    1.11 Angstroem

   l    n(q)    QCUT    max X(q) W(low)/X(q) W(high)/X(q)  e(spline) 
   0      8    11.650     6.352    0.47E-04    0.32E-05    0.39E-07
   0      8    11.650    12.451    0.76E-04    0.11E-04    0.81E-07
   1      7    11.650     1.851    0.24E-04    0.24E-04    0.57E-07
   1      7    11.650     2.565    0.24E-03    0.55E-03    0.17E-06
 Optimization of the real space projectors (new method)

 maximal supplied QI-value         = 16.25
 optimisation between [QCUT,QGAM] = [ 11.54, 23.24] = [ 37.28,151.24] Ry 
 Optimized for a Real-space Cutoff    1.36 Angstroem

   l    n(q)    QCUT    max X(q) W(low)/X(q) W(high)/X(q)  e(spline) 
   0      9    11.539    19.000    0.40E-04    0.50E-04    0.84E-07
   0      9    11.539     9.057    0.48E-04    0.60E-04    0.10E-06
   1      9    11.539   125.345    0.24E-03    0.13E-04    0.15E-06
   1      9    11.539    79.963    0.24E-03    0.12E-04    0.14E-06
   2      9    11.539     6.963    0.31E-04    0.10E-03    0.57E-07
 Optimization of the real space projectors (new method)

 maximal supplied QI-value         = 19.84
 optimisation between [QCUT,QGAM] = [ 11.51, 23.22] = [ 37.09,150.92] Ry 
 Optimized for a Real-space Cutoff    1.21 Angstroem

   l    n(q)    QCUT    max X(q) W(low)/X(q) W(high)/X(q)  e(spline) 
   0      8    11.508   187.594    0.96E-04    0.18E-03    0.54E-07
   0      8    11.508   164.243    0.96E-04    0.18E-03    0.54E-07
   1      8    11.508    67.533    0.18E-03    0.65E-04    0.94E-07
   1      8    11.508    50.729    0.18E-03    0.63E-04    0.92E-07
  PAW_PBE Na_sv 28Sep2000               :
 energy of atom  1       EATOM=-1307.8686
 kinetic energy error for atom=    1.0320 (will be added to EATOM!!)
  PAW_PBE Sb 06Sep2000                  :
 energy of atom  2       EATOM= -149.9515
 kinetic energy error for atom=    0.0005 (will be added to EATOM!!)
  PAW_PBE S 06Sep2000                   :
 energy of atom  3       EATOM= -276.8230
 kinetic energy error for atom=    0.0016 (will be added to EATOM!!)


 POSCAR: Na3SbS4
  positions in direct lattice
  velocities in cartesian coordinates
 exchange correlation table for  LEXCH =        8
   RHO(1)=    0.500       N(1)  =     2000
   RHO(2)=  100.500       N(2)  =     4000



--------------------------------------------------------------------------------------------------------


 ion  position               nearest neighbor table
   1  0.000  0.000  0.500-
   2  0.000  0.500  0.000-
   3  0.500  0.000  0.000-
   4  0.500  0.500  0.000-
   5  0.500  0.000  0.500-
   6  0.000  0.500  0.500-
   7  0.000  0.000  0.000-  10 2.35  11 2.35  12 2.35  13 2.35
   8  0.500  0.500  0.500-   9 2.35  14 2.35  15 2.35  16 2.35
   9  0.299  0.299  0.299-   8 2.35
  10  0.201  0.201  0.799-   7 2.35
  11  0.799  0.201  0.201-   7 2.35
  12  0.201  0.799  0.201-   7 2.35
  13  0.799  0.799  0.799-   7 2.35
  14  0.701  0.701  0.299-   8 2.35
  15  0.299  0.701  0.701-   8 2.35
  16  0.701  0.299  0.701-   8 2.35

  LATTYP: Found a simple cubic cell.
 ALAT       =     6.7569211749
  
  Lattice vectors:
  
 A1 = (   6.7569211749,   0.0000000000,   0.0000000000)
 A2 = (  -0.0000000000,   6.7569211749,   0.0000000000)
 A3 = (  -0.0000000000,  -0.0000000000,   6.7569211749)


Analysis of symmetry for initial positions (statically):
=====================================================================
 Subroutine PRICEL returns following result:
 
  LATTYP: Found a body centered cubic cell.
 ALAT       =     6.7569211749
  
  Lattice vectors:
  
 A1 = (   3.3784605875,   3.3784605875,  -3.3784605875)
 A2 = (  -3.3784605875,   3.3784605875,   3.3784605875)
 A3 = (   3.3784605875,  -3.3784605875,   3.3784605875)
 
   2 primitive cells build up your supercell.
 

 Routine SETGRP: Setting up the symmetry group for a 
 simple cubic supercell.


 Subroutine GETGRP returns: Found 24 space group operations
 (whereof 24 operations were pure point group operations)
 out of a pool of 48 trial point group operations.


The static configuration has the point symmetry T_d .


Analysis of symmetry for dynamics (positions and initial velocities):
=====================================================================
 Subroutine PRICEL returns following result:
 
  LATTYP: Found a body centered cubic cell.
 ALAT       =     6.7569211749
  
  Lattice vectors:
  
 A1 = (   3.3784605875,   3.3784605875,  -3.3784605875)
 A2 = (  -3.3784605875,   3.3784605875,   3.3784605875)
 A3 = (   3.3784605875,  -3.3784605875,   3.3784605875)
 
   2 primitive cells build up your supercell.
 

 Routine SETGRP: Setting up the symmetry group for a 
 simple cubic supercell.


 Subroutine GETGRP returns: Found 24 space group operations
 (whereof 24 operations were pure point group operations)
 out of a pool of 48 trial point group operations.


The dynamic configuration has the point symmetry T_d .


 Subroutine INISYM returns: Found 24 space group operations
 (whereof 24 operations are pure point group operations),
 and found     2 'primitive' translations


----------------------------------------------------------------------------------------

                                     Primitive cell                                     

  volume of cell :     154.2469

  direct lattice vectors                    reciprocal lattice vectors
     3.378460587  3.378460587 -3.378460587     0.147996399  0.147996399  0.000000000
    -3.378460587  3.378460587  3.378460587    -0.000000000  0.147996399  0.147996399
     3.378460587 -3.378460587  3.378460587     0.147996399  0.000000000  0.147996399

  length of vectors
     5.851665389  5.851665389  5.851665389     0.209298514  0.209298514  0.209298514

  position of ions in fractional coordinates (direct lattice)
     0.000000000  0.500000000  0.500000000
     0.500000000  0.500000000  0.000000000
     0.500000000  1.000000000  0.500000000
     0.000000000  0.000000000  0.000000000
     0.598957699  0.598957699  0.598957699
     0.401042301  1.000000000  0.000000000
     1.000000000  0.401042301  1.000000000
     0.000000000  1.000000000  0.401042301

  ion indices of the primitive-cell ions
   primitive index   ion index
                 1           1
                 2           5
                 3           6
                 4           7
                 5          13
                 6          10
                 7          11
                 8          12

----------------------------------------------------------------------------------------



 KPOINTS: Automatic mesh                          

Automatic generation of k-mesh.
 Grid dimensions read from file:
 generate k-points for:    4    4    4

 Generating k-lattice:

  Cartesian coordinates                     Fractional coordinates (reciprocal lattice)
     0.036999100  0.000000000  0.000000000     0.250000000  0.000000000  0.000000000
    -0.000000000  0.036999100  0.000000000     0.000000000  0.250000000  0.000000000
     0.000000000 -0.000000000  0.036999100     0.000000000  0.000000000  0.250000000

  Length of vectors
     0.036999100  0.036999100  0.036999100

  Shift w.r.t. Gamma in fractional coordinates (k-lattice)
     0.000000000  0.000000000  0.000000000

 
 Subroutine IBZKPT returns following result:
 ===========================================
 
 Found     10 irreducible k-points:
 
 Following reciprocal coordinates:
            Coordinates               Weight
  0.000000  0.000000  0.000000      1.000000
  0.250000  0.000000  0.000000      6.000000
  0.500000  0.000000  0.000000      3.000000
  0.250000  0.250000  0.000000     12.000000
  0.500000  0.250000  0.000000     12.000000
  0.500000  0.500000  0.000000      3.000000
  0.250000  0.250000  0.250000      8.000000
  0.500000  0.250000  0.250000     12.000000
  0.500000  0.500000  0.250000      6.000000
  0.500000  0.500000  0.500000      1.000000
 
 Following cartesian coordinates:
            Coordinates               Weight
  0.000000  0.000000  0.000000      1.000000
  0.036999  0.000000  0.000000      6.000000
  0.073998  0.000000  0.000000      3.000000
  0.036999  0.036999  0.000000     12.000000
  0.073998  0.036999  0.000000     12.000000
  0.073998  0.073998  0.000000      3.000000
  0.036999  0.036999  0.036999      8.000000
  0.073998  0.036999  0.036999     12.000000
  0.073998  0.073998  0.036999      6.000000
  0.073998  0.073998  0.073998      1.000000
 


--------------------------------------------------------------------------------------------------------




 Dimension of arrays:
   k-points           NKPTS =     10   k-points in BZ     NKDIM =     10   number of bands    NBANDS=     96
   number of dos      NEDOS =    301   number of ions     NIONS =     16
   non local maximal  LDIM  =      5   non local SUM 2l+1 LMDIM =     13
   total plane-waves  NPLWV = 125000
   max r-space proj   IRMAX =   4345   max aug-charges    IRDMAX=  22684
   dimension x,y,z NGX =    50 NGY =   50 NGZ =   50
   dimension x,y,z NGXF=   100 NGYF=  100 NGZF=  100
   support grid    NGXF=   100 NGYF=  100 NGZF=  100
   ions per type =               6   2   8
   NGX,Y,Z   is equivalent  to a cutoff of  12.30, 12.30, 12.30 a.u.
   NGXF,Y,Z  is equivalent  to a cutoff of  24.60, 24.60, 24.60 a.u.

 SYSTEM =  relax                                   
 POSCAR =  Na3SbS4                                 

 Startparameter for this run:
   NWRITE =      2    write-flag & timer
   PREC   = accura    normal or accurate (medium, high low for compatibility)
   ISTART =      0    job   : 0-new  1-cont  2-samecut
   ICHARG =      2    charge: 1-file 2-atom 10-const
   ISPIN  =      1    spin polarized calculation?
   LNONCOLLINEAR =      F non collinear calculations
   LSORBIT =      F    spin-orbit coupling
   INIWAV =      1    electr: 0-lowe 1-rand  2-diag
   LASPH  =      T    aspherical Exc in radial PAW
 Electronic Relaxation 1
   ENCUT  =  520.0 eV  38.22 Ry    6.18 a.u.  12.56 12.56 12.56*2*pi/ulx,y,z
   ENINI  =  520.0     initial cutoff
   ENAUG  =  698.0 eV  augmentation charge cutoff
   NELM   =     60;   NELMIN=  2; NELMDL= -5     # of ELM steps 
   EDIFF  = 0.1E-05   stopping-criterion for ELM
   LREAL  =      T    real-space projection
   NLSPLINE    = F    spline interpolate recip. space projectors
   LCOMPAT=      F    compatible to vasp.4.4
   GGA_COMPAT  = T    GGA compatible to vasp.4.4-vasp.4.6
   LMAXPAW     = -100 max onsite density
   LMAXMIX     =    2 max onsite mixed and CHGCAR
   VOSKOWN=      0    Vosko Wilk Nusair interpolation
   ROPT   =   -0.00025  -0.00025  -0.00025
 Ionic relaxation
   EDIFFG = -.2E-01   stopping-criterion for IOM
   NSW    =    200    number of steps for IOM
   NBLOCK =      1;   KBLOCK =    200    inner block; outer block 
   IBRION =      2    ionic relax: 0-MD 1-quasi-New 2-CG
   NFREE  =      1    steps in history (QN), initial steepest desc. (CG)
   ISIF   =      3    stress and relaxation
   IWAVPR =     11    prediction:  0-non 1-charg 2-wave 3-comb
   ISYM   =      2    0-nonsym 1-usesym 2-fastsym
   LCORR  =      T    Harris-Foulkes like correction to forces

   POTIM  = 0.5000    time-step for ionic-motion
   TEIN   =    0.0    initial temperature
   TEBEG  =    0.0;   TEEND  =   0.0 temperature during run
   SMASS  =  -3.00    Nose mass-parameter (am)
   estimated Nose-frequenzy (Omega)   =  0.10E-29 period in steps = 0.13E+47 mass=  -0.104E-26a.u.
   SCALEE = 1.0000    scale energy and forces
   NPACO  =    256;   APACO  = 10.0  distance and # of slots for P.C.
   PSTRESS=    0.0 pullay stress

  Mass of Ions in am
   POMASS =  22.99121.75 32.07
  Ionic Valenz
   ZVAL   =   9.00  5.00  6.00
  Atomic Wigner-Seitz radii
   RWIGS  =  -1.00 -1.00 -1.00
  virtual crystal weights 
   VCA    =   1.00  1.00  1.00
   NELECT =     112.0000    total number of electrons
   NUPDOWN=      -1.0000    fix difference up-down

 DOS related values:
   EMIN   =  10.00;   EMAX   =-10.00  energy-range for DOS
   EFERMI =   0.00
   ISMEAR =     0;   SIGMA  =   0.05  broadening in eV -4-tet -1-fermi 0-gaus

 Electronic relaxation 2 (details)
   IALGO  =     38    algorithm
   LDIAG  =      T    sub-space diagonalisation (order eigenvalues)
   LSUBROT=      F    optimize rotation matrix (better conditioning)
   TURBO    =      0    0=normal 1=particle mesh
   IRESTART =      0    0=no restart 2=restart with 2 vectors
   NREBOOT  =      0    no. of reboots
   NMIN     =      0    reboot dimension
   EREF     =   0.00    reference energy to select bands
   IMIX   =      4    mixing-type and parameters
     AMIX     =   0.40;   BMIX     =  1.00
     AMIX_MAG =   1.60;   BMIX_MAG =  1.00
     AMIN     =   0.10
     WC   =   100.;   INIMIX=   1;  MIXPRE=   1;  MAXMIX= -45

 Intra band minimization:
   WEIMIN = 0.0010     energy-eigenvalue tresh-hold
   EBREAK =  0.26E-08  absolut break condition
   DEPER  =   0.30     relativ break condition  

   TIME   =   0.40     timestep for ELM

  volume/ion in A,a.u.               =      19.28       130.11
  Fermi-wavevector in a.u.,A,eV,Ry     =   1.167881  2.206975 18.557617  1.363946
  Thomas-Fermi vector in A             =   2.304375

 Write flags
   LWAVE        =      T    write WAVECAR
   LDOWNSAMPLE  =      F    k-point downsampling of WAVECAR
   LCHARG       =      T    write CHGCAR
   LVTOT        =      F    write LOCPOT, total local potential
   LVHAR        =      F    write LOCPOT, Hartree potential only
   LELF         =      F    write electronic localiz. function (ELF)
   LORBIT       =      0    0 simple, 1 ext, 2 COOP (PROOUT), +10 PAW based schemes


 Dipole corrections
   LMONO  =      F    monopole corrections only (constant potential shift)
   LDIPOL =      F    correct potential (dipole corrections)
   IDIPOL =      0    1-x, 2-y, 3-z, 4-all directions 
   EPSILON=  1.0000000 bulk dielectric constant

 Exchange correlation treatment:
   GGA     =    --    GGA type
   LEXCH   =     8    internal setting for exchange type
   LIBXC   =     F    Libxc                    
   VOSKOWN =     0    Vosko Wilk Nusair interpolation
   LHFCALC =     F    Hartree Fock is set to
   LHFONE  =     F    Hartree Fock one center treatment
   AEXX    =    0.0000 exact exchange contribution

 Linear response parameters
   LEPSILON=     F    determine dielectric tensor
   LRPA    =     F    only Hartree local field effects (RPA)
   LNABLA  =     F    use nabla operator in PAW spheres
   LVEL    =     F    velocity operator in full k-point grid
   CSHIFT  =0.1000    complex shift for real part using Kramers Kronig
   OMEGAMAX=  -1.0    maximum frequency
   DEG_THRESHOLD= 0.2000000E-02 threshold for treating states as degnerate
   RTIME   =   -0.100 relaxation time in fs
  (WPLASMAI=    0.000 imaginary part of plasma frequency in eV, 0.658/RTIME)
   DFIELD  = 0.0000000 0.0000000 0.0000000 field for delta impulse in time

  Optional k-point grid parameters
   LKPOINTS_OPT  =     F    use optional k-point grid
   KPOINTS_OPT_MODE=     1    mode for optional k-point grid

 Orbital magnetization related:
   ORBITALMAG=     F  switch on orbital magnetization
   LCHIMAG   =     F  perturbation theory with respect to B field
   DQ        =  0.001000  dq finite difference perturbation B field
   LLRAUG    =     F  two centre corrections for induced B field



--------------------------------------------------------------------------------------------------------


 conjugate gradient relaxation of ions
 charge density and potential will be updated during run
 non-spin polarized calculation
 Variant of blocked Davidson
 Davidson routine will perform the subspace rotation
 perform sub-space diagonalisation
    after iterative eigenvector-optimisation
 modified Broyden-mixing scheme, WC =      100.0
 initial mixing is a Kerker type mixing with AMIX =  0.4000 and BMIX =      1.0000
 Hartree-type preconditioning will be used
 using additional bands           40
 real space projection scheme for non local part
 use partial core corrections
 calculate Harris-corrections to forces   (improved forces if not selfconsistent)
 use gradient corrections 
 use of overlap-Matrix (Vanderbilt PP)
 Gauss-broadening in eV      SIGMA  =   0.05


--------------------------------------------------------------------------------------------------------


  energy-cutoff  :      520.00
  volume of cell :      308.49
      direct lattice vectors                 reciprocal lattice vectors
     6.756921175  0.000000000  0.000000000     0.147996399  0.000000000  0.000000000
    -0.000000000  6.756921175  0.000000000    -0.000000000  0.147996399  0.000000000
    -0.000000000 -0.000000000  6.756921175     0.000000000 -0.000000000  0.147996399

  length of vectors
     6.756921175  6.756921175  6.756921175     0.147996399  0.147996399  0.147996399



 k-points in units of 2pi/SCALE and weight: Automatic mesh                          
   0.00000000  0.00000000  0.00000000       0.016
   0.03699910  0.00000000  0.00000000       0.094
   0.07399820  0.00000000  0.00000000       0.047
   0.03699910  0.03699910  0.00000000       0.188
   0.07399820  0.03699910  0.00000000       0.188
   0.07399820  0.07399820  0.00000000       0.047
   0.03699910  0.03699910  0.03699910       0.125
   0.07399820  0.03699910  0.03699910       0.188
   0.07399820  0.07399820  0.03699910       0.094
   0.07399820  0.07399820  0.07399820       0.016

 k-points in reciprocal lattice and weights: Automatic mesh                          
   0.00000000  0.00000000  0.00000000       0.016
   0.25000000  0.00000000  0.00000000       0.094
   0.50000000  0.00000000  0.00000000       0.047
   0.25000000  0.25000000  0.00000000       0.188
   0.50000000  0.25000000  0.00000000       0.188
   0.50000000  0.50000000  0.00000000       0.047
   0.25000000  0.25000000  0.25000000       0.125
   0.50000000  0.25000000  0.25000000       0.188
   0.50000000  0.50000000  0.25000000       0.094
   0.50000000  0.50000000  0.50000000       0.016

 position of ions in fractional coordinates (direct lattice) 
   0.00000000  0.00000000  0.50000000
   0.00000000  0.50000000  0.00000000
   0.50000000  0.00000000  0.00000000
   0.50000000  0.50000000  0.00000000
   0.50000000  0.00000000  0.50000000
   0.00000000  0.50000000  0.50000000
   0.00000000  0.00000000  0.00000000
   0.50000000  0.50000000  0.50000000
   0.29947885  0.29947885  0.29947885
   0.20052115  0.20052115  0.79947885
   0.79947885  0.20052115  0.20052115
   0.20052115  0.79947885  0.20052115
   0.79947885  0.79947885  0.79947885
   0.70052116  0.70052116  0.29947884
   0.29947884  0.70052116  0.70052116
   0.70052116  0.29947884  0.70052116

 position of ions in cartesian coordinates  (Angst):
   0.00000000  0.00000000  3.37846059
   0.00000000  3.37846059  0.00000000
   3.37846059  0.00000000  0.00000000
   3.37846059  3.37846059  0.00000000
   3.37846059  0.00000000  3.37846059
   0.00000000  3.37846059  3.37846059
   0.00000000  0.00000000  0.00000000
   3.37846059  3.37846059  3.37846059
   2.02355498  2.02355498  2.02355498
   1.35490561  1.35490561  5.40201557
   5.40201557  1.35490561  1.35490561
   1.35490561  5.40201557  1.35490561
   5.40201557  5.40201557  5.40201557
   4.73336626  4.73336626  2.02355491
   2.02355491  4.73336626  4.73336626
   4.73336626  2.02355491  4.73336626



--------------------------------------------------------------------------------------------------------


 k-point   1 :   0.0000 0.0000 0.0000  plane waves:    8289
 k-point   2 :   0.2500 0.0000 0.0000  plane waves:    8297
 k-point   3 :   0.5000 0.0000 0.0000  plane waves:    8330
 k-point   4 :   0.2500 0.2500 0.0000  plane waves:    8322
 k-point   5 :   0.5000 0.2500 0.0000  plane waves:    8330
 k-point   6 :   0.5000 0.5000 0.0000  plane waves:    8340
 k-point   7 :   0.2500 0.2500 0.2500  plane waves:    8310
 k-point   8 :   0.5000 0.2500 0.2500  plane waves:    8268
 k-point   9 :   0.5000 0.5000 0.2500  plane waves:    8272
 k-point  10 :   0.5000 0.5000 0.5000  plane waves:    8240

 maximum and minimum number of plane-waves per node :      8340     8240

 maximum number of plane-waves:      8340
 maximum index in each direction: 
   IXMAX=   12   IYMAX=   12   IZMAX=   12
   IXMIN=  -13   IYMIN=  -13   IZMIN=  -13


 serial   3D FFT for wavefunctions
 parallel 3D FFT for charge:
    minimum data exchange during FFTs selected (reduces bandwidth)


 total amount of memory used by VASP MPI-rank0    48363. kBytes
=======================================================================

   base      :      30000. kBytes
   nonlr-proj:       4698. kBytes
   fftplans  :       1813. kBytes
   grid      :       7638. kBytes
   one-center:        129. kBytes
   wavefun   :       4085. kBytes

     INWAV:  cpu time      0.0005: real time      0.0007
 Broyden mixing: mesh for mixing (old mesh)
   NGX = 25   NGY = 25   NGZ = 25
  (NGX  =100   NGY  =100   NGZ  =100)
  gives a total of  15625 points

 initial charge density was supplied:
 charge density of overlapping atoms calculated
 number of electron     112.0000000 magnetization 
 keeping initial charge density in first step


--------------------------------------------------------------------------------------------------------


 Maximum index for non-local projection operator         4139
 Maximum index for augmentation-charges         1834 (set IRDMAX)


--------------------------------------------------------------------------------------------------------


 First call to EWALD:  gamma=   0.262
 Maximum number of real-space cells 3x 3x 3
 Maximum number of reciprocal cells 3x 3x 3

    FEWALD:  cpu time      0.0008: real time      0.0010


--------------------------------------- Iteration      1(   1)  ---------------------------------------


    POTLOK:  cpu time      0.0273: real time      0.0551
    SETDIJ:  cpu time      0.1157: real time      0.1157
     EDDAV:  cpu time      1.3775: real time      1.3789
       DOS:  cpu time      0.0006: real time      0.0008
    --------------------------------------------
      LOOP:  cpu time      1.5210: real time      1.5505

 eigenvalue-minimisations  :  1920
 total energy-change (2. order) : 0.1059865E+04  (-0.5528508E+04)
 number of electron     112.0000000 magnetization 
 augmentation part      112.0000000 magnetization 

 Free energy of the ion-electron system (eV)
  ---------------------------------------------------
  alpha Z        PSCENC =       149.02116556
  Ewald energy   TEWEN  =     -6192.73357395
  -Hartree energ DENC   =     -3316.54116497
  -exchange      EXHF   =         0.00000000
  -V(xc)+E(xc)   XCENC  =       349.78032762
  PAW double counting   =      7923.37810229    -8048.68771678
  entropy T*S    EENTRO =        -0.01421601
  eigenvalues    EBANDS =      -159.83126713
  atomic energy  EATOM  =     10355.49292304
  Solvation  Ediel_sol  =         0.00000000
  ---------------------------------------------------
  free energy    TOTEN  =      1059.86457967 eV

  energy without entropy =     1059.87879568  energy(sigma->0) =     1059.87168768


--------------------------------------------------------------------------------------------------------




--------------------------------------- Iteration      1(   2)  ---------------------------------------


     EDDAV:  cpu time      1.8738: real time      1.8779
       DOS:  cpu time      0.0003: real time      0.0004
    --------------------------------------------
      LOOP:  cpu time      1.8742: real time      1.8784

 eigenvalue-minimisations  :  2496
 total energy-change (2. order) :-0.1025476E+04  (-0.9883438E+03)
 number of electron     112.0000000 magnetization 
 augmentation part      112.0000000 magnetization 

 Free energy of the ion-electron system (eV)
  ---------------------------------------------------
  alpha Z        PSCENC =       149.02116556
  Ewald energy   TEWEN  =     -6192.73357395
  -Hartree energ DENC   =     -3316.54116497
  -exchange      EXHF   =         0.00000000
  -V(xc)+E(xc)   XCENC  =       349.78032762
  PAW double counting   =      7923.37810229    -8048.68771678
  entropy T*S    EENTRO =        -0.00000000
  eigenvalues    EBANDS =     -1185.32197275
  atomic energy  EATOM  =     10355.49292304
  Solvation  Ediel_sol  =         0.00000000
  ---------------------------------------------------
  free energy    TOTEN  =        34.38809006 eV

  energy without entropy =       34.38809006  energy(sigma->0) =       34.38809006


--------------------------------------------------------------------------------------------------------




--------------------------------------- Iteration      1(   3)  ---------------------------------------


     EDDAV:  cpu time      2.4970: real time      2.5010
       DOS:  cpu time      0.0003: real time      0.0003
    --------------------------------------------
      LOOP:  cpu time      2.4973: real time      2.5013

 eigenvalue-minimisations  :  3232
 total energy-change (2. order) :-0.9495065E+02  (-0.9453582E+02)
 number of electron     112.0000000 magnetization 
 augmentation part      112.0000000 magnetization 

 Free energy of the ion-electron system (eV)
  ---------------------------------------------------
  alpha Z        PSCENC =       149.02116556
  Ewald energy   TEWEN  =     -6192.73357395
  -Hartree energ DENC   =     -3316.54116497
  -exchange      EXHF   =         0.00000000
  -V(xc)+E(xc)   XCENC  =       349.78032762
  PAW double counting   =      7923.37810229    -8048.68771678
  entropy T*S    EENTRO =        -0.00000000
  eigenvalues    EBANDS =     -1280.27262259
  atomic energy  EATOM  =     10355.49292304
  Solvation  Ediel_sol  =         0.00000000
  ---------------------------------------------------
  free energy    TOTEN  =       -60.56255978 eV

  energy without entropy =      -60.56255978  energy(sigma->0) =      -60.56255978


--------------------------------------------------------------------------------------------------------




--------------------------------------- Iteration      1(   4)  ---------------------------------------


     EDDAV:  cpu time      4.7602: real time      4.7644
       DOS:  cpu time      0.0004: real time      0.0005
    --------------------------------------------
      LOOP:  cpu time      4.7606: real time      4.7649

 eigenvalue-minimisations  :  2528
 total energy-change (2. order) :-0.2138819E+01  (-0.2137457E+01)
 number of electron     112.0000000 magnetization 
 augmentation part      112.0000000 magnetization 

 Free energy of the ion-electron system (eV)
  ---------------------------------------------------
  alpha Z        PSCENC =       149.02116556
  Ewald energy   TEWEN  =     -6192.73357395
  -Hartree energ DENC   =     -3316.54116497
  -exchange      EXHF   =         0.00000000
  -V(xc)+E(xc)   XCENC  =       349.78032762
  PAW double counting   =      7923.37810229    -8048.68771678
  entropy T*S    EENTRO =        -0.00000000
  eigenvalues    EBANDS =     -1282.41144128
  atomic energy  EATOM  =     10355.49292304
  Solvation  Ediel_sol  =         0.00000000
  ---------------------------------------------------
  free energy    TOTEN  =       -62.70137847 eV

  energy without entropy =      -62.70137847  energy(sigma->0) =      -62.70137847


--------------------------------------------------------------------------------------------------------




--------------------------------------- Iteration      1(   5)  ---------------------------------------


     EDDAV:  cpu time      2.1403: real time      2.1423
       DOS:  cpu time      0.0003: real time      0.0004
    CHARGE:  cpu time      0.0619: real time      0.0623
    MIXING:  cpu time      0.0012: real time      0.0015
    --------------------------------------------
      LOOP:  cpu time      2.2038: real time      2.2063

 eigenvalue-minimisations  :  2912
 total energy-change (2. order) :-0.5653269E-01  (-0.5653202E-01)
 number of electron     111.9999959 magnetization 
 augmentation part        4.2009513 magnetization 

 Broyden mixing:
  rms(total) = 0.17980E+01    rms(broyden)= 0.17968E+01
  rms(prec ) = 0.22833E+01
  weight for this iteration     100.00

 Free energy of the ion-electron system (eV)
  ---------------------------------------------------
  alpha Z        PSCENC =       149.02116556
  Ewald energy   TEWEN  =     -6192.73357395
  -Hartree energ DENC   =     -3316.54116497
  -exchange      EXHF   =         0.00000000
  -V(xc)+E(xc)   XCENC  =       349.78032762
  PAW double counting   =      7923.37810229    -8048.68771678
  entropy T*S    EENTRO =        -0.00000000
  eigenvalues    EBANDS =     -1282.46797397
  atomic energy  EATOM  =     10355.49292304
  Solvation  Ediel_sol  =         0.00000000
  ---------------------------------------------------
  free energy    TOTEN  =       -62.75791116 eV

  energy without entropy =      -62.75791116  energy(sigma->0) =      -62.75791116


--------------------------------------------------------------------------------------------------------




--------------------------------------- Iteration      1(   6)  ---------------------------------------


    POTLOK:  cpu time      0.0256: real time      0.0258
    SETDIJ:  cpu time      0.1147: real time      0.1148
     EDDAV:  cpu time      1.6014: real time      1.6033
       DOS:  cpu time      0.0003: real time      0.0006
    CHARGE:  cpu time      0.0605: real time      0.0607
    MIXING:  cpu time      0.0009: real time      0.0009
    --------------------------------------------
      LOOP:  cpu time      1.8034: real time      1.8060

 eigenvalue-minimisations  :  2272
 total energy-change (2. order) : 0.3216423E+01  (-0.6666050E+00)
 number of electron     111.9999959 magnetization 
 augmentation part        4.3161388 magnetization 

 Broyden mixing:
  rms(total) = 0.13360E+01    rms(broyden)= 0.13359E+01
  rms(prec ) = 0.14244E+01
  weight for this iteration     100.00

 eigenvalues of (default mixing * dielectric matrix)
  average eigenvalue GAMMA=   2.3948
  2.3948

 Free energy of the ion-electron system (eV)
  ---------------------------------------------------
  alpha Z        PSCENC =       149.02116556
  Ewald energy   TEWEN  =     -6192.73357395
  -Hartree energ DENC   =     -3318.48509856
  -exchange      EXHF   =         0.00000000
  -V(xc)+E(xc)   XCENC  =       351.71380611
  PAW double counting   =      8892.31515557    -9019.09975774
  entropy T*S    EENTRO =        -0.00000000
  eigenvalues    EBANDS =     -1277.76610787
  atomic energy  EATOM  =     10355.49292304
  Solvation  Ediel_sol  =         0.00000000
  ---------------------------------------------------
  free energy    TOTEN  =       -59.54148785 eV

  energy without entropy =      -59.54148785  energy(sigma->0) =      -59.54148785


--------------------------------------------------------------------------------------------------------




--------------------------------------- Iteration      1(   7)  ---------------------------------------


    POTLOK:  cpu time      0.0236: real time      0.0238
    SETDIJ:  cpu time      0.1152: real time      0.1152
     EDDAV:  cpu time      1.8513: real time      1.8526
       DOS:  cpu time      0.0003: real time      0.0005
    CHARGE:  cpu time      0.0605: real time      0.0607
    MIXING:  cpu time      0.0007: real time      0.0007
    --------------------------------------------
      LOOP:  cpu time      2.0516: real time      2.0535

 eigenvalue-minimisations  :  2528
 total energy-change (2. order) : 0.1924758E+00  (-0.2001855E+00)
 number of electron     111.9999960 magnetization 
 augmentation part        4.3783571 magnetization 

 Broyden mixing:
  rms(total) = 0.53453E+00    rms(broyden)= 0.53453E+00
  rms(prec ) = 0.56003E+00
  weight for this iteration     100.00

 eigenvalues of (default mixing * dielectric matrix)
  average eigenvalue GAMMA=   1.6319
  1.3498  1.9140

 Free energy of the ion-electron system (eV)
  ---------------------------------------------------
  alpha Z        PSCENC =       149.02116556
  Ewald energy   TEWEN  =     -6192.73357395
  -Hartree energ DENC   =     -3318.50615200
  -exchange      EXHF   =         0.00000000
  -V(xc)+E(xc)   XCENC  =       353.15773334
  PAW double counting   =     10493.21269824   -10622.27305863
  entropy T*S    EENTRO =        -0.00000000
  eigenvalues    EBANDS =     -1276.72074768
  atomic energy  EATOM  =     10355.49292304
  Solvation  Ediel_sol  =         0.00000000
  ---------------------------------------------------
  free energy    TOTEN  =       -59.34901207 eV

  energy without entropy =      -59.34901207  energy(sigma->0) =      -59.34901207


--------------------------------------------------------------------------------------------------------




--------------------------------------- Iteration      1(   8)  ---------------------------------------


    POTLOK:  cpu time      0.0238: real time      0.0240
    SETDIJ:  cpu time      0.1149: real time      0.1149
     EDDAV:  cpu time      1.7338: real time      1.7354
       DOS:  cpu time      0.0003: real time      0.0004
    CHARGE:  cpu time      0.0615: real time      0.0615
    MIXING:  cpu time      0.0008: real time      0.0008
    --------------------------------------------
      LOOP:  cpu time      1.9351: real time      1.9371

 eigenvalue-minimisations  :  2432
 total energy-change (2. order) : 0.6603001E-02  (-0.2165596E-01)
 number of electron     111.9999960 magnetization 
 augmentation part        4.3466988 magnetization 

 Broyden mixing:
  rms(total) = 0.18007E+00    rms(broyden)= 0.18006E+00
  rms(prec ) = 0.19048E+00
  weight for this iteration     100.00

 eigenvalues of (default mixing * dielectric matrix)
  average eigenvalue GAMMA=   1.7391
  2.6322  1.2925  1.2925

 Free energy of the ion-electron system (eV)
  ---------------------------------------------------
  alpha Z        PSCENC =       149.02116556
  Ewald energy   TEWEN  =     -6192.73357395
  -Hartree energ DENC   =     -3315.89962437
  -exchange      EXHF   =         0.00000000
  -V(xc)+E(xc)   XCENC  =       353.38520541
  PAW double counting   =     11226.67463007   -11356.65786661
  entropy T*S    EENTRO =        -0.00000000
  eigenvalues    EBANDS =     -1278.62526822
  atomic energy  EATOM  =     10355.49292304
  Solvation  Ediel_sol  =         0.00000000
  ---------------------------------------------------
  free energy    TOTEN  =       -59.34240907 eV

  energy without entropy =      -59.34240907  energy(sigma->0) =      -59.34240907


--------------------------------------------------------------------------------------------------------




--------------------------------------- Iteration      1(   9)  ---------------------------------------


    POTLOK:  cpu time      0.0251: real time      0.0254
    SETDIJ:  cpu time      0.1149: real time      0.1149
     EDDAV:  cpu time      1.8458: real time      1.8476
       DOS:  cpu time      0.0003: real time      0.0005
    CHARGE:  cpu time      0.0606: real time      0.0606
    MIXING:  cpu time      0.0007: real time      0.0007
    --------------------------------------------
      LOOP:  cpu time      2.0473: real time      2.0496

 eigenvalue-minimisations  :  2528
 total energy-change (2. order) :-0.3261261E-02  (-0.2601102E-02)
 number of electron     111.9999960 magnetization 
 augmentation part        4.3408318 magnetization 

 Broyden mixing:
  rms(total) = 0.40995E-01    rms(broyden)= 0.40990E-01
  rms(prec ) = 0.43520E-01
  weight for this iteration     100.00

 eigenvalues of (default mixing * dielectric matrix)
  average eigenvalue GAMMA=   1.5548
  2.2901  1.1628  1.1628  1.6034

 Free energy of the ion-electron system (eV)
  ---------------------------------------------------
  alpha Z        PSCENC =       149.02116556
  Ewald energy   TEWEN  =     -6192.73357395
  -Hartree energ DENC   =     -3315.45218264
  -exchange      EXHF   =         0.00000000
  -V(xc)+E(xc)   XCENC  =       353.67673049
  PAW double counting   =     11563.20397813   -11693.51228840
  entropy T*S    EENTRO =        -0.00000000
  eigenvalues    EBANDS =     -1279.04242256
  atomic energy  EATOM  =     10355.49292304
  Solvation  Ediel_sol  =         0.00000000
  ---------------------------------------------------
  free energy    TOTEN  =       -59.34567033 eV

  energy without entropy =      -59.34567033  energy(sigma->0) =      -59.34567033


--------------------------------------------------------------------------------------------------------




--------------------------------------- Iteration      1(  10)  ---------------------------------------


    POTLOK:  cpu time      0.0236: real time      0.0239
    SETDIJ:  cpu time      0.1146: real time      0.1147
     EDDAV:  cpu time      1.8582: real time      1.8599
       DOS:  cpu time      0.0003: real time      0.0004
    CHARGE:  cpu time      0.0590: real time      0.0590
    MIXING:  cpu time      0.0008: real time      0.0008
    --------------------------------------------
      LOOP:  cpu time      2.0564: real time      2.0587

 eigenvalue-minimisations  :  2560
 total energy-change (2. order) : 0.1647862E-03  (-0.1885522E-03)
 number of electron     111.9999960 magnetization 
 augmentation part        4.3380563 magnetization 

 Broyden mixing:
  rms(total) = 0.19570E-01    rms(broyden)= 0.19567E-01
  rms(prec ) = 0.21533E-01
  weight for this iteration     100.00

 eigenvalues of (default mixing * dielectric matrix)
  average eigenvalue GAMMA=   1.8098
  3.0322  2.5276  1.2275  1.2275  1.0343

 Free energy of the ion-electron system (eV)
  ---------------------------------------------------
  alpha Z        PSCENC =       149.02116556
  Ewald energy   TEWEN  =     -6192.73357395
  -Hartree energ DENC   =     -3315.51882845
  -exchange      EXHF   =         0.00000000
  -V(xc)+E(xc)   XCENC  =       353.64406183
  PAW double counting   =     11465.05425846   -11595.24711634
  entropy T*S    EENTRO =        -0.00000000
  eigenvalues    EBANDS =     -1279.05839570
  atomic energy  EATOM  =     10355.49292304
  Solvation  Ediel_sol  =         0.00000000
  ---------------------------------------------------
  free energy    TOTEN  =       -59.34550555 eV

  energy without entropy =      -59.34550555  energy(sigma->0) =      -59.34550555


--------------------------------------------------------------------------------------------------------




--------------------------------------- Iteration      1(  11)  ---------------------------------------


    POTLOK:  cpu time      0.0245: real time      0.0247
    SETDIJ:  cpu time      0.1153: real time      0.1153
     EDDAV:  cpu time      2.0470: real time      2.0486
       DOS:  cpu time      0.0003: real time      0.0005
    CHARGE:  cpu time      0.0623: real time      0.0623
    MIXING:  cpu time      0.0009: real time      0.0009
    --------------------------------------------
      LOOP:  cpu time      2.2503: real time      2.2524

 eigenvalue-minimisations  :  2784
 total energy-change (2. order) :-0.3023805E-03  (-0.5799751E-04)
 number of electron     111.9999960 magnetization 
 augmentation part        4.3369319 magnetization 

 Broyden mixing:
  rms(total) = 0.79466E-02    rms(broyden)= 0.79458E-02
  rms(prec ) = 0.83714E-02
  weight for this iteration     100.00

 eigenvalues of (default mixing * dielectric matrix)
  average eigenvalue GAMMA=   1.5829
  2.4465  2.4465  1.4230  1.1636  1.1636  0.8540

 Free energy of the ion-electron system (eV)
  ---------------------------------------------------
  alpha Z        PSCENC =       149.02116556
  Ewald energy   TEWEN  =     -6192.73357395
  -Hartree energ DENC   =     -3315.52959581
  -exchange      EXHF   =         0.00000000
  -V(xc)+E(xc)   XCENC  =       353.68584885
  PAW double counting   =     11447.41159986   -11577.54229741
  entropy T*S    EENTRO =        -0.00000000
  eigenvalues    EBANDS =     -1279.15187807
  atomic energy  EATOM  =     10355.49292304
  Solvation  Ediel_sol  =         0.00000000
  ---------------------------------------------------
  free energy    TOTEN  =       -59.34580793 eV

  energy without entropy =      -59.34580793  energy(sigma->0) =      -59.34580793


--------------------------------------------------------------------------------------------------------




--------------------------------------- Iteration      1(  12)  ---------------------------------------


    POTLOK:  cpu time      0.0250: real time      0.0252
    SETDIJ:  cpu time      0.1143: real time      0.1145
     EDDAV:  cpu time      1.7130: real time      1.7141
       DOS:  cpu time      0.0003: real time      0.0005
    CHARGE:  cpu time      0.0601: real time      0.0602
    MIXING:  cpu time      0.0008: real time      0.0008
    --------------------------------------------
      LOOP:  cpu time      1.9135: real time      1.9153

 eigenvalue-minimisations  :  2432
 total energy-change (2. order) : 0.1694622E-04  (-0.4655912E-05)
 number of electron     111.9999960 magnetization 
 augmentation part        4.3371451 magnetization 

 Broyden mixing:
  rms(total) = 0.33419E-02    rms(broyden)= 0.33417E-02
  rms(prec ) = 0.35145E-02
  weight for this iteration     100.00

 eigenvalues of (default mixing * dielectric matrix)
  average eigenvalue GAMMA=   1.6943
  2.7078  2.7078  1.8049  1.3878  1.1117  1.1117  1.0281

 Free energy of the ion-electron system (eV)
  ---------------------------------------------------
  alpha Z        PSCENC =       149.02116556
  Ewald energy   TEWEN  =     -6192.73357395
  -Hartree energ DENC   =     -3315.52858864
  -exchange      EXHF   =         0.00000000
  -V(xc)+E(xc)   XCENC  =       353.68241869
  PAW double counting   =     11449.37518664   -11579.51065552
  entropy T*S    EENTRO =        -0.00000000
  eigenvalues    EBANDS =     -1279.14466681
  atomic energy  EATOM  =     10355.49292304
  Solvation  Ediel_sol  =         0.00000000
  ---------------------------------------------------
  free energy    TOTEN  =       -59.34579098 eV

  energy without entropy =      -59.34579098  energy(sigma->0) =      -59.34579098


--------------------------------------------------------------------------------------------------------




--------------------------------------- Iteration      1(  13)  ---------------------------------------


    POTLOK:  cpu time      0.0237: real time      0.0239
    SETDIJ:  cpu time      0.1151: real time      0.1152
     EDDAV:  cpu time      1.8840: real time      1.8857
       DOS:  cpu time      0.0003: real time      0.0005
    CHARGE:  cpu time      0.0612: real time      0.0612
    MIXING:  cpu time      0.0009: real time      0.0009
    --------------------------------------------
      LOOP:  cpu time      2.0852: real time      2.0873

 eigenvalue-minimisations  :  2560
 total energy-change (2. order) :-0.6828037E-05  (-0.1584898E-05)
 number of electron     111.9999960 magnetization 
 augmentation part        4.3371297 magnetization 

 Broyden mixing:
  rms(total) = 0.91329E-03    rms(broyden)= 0.91319E-03
  rms(prec ) = 0.10010E-02
  weight for this iteration     100.00

 eigenvalues of (default mixing * dielectric matrix)
  average eigenvalue GAMMA=   1.6190
  2.9248  2.4578  1.7060  1.7060  1.1680  1.1680  0.9870  0.8343

 Free energy of the ion-electron system (eV)
  ---------------------------------------------------
  alpha Z        PSCENC =       149.02116556
  Ewald energy   TEWEN  =     -6192.73357395
  -Hartree energ DENC   =     -3315.54118753
  -exchange      EXHF   =         0.00000000
  -V(xc)+E(xc)   XCENC  =       353.68535648
  PAW double counting   =     11443.22916413   -11573.35229419
  entropy T*S    EENTRO =        -0.00000000
  eigenvalues    EBANDS =     -1279.14735135
  atomic energy  EATOM  =     10355.49292304
  Solvation  Ediel_sol  =         0.00000000
  ---------------------------------------------------
  free energy    TOTEN  =       -59.34579781 eV

  energy without entropy =      -59.34579781  energy(sigma->0) =      -59.34579781


--------------------------------------------------------------------------------------------------------




--------------------------------------- Iteration      1(  14)  ---------------------------------------


    POTLOK:  cpu time      0.0253: real time      0.0256
    SETDIJ:  cpu time      0.1139: real time      0.1142
     EDDAV:  cpu time      1.6153: real time      1.6168
       DOS:  cpu time      0.0003: real time      0.0004
    --------------------------------------------
      LOOP:  cpu time      1.7548: real time      1.7569

 eigenvalue-minimisations  :  2176
 total energy-change (2. order) : 0.1219305E-06  (-0.1261722E-06)
 number of electron     111.9999960 magnetization 
 augmentation part        4.3371297 magnetization 

 Free energy of the ion-electron system (eV)
  ---------------------------------------------------
  alpha Z        PSCENC =       149.02116556
  Ewald energy   TEWEN  =     -6192.73357395
  -Hartree energ DENC   =     -3315.53091676
  -exchange      EXHF   =         0.00000000
  -V(xc)+E(xc)   XCENC  =       353.68588627
  PAW double counting   =     11444.97549072   -11575.10030253
  entropy T*S    EENTRO =        -0.00000000
  eigenvalues    EBANDS =     -1279.15647004
  atomic energy  EATOM  =     10355.49292304
  Solvation  Ediel_sol  =         0.00000000
  ---------------------------------------------------
  free energy    TOTEN  =       -59.34579769 eV

  energy without entropy =      -59.34579769  energy(sigma->0) =      -59.34579769


--------------------------------------------------------------------------------------------------------




 average (electrostatic) potential at core
  the test charge radii are     0.6719  1.1712  0.9698
  (the norm of the test charge is              1.0000)
       1 -84.7059       2 -84.7059       3 -84.7059       4 -84.7059       5 -84.7059
       6 -84.7059       7 -89.1028       8 -89.1028       9 -86.2515      10 -86.2515
      11 -86.2515      12 -86.2515      13 -86.2515      14 -86.2515      15 -86.2515
      16 -86.2515



 E-fermi :   4.5595     XC(G=0):  -9.4169     alpha+bet :-11.1034

 Fermi energy:         4.5595447134

 k-point     1 :       0.0000    0.0000    0.0000
  band No.  band energies     occupation 
      1     -46.6620      2.00000
      2     -46.6615      2.00000
      3     -46.6615      2.00000
      4     -46.6592      2.00000
      5     -46.6583      2.00000
      6     -46.6583      2.00000
      7     -18.4697      2.00000
      8     -18.4697      2.00000
      9     -18.4697      2.00000
     10     -18.4369      2.00000
     11     -18.4369      2.00000
     12     -18.4369      2.00000
     13     -18.4294      2.00000
     14     -18.4294      2.00000
     15     -18.4294      2.00000
     16     -18.4103      2.00000
     17     -18.4103      2.00000
     18     -18.4103      2.00000
     19     -18.3935      2.00000
     20     -18.3935      2.00000
     21     -18.3935      2.00000
     22     -18.3808      2.00000
     23     -18.3808      2.00000
     24     -18.3808      2.00000
     25      -9.8350      2.00000
     26      -8.9873      2.00000
     27      -7.8195      2.00000
     28      -7.8195      2.00000
     29      -7.8195      2.00000
     30      -7.2944      2.00000
     31      -7.2944      2.00000
     32      -7.2944      2.00000
     33      -3.6052      2.00000
     34      -3.3581      2.00000
     35      -0.7631      2.00000
     36      -0.7631      2.00000
     37      -0.7631      2.00000
     38       0.4958      2.00000
     39       0.4958      2.00000
     40       1.3235      2.00000
     41       1.3235      2.00000
     42       1.3235      2.00000
     43       1.7424      2.00000
     44       1.7424      2.00000
     45       1.7424      2.00000
     46       1.9061      2.00000
     47       1.9061      2.00000
     48       1.9061      2.00000
     49       3.5934      2.00000
     50       3.5934      2.00000
     51       3.6328      2.00000
     52       3.6328      2.00000
     53       3.6328      2.00000
     54       4.1826      2.00000
     55       4.1826      2.00000
     56       4.1826      2.00000
     57       5.9663      0.00000
     58       6.1086      0.00000
     59       7.6429      0.00000
     60       7.6429      0.00000
     61       7.6429      0.00000
     62       8.8936      0.00000
     63       9.0848      0.00000
     64       9.0848      0.00000
     65       9.8080      0.00000
     66       9.8080      0.00000
     67       9.8080      0.00000
     68      10.7319      0.00000
     69      10.7319      0.00000
     70      10.7319      0.00000
     71      11.6440      0.00000
     72      11.6440      0.00000
     73      12.1144      0.00000
     74      12.1144      0.00000
     75      12.4569      0.00000
     76      12.4569      0.00000
     77      12.4569      0.00000
     78      12.5448      0.00000
     79      12.5448      0.00000
     80      12.5448      0.00000
     81      12.9675      0.00000
     82      12.9675      0.00000
     83      12.9675      0.00000
     84      13.0007      0.00000
     85      13.5576      0.00000
     86      13.5576      0.00000
     87      13.5576      0.00000
     88      13.7731      0.00000
     89      13.7731      0.00000
     90      14.2057      0.00000
     91      14.2057      0.00000
     92      14.2057      0.00000
     93      15.4743      0.00000
     94      15.4743      0.00000
     95      15.4743      0.00000
     96      16.4090      0.00000

 k-point     2 :       0.2500    0.0000    0.0000
  band No.  band energies     occupation 
      1     -46.6618      2.00000
      2     -46.6615      2.00000
      3     -46.6608      2.00000
      4     -46.6596      2.00000
      5     -46.6587      2.00000
      6     -46.6583      2.00000
      7     -18.4592      2.00000
      8     -18.4592      2.00000
      9     -18.4554      2.00000
     10     -18.4439      2.00000
     11     -18.4439      2.00000
     12     -18.4403      2.00000
     13     -18.4276      2.00000
     14     -18.4276      2.00000
     15     -18.4227      2.00000
     16     -18.4227      2.00000
     17     -18.4194      2.00000
     18     -18.4157      2.00000
     19     -18.3976      2.00000
     20     -18.3875      2.00000
     21     -18.3873      2.00000
     22     -18.3873      2.00000
     23     -18.3863      2.00000
     24     -18.3863      2.00000
     25      -9.7362      2.00000
     26      -9.1523      2.00000
     27      -7.7509      2.00000
     28      -7.7509      2.00000
     29      -7.7017      2.00000
     30      -7.3810      2.00000
     31      -7.3810      2.00000
     32      -7.3437      2.00000
     33      -3.6205      2.00000
     34      -3.4657      2.00000
     35      -0.5650      2.00000
     36      -0.5650      2.00000
     37      -0.4431      2.00000
     38       0.6302      2.00000
     39       0.7028      2.00000
     40       0.7028      2.00000
     41       0.7395      2.00000
     42       1.0697      2.00000
     43       1.4795      2.00000
     44       1.9774      2.00000
     45       1.9774      2.00000
     46       2.1968      2.00000
     47       2.4147      2.00000
     48       2.4147      2.00000
     49       2.7717      2.00000
     50       3.5910      2.00000
     51       3.5910      2.00000
     52       3.5939      2.00000
     53       3.7594      2.00000
     54       3.8566      2.00000
     55       3.8566      2.00000
     56       4.1429      2.00000
     57       6.1375      0.00000
     58       6.2653      0.00000
     59       7.7568      0.00000
     60       7.7568      0.00000
     61       7.9320      0.00000
     62       8.9409      0.00000
     63       9.1317      0.00000
     64       9.2330      0.00000
     65       9.2330      0.00000
     66       9.5057      0.00000
     67       9.5679      0.00000
     68      10.1665      0.00000
     69      10.7817      0.00000
     70      11.0571      0.00000
     71      11.0571      0.00000
     72      11.5376      0.00000
     73      11.7740      0.00000
     74      11.9025      0.00000
     75      12.3291      0.00000
     76      12.3291      0.00000
     77      12.4509      0.00000
     78      12.5387      0.00000
     79      12.5387      0.00000
     80      12.9002      0.00000
     81      13.2670      0.00000
     82      13.3858      0.00000
     83      13.4414      0.00000
     84      13.4414      0.00000
     85      13.5735      0.00000
     86      13.5735      0.00000
     87      13.7385      0.00000
     88      13.7690      0.00000
     89      14.2835      0.00000
     90      14.4471      0.00000
     91      14.5510      0.00000
     92      14.5510      0.00000
     93      15.7703      0.00000
     94      15.8550      0.00000
     95      15.8550      0.00000
     96      16.2668      0.00000

 k-point     3 :       0.5000    0.0000    0.0000
  band No.  band energies     occupation 
      1     -46.6617      2.00000
      2     -46.6617      2.00000
      3     -46.6611      2.00000
      4     -46.6611      2.00000
      5     -46.6580      2.00000
      6     -46.6580      2.00000
      7     -18.4607      2.00000
      8     -18.4607      2.00000
      9     -18.4607      2.00000
     10     -18.4607      2.00000
     11     -18.4372      2.00000
     12     -18.4372      2.00000
     13     -18.4303      2.00000
     14     -18.4303      2.00000
     15     -18.4264      2.00000
     16     -18.4264      2.00000
     17     -18.4264      2.00000
     18     -18.4264      2.00000
     19     -18.3932      2.00000
     20     -18.3932      2.00000
     21     -18.3932      2.00000
     22     -18.3932      2.00000
     23     -18.3909      2.00000
     24     -18.3909      2.00000
     25      -9.4726      2.00000
     26      -9.4726      2.00000
     27      -7.5749      2.00000
     28      -7.5749      2.00000
     29      -7.5749      2.00000
     30      -7.5749      2.00000
     31      -7.4930      2.00000
     32      -7.4930      2.00000
     33      -3.6003      2.00000
     34      -3.6003      2.00000
     35      -0.0349      2.00000
     36      -0.0349      2.00000
     37      -0.0349      2.00000
     38      -0.0349      2.00000
     39       0.2768      2.00000
     40       0.2768      2.00000
     41       0.9998      2.00000
     42       0.9998      2.00000
     43       1.6193      2.00000
     44       1.6193      2.00000
     45       2.4948      2.00000
     46       2.4948      2.00000
     47       2.4948      2.00000
     48       2.4948      2.00000
     49       2.9709      2.00000
     50       2.9709      2.00000
     51       3.5069      2.00000
     52       3.5069      2.00000
     53       3.5069      2.00000
     54       3.5069      2.00000
     55       4.0042      2.00000
     56       4.0042      2.00000
     57       6.2940      0.00000
     58       6.2940      0.00000
     59       8.3132      0.00000
     60       8.3132      0.00000
     61       8.3132      0.00000
     62       8.3132      0.00000
     63       8.7125      0.00000
     64       8.7125      0.00000
     65       9.3117      0.00000
     66       9.3117      0.00000
     67       9.8126      0.00000
     68       9.8126      0.00000
     69      10.6971      0.00000
     70      10.6971      0.00000
     71      11.5149      0.00000
     72      11.5149      0.00000
     73      11.5529      0.00000
     74      11.5529      0.00000
     75      11.5529      0.00000
     76      11.5529      0.00000
     77      12.4737      0.00000
     78      12.4737      0.00000
     79      13.4784      0.00000
     80      13.4784      0.00000
     81      13.4784      0.00000
     82      13.4784      0.00000
     83      13.7553      0.00000
     84      13.7554      0.00000
     85      13.9631      0.00000
     86      13.9631      0.00000
     87      14.1738      0.00000
     88      14.1738      0.00000
     89      14.1738      0.00000
     90      14.1738      0.00000
     91      15.1765      0.00000
     92      15.1765      0.00000
     93      15.9897      0.00000
     94      15.9897      0.00000
     95      15.9897      0.00000
     96      15.9897      0.00000

 k-point     4 :       0.2500    0.2500    0.0000
  band No.  band energies     occupation 
      1     -46.6620      2.00000
      2     -46.6616      2.00000
      3     -46.6611      2.00000
      4     -46.6596      2.00000
      5     -46.6592      2.00000
      6     -46.6584      2.00000
      7     -18.4557      2.00000
      8     -18.4523      2.00000
      9     -18.4521      2.00000
     10     -18.4490      2.00000
     11     -18.4416      2.00000
     12     -18.4394      2.00000
     13     -18.4298      2.00000
     14     -18.4280      2.00000
     15     -18.4279      2.00000
     16     -18.4270      2.00000
     17     -18.4222      2.00000
     18     -18.4199      2.00000
     19     -18.4060      2.00000
     20     -18.4008      2.00000
     21     -18.3985      2.00000
     22     -18.3979      2.00000
     23     -18.3940      2.00000
     24     -18.3902      2.00000
     25      -9.6509      2.00000
     26      -9.2297      2.00000
     27      -7.8633      2.00000
     28      -7.6933      2.00000
     29      -7.5563      2.00000
     30      -7.5114      2.00000
     31      -7.4242      2.00000
     32      -7.3055      2.00000
     33      -3.6152      2.00000
     34      -3.4963      2.00000
     35      -0.8066      2.00000
     36      -0.3764      2.00000
     37       0.0528      2.00000
     38       0.1784      2.00000
     39       0.5360      2.00000
     40       0.9167      2.00000
     41       0.9314      2.00000
     42       1.3281      2.00000
     43       1.6785      2.00000
     44       1.7851      2.00000
     45       2.1527      2.00000
     46       2.1926      2.00000
     47       2.3725      2.00000
     48       2.6003      2.00000
     49       2.8316      2.00000
     50       2.9357      2.00000
     51       3.5244      2.00000
     52       3.5707      2.00000
     53       3.7018      2.00000
     54       3.7033      2.00000
     55       3.8129      2.00000
     56       3.9500      2.00000
     57       6.1688      0.00000
     58       6.2997      0.00000
     59       7.5991      0.00000
     60       7.8073      0.00000
     61       8.3865      0.00000
     62       8.3996      0.00000
     63       8.6753      0.00000
     64       9.1924      0.00000
     65       9.6895      0.00000
     66       9.7169      0.00000
     67       9.8460      0.00000
     68      10.4959      0.00000
     69      10.5223      0.00000
     70      10.8747      0.00000
     71      11.0823      0.00000
     72      11.4968      0.00000
     73      11.5024      0.00000
     74      11.8433      0.00000
     75      12.1778      0.00000
     76      12.3006      0.00000
     77      12.3096      0.00000
     78      12.6744      0.00000
     79      12.7028      0.00000
     80      12.8125      0.00000
     81      13.0884      0.00000
     82      13.1091      0.00000
     83      13.2524      0.00000
     84      13.4015      0.00000
     85      13.8531      0.00000
     86      13.9009      0.00000
     87      13.9584      0.00000
     88      14.3188      0.00000
     89      14.5571      0.00000
     90      14.8518      0.00000
     91      15.1097      0.00000
     92      15.2345      0.00000
     93      15.2528      0.00000
     94      15.6414      0.00000
     95      16.0970      0.00000
     96      16.2175      0.00000

 k-point     5 :       0.5000    0.2500    0.0000
  band No.  band energies     occupation 
      1     -46.6616      2.00000
      2     -46.6616      2.00000
      3     -46.6604      2.00000
      4     -46.6604      2.00000
      5     -46.6589      2.00000
      6     -46.6589      2.00000
      7     -18.4558      2.00000
      8     -18.4558      2.00000
      9     -18.4508      2.00000
     10     -18.4508      2.00000
     11     -18.4355      2.00000
     12     -18.4355      2.00000
     13     -18.4349      2.00000
     14     -18.4349      2.00000
     15     -18.4216      2.00000
     16     -18.4216      2.00000
     17     -18.4189      2.00000
     18     -18.4189      2.00000
     19     -18.4146      2.00000
     20     -18.4146      2.00000
     21     -18.3958      2.00000
     22     -18.3958      2.00000
     23     -18.3950      2.00000
     24     -18.3949      2.00000
     25      -9.4388      2.00000
     26      -9.4388      2.00000
     27      -7.7817      2.00000
     28      -7.7817      2.00000
     29      -7.5536      2.00000
     30      -7.5536      2.00000
     31      -7.3609      2.00000
     32      -7.3609      2.00000
     33      -3.5713      2.00000
     34      -3.5713      2.00000
     35      -0.5763      2.00000
     36      -0.5763      2.00000
     37       0.0955      2.00000
     38       0.0955      2.00000
     39       0.9320      2.00000
     40       0.9320      2.00000
     41       1.2798      2.00000
     42       1.2798      2.00000
     43       1.6156      2.00000
     44       1.6156      2.00000
     45       2.3043      2.00000
     46       2.3043      2.00000
     47       2.5438      2.00000
     48       2.5438      2.00000
     49       2.7824      2.00000
     50       2.7824      2.00000
     51       3.3620      2.00000
     52       3.3620      2.00000
     53       3.4816      2.00000
     54       3.4816      2.00000
     55       3.8118      2.00000
     56       3.8118      2.00000
     57       6.2632      0.00000
     58       6.2632      0.00000
     59       7.6972      0.00000
     60       7.6972      0.00000
     61       8.2622      0.00000
     62       8.2622      0.00000
     63       9.0965      0.00000
     64       9.0965      0.00000
     65       9.7196      0.00000
[...]
     18     -17.1896      2.00000
     19     -17.1867      2.00000
     20     -17.1867      2.00000
     21     -17.1623      2.00000
     22     -17.1623      2.00000
     23     -17.1580      2.00000
     24     -17.1580      2.00000
     25      -8.5772      2.00000
     26      -8.5772      2.00000
     27      -6.9227      2.00000
     28      -6.9227      2.00000
     29      -6.6814      2.00000
     30      -6.6814      2.00000
     31      -6.3260      2.00000
     32      -6.3260      2.00000
     33      -2.5550      2.00000
     34      -2.5550      2.00000
     35       0.2234      2.00000
     36       0.2234      2.00000
     37       0.7749      2.00000
     38       0.7749      2.00000
     39       2.1090      2.00000
     40       2.1090      2.00000
     41       2.3038      2.00000
     42       2.3038      2.00000
     43       2.6624      2.00000
     44       2.6624      2.00000
     45       3.4038      2.00000
     46       3.4038      2.00000
     47       3.4267      2.00000
     48       3.4267      2.00000
     49       3.7182      2.00000
     50       3.7182      2.00000
     51       4.3656      2.00000
     52       4.3656      2.00000
     53       4.5543      2.00000
     54       4.5543      2.00000
     55       4.9089      2.00000
     56       4.9089      2.00000
     57       7.2341      0.00000
     58       7.2341      0.00000
     59       8.6027      0.00000
     60       8.6027      0.00000
     61       9.3911      0.00000
     62       9.3911      0.00000
     63      10.4050      0.00000
     64      10.4050      0.00000
     65      11.3583      0.00000
     66      11.3583      0.00000
     67      11.8289      0.00000
     68      11.8289      0.00000
     69      12.5123      0.00000
     70      12.5123      0.00000
     71      12.8407      0.00000
     72      12.8407      0.00000
     73      12.9729      0.00000
     74      12.9729      0.00000
     75      13.6099      0.00000
     76      13.6099      0.00000
     77      14.2049      0.00000
     78      14.2049      0.00000
     79      14.3303      0.00000
     80      14.3303      0.00000
     81      14.7376      0.00000
     82      14.7376      0.00000
     83      15.2384      0.00000
     84      15.2384      0.00000
     85      15.5556      0.00000
     86      15.5556      0.00000
     87      16.3460      0.00000
     88      16.3460      0.00000
     89      16.4551      0.00000
     90      16.4551      0.00000
     91      16.8359      0.00000
     92      16.8359      0.00000
     93      17.5370      0.00000
     94      17.5370      0.00000
     95      17.8554      0.00000
     96      17.8554      0.00000

 k-point     9 :       0.5000    0.5000    0.2500
  band No.  band energies     occupation 
      1     -45.3363      2.00000
      2     -45.3363      2.00000
      3     -45.3347      2.00000
      4     -45.3347      2.00000
      5     -45.3331      2.00000
      6     -45.3331      2.00000
      7     -17.2315      2.00000
      8     -17.2315      2.00000
      9     -17.2185      2.00000
     10     -17.2185      2.00000
     11     -17.2105      2.00000
     12     -17.2105      2.00000
     13     -17.2104      2.00000
     14     -17.2104      2.00000
     15     -17.1943      2.00000
     16     -17.1943      2.00000
     17     -17.1939      2.00000
     18     -17.1939      2.00000
     19     -17.1904      2.00000
     20     -17.1904      2.00000
     21     -17.1856      2.00000
     22     -17.1856      2.00000
     23     -17.1632      2.00000
     24     -17.1632      2.00000
     25      -8.5232      2.00000
     26      -8.5232      2.00000
     27      -7.0024      2.00000
     28      -7.0024      2.00000
     29      -6.6382      2.00000
     30      -6.6382      2.00000
     31      -6.4093      2.00000
     32      -6.4093      2.00000
     33      -2.4494      2.00000
     34      -2.4494      2.00000
     35       0.0821      2.00000
     36       0.0821      2.00000
     37       1.0411      2.00000
     38       1.0411      2.00000
     39       1.7238      2.00000
     40       1.7238      2.00000
     41       2.7863      2.00000
     42       2.7863      2.00000
     43       3.1187      2.00000
     44       3.1187      2.00000
     45       3.2593      2.00000
     46       3.2593      2.00000
     47       3.2888      2.00000
     48       3.2888      2.00000
     49       3.9256      2.00000
     50       3.9256      2.00000
     51       4.2280      2.00000
     52       4.2280      2.00000
     53       4.2875      2.00000
     54       4.2875      2.00000
     55       4.4536      2.00000
     56       4.4536      2.00000
     57       7.2752      0.00000
     58       7.2752      0.00000
     59       8.3026      0.00000
     60       8.3026      0.00000
     61       9.5142      0.00000
     62       9.5142      0.00000
     63      10.1667      0.00000
     64      10.1667      0.00000
     65      12.0664      0.00000
     66      12.0664      0.00000
     67      12.0674      0.00000
     68      12.0674      0.00000
     69      12.2748      0.00000
     70      12.2748      0.00000
     71      12.5639      0.00000
     72      12.5639      0.00000
     73      13.1767      0.00000
     74      13.1767      0.00000
     75      13.6977      0.00000
     76      13.6977      0.00000
     77      13.7813      0.00000
     78      13.7813      0.00000
     79      14.6026      0.00000
     80      14.6026      0.00000
     81      15.0857      0.00000
     82      15.0857      0.00000
     83      15.3284      0.00000
     84      15.3284      0.00000
     85      15.8677      0.00000
     86      15.8677      0.00000
     87      16.0885      0.00000
     88      16.0885      0.00000
     89      16.9462      0.00000
     90      16.9462      0.00000
     91      17.2640      0.00000
     92      17.2640      0.00000
     93      17.3937      0.00000
     94      17.3937      0.00000
     95      17.4385      0.00000
     96      17.4385      0.00000

 k-point    10 :       0.5000    0.5000    0.5000
  band No.  band energies     occupation 
      1     -45.3347      2.00000
      2     -45.3347      2.00000
      3     -45.3347      2.00000
      4     -45.3346      2.00000
      5     -45.3346      2.00000
      6     -45.3346      2.00000
      7     -17.2293      2.00000
      8     -17.2293      2.00000
      9     -17.2066      2.00000
     10     -17.2066      2.00000
     11     -17.2066      2.00000
     12     -17.2066      2.00000
     13     -17.1944      2.00000
     14     -17.1944      2.00000
     15     -17.1944      2.00000
     16     -17.1944      2.00000
     17     -17.1944      2.00000
     18     -17.1944      2.00000
     19     -17.1847      2.00000
     20     -17.1847      2.00000
     21     -17.1847      2.00000
     22     -17.1847      2.00000
     23     -17.1847      2.00000
     24     -17.1847      2.00000
     25      -8.4834      2.00000
     26      -8.4834      2.00000
     27      -6.7272      2.00000
     28      -6.7272      2.00000
     29      -6.7272      2.00000
     30      -6.7272      2.00000
     31      -6.7272      2.00000
     32      -6.7272      2.00000
     33      -2.3132      2.00000
     34      -2.3132      2.00000
     35       0.8210      2.00000
     36       0.8210      2.00000
     37       0.8210      2.00000
     38       0.8210      2.00000
     39       0.8210      2.00000
     40       0.8210      2.00000
     41       3.3889      2.00000
     42       3.3889      2.00000
     43       3.3889      2.00000
     44       3.3889      2.00000
     45       3.7751      2.00000
     46       3.7751      2.00000
     47       3.7751      2.00000
     48       3.7751      2.00000
     49       3.7751      2.00000
     50       3.7751      2.00000
     51       3.7941      2.00000
     52       3.7941      2.00000
     53       3.7941      2.00000
     54       3.7941      2.00000
     55       3.7941      2.00000
     56       3.7941      2.00000
     57       7.3860      0.00000
     58       7.3860      0.00000
     59       9.0487      0.00000
     60       9.0487      0.00000
     61       9.0487      0.00000
     62       9.0487      0.00000
     63       9.0487      0.00000
     64       9.0487      0.00000
     65      12.7187      0.00000
     66      12.7187      0.00000
     67      12.7187      0.00000
     68      12.7187      0.00000
     69      12.7187      0.00000
     70      12.7187      0.00000
     71      12.9628      0.00000
     72      12.9628      0.00000
     73      12.9628      0.00000
     74      12.9628      0.00000
     75      13.4563      0.00000
     76      13.4563      0.00000
     77      13.4563      0.00000
     78      13.4563      0.00000
     79      13.4563      0.00000
     80      13.4563      0.00000
     81      15.9307      0.00000
     82      15.9307      0.00000
     83      16.2737      0.00000
     84      16.2737      0.00000
     85      16.2737      0.00000
     86      16.2737      0.00000
     87      16.2737      0.00000
     88      16.2737      0.00000
     89      17.3527      0.00000
     90      17.3527      0.00000
     91      17.3527      0.00000
     92      17.3527      0.00000
     93      17.4952      0.00000
     94      17.4952      0.00000
     95      17.4952      0.00000
     96      17.4952      0.00000


--------------------------------------------------------------------------------------------------------


 soft charge-density along one line, spin component           1
         0         1         2         3         4         5         6         7         8         9
 total charge-density along one line

 pseudopotential strength for first ion, spin component:           1
-20.949   1.677   0.000  -0.000   0.000  -0.000   0.000  -0.000
  1.677  -2.248   0.000  -0.000   0.000   0.000  -0.000   0.000
  0.000   0.000 -36.771  -0.000   0.000   9.168   0.000  -0.000
 -0.000  -0.000  -0.000 -36.769  -0.000   0.000   9.167   0.000
  0.000   0.000   0.000  -0.000 -36.771  -0.000   0.000   9.168
 -0.000   0.000   9.168   0.000  -0.000  23.245  -0.000   0.000
  0.000  -0.000   0.000   9.167   0.000  -0.000  23.246  -0.000
 -0.000   0.000  -0.000   0.000   9.168   0.000  -0.000  23.245
 total augmentation occupancy for first ion, spin component:           1
  2.004   0.009  -0.000   0.000   0.000  -0.000   0.000  -0.000
  0.009   0.509  -0.000   0.000   0.000  -0.000  -0.000  -0.000
  0.000  -0.000   2.020  -0.000  -0.000   0.011  -0.000   0.000
 -0.000   0.000  -0.000   2.021  -0.000  -0.000   0.010  -0.000
  0.000   0.000  -0.000  -0.000   2.020   0.000  -0.000   0.011
  0.000   0.000   0.011  -0.000  -0.000   0.003  -0.000  -0.000
  0.000  -0.000  -0.000   0.010  -0.000  -0.000   0.004  -0.000
  0.000  -0.000   0.000  -0.000   0.011  -0.000  -0.000   0.003


------------------------ aborting loop because EDIFF is reached ----------------------------------------


    CHARGE:  cpu time      0.0606: real time      0.0606
    FORLOC:  cpu time      0.0056: real time      0.0056
    FORNL :  cpu time      0.3278: real time      0.3281
    STRESS:  cpu time      0.9692: real time      0.9698
    FORCOR:  cpu time      0.0237: real time      0.0237
    FORHAR:  cpu time      0.0074: real time      0.0074
    MIXING:  cpu time      0.0006: real time      0.0006
    OFIELD:  cpu time      0.0000: real time      0.0000

 ---------------------------------------------------------------------------------------------

         DFTD3 V3.0 Rev 1        
 Edisp (eV)   -6.09399

 E6    (eV) :    -3.5253
 E8    (eV) :    -2.5687
 % E8        : 42.15
    FORVDW:  cpu time      0.0427: real time      0.0427

  FORCE on cell =-STRESS in cart. coord.  units (eV):
  Direction    XX          YY          ZZ          XY          YZ          ZX
  --------------------------------------------------------------------------------------
  Alpha Z   167.87017   167.87017   167.87017
  Ewald   -2151.71063 -2151.71063 -2151.71063     0.00000     0.00000     0.00000
  Hartree  1065.67871  1065.67871  1065.67871    -0.00000    -0.00000    -0.00000
  E(xc)    -580.80467  -580.80467  -580.80467    -0.00000    -0.00000    -0.00000
  Local    -838.05955  -838.05955  -838.05955    -0.00000    -0.00000    -0.00000
  n-local  -107.13681  -105.63933  -107.29225    -0.51124    -0.62160    -0.22874
  augment    49.24105    49.24105    49.24105    -0.00000    -0.00000    -0.00000
  Kinetic  2402.97925  2402.56371  2396.51568    -0.52819    -0.17291    -0.13667
  Fock        0.00000     0.00000     0.00000     0.00000     0.00000     0.00000
  vdW        -6.20987    -6.20987    -6.20987    -0.00000    -0.00000    -0.00000
  -------------------------------------------------------------------------------------
  Total       0.00196     0.00196     0.00196    -0.00000     0.00000     0.00000
  in kB       0.01148     0.01148     0.01148    -0.00000     0.00000     0.00000
  external pressure =        0.01 kB  Pullay stress =        0.00 kB


 VOLUME and BASIS-vectors are now :
 -----------------------------------------------------------------------------
  energy-cutoff  :      520.00
  volume of cell :      273.86
      direct lattice vectors                 reciprocal lattice vectors
     6.493920890 -0.000000000  0.000000000     0.153990173  0.000000000  0.000000000
    -0.000000000  6.493920890  0.000000000     0.000000000  0.153990173  0.000000000
    -0.000000000 -0.000000000  6.493920890    -0.000000000 -0.000000000  0.153990173

  length of vectors
     6.493920890  6.493920890  6.493920890     0.153990173  0.153990173  0.153990173


 FORCES acting on ions
    electron-ion (+dipol)            ewald-force                    non-local-force                 convergence-correction
 -----------------------------------------------------------------------------------------------
   0.235E-06 0.235E-06 -.392E-06   0.170E-05 0.170E-05 -.279E-05   -.569E-19 0.165E-19 -.448E-18   -.565E-11 -.587E-11 -.213E-10
   0.235E-06 -.392E-06 0.235E-06   0.170E-05 -.279E-05 0.170E-05   -.406E-19 -.274E-18 -.324E-19   -.571E-11 -.213E-10 -.580E-11
   -.392E-06 0.235E-06 0.235E-06   -.279E-05 0.170E-05 0.170E-05   -.198E-18 -.118E-18 -.943E-19   -.214E-10 -.582E-11 -.579E-11
   -.816E-07 -.816E-07 -.356E-06   -.628E-06 -.628E-06 -.250E-05   -.544E-19 0.735E-21 -.686E-18   0.132E-10 0.134E-10 -.391E-10
   -.816E-07 -.356E-06 -.816E-07   -.628E-06 -.250E-05 -.628E-06   -.780E-19 -.248E-18 0.214E-19   0.132E-10 -.391E-10 0.132E-10
   -.356E-06 -.816E-07 -.816E-07   -.250E-05 -.628E-06 -.628E-06   -.876E-18 0.470E-19 -.268E-19   -.390E-10 0.133E-10 0.132E-10
   0.224E-06 0.224E-06 0.224E-06   0.159E-05 0.159E-05 0.159E-05   0.276E-18 -.392E-17 0.532E-18   0.727E-11 0.721E-11 0.722E-11
   0.629E-06 0.629E-06 0.629E-06   0.461E-05 0.461E-05 0.461E-05   0.147E-17 -.431E-17 0.766E-18   0.166E-10 0.167E-10 0.166E-10
   0.807E+01 0.807E+01 0.807E+01   -.972E+01 -.972E+01 -.972E+01   0.164E+01 0.164E+01 0.164E+01   0.975E-04 0.975E-04 0.975E-04
   -.807E+01 -.807E+01 0.807E+01   0.972E+01 0.972E+01 -.972E+01   -.164E+01 -.164E+01 0.164E+01   -.975E-04 -.975E-04 0.975E-04
   0.807E+01 -.807E+01 -.807E+01   -.972E+01 0.972E+01 0.972E+01   0.164E+01 -.164E+01 -.164E+01   0.975E-04 -.975E-04 -.975E-04
   -.807E+01 0.807E+01 -.807E+01   0.972E+01 -.972E+01 0.972E+01   -.164E+01 0.164E+01 -.164E+01   -.975E-04 0.975E-04 -.975E-04
   0.807E+01 0.807E+01 0.807E+01   -.972E+01 -.972E+01 -.972E+01   0.164E+01 0.164E+01 0.164E+01   0.975E-04 0.975E-04 0.975E-04
   -.807E+01 -.807E+01 0.807E+01   0.972E+01 0.972E+01 -.972E+01   -.164E+01 -.164E+01 0.164E+01   -.975E-04 -.975E-04 0.975E-04
   0.807E+01 -.807E+01 -.807E+01   -.972E+01 0.972E+01 0.972E+01   0.164E+01 -.164E+01 -.164E+01   0.975E-04 -.975E-04 -.975E-04
   -.807E+01 0.807E+01 -.807E+01   0.972E+01 -.972E+01 0.972E+01   -.164E+01 0.164E+01 -.164E+01   -.975E-04 0.975E-04 -.975E-04
 -----------------------------------------------------------------------------------------------
   -.363E-04 -.363E-04 -.364E-04   -.124E-13 -.284E-13 -.711E-14   -.222E-15 0.000E+00 0.888E-15   -.400E-10 -.401E-10 -.402E-10


 POSITION                                       TOTAL-FORCE (eV/Angst)
 -----------------------------------------------------------------------------------
      0.00000      0.00000      3.24696         0.000000      0.000000      0.000000
      0.00000      3.24696      0.00000         0.000000      0.000000      0.000000
      3.24696      0.00000      0.00000         0.000000      0.000000     -0.000000
      3.24696      3.24696      0.00000         0.000000      0.000000      0.000000
      3.24696      0.00000      3.24696         0.000000      0.000000      0.000000
      0.00000      3.24696      3.24696         0.000000      0.000000     -0.000000
      0.00000      0.00000      0.00000         0.000000      0.000000     -0.000000
      3.24696      3.24696      3.24696         0.000000      0.000000      0.000000
      1.90278      1.90278      1.90278         0.001190      0.001190      0.001190
      1.34419      1.34419      5.14974        -0.001190     -0.001190      0.001190
      5.14974      1.34419      1.34419         0.001190     -0.001190     -0.001190
      1.34419      5.14974      1.34419        -0.001190      0.001190     -0.001190
      5.14974      5.14974      5.14974         0.001190      0.001190      0.001190
      4.59115      4.59115      1.90278        -0.001190     -0.001190      0.001190
      1.90278      4.59115      4.59115         0.001190     -0.001190     -0.001190
      4.59115      1.90278      4.59115        -0.001190      0.001190     -0.001190
 -----------------------------------------------------------------------------------
    total drift:                               -0.000036     -0.000036     -0.000036


--------------------------------------------------------------------------------------------------------



  FREE ENERGIE OF THE ION-ELECTRON SYSTEM (eV)
  ---------------------------------------------------
  free  energy   TOTEN  =       -66.59439772 eV

  energy  without entropy=      -66.59439772  energy(sigma->0) =      -66.59439772

 d Force =-0.1340495E-04[ 0.241E-05,-0.292E-04]  d Energy = 0.1315245E-02-0.133E-02
 d Force =-0.1968497E-01[-0.197E-01,-0.197E-01]  d Ewald  =-0.6552924E+01 0.653E+01


--------------------------------------------------------------------------------------------------------


    POTLOK:  cpu time      0.1398: real time      0.1399


--------------------------------------------------------------------------------------------------------




--------------------------------------------------------------------------------------------------------


  
 reached required accuracy - stopping structural energy minimisation
 writing wavefunctions
     LOOP+:  cpu time     17.7398: real time     17.7643
    4ORBIT:  cpu time      0.0000: real time      0.0000

 total amount of memory used by VASP MPI-rank0    50031. kBytes
=======================================================================

   base      :      30000. kBytes
   nonlr-proj:       6366. kBytes
   fftplans  :       1813. kBytes
   grid      :       7638. kBytes
   one-center:        129. kBytes
   wavefun   :       4085. kBytes

  
  
 General timing and accounting informations for this job:
 ========================================================
  
                  Total CPU time used (sec):      188.499
                            User time (sec):      186.451
                          System time (sec):        2.048
                         Elapsed time (sec):      190.381
  
                   Maximum memory used (kb):      167988.
                   Average memory used (kb):          N/A
  
                          Minor page faults:        70627
                          Major page faults:          219
                 Voluntary context switches:         1754
