  39  39   0   0
  0.2439952E+02  0.6834254E-09  0.1767185E-08  0.7880486E-09  0.0000000E+00
   1.0000000000000000E-004
  CAR 
 NEB_refined                             
      9.51251209    -23.82200420  301      1.07461158      1.00000000
    -23.822  0.0000E+00  0.0000E+00
    -23.711  0.0000E+00  0.0000E+00
    -23.600  0.0000E+00  0.0000E+00
    -23.489 -0.9121E-31 -0.1013E-31
    -23.378 -0.6735E-27 -0.7485E-28
    -23.266 -0.2672E-23 -0.2969E-24
    -23.155 -0.5697E-20 -0.6333E-21
    -23.044 -0.6527E-17 -0.7258E-18
    -22.933 -0.3889E-14 -0.4329E-15
    -22.822 -0.1274E-11 -0.1420E-12
    -22.711 -0.2231E-09 -0.2493E-10
    -22.600 -0.2081E-07 -0.2337E-08
    -22.489 -0.1028E-05 -0.1166E-06
    -22.378 -0.2663E-04 -0.3075E-05
    -22.266 -0.3530E-03 -0.4230E-04
    -22.155 -0.2249E-02 -0.2922E-03
    -22.044 -0.5274E-02 -0.8782E-03
    -21.933  0.7474E-02 -0.4774E-04
    -21.822  0.6127E-01  0.6760E-02
    -21.711  0.1230E+00  0.2043E-01
    -21.600  0.1317E+00  0.3506E-01
    -21.489  0.1436E+00  0.5102E-01
    -21.377  0.2682E+00  0.8082E-01
    -21.266  0.4523E+00  0.1311E+00
    -21.155  0.4979E+00  0.1864E+00
    -21.044  0.3154E+00  0.2214E+00
    -20.933  0.8541E-01  0.2309E+00
    -20.822 -0.1072E-01  0.2297E+00
    -20.711 -0.1239E-01  0.2284E+00
    -20.600 -0.2970E-02  0.2280E+00
    -20.489 -0.3270E-03  0.2280E+00
    -20.377 -0.1845E-04  0.2280E+00
    -20.266 -0.5507E-06  0.2280E+00
    -20.155 -0.8810E-08  0.2280E+00
    -20.044 -0.7593E-10  0.2280E+00
    -19.933 -0.3532E-12  0.2280E+00
    -19.822 -0.8873E-15  0.2280E+00
    -19.711  0.0000E+00  0.2280E+00
    -19.600  0.0000E+00  0.2280E+00
    -19.489  0.0000E+00  0.2280E+00
    -19.377  0.0000E+00  0.2280E+00
    -19.266  0.0000E+00  0.2280E+00
    -19.155  0.0000E+00  0.2280E+00
    -19.044  0.0000E+00  0.2280E+00
    -18.933  0.0000E+00  0.2280E+00
    -18.822  0.0000E+00  0.2280E+00
    -18.711  0.0000E+00  0.2280E+00
    -18.600  0.0000E+00  0.2280E+00
    -18.488  0.0000E+00  0.2280E+00
    -18.377  0.0000E+00  0.2280E+00
    -18.266  0.0000E+00  0.2280E+00
    -18.155  0.0000E+00  0.2280E+00
    -18.044  0.0000E+00  0.2280E+00
    -17.933  0.0000E+00  0.2280E+00
    -17.822  0.0000E+00  0.2280E+00
    -17.711  0.0000E+00  0.2280E+00
    -17.600  0.0000E+00  0.2280E+00
    -17.488  0.0000E+00  0.2280E+00
    -17.377  0.0000E+00  0.2280E+00
    -17.266  0.0000E+00  0.2280E+00
    -17.155  0.0000E+00  0.2280E+00
    -17.044  0.0000E+00  0.2280E+00
    -16.933  0.0000E+00  0.2280E+00
    -16.822  0.0000E+00  0.2280E+00
    -16.711  0.0000E+00  0.2280E+00
    -16.600  0.0000E+00  0.2280E+00
    -16.488  0.0000E+00  0.2280E+00
    -16.377  0.0000E+00  0.2280E+00
    -16.266  0.0000E+00  0.2280E+00
    -16.155  0.0000E+00  0.2280E+00
    -16.044  0.0000E+00  0.2280E+00
    -15.933  0.0000E+00  0.2280E+00
    -15.822  0.0000E+00  0.2280E+00
    -15.711  0.0000E+00  0.2280E+00
    -15.599  0.0000E+00  0.2280E+00
    -15.488  0.0000E+00  0.2280E+00
    -15.377  0.0000E+00  0.2280E+00
    -15.266  0.0000E+00  0.2280E+00
    -15.155  0.0000E+00  0.2280E+00
    -15.044  0.0000E+00  0.2280E+00
    -14.933  0.0000E+00  0.2280E+00
    -14.822  0.0000E+00  0.2280E+00
    -14.711  0.0000E+00  0.2280E+00
    -14.599  0.0000E+00  0.2280E+00
    -14.488  0.0000E+00  0.2280E+00
    -14.377  0.0000E+00  0.2280E+00
    -14.266  0.0000E+00  0.2280E+00
    -14.155 -0.2997E-30  0.2280E+00
    -14.044 -0.2073E-26  0.2280E+00
    -13.933 -0.7669E-23  0.2280E+00
    -13.822 -0.1529E-19  0.2280E+00
    -13.711 -0.1643E-16  0.2280E+00
    -13.599 -0.9208E-14  0.2280E+00
    -13.488 -0.2851E-11  0.2280E+00
    -13.377 -0.4742E-09  0.2280E+00
    -13.266 -0.4224E-07  0.2280E+00
    -13.155 -0.2005E-05  0.2280E+00
    -13.044 -0.5010E-04  0.2280E+00
    -12.933 -0.6414E-03  0.2279E+00
    -12.822 -0.3902E-02  0.2275E+00
    -12.710 -0.8092E-02  0.2266E+00
    -12.599  0.1715E-01  0.2285E+00
    -12.488  0.1075E+00  0.2404E+00
    -12.377  0.1996E+00  0.2626E+00
    -12.266  0.2049E+00  0.2854E+00
    -12.155  0.1427E+00  0.3012E+00
    -12.044  0.6181E-01  0.3081E+00
    -11.933  0.7289E-02  0.3089E+00
    -11.822 -0.5478E-02  0.3083E+00
    -11.710 -0.2419E-02  0.3080E+00
    -11.599 -0.3981E-03  0.3080E+00
    -11.488 -0.3171E-04  0.3080E+00
    -11.377 -0.1301E-05  0.3080E+00
    -11.266 -0.2807E-07  0.3080E+00
    -11.155 -0.3223E-09  0.3080E+00
    -11.044 -0.8457E-10  0.3080E+00
    -10.933 -0.7602E-08  0.3080E+00
    -10.822 -0.3671E-06  0.3080E+00
    -10.710 -0.9181E-05  0.3080E+00
    -10.599 -0.1160E-03  0.3080E+00
    -10.488 -0.6947E-03  0.3079E+00
    -10.377 -0.1493E-02  0.3077E+00
    -10.266  0.2459E-02  0.3080E+00
    -10.155  0.1875E-01  0.3101E+00
    -10.044  0.4061E-01  0.3146E+00
     -9.933  0.4644E-01  0.3198E+00
     -9.822  0.2971E-01  0.3231E+00
     -9.710  0.6557E-02  0.3238E+00
     -9.599 -0.5818E-02  0.3232E+00
     -9.488  0.1503E-01  0.3248E+00
     -9.377  0.8567E-01  0.3343E+00
     -9.266  0.1445E+00  0.3504E+00
     -9.155  0.1204E+00  0.3638E+00
     -9.044  0.5863E-01  0.3703E+00
     -8.933  0.1772E-01  0.3723E+00
     -8.821  0.7204E-03  0.3724E+00
     -8.710 -0.2168E-02  0.3721E+00
     -8.599 -0.8512E-03  0.3720E+00
     -8.488 -0.1356E-03  0.3720E+00
     -8.377 -0.1047E-04  0.3720E+00
     -8.266 -0.4129E-06  0.3720E+00
     -8.155 -0.8493E-08  0.3720E+00
     -8.044 -0.9212E-10  0.3720E+00
     -7.933 -0.5303E-12  0.3720E+00
     -7.821 -0.1631E-14  0.3720E+00
     -7.710  0.0000E+00  0.3720E+00
     -7.599  0.0000E+00  0.3720E+00
     -7.488  0.0000E+00  0.3720E+00
     -7.377  0.0000E+00  0.3720E+00
     -7.266  0.0000E+00  0.3720E+00
     -7.155  0.0000E+00  0.3720E+00
     -7.044  0.0000E+00  0.3720E+00
     -6.933  0.0000E+00  0.3720E+00
     -6.821  0.0000E+00  0.3720E+00
     -6.710  0.0000E+00  0.3720E+00
     -6.599  0.0000E+00  0.3720E+00
     -6.488  0.0000E+00  0.3720E+00
     -6.377  0.0000E+00  0.3720E+00
     -6.266  0.0000E+00  0.3720E+00
     -6.155  0.0000E+00  0.3720E+00
     -6.044  0.0000E+00  0.3720E+00
     -5.932  0.0000E+00  0.3720E+00
     -5.821  0.0000E+00  0.3720E+00
     -5.710  0.0000E+00  0.3720E+00
     -5.599  0.0000E+00  0.3720E+00
     -5.488  0.0000E+00  0.3720E+00
     -5.377  0.0000E+00  0.3720E+00
     -5.266  0.0000E+00  0.3720E+00
     -5.155  0.0000E+00  0.3720E+00
     -5.044  0.0000E+00  0.3720E+00
     -4.932 -0.1673E-30  0.3720E+00
     -4.821 -0.1122E-26  0.3720E+00
     -4.710 -0.4036E-23  0.3720E+00
     -4.599 -0.7784E-20  0.3720E+00
     -4.488 -0.8039E-17  0.3720E+00
     -4.377 -0.4293E-14  0.3720E+00
     -4.266 -0.1255E-11  0.3720E+00
     -4.155 -0.1945E-09  0.3720E+00
     -4.044 -0.1588E-07  0.3720E+00
     -3.932 -0.6763E-06  0.3720E+00
     -3.821 -0.1475E-04  0.3720E+00
     -3.710 -0.1588E-03  0.3720E+00
     -3.599 -0.7674E-03  0.3719E+00
     -3.488 -0.1007E-02  0.3718E+00
     -3.377  0.3944E-02  0.3722E+00
     -3.266  0.1816E-01  0.3742E+00
     -3.155  0.3724E-01  0.3784E+00
     -3.043  0.4653E-01  0.3835E+00
     -2.932  0.3261E-01  0.3872E+00
     -2.821  0.9892E-02  0.3883E+00
     -2.710 -0.7688E-03  0.3882E+00
     -2.599 -0.1301E-02  0.3880E+00
     -2.488 -0.3283E-03  0.3880E+00
     -2.377 -0.3653E-04  0.3880E+00
     -2.266 -0.2021E-05  0.3880E+00
     -2.155 -0.1383E-06  0.3880E+00
     -2.043 -0.2623E-05  0.3880E+00
     -1.932 -0.4312E-04  0.3880E+00
     -1.821 -0.3427E-03  0.3880E+00
     -1.710 -0.1144E-02  0.3878E+00
     -1.599 -0.3985E-03  0.3878E+00
     -1.488  0.7164E-02  0.3886E+00
     -1.377  0.2539E-01  0.3914E+00
     -1.266  0.5579E-01  0.3976E+00
     -1.155  0.8400E-01  0.4069E+00
     -1.043  0.8359E-01  0.4162E+00
     -0.932  0.5255E-01  0.4221E+00
     -0.821  0.2335E-01  0.4247E+00
     -0.710  0.2819E-01  0.4278E+00
     -0.599  0.4116E-01  0.4324E+00
     -0.488  0.2565E-01  0.4352E+00
     -0.377  0.4708E-02  0.4357E+00
     -0.266  0.1685E-01  0.4376E+00
     -0.154  0.6102E-01  0.4444E+00
     -0.043  0.1052E+00  0.4561E+00
      0.068  0.1287E+00  0.4704E+00
      0.179  0.1231E+00  0.4841E+00
      0.290  0.1049E+00  0.4957E+00
      0.401  0.1075E+00  0.5077E+00
      0.512  0.1113E+00  0.5200E+00
      0.623  0.8581E-01  0.5296E+00
      0.734  0.6342E-01  0.5366E+00
      0.846  0.7749E-01  0.5452E+00
      0.957  0.8925E-01  0.5551E+00
      1.068  0.5961E-01  0.5617E+00
      1.179  0.2096E-01  0.5641E+00
      1.290  0.2140E-02  0.5643E+00
      1.401 -0.1763E-02  0.5641E+00
      1.512 -0.8969E-03  0.5640E+00
      1.623 -0.1726E-03  0.5640E+00
      1.734 -0.1576E-04  0.5640E+00
      1.846 -0.7229E-06  0.5640E+00
      1.957 -0.1709E-07  0.5640E+00
      2.068 -0.2112E-09  0.5640E+00
      2.179 -0.1337E-10  0.5640E+00
      2.290 -0.1410E-08  0.5640E+00
      2.401 -0.8684E-07  0.5640E+00
      2.512 -0.2762E-05  0.5640E+00
      2.623 -0.4397E-04  0.5640E+00
      2.734 -0.3246E-03  0.5640E+00
      2.846 -0.8182E-03  0.5639E+00
      2.957  0.1484E-02  0.5640E+00
      3.068  0.1031E-01  0.5652E+00
      3.179  0.1621E-01  0.5670E+00
      3.290  0.9329E-02  0.5680E+00
      3.401  0.9873E-03  0.5681E+00
      3.512 -0.8097E-03  0.5680E+00
      3.623 -0.3242E-03  0.5680E+00
      3.735 -0.4472E-03  0.5679E+00
      3.846 -0.1554E-02  0.5678E+00
      3.957 -0.1119E-03  0.5678E+00
      4.068  0.1396E-01  0.5693E+00
      4.179  0.3591E-01  0.5733E+00
      4.290  0.3898E-01  0.5776E+00
      4.401  0.2021E-01  0.5799E+00
      4.512  0.3319E-02  0.5803E+00
      4.623 -0.1385E-02  0.5801E+00
      4.735 -0.7343E-03  0.5800E+00
      4.846 -0.1328E-03  0.5800E+00
      4.957 -0.6940E-04  0.5800E+00
      5.068 -0.4839E-03  0.5799E+00
      5.179 -0.1662E-02  0.5798E+00
      5.290  0.1202E-03  0.5798E+00
      5.401  0.1517E-01  0.5815E+00
      5.512  0.3860E-01  0.5857E+00
      5.623  0.4344E-01  0.5906E+00
      5.735  0.3235E-01  0.5942E+00
      5.846  0.3847E-01  0.5984E+00
      5.957  0.6102E-01  0.6052E+00
      6.068  0.6436E-01  0.6124E+00
      6.179  0.4405E-01  0.6173E+00
      6.290  0.1999E-01  0.6195E+00
      6.401  0.5430E-02  0.6201E+00
      6.512  0.1384E-01  0.6216E+00
      6.624  0.3307E-01  0.6253E+00
      6.735  0.3915E-01  0.6297E+00
      6.846  0.4084E-01  0.6342E+00
      6.957  0.4622E-01  0.6393E+00
      7.068  0.4688E-01  0.6445E+00
      7.179  0.4659E-01  0.6497E+00
      7.290  0.5170E-01  0.6555E+00
      7.401  0.5931E-01  0.6620E+00
      7.512  0.5541E-01  0.6682E+00
      7.624  0.3142E-01  0.6717E+00
      7.735  0.6296E-02  0.6724E+00
      7.846 -0.2096E-02  0.6722E+00
      7.957 -0.1234E-02  0.6720E+00
      8.068 -0.2196E-03  0.6720E+00
      8.179 -0.1789E-04  0.6720E+00
      8.290 -0.7277E-06  0.6720E+00
      8.401 -0.1527E-07  0.6720E+00
      8.512 -0.1679E-09  0.6720E+00
      8.624 -0.9769E-12  0.6720E+00
      8.735 -0.3029E-14  0.6720E+00
      8.846  0.0000E+00  0.6720E+00
      8.957  0.0000E+00  0.6720E+00
      9.068  0.0000E+00  0.6720E+00
      9.179  0.0000E+00  0.6720E+00
      9.290  0.0000E+00  0.6720E+00
      9.401  0.0000E+00  0.6720E+00
      9.513  0.0000E+00  0.6720E+00
