 vasp.6.3.2 27Jun22 (build Jun 14 2024 17:29:11) complex                         
 POSCAR found type information on POSCAR NaInS 
 05/POSCAR found :  3 types and      39 ions
 -----------------------------------------------------------------------------
|                                                                             |
|           W    W    AA    RRRRR   N    N  II  N    N   GGGG   !!!           |
|           W    W   A  A   R    R  NN   N  II  NN   N  G    G  !!!           |
|           W    W  A    A  R    R  N N  N  II  N N  N  G       !!!           |
|           W WW W  AAAAAA  RRRRR   N  N N  II  N  N N  G  GGG   !            |
|           WW  WW  A    A  R   R   N   NN  II  N   NN  G    G                |
|           W    W  A    A  R    R  N    N  II  N    N   GGGG   !!!           |
|                                                                             |
|     The value NPAR = 9 specified in the INCAR file was overwritten,         |
|     because it was not compatible with the 3 processes available:           |
|     NPAR = 3                                                                |
|     was used instead, please check that this makes sense for your           |
|     machine.                                                                |
|                                                                             |
 -----------------------------------------------------------------------------

 LDA part: xc-table for Pade appr. of Perdew
 POSCAR found type information on POSCAR NaInS 
 00/POSCAR found :  3 types and      39 ions
 POSCAR found type information on POSCAR NaInS 
 10/POSCAR found :  3 types and      39 ions
 POSCAR, INCAR and KPOINTS ok, starting setup
 FFT: planning ... GRIDC
 FFT: planning ... GRID_SOFT
 FFT: planning ... GRID
 WAVECAR not read
 entering main loop
       N       E                     dE             d eps       ncg     rms          rms(c)
DAV:   1     0.289553834995E+04    0.28955E+04   -0.11438E+05   336   0.151E+03
DAV:   2     0.321579898612E+03   -0.25740E+04   -0.24920E+04   354   0.437E+02
DAV:   3    -0.110408270799E+03   -0.43199E+03   -0.42360E+03   387   0.194E+02
DAV:   4    -0.146746405145E+03   -0.36338E+02   -0.36016E+02   402   0.507E+01
DAV:   5    -0.148322373924E+03   -0.15760E+01   -0.15734E+01   465   0.114E+01    0.195E+01
RMM:   6    -0.139391575506E+03    0.89308E+01   -0.17396E+01   384   0.730E+00    0.122E+01
RMM:   7    -0.139164225880E+03    0.22735E+00   -0.14387E+01   400   0.517E+00    0.706E+00
RMM:   8    -0.139297554458E+03   -0.13333E+00   -0.13562E+00   378   0.336E+00    0.224E+00
RMM:   9    -0.139102160115E+03    0.19539E+00   -0.44404E-01   430   0.161E+00    0.167E+00
RMM:  10    -0.139059071366E+03    0.43089E-01   -0.12334E-01   460   0.917E-01    0.101E+00
RMM:  11    -0.139055887890E+03    0.31835E-02   -0.34848E-02   491   0.388E-01    0.921E-01
RMM:  12    -0.139055817572E+03    0.70319E-04   -0.70808E-03   486   0.184E-01    0.689E-01
RMM:  13    -0.139063947456E+03   -0.81299E-02   -0.12522E-02   421   0.211E-01    0.311E-01
RMM:  14    -0.139062160429E+03    0.17870E-02   -0.37262E-03   381   0.136E-01    0.176E-01
RMM:  15    -0.139062057948E+03    0.10248E-03   -0.23729E-03   392   0.816E-02    0.770E-02
RMM:  16    -0.139062255618E+03   -0.19767E-03   -0.69608E-04   367   0.557E-02    0.379E-02
RMM:  17    -0.139062310687E+03   -0.55069E-04   -0.14826E-04   323   0.300E-02    0.229E-02
RMM:  18    -0.139062313209E+03   -0.25212E-05   -0.63594E-05   330   0.181E-02
   1 F= -.13906231E+03 E0= -.13907511E+03  d E =-.139062E+03
quench:  g(F)=  0.000E+00 g(S)=  0.000E+00 dE (1.order)= 0.000E+00
 bond charge predicted
       N       E                     dE             d eps       ncg     rms          rms(c)
DAV:   1    -0.139062314241E+03   -0.35541E-05   -0.10142E-05   207   0.109E-02    0.211E-02
RMM:   2    -0.139062315084E+03   -0.84291E-06   -0.62467E-06   195   0.942E-03
   2 F= -.13906232E+03 E0= -.13907510E+03  d E =-.187574E-05
quench:  g(F)=  0.000E+00 g(S)=  0.000E+00 dE (1.order)= 0.000E+00
 bond charge predicted
       N       E                     dE             d eps       ncg     rms          rms(c)
DAV:   1    -0.139062318532E+03   -0.42909E-05   -0.38620E-05   249   0.113E-02    0.103E-02
RMM:   2    -0.139062326052E+03   -0.75197E-05   -0.71265E-06   197   0.609E-03
   3 F= -.13906233E+03 E0= -.13907509E+03  d E =-.109676E-04
quench:  g(F)=  0.000E+00 g(S)=  0.000E+00 dE (1.order)= 0.000E+00
 bond charge predicted
       N       E                     dE             d eps       ncg     rms          rms(c)
DAV:   1    -0.139062316127E+03    0.24048E-05   -0.79006E-05   231   0.129E-02    0.477E-03
RMM:   2    -0.139062316773E+03   -0.64578E-06   -0.42082E-06   184   0.461E-03
   4 F= -.13906232E+03 E0= -.13907511E+03  d E =0.927864E-05
quench:  g(F)=  0.000E+00 g(S)=  0.000E+00 dE (1.order)= 0.000E+00
 bond charge predicted
       N       E                     dE             d eps       ncg     rms          rms(c)
DAV:   1    -0.139062316922E+03   -0.79487E-06   -0.22096E-06   213   0.459E-03    0.351E-03
RMM:   2    -0.139062317150E+03   -0.22793E-06   -0.29938E-07   110   0.212E-03
   5 F= -.13906232E+03 E0= -.13907511E+03  d E =-.377011E-06
quench:  g(F)=  0.000E+00 g(S)=  0.000E+00 dE (1.order)= 0.000E+00
 bond charge predicted
       N       E                     dE             d eps       ncg     rms          rms(c)
DAV:   1    -0.139062316975E+03   -0.53125E-07   -0.24277E-06   213   0.291E-03    0.258E-03
RMM:   2    -0.139062317010E+03   -0.34164E-07   -0.12110E-08    39   0.151E-03
   6 F= -.13906232E+03 E0= -.13907511E+03  d E =0.140637E-06
quench:  g(F)=  0.000E+00 g(S)=  0.000E+00 dE (1.order)= 0.000E+00
 bond charge predicted
       N       E                     dE             d eps       ncg     rms          rms(c)
DAV:   1    -0.139062317030E+03   -0.54246E-07   -0.10416E-06   213   0.193E-03    0.175E-03
RMM:   2    -0.139062317127E+03   -0.97469E-07    0.12131-109    31   0.112E-03
   7 F= -.13906232E+03 E0= -.13907511E+03  d E =-.117550E-06
quench:  g(F)=  0.000E+00 g(S)=  0.000E+00 dE (1.order)= 0.000E+00
 bond charge predicted
       N       E                     dE             d eps       ncg     rms          rms(c)
DAV:   1    -0.139062316992E+03    0.37453E-07   -0.13316E-06   213   0.174E-03    0.897E-04
RMM:   2    -0.139062316999E+03   -0.65193E-08    0.78602E-54    23   0.994E-04
   8 F= -.13906232E+03 E0= -.13907510E+03  d E =0.128402E-06
quench:  g(F)=  0.000E+00 g(S)=  0.000E+00 dE (1.order)= 0.000E+00
 bond charge predicted
       N       E                     dE             d eps       ncg     rms          rms(c)
DAV:   1    -0.139062316998E+03   -0.55552E-08   -0.29216E-07   213   0.107E-03    0.825E-04
RMM:   2    -0.139062316996E+03    0.14988E-08    0.74174-223    21   0.729E-04
   9 F= -.13906232E+03 E0= -.13907510E+03  d E =0.246291E-08
quench:  g(F)=  0.000E+00 g(S)=  0.000E+00 dE (1.order)= 0.000E+00
 bond charge predicted
       N       E                     dE             d eps       ncg     rms          rms(c)
DAV:   1    -0.139062316990E+03    0.73451E-08   -0.15519E-07   186   0.855E-04    0.550E-04
RMM:   2    -0.139062316993E+03   -0.22628E-08    0.27053-258    18   0.530E-04
  10 F= -.13906232E+03 E0= -.13907510E+03  d E =0.358341E-08
quench:  g(F)=  0.000E+00 g(S)=  0.000E+00 dE (1.order)= 0.000E+00
 bond charge predicted
       N       E                     dE             d eps       ncg     rms          rms(c)
DAV:   1    -0.139062316986E+03    0.47330E-08   -0.10399E-07   186   0.604E-04    0.399E-04
RMM:   2    -0.139062316983E+03    0.25284E-08    0.15161-258    15   0.446E-04
  11 F= -.13906232E+03 E0= -.13907511E+03  d E =0.952423E-08
quench:  g(F)=  0.000E+00 g(S)=  0.000E+00 dE (1.order)= 0.000E+00
 bond charge predicted
       N       E                     dE             d eps       ncg     rms          rms(c)
DAV:   1    -0.139062316983E+03    0.22774E-08   -0.41034E-08   186   0.472E-04    0.345E-04
RMM:   2    -0.139062316984E+03   -0.43656E-09    0.12522-267    15   0.359E-04
  12 F= -.13906232E+03 E0= -.13907511E+03  d E =-.687578E-09
quench:  g(F)=  0.000E+00 g(S)=  0.000E+00 dE (1.order)= 0.000E+00
 bond charge predicted
       N       E                     dE             d eps       ncg     rms          rms(c)
DAV:   1    -0.139062316982E+03    0.12296E-08   -0.34914E-08   186   0.416E-04    0.213E-04
RMM:   2    -0.139062316980E+03    0.21646E-08    0.00000E+00    13   0.238E-04
  13 F= -.13906232E+03 E0= -.13907511E+03  d E =0.383079E-08
quench:  g(F)=  0.000E+00 g(S)=  0.000E+00 dE (1.order)= 0.000E+00
 bond charge predicted
       N       E                     dE             d eps       ncg     rms          rms(c)
DAV:   1    -0.139062316980E+03    0.24411E-08   -0.12839E-08   186   0.258E-04    0.221E-04
RMM:   2    -0.139062316979E+03    0.84765E-09    0.00000E+00    13   0.210E-04
  14 F= -.13906232E+03 E0= -.13907511E+03  d E =0.112414E-08
quench:  g(F)=  0.000E+00 g(S)=  0.000E+00 dE (1.order)= 0.000E+00
 bond charge predicted
       N       E                     dE             d eps       ncg     rms          rms(c)
DAV:   1    -0.139062316979E+03    0.11496E-08   -0.10368E-08   186   0.238E-04    0.133E-04
RMM:   2    -0.139062316977E+03    0.13788E-08    0.00000E+00    12   0.128E-04
  15 F= -.13906232E+03 E0= -.13907511E+03  d E =0.168075E-08
quench:  g(F)=  0.000E+00 g(S)=  0.000E+00 dE (1.order)= 0.000E+00
 bond charge predicted
       N       E                     dE             d eps       ncg     rms          rms(c)
DAV:   1    -0.139062316977E+03    0.18808E-08   -0.55653E-09   186   0.152E-04    0.110E-04
RMM:   2    -0.139062316976E+03    0.39290E-09    0.00000E+00    11   0.111E-04
  16 F= -.13906232E+03 E0= -.13907511E+03  d E =0.894943E-09
quench:  g(F)=  0.000E+00 g(S)=  0.000E+00 dE (1.order)= 0.000E+00
 bond charge predicted
       N       E                     dE             d eps       ncg     rms          rms(c)
DAV:   1    -0.139062316976E+03    0.56389E-09   -0.25723E-09   186   0.121E-04    0.969E-05
RMM:   2    -0.139062316976E+03    0.34197E-09    0.00000E+00    11   0.845E-05
  17 F= -.13906232E+03 E0= -.13907511E+03  d E =0.512955E-09
quench:  g(F)=  0.000E+00 g(S)=  0.000E+00 dE (1.order)= 0.000E+00
 bond charge predicted
       N       E                     dE             d eps       ncg     rms          rms(c)
DAV:   1    -0.139062316975E+03    0.11350E-08   -0.31463E-09   186   0.110E-04    0.544E-05
RMM:   2    -0.139062316975E+03   -0.41109E-09    0.00000E+00    10   0.660E-05
  18 F= -.13906232E+03 E0= -.13907511E+03  d E =0.381988E-09
quench:  g(F)=  0.000E+00 g(S)=  0.000E+00 dE (1.order)= 0.000E+00
 bond charge predicted
       N       E                     dE             d eps       ncg     rms          rms(c)
DAV:   1    -0.139062316976E+03   -0.64392E-09   -0.73444E-10   186   0.702E-05    0.562E-05
RMM:   2    -0.139062316975E+03    0.67303E-09    0.00000E+00     9   0.534E-05
  19 F= -.13906232E+03 E0= -.13907511E+03  d E =0.440195E-09
quench:  g(F)=  0.000E+00 g(S)=  0.000E+00 dE (1.order)= 0.000E+00
 bond charge predicted
       N       E                     dE             d eps       ncg     rms          rms(c)
DAV:   1    -0.139062316974E+03    0.19609E-08   -0.71207E-10   186   0.614E-05    0.357E-05
RMM:   2    -0.139062316975E+03   -0.11532E-08    0.00000E+00     8   0.384E-05
  20 F= -.13906232E+03 E0= -.13907511E+03  d E =0.134605E-09
quench:  g(F)=  0.000E+00 g(S)=  0.000E+00 dE (1.order)= 0.000E+00
 bond charge predicted
       N       E                     dE             d eps       ncg     rms          rms(c)
DAV:   1    -0.139062316975E+03   -0.15098E-08   -0.46043E-10   186   0.445E-05    0.336E-05
RMM:   2    -0.139062316975E+03    0.68394E-09    0.00000E+00     6   0.325E-05
  21 F= -.13906232E+03 E0= -.13907511E+03  d E =0.327418E-09
quench:  g(F)=  0.000E+00 g(S)=  0.000E+00 dE (1.order)= 0.000E+00
 bond charge predicted
       N       E                     dE             d eps       ncg     rms          rms(c)
DAV:   1    -0.139062316974E+03    0.12114E-08   -0.25004E-10   186   0.359E-05    0.267E-05
RMM:   2    -0.139062316975E+03   -0.49840E-09    0.00000E+00     6   0.275E-05
  22 F= -.13906232E+03 E0= -.13907511E+03  d E =0.291038E-10
quench:  g(F)=  0.000E+00 g(S)=  0.000E+00 dE (1.order)= 0.000E+00
 bond charge predicted
       N       E                     dE             d eps       ncg     rms          rms(c)
DAV:   1    -0.139062316975E+03   -0.63665E-09   -0.31566E-10   186   0.353E-05    0.138E-05
RMM:   2    -0.139062316974E+03    0.59663E-09    0.00000E+00     5   0.212E-05
  23 F= -.13906232E+03 E0= -.13907511E+03  d E =0.458385E-09
quench:  g(F)=  0.000E+00 g(S)=  0.000E+00 dE (1.order)= 0.000E+00
 bond charge predicted
       N       E                     dE             d eps       ncg     rms          rms(c)
DAV:   1    -0.139062316974E+03    0.96406E-09   -0.12927E-11   186   0.215E-05    0.163E-05
RMM:   2    -0.139062316974E+03   -0.53114E-09    0.00000E+00     5   0.170E-05
  24 F= -.13906232E+03 E0= -.13907511E+03  d E =-.163709E-09
quench:  g(F)=  0.000E+00 g(S)=  0.000E+00 dE (1.order)= 0.000E+00
 bond charge predicted
       N       E                     dE             d eps       ncg     rms          rms(c)
DAV:   1    -0.139062316974E+03   -0.52387E-09   -0.31710E-11   186   0.199E-05    0.936E-06
RMM:   2    -0.139062316974E+03    0.11642E-09    0.00000E+00     5   0.119E-05
  25 F= -.13906232E+03 E0= -.13907511E+03  d E =0.123691E-09
quench:  g(F)=  0.000E+00 g(S)=  0.000E+00 dE (1.order)= 0.000E+00
 bond charge predicted
       N       E                     dE             d eps       ncg     rms          rms(c)
DAV:   1    -0.139062316975E+03   -0.76034E-09   -0.45626E-11   186   0.130E-05    0.894E-06
RMM:   2    -0.139062316974E+03    0.98589E-09    0.00000E+00     4   0.103E-05
  26 F= -.13906232E+03 E0= -.13907511E+03  d E =0.109139E-09
quench:  g(F)=  0.000E+00 g(S)=  0.000E+00 dE (1.order)= 0.000E+00
 bond charge predicted
       N       E                     dE             d eps       ncg     rms          rms(c)
DAV:   1    -0.139062316974E+03    0.11241E-08   -0.40700E-12   186   0.113E-05    0.660E-06
RMM:   2    -0.139062316974E+03   -0.23647E-09    0.00000E+00     4   0.742E-06
  27 F= -.13906232E+03 E0= -.13907511E+03  d E =-.982254E-10
quench:  g(F)=  0.000E+00 g(S)=  0.000E+00 dE (1.order)= 0.000E+00
 bond charge predicted
       N       E                     dE             d eps       ncg     rms          rms(c)
DAV:   1    -0.139062316974E+03   -0.64392E-09    0.17408E-11   186   0.915E-06    0.405E-06
RMM:   2    -0.139062316974E+03    0.54206E-09    0.00000E+00     4   0.608E-06
  28 F= -.13906232E+03 E0= -.13907511E+03  d E =0.134605E-09
quench:  g(F)=  0.000E+00 g(S)=  0.000E+00 dE (1.order)= 0.000E+00
 bond charge predicted
       N       E                     dE             d eps       ncg     rms          rms(c)
DAV:   1    -0.139062316974E+03    0.62573E-09    0.19301E-11   186   0.632E-06    0.510E-06
RMM:   2    -0.139062316974E+03   -0.14552E-09    0.00000E+00     4   0.503E-06
  29 F= -.13906232E+03 E0= -.13907511E+03  d E =-.618456E-10
quench:  g(F)=  0.000E+00 g(S)=  0.000E+00 dE (1.order)= 0.000E+00
 bond charge predicted
       N       E                     dE             d eps       ncg     rms          rms(c)
DAV:   1    -0.139062316974E+03    0.17099E-09   -0.10283E-11   186   0.596E-06    0.276E-06
RMM:   2    -0.139062316974E+03   -0.24374E-09    0.00000E+00     4   0.360E-06
  30 F= -.13906232E+03 E0= -.13907511E+03  d E =0.727596E-10
quench:  g(F)=  0.000E+00 g(S)=  0.000E+00 dE (1.order)= 0.000E+00
 bond charge predicted
       N       E                     dE             d eps       ncg     rms          rms(c)
DAV:   1    -0.139062316975E+03   -0.96770E-09    0.12228E-10   186   0.408E-06    0.177E-06
RMM:   2    -0.139062316974E+03    0.83310E-09    0.00000E+00     4   0.289E-06
  31 F= -.13906232E+03 E0= -.13907511E+03  d E =0.109139E-09
quench:  g(F)=  0.000E+00 g(S)=  0.000E+00 dE (1.order)= 0.000E+00
 bond charge predicted
       N       E                     dE             d eps       ncg     rms          rms(c)
DAV:   1    -0.139062316974E+03    0.57844E-09   -0.31151E-11   186   0.300E-06    0.205E-06
RMM:   2    -0.139062316974E+03    0.22555E-09    0.00000E+00     4   0.234E-06
  32 F= -.13906232E+03 E0= -.13907511E+03  d E =-.291038E-10
quench:  g(F)=  0.000E+00 g(S)=  0.000E+00 dE (1.order)= 0.000E+00
 bond charge predicted
       N       E                     dE             d eps       ncg     rms          rms(c)
DAV:   1    -0.139062316973E+03    0.10295E-08    0.21970E-11   186   0.275E-06    0.119E-06
RMM:   2    -0.139062316974E+03   -0.86220E-09    0.00000E+00     4   0.172E-06
  33 F= -.13906232E+03 E0= -.13907511E+03  d E =-.582077E-10
quench:  g(F)=  0.000E+00 g(S)=  0.000E+00 dE (1.order)= 0.000E+00
 bond charge predicted
       N       E                     dE             d eps       ncg     rms          rms(c)
DAV:   1    -0.139062316973E+03    0.54570E-10    0.57103E-11   186   0.198E-06    0.853E-07
RMM:   2    -0.139062316974E+03   -0.10878E-08    0.00000E+00     4   0.146E-06
  34 F= -.13906232E+03 E0= -.13907511E+03  d E =-.170985E-09
quench:  g(F)=  0.000E+00 g(S)=  0.000E+00 dE (1.order)= 0.000E+00
 bond charge predicted
       N       E                     dE             d eps       ncg     rms          rms(c)
DAV:   1    -0.139062316974E+03   -0.84765E-09   -0.39247E-11   186   0.153E-06    0.929E-07
RMM:   2    -0.139062316974E+03   -0.25102E-09    0.00000E+00     4   0.121E-06
  35 F= -.13906232E+03 E0= -.13907511E+03  d E =-.109139E-10
quench:  g(F)=  0.000E+00 g(S)=  0.000E+00 dE (1.order)= 0.000E+00
 bond charge predicted
       N       E                     dE             d eps       ncg     rms          rms(c)
DAV:   1    -0.139062316974E+03   -0.90949E-10   -0.37115E-11   186   0.141E-06    0.527E-07
RMM:   2    -0.139062316974E+03   -0.17826E-09    0.00000E+00     4   0.888E-07
  36 F= -.13906232E+03 E0= -.13907511E+03  d E =-.181899E-10
quench:  g(F)=  0.000E+00 g(S)=  0.000E+00 dE (1.order)= 0.000E+00
 bond charge predicted
       N       E                     dE             d eps       ncg     rms          rms(c)
DAV:   1    -0.139062316974E+03    0.72760E-11    0.68235E-11   186   0.953E-07    0.474E-07
RMM:   2    -0.139062316974E+03   -0.10550E-09    0.00000E+00     4   0.727E-07
  37 F= -.13906232E+03 E0= -.13907511E+03  d E =0.800355E-10
quench:  g(F)=  0.000E+00 g(S)=  0.000E+00 dE (1.order)= 0.000E+00
 bond charge predicted
       N       E                     dE             d eps       ncg     rms          rms(c)
DAV:   1    -0.139062316973E+03    0.45839E-09    0.18543E-11   186   0.788E-07    0.351E-07
RMM:   2    -0.139062316974E+03   -0.62937E-09    0.00000E+00     4   0.572E-07
  38 F= -.13906232E+03 E0= -.13907511E+03  d E =-.654836E-10
quench:  g(F)=  0.000E+00 g(S)=  0.000E+00 dE (1.order)= 0.000E+00
 bond charge predicted
       N       E                     dE             d eps       ncg     rms          rms(c)
DAV:   1    -0.139062316974E+03   -0.62573E-09   -0.24915E-12   186   0.640E-07    0.239E-07
RMM:   2    -0.139062316974E+03    0.14188E-09    0.00000E+00     4   0.462E-07
  39 F= -.13906232E+03 E0= -.13907511E+03  d E =0.145519E-09
quench:  g(F)=  0.000E+00 g(S)=  0.000E+00 dE (1.order)= 0.000E+00
 bond charge predicted
       N       E                     dE             d eps       ncg     rms          rms(c)
DAV:   1    -0.139062316974E+03    0.14188E-09    0.56894E-11   186   0.484E-07    0.277E-07
RMM:   2    -0.139062316974E+03   -0.61846E-10    0.00000E+00     4   0.394E-07
  40 F= -.13906232E+03 E0= -.13907511E+03  d E =-.618456E-10
quench:  g(F)=  0.000E+00 g(S)=  0.000E+00 dE (1.order)= 0.000E+00
 bond charge predicted
       N       E                     dE             d eps       ncg     rms          rms(c)
DAV:   1    -0.139062316974E+03    0.28012E-09   -0.30543E-11   186   0.440E-07    0.166E-07
RMM:   2    -0.139062316974E+03   -0.35288E-09    0.00000E+00     4   0.281E-07
  41 F= -.13906232E+03 E0= -.13907511E+03  d E =-.109139E-10
quench:  g(F)=  0.000E+00 g(S)=  0.000E+00 dE (1.order)= 0.000E+00
 bond charge predicted
       N       E                     dE             d eps       ncg     rms          rms(c)
DAV:   1    -0.139062316974E+03   -0.45475E-09    0.17009E-11   186   0.315E-07    0.128E-07
RMM:   2    -0.139062316974E+03    0.69122E-10    0.00000E+00     4   0.239E-07
  42 F= -.13906232E+03 E0= -.13907511E+03  d E =-.327418E-10
quench:  g(F)=  0.000E+00 g(S)=  0.000E+00 dE (1.order)= 0.000E+00
 bond charge predicted
       N       E                     dE             d eps       ncg     rms          rms(c)
DAV:   1    -0.139062316974E+03    0.57480E-09    0.70254E-12   186   0.252E-07    0.124E-07
RMM:   2    -0.139062316974E+03   -0.42201E-09    0.00000E+00     4   0.192E-07
  43 F= -.13906232E+03 E0= -.13907511E+03  d E =0.836735E-10
quench:  g(F)=  0.000E+00 g(S)=  0.000E+00 dE (1.order)= 0.000E+00
 bond charge predicted
       N       E                     dE             d eps       ncg     rms          rms(c)
DAV:   1    -0.139062316975E+03   -0.10987E-08   -0.62046E-11   186   0.223E-07    0.729E-08
RMM:   2    -0.139062316974E+03    0.78944E-09    0.00000E+00     4   0.148E-07
  44 F= -.13906232E+03 E0= -.13907511E+03  d E =0.112777E-09
quench:  g(F)=  0.000E+00 g(S)=  0.000E+00 dE (1.order)= 0.000E+00
 bond charge predicted
       N       E                     dE             d eps       ncg     rms          rms(c)
DAV:   1    -0.139062316974E+03    0.23283E-09    0.12845E-10   186   0.156E-07    0.727E-08
RMM:   2    -0.139062316974E+03    0.48749E-09    0.00000E+00     3   0.121E-07
  45 F= -.13906232E+03 E0= -.13907511E+03  d E =-.691216E-10
quench:  g(F)=  0.000E+00 g(S)=  0.000E+00 dE (1.order)= 0.000E+00
 bond charge predicted
       N       E                     dE             d eps       ncg     rms          rms(c)
DAV:   1    -0.139062316974E+03    0.32742E-09    0.33484E-11   186   0.131E-07    0.483E-08
RMM:   2    -0.139062316974E+03    0.13824E-09    0.00000E+00     3   0.947E-08
  46 F= -.13906232E+03 E0= -.13907511E+03  d E =-.218279E-10
quench:  g(F)=  0.000E+00 g(S)=  0.000E+00 dE (1.order)= 0.000E+00
 bond charge predicted
       N       E                     dE             d eps       ncg     rms          rms(c)
DAV:   1    -0.139062316974E+03    0.23647E-09   -0.77004E-11   186   0.103E-07    0.394E-08
RMM:   2    -0.139062316974E+03   -0.19645E-09    0.00000E+00     3   0.786E-08
  47 F= -.13906232E+03 E0= -.13907511E+03  d E =-.982254E-10
quench:  g(F)=  0.000E+00 g(S)=  0.000E+00 dE (1.order)= 0.000E+00
 bond charge predicted
       N       E                     dE             d eps       ncg     rms          rms(c)
DAV:   1    -0.139062316974E+03   -0.64392E-09    0.43878E-13   186   0.827E-08    0.404E-08
RMM:   2    -0.139062316974E+03    0.41837E-09    0.00000E+00     3   0.653E-08
  48 F= -.13906232E+03 E0= -.13907511E+03  d E =-.291038E-10
quench:  g(F)=  0.000E+00 g(S)=  0.000E+00 dE (1.order)= 0.000E+00
 bond charge predicted
       N       E                     dE             d eps       ncg     rms          rms(c)
DAV:   1    -0.139062316973E+03    0.11205E-08   -0.38313E-11   186   0.739E-08    0.235E-08
RMM:   2    -0.139062316974E+03   -0.57844E-09    0.00000E+00     3   0.494E-08
  49 F= -.13906232E+03 E0= -.13907511E+03  d E =0.123691E-09
quench:  g(F)=  0.000E+00 g(S)=  0.000E+00 dE (1.order)= 0.000E+00
 bond charge predicted
       N       E                     dE             d eps       ncg     rms          rms(c)
DAV:   1    -0.139062316973E+03    0.25102E-09   -0.16486E-11   186   0.522E-08    0.234E-08
RMM:   2    -0.139062316974E+03   -0.85856E-09    0.00000E+00     3   0.413E-08
  50 F= -.13906232E+03 E0= -.13907511E+03  d E =-.291038E-10
quench:  g(F)=  0.000E+00 g(S)=  0.000E+00 dE (1.order)= 0.000E+00
 bond charge predicted
       N       E                     dE             d eps       ncg     rms          rms(c)
DAV:   1    -0.139062316974E+03   -0.10223E-08   -0.89309E-11   186   0.445E-08    0.155E-08
RMM:   2    -0.139062316974E+03    0.30559E-09    0.00000E+00     3   0.312E-08
  51 F= -.13906232E+03 E0= -.13907511E+03  d E =0.141881E-09
quench:  g(F)=  0.000E+00 g(S)=  0.000E+00 dE (1.order)= 0.000E+00
 bond charge predicted
       N       E                     dE             d eps       ncg     rms          rms(c)
DAV:   1    -0.139062316974E+03    0.21828E-10   -0.40558E-11   186   0.348E-08    0.107E-08
RMM:   2    -0.139062316974E+03    0.21828E-09    0.00000E+00     2   0.262E-08
  52 F= -.13906232E+03 E0= -.13907511E+03  d E =-.654836E-10
quench:  g(F)=  0.000E+00 g(S)=  0.000E+00 dE (1.order)= 0.000E+00
 bond charge predicted
       N       E                     dE             d eps       ncg     rms          rms(c)
DAV:   1    -0.139062316974E+03   -0.20373E-09    0.23518E-11   168   0.271E-08    0.125E-08
RMM:   2    -0.139062316974E+03    0.30195E-09    0.00000E+00     2   0.215E-08
  53 F= -.13906232E+03 E0= -.13907511E+03  d E =-.120053E-09
quench:  g(F)=  0.000E+00 g(S)=  0.000E+00 dE (1.order)= 0.000E+00
 bond charge predicted
       N       E                     dE             d eps       ncg     rms          rms(c)
DAV:   1    -0.139062316974E+03    0.34925E-09   -0.63550E-11   168   0.242E-08    0.726E-09
RMM:   2    -0.139062316974E+03    0.25466E-10    0.00000E+00     2   0.161E-08
  54 F= -.13906232E+03 E0= -.13907511E+03  d E =0.727596E-10
quench:  g(F)=  0.000E+00 g(S)=  0.000E+00 dE (1.order)= 0.000E+00
 bond charge predicted
       N       E                     dE             d eps       ncg     rms          rms(c)
DAV:   1    -0.139062316974E+03    0.45475E-09    0.30901E-11   168   0.174E-08    0.585E-09
RMM:   2    -0.139062316974E+03   -0.37835E-09    0.00000E+00     2   0.130E-08
  55 F= -.13906232E+03 E0= -.13907511E+03  d E =0.509317E-10
quench:  g(F)=  0.000E+00 g(S)=  0.000E+00 dE (1.order)= 0.000E+00
 bond charge predicted
       N       E                     dE             d eps       ncg     rms          rms(c)
DAV:   1    -0.139062316973E+03    0.42928E-09    0.29741E-11   168   0.139E-08    0.499E-09
RMM:   2    -0.139062316974E+03   -0.84765E-09    0.00000E+00     2   0.107E-08
  56 F= -.13906232E+03 E0= -.13907511E+03  d E =-.400178E-10
quench:  g(F)=  0.000E+00 g(S)=  0.000E+00 dE (1.order)= 0.000E+00
 bond charge predicted
       N       E                     dE             d eps       ncg     rms          rms(c)
DAV:   1    -0.139062316974E+03   -0.87675E-09   -0.26104E-11   168   0.116E-08    0.345E-09
RMM:   2    -0.139062316974E+03   -0.43656E-10    0.00000E+00     2   0.845E-09
  57 F= -.13906232E+03 E0= -.13907511E+03  d E =-.727596E-10
quench:  g(F)=  0.000E+00 g(S)=  0.000E+00 dE (1.order)= 0.000E+00
 bond charge predicted
       N       E                     dE             d eps       ncg     rms          rms(c)
DAV:   1    -0.139062316974E+03   -0.37471E-09    0.81921E-12   168   0.900E-09    0.319E-09
RMM:   2    -0.139062316974E+03    0.38563E-09    0.00000E+00     1   0.723E-09
  58 F= -.13906232E+03 E0= -.13907511E+03  d E =0.545697E-10
quench:  g(F)=  0.000E+00 g(S)=  0.000E+00 dE (1.order)= 0.000E+00
 bond charge predicted
       N       E                     dE             d eps       ncg     rms          rms(c)
DAV:   1    -0.139062316974E+03    0.61846E-10    0.54456E-11   168   0.768E-09    0.237E-09
RMM:   2    -0.139062316974E+03    0.38563E-09    0.00000E+00     2   0.558E-09
  59 F= -.13906232E+03 E0= -.13907511E+03  d E =0.618456E-10
quench:  g(F)=  0.000E+00 g(S)=  0.000E+00 dE (1.order)= 0.000E+00
 bond charge predicted
       N       E                     dE             d eps       ncg     rms          rms(c)
DAV:   1    -0.139062316974E+03    0.46202E-09    0.34771E-11   168   0.607E-09    0.172E-09
RMM:   2    -0.139062316974E+03   -0.76398E-10    0.00000E+00     1   0.457E-09
  60 F= -.13906232E+03 E0= -.13907511E+03  d E =0.000000E+00
quench:  g(F)=  0.000E+00 g(S)=  0.000E+00 dE (1.order)= 0.000E+00
 bond charge predicted
       N       E                     dE             d eps       ncg     rms          rms(c)
DAV:   1    -0.139062316974E+03   -0.43656E-10   -0.42450E-11   168   0.479E-09    0.175E-09
RMM:   2    -0.139062316974E+03   -0.72760E-11    0.00000E+00     3   0.384E-09
  61 F= -.13906232E+03 E0= -.13907511E+03  d E =0.254659E-10
quench:  g(F)=  0.000E+00 g(S)=  0.000E+00 dE (1.order)= 0.000E+00
 bond charge predicted
       N       E                     dE             d eps       ncg     rms          rms(c)
DAV:   1    -0.139062316974E+03   -0.57480E-09   -0.52555E-11   168   0.415E-09    0.122E-09
RMM:   2    -0.139062316974E+03    0.52023E-09    0.00000E+00     1   0.287E-09
  62 F= -.13906232E+03 E0= -.13907511E+03  d E =-.472937E-10
quench:  g(F)=  0.000E+00 g(S)=  0.000E+00 dE (1.order)= 0.000E+00
 bond charge predicted
       N       E                     dE             d eps       ncg     rms          rms(c)
DAV:   1    -0.139062316974E+03    0.21464E-09   -0.82887E-11   168   0.315E-09    0.900E-10
RMM:   2    -0.139062316974E+03    0.25102E-09    0.00000E+00     2   0.237E-09
  63 F= -.13906232E+03 E0= -.13907511E+03  d E =-.545697E-10
quench:  g(F)=  0.000E+00 g(S)=  0.000E+00 dE (1.order)= 0.000E+00
 bond charge predicted
       N       E                     dE             d eps       ncg     rms          rms(c)
DAV:   1    -0.139062316974E+03    0.52387E-09    0.22836E-11   168   0.247E-09    0.876E-10
RMM:   2    -0.139062316974E+03   -0.32378E-09    0.00000E+00     1   0.198E-09
  64 F= -.13906232E+03 E0= -.13907511E+03  d E =-.509317E-10
quench:  g(F)=  0.000E+00 g(S)=  0.000E+00 dE (1.order)= 0.000E+00
 bond charge predicted
       N       E                     dE             d eps       ncg     rms          rms(c)
DAV:   1    -0.139062316974E+03   -0.69122E-10    0.39316E-11   168   0.214E-09    0.686E-10
RMM:   2    -0.139062316974E+03   -0.28012E-09    0.00000E+00     3   0.151E-09
  65 F= -.13906232E+03 E0= -.13907511E+03  d E =-.254659E-10
quench:  g(F)=  0.000E+00 g(S)=  0.000E+00 dE (1.order)= 0.000E+00
 bond charge predicted
       N       E                     dE             d eps       ncg     rms          rms(c)
DAV:   1    -0.139062316974E+03    0.21464E-09    0.24756E-11   168   0.166E-09    0.442E-10
RMM:   2    -0.139062316974E+03   -0.44383E-09    0.00000E+00     1   0.127E-09
  66 F= -.13906232E+03 E0= -.13907511E+03  d E =0.509317E-10
quench:  g(F)=  0.000E+00 g(S)=  0.000E+00 dE (1.order)= 0.000E+00
 bond charge predicted
       N       E                     dE             d eps       ncg     rms          rms(c)
DAV:   1    -0.139062316974E+03   -0.93496E-09    0.73739E-11   168   0.132E-09    0.592E-10
RMM:   2    -0.139062316974E+03    0.57116E-09    0.00000E+00     2   0.106E-09
  67 F= -.13906232E+03 E0= -.13907511E+03  d E =0.800355E-10
quench:  g(F)=  0.000E+00 g(S)=  0.000E+00 dE (1.order)= 0.000E+00
 bond charge predicted
       N       E                     dE             d eps       ncg     rms          rms(c)
DAV:   1    -0.139062316973E+03    0.12442E-08    0.34493E-11   168   0.119E-09    0.381E-10
RMM:   2    -0.139062316974E+03   -0.69485E-09    0.00000E+00     1   0.817E-10
  68 F= -.13906232E+03 E0= -.13907511E+03  d E =-.218279E-10
quench:  g(F)=  0.000E+00 g(S)=  0.000E+00 dE (1.order)= 0.000E+00
 bond charge predicted
       N       E                     dE             d eps       ncg     rms          rms(c)
DAV:   1    -0.139062316974E+03   -0.93860E-09   -0.16398E-11   168   0.896E-10    0.390E-10
RMM:   2    -0.139062316974E+03    0.13824E-09    0.00000E+00     2   0.673E-10
  69 F= -.13906232E+03 E0= -.13907511E+03  d E =-.105501E-09
quench:  g(F)=  0.000E+00 g(S)=  0.000E+00 dE (1.order)= 0.000E+00
 bond charge predicted
       N       E                     dE             d eps       ncg     rms          rms(c)
DAV:   1    -0.139062316976E+03   -0.15934E-08   -0.52123E-11   168   0.745E-10    0.303E-10
RMM:   2    -0.139062316974E+03    0.18154E-08    0.00000E+00     1   0.563E-10
  70 F= -.13906232E+03 E0= -.13907511E+03  d E =0.836735E-10
quench:  g(F)=  0.000E+00 g(S)=  0.000E+00 dE (1.order)= 0.000E+00
 bond charge predicted
       N       E                     dE             d eps       ncg     rms          rms(c)
DAV:   1    -0.139062316975E+03    0.11678E-08    0.23131E-11   168   0.634E-10    0.263E-10
RMM:   2    -0.139062316974E+03    0.53114E-09    0.00000E+00     2   0.450E-10
  71 F= -.13906232E+03 E0= -.13907511E+03  d E =-.116415E-09
quench:  g(F)=  0.000E+00 g(S)=  0.000E+00 dE (1.order)= 0.000E+00
 bond charge predicted
       N       E                     dE             d eps       ncg     rms          rms(c)
DAV:   1    -0.139062316974E+03    0.32742E-09    0.13950E-11   168   0.508E-10    0.239E-10
RMM:   2    -0.139062316974E+03    0.33833E-09    0.00000E+00     1   0.371E-10
  72 F= -.13906232E+03 E0= -.13907511E+03  d E =0.134605E-09
quench:  g(F)=  0.000E+00 g(S)=  0.000E+00 dE (1.order)= 0.000E+00
 bond charge predicted
       N       E                     dE             d eps       ncg     rms          rms(c)
DAV:   1    -0.139062316973E+03    0.10477E-08   -0.30791E-11   168   0.441E-10    0.264E-10
RMM:   2    -0.139062316974E+03   -0.81491E-09    0.00000E+00     2   0.325E-10
  73 F= -.13906232E+03 E0= -.13907511E+03  d E =-.105501E-09
quench:  g(F)=  0.000E+00 g(S)=  0.000E+00 dE (1.order)= 0.000E+00
 bond charge predicted
       N       E                     dE             d eps       ncg     rms          rms(c)
DAV:   1    -0.139062316973E+03   -0.22192E-09    0.43374E-11   168   0.347E-10    0.259E-10
RMM:   2    -0.139062316974E+03   -0.60027E-09    0.00000E+00     1   0.292E-10
  74 F= -.13906232E+03 E0= -.13907511E+03  d E =-.727596E-11
quench:  g(F)=  0.000E+00 g(S)=  0.000E+00 dE (1.order)= 0.000E+00
 bond charge predicted
       N       E                     dE             d eps       ncg     rms          rms(c)
DAV:   1    -0.139062316975E+03   -0.13279E-08   -0.65949E-12   168   0.303E-10    0.270E-10
RMM:   2    -0.139062316974E+03    0.77853E-09    0.00000E+00     2   0.248E-10
  75 F= -.13906232E+03 E0= -.13907511E+03  d E =0.509317E-10
quench:  g(F)=  0.000E+00 g(S)=  0.000E+00 dE (1.order)= 0.000E+00
 bond charge predicted
       N       E                     dE             d eps       ncg     rms          rms(c)
DAV:   1    -0.139062316974E+03    0.52387E-09   -0.48544E-11   168   0.307E-10    0.238E-10
RMM:   2    -0.139062316974E+03    0.23647E-09    0.00000E+00     1   0.210E-10
  76 F= -.13906232E+03 E0= -.13907511E+03  d E =-.181899E-10
quench:  g(F)=  0.000E+00 g(S)=  0.000E+00 dE (1.order)= 0.000E+00
 bond charge predicted
       N       E                     dE             d eps       ncg     rms          rms(c)
DAV:   1    -0.139062316974E+03    0.10550E-09   -0.91242E-11   168   0.205E-10    0.192E-10
RMM:   2    -0.139062316974E+03    0.25466E-09    0.00000E+00     2   0.187E-10
  77 F= -.13906232E+03 E0= -.13907511E+03  d E =0.123691E-09
quench:  g(F)=  0.000E+00 g(S)=  0.000E+00 dE (1.order)= 0.000E+00
 bond charge predicted
       N       E                     dE             d eps       ncg     rms          rms(c)
DAV:   1    -0.139062316974E+03   -0.61846E-10   -0.81196E-11   168   0.257E-10    0.148E-10
RMM:   2    -0.139062316974E+03    0.30923E-09    0.00000E+00     1   0.169E-10
  78 F= -.13906232E+03 E0= -.13907511E+03  d E =-.727596E-11
quench:  g(F)=  0.000E+00 g(S)=  0.000E+00 dE (1.order)= 0.000E+00
 bond charge predicted
       N       E                     dE             d eps       ncg     rms          rms(c)
DAV:   1    -0.139062316974E+03    0.53842E-09    0.24419E-11   168   0.199E-10    0.257E-10
RMM:   2    -0.139062316974E+03   -0.26921E-09    0.00000E+00     1   0.151E-10
  79 F= -.13906232E+03 E0= -.13907511E+03  d E =-.400178E-10
quench:  g(F)=  0.000E+00 g(S)=  0.000E+00 dE (1.order)= 0.000E+00
 bond charge predicted
       N       E                     dE             d eps       ncg     rms          rms(c)
DAV:   1    -0.139062316974E+03   -0.80399E-09   -0.11258E-10   168   0.208E-10    0.188E-10
RMM:   2    -0.139062316974E+03    0.56025E-09    0.00000E+00     1   0.152E-10
  80 F= -.13906232E+03 E0= -.13907511E+03  d E =0.254659E-10
quench:  g(F)=  0.000E+00 g(S)=  0.000E+00 dE (1.order)= 0.000E+00
 bond charge predicted
       N       E                     dE             d eps       ncg     rms          rms(c)
DAV:   1    -0.139062316974E+03    0.74215E-09   -0.90229E-11   168   0.183E-10    0.168E-10
RMM:   2    -0.139062316974E+03   -0.12005E-09    0.00000E+00     1   0.115E-10
  81 F= -.13906232E+03 E0= -.13907511E+03  d E =0.618456E-10
quench:  g(F)=  0.000E+00 g(S)=  0.000E+00 dE (1.order)= 0.000E+00
 bond charge predicted
       N       E                     dE             d eps       ncg     rms          rms(c)
DAV:   1    -0.139062316974E+03    0.72760E-11   -0.81028E-11   168   0.149E-10    0.254E-10
RMM:   2    -0.139062316974E+03   -0.19281E-09    0.00000E+00     1   0.121E-10
  82 F= -.13906232E+03 E0= -.13907511E+03  d E =-.654836E-10
quench:  g(F)=  0.000E+00 g(S)=  0.000E+00 dE (1.order)= 0.000E+00
 bond charge predicted
       N       E                     dE             d eps       ncg     rms          rms(c)
DAV:   1    -0.139062316973E+03    0.42201E-09   -0.34899E-11   168   0.189E-10    0.196E-10
RMM:   2    -0.139062316974E+03   -0.71304E-09    0.00000E+00     1   0.114E-10
  83 F= -.13906232E+03 E0= -.13907511E+03  d E =-.982254E-10
quench:  g(F)=  0.000E+00 g(S)=  0.000E+00 dE (1.order)= 0.000E+00
 bond charge predicted
       N       E                     dE             d eps       ncg     rms          rms(c)
DAV:   1    -0.139062316973E+03   -0.16735E-09    0.19446E-11   168   0.146E-10    0.263E-10
RMM:   2    -0.139062316974E+03   -0.54933E-09    0.00000E+00     1   0.119E-10
  84 F= -.13906232E+03 E0= -.13907511E+03  d E =-.363798E-11
quench:  g(F)=  0.000E+00 g(S)=  0.000E+00 dE (1.order)= 0.000E+00
 bond charge predicted
       N       E                     dE             d eps       ncg     rms          rms(c)
DAV:   1    -0.139062316974E+03   -0.49113E-09   -0.68493E-11   168   0.209E-10    0.253E-10
RMM:   2    -0.139062316974E+03    0.54570E-10    0.00000E+00     1   0.120E-10
  85 F= -.13906232E+03 E0= -.13907511E+03  d E =0.112777E-09
quench:  g(F)=  0.000E+00 g(S)=  0.000E+00 dE (1.order)= 0.000E+00
 bond charge predicted
       N       E                     dE             d eps       ncg     rms          rms(c)
DAV:   1    -0.139062316973E+03    0.74579E-09    0.31937E-11   168   0.241E-10    0.302E-10
RMM:   2    -0.139062316974E+03   -0.77489E-09    0.00000E+00     1   0.127E-10
  86 F= -.13906232E+03 E0= -.13907511E+03  d E =-.836735E-10
quench:  g(F)=  0.000E+00 g(S)=  0.000E+00 dE (1.order)= 0.000E+00
 bond charge predicted
       N       E                     dE             d eps       ncg     rms          rms(c)
DAV:   1    -0.139062316975E+03   -0.14588E-08   -0.23597E-11   168   0.240E-10    0.209E-10
RMM:   2    -0.139062316974E+03    0.65484E-09    0.00000E+00     1   0.123E-10
  87 F= -.13906232E+03 E0= -.13907511E+03  d E =-.291038E-10
quench:  g(F)=  0.000E+00 g(S)=  0.000E+00 dE (1.order)= 0.000E+00
 bond charge predicted
       N       E                     dE             d eps       ncg     rms          rms(c)
DAV:   1    -0.139062316973E+03    0.14224E-08   -0.23921E-11   168   0.200E-10    0.277E-10
RMM:   2    -0.139062316974E+03   -0.78217E-09    0.00000E+00     1   0.114E-10
  88 F= -.13906232E+03 E0= -.13907511E+03  d E =-.145519E-10
quench:  g(F)=  0.000E+00 g(S)=  0.000E+00 dE (1.order)= 0.000E+00
 bond charge predicted
       N       E                     dE             d eps       ncg     rms          rms(c)
DAV:   1    -0.139062316975E+03   -0.12806E-08    0.31477E-11   168   0.161E-10    0.182E-10
RMM:   2    -0.139062316974E+03    0.50568E-09    0.00000E+00     1   0.100E-10
  89 F= -.13906232E+03 E0= -.13907511E+03  d E =0.727596E-11
quench:  g(F)=  0.000E+00 g(S)=  0.000E+00 dE (1.order)= 0.000E+00
 bond charge predicted
       N       E                     dE             d eps       ncg     rms          rms(c)
DAV:   1    -0.139062316974E+03    0.65484E-10    0.32757E-11   168   0.162E-10    0.147E-10
RMM:   2    -0.139062316974E+03    0.44020E-09    0.00000E+00     1   0.831E-11
  90 F= -.13906232E+03 E0= -.13907511E+03  d E =0.000000E+00
quench:  g(F)=  0.000E+00 g(S)=  0.000E+00 dE (1.order)= 0.000E+00
 bond charge predicted
       N       E                     dE             d eps       ncg     rms          rms(c)
DAV:   1    -0.139062316974E+03    0.93860E-09   -0.43531E-11   168   0.103E-10    0.216E-10
RMM:   2    -0.139062316974E+03   -0.35652E-09    0.00000E+00     1   0.107E-10
  91 F= -.13906232E+03 E0= -.13907511E+03  d E =0.141881E-09
quench:  g(F)=  0.000E+00 g(S)=  0.000E+00 dE (1.order)= 0.000E+00
 bond charge predicted
       N       E                     dE             d eps       ncg     rms          rms(c)
DAV:   1    -0.139062316973E+03    0.42201E-09   -0.71021E-11   168   0.129E-10    0.217E-10
RMM:   2    -0.139062316974E+03   -0.76398E-09    0.00000E+00     1   0.135E-10
  92 F= -.13906232E+03 E0= -.13907511E+03  d E =0.145519E-10
quench:  g(F)=  0.000E+00 g(S)=  0.000E+00 dE (1.order)= 0.000E+00
 bond charge predicted
       N       E                     dE             d eps       ncg     rms          rms(c)
DAV:   1    -0.139062316973E+03   -0.34197E-09   -0.32930E-11   168   0.226E-10    0.225E-10
RMM:   2    -0.139062316974E+03   -0.49113E-09    0.00000E+00     1   0.117E-10
  93 F= -.13906232E+03 E0= -.13907511E+03  d E =-.691216E-10
quench:  g(F)=  0.000E+00 g(S)=  0.000E+00 dE (1.order)= 0.000E+00
 bond charge predicted
       N       E                     dE             d eps       ncg     rms          rms(c)
DAV:   1    -0.139062316974E+03   -0.92405E-09   -0.68538E-11   168   0.176E-10    0.237E-10
RMM:   2    -0.139062316974E+03    0.46930E-09    0.00000E+00     1   0.104E-10
  94 F= -.13906232E+03 E0= -.13907511E+03  d E =0.363798E-10
quench:  g(F)=  0.000E+00 g(S)=  0.000E+00 dE (1.order)= 0.000E+00
 bond charge predicted
       N       E                     dE             d eps       ncg     rms          rms(c)
DAV:   1    -0.139062316974E+03    0.38199E-09   -0.28789E-11   168   0.159E-10    0.221E-10
RMM:   2    -0.139062316974E+03    0.61846E-10    0.00000E+00     1   0.923E-11
  95 F= -.13906232E+03 E0= -.13907511E+03  d E =-.254659E-10
quench:  g(F)=  0.000E+00 g(S)=  0.000E+00 dE (1.order)= 0.000E+00
 bond charge predicted
       N       E                     dE             d eps       ncg     rms          rms(c)
DAV:   1    -0.139062316974E+03    0.98225E-10   -0.13086E-11   168   0.178E-10    0.214E-10
RMM:   2    -0.139062316974E+03   -0.13097E-09    0.00000E+00     1   0.925E-11
  96 F= -.13906232E+03 E0= -.13907511E+03  d E =-.945874E-10
quench:  g(F)=  0.000E+00 g(S)=  0.000E+00 dE (1.order)= 0.000E+00
 bond charge predicted
       N       E                     dE             d eps       ncg     rms          rms(c)
DAV:   1    -0.139062316974E+03   -0.34925E-09   -0.99190E-11   168   0.158E-10    0.202E-10
RMM:   2    -0.139062316974E+03    0.28740E-09    0.00000E+00     1   0.114E-10
  97 F= -.13906232E+03 E0= -.13907511E+03  d E =0.691216E-10
quench:  g(F)=  0.000E+00 g(S)=  0.000E+00 dE (1.order)= 0.000E+00
 bond charge predicted
       N       E                     dE             d eps       ncg     rms          rms(c)
DAV:   1    -0.139062316975E+03   -0.37107E-09    0.79420E-12   168   0.152E-10    0.211E-10
RMM:   2    -0.139062316974E+03    0.62209E-09    0.00000E+00     1   0.114E-10
  98 F= -.13906232E+03 E0= -.13907511E+03  d E =-.363798E-10
quench:  g(F)=  0.000E+00 g(S)=  0.000E+00 dE (1.order)= 0.000E+00
 bond charge predicted
       N       E                     dE             d eps       ncg     rms          rms(c)
DAV:   1    -0.139062316974E+03    0.41473E-09   -0.40342E-11   168   0.190E-10    0.223E-10
RMM:   2    -0.139062316974E+03    0.17462E-09    0.00000E+00     1   0.106E-10
  99 F= -.13906232E+03 E0= -.13907511E+03  d E =-.327418E-10
quench:  g(F)=  0.000E+00 g(S)=  0.000E+00 dE (1.order)= 0.000E+00
 bond charge predicted
       N       E                     dE             d eps       ncg     rms          rms(c)
DAV:   1    -0.139062316973E+03    0.12296E-08   -0.16328E-11   168   0.195E-10    0.140E-10
RMM:   2    -0.139062316974E+03   -0.96770E-09    0.00000E+00     1   0.965E-11
 100 F= -.13906232E+03 E0= -.13907511E+03  d E =0.873115E-10
quench:  g(F)=  0.000E+00 g(S)=  0.000E+00 dE (1.order)= 0.000E+00
 bond charge predicted
       N       E                     dE             d eps       ncg     rms          rms(c)
DAV:   1    -0.139062316975E+03   -0.18372E-08   -0.33716E-12   168   0.129E-10    0.175E-10
RMM:   2    -0.139062316974E+03    0.86220E-09    0.00000E+00     1   0.874E-11
 101 F= -.13906232E+03 E0= -.13907511E+03  d E =-.727596E-11
quench:  g(F)=  0.000E+00 g(S)=  0.000E+00 dE (1.order)= 0.000E+00
 bond charge predicted
       N       E                     dE             d eps       ncg     rms          rms(c)
DAV:   1    -0.139062316974E+03    0.75670E-09   -0.17201E-11   168   0.128E-10    0.354E-10
RMM:   2    -0.139062316974E+03    0.14552E-10    0.00000E+00     1   0.125E-10
 102 F= -.13906232E+03 E0= -.13907511E+03  d E =-.909495E-10
quench:  g(F)=  0.000E+00 g(S)=  0.000E+00 dE (1.order)= 0.000E+00
 bond charge predicted
       N       E                     dE             d eps       ncg     rms          rms(c)
DAV:   1    -0.139062316974E+03   -0.38926E-09   -0.58516E-11   168   0.229E-10    0.282E-10
RMM:   2    -0.139062316974E+03    0.56752E-09    0.00000E+00     1   0.100E-10
 103 F= -.13906232E+03 E0= -.13907511E+03  d E =0.163709E-09
quench:  g(F)=  0.000E+00 g(S)=  0.000E+00 dE (1.order)= 0.000E+00
 bond charge predicted
       N       E                     dE             d eps       ncg     rms          rms(c)
DAV:   1    -0.139062316974E+03    0.21100E-09   -0.12016E-10   168   0.202E-10    0.176E-10
RMM:   2    -0.139062316974E+03    0.17099E-09    0.00000E+00     1   0.966E-11
 104 F= -.13906232E+03 E0= -.13907511E+03  d E =-.185537E-09
quench:  g(F)=  0.000E+00 g(S)=  0.000E+00 dE (1.order)= 0.000E+00
 bond charge predicted
       N       E                     dE             d eps       ncg     rms          rms(c)
DAV:   1    -0.139062316975E+03   -0.57116E-09    0.16513E-12   168   0.183E-10    0.115E-10
RMM:   2    -0.139062316974E+03    0.82218E-09    0.00000E+00     1   0.912E-11
 105 F= -.13906232E+03 E0= -.13907511E+03  d E =0.800355E-10
quench:  g(F)=  0.000E+00 g(S)=  0.000E+00 dE (1.order)= 0.000E+00
 bond charge predicted
       N       E                     dE             d eps       ncg     rms          rms(c)
DAV:   1    -0.139062316974E+03    0.10696E-08   -0.11501E-10   168   0.126E-10    0.232E-10
RMM:   2    -0.139062316974E+03   -0.30195E-09    0.00000E+00     1   0.116E-10
 106 F= -.13906232E+03 E0= -.13907511E+03  d E =-.545697E-10
quench:  g(F)=  0.000E+00 g(S)=  0.000E+00 dE (1.order)= 0.000E+00
 bond charge predicted
       N       E                     dE             d eps       ncg     rms          rms(c)
DAV:   1    -0.139062316973E+03    0.47658E-09    0.16259E-11   168   0.190E-10    0.191E-10
RMM:   2    -0.139062316974E+03   -0.61118E-09    0.00000E+00     1   0.101E-10
 107 F= -.13906232E+03 E0= -.13907511E+03  d E =0.167347E-09
quench:  g(F)=  0.000E+00 g(S)=  0.000E+00 dE (1.order)= 0.000E+00
 bond charge predicted
       N       E                     dE             d eps       ncg     rms          rms(c)
DAV:   1    -0.139062316974E+03   -0.75670E-09   -0.78961E-11   168   0.170E-10    0.191E-10
RMM:   2    -0.139062316974E+03   -0.36380E-10    0.00000E+00     1   0.105E-10
 108 F= -.13906232E+03 E0= -.13907511E+03  d E =-.181899E-09
quench:  g(F)=  0.000E+00 g(S)=  0.000E+00 dE (1.order)= 0.000E+00
 bond charge predicted
       N       E                     dE             d eps       ncg     rms          rms(c)
DAV:   1    -0.139062316973E+03    0.11169E-08   -0.26956E-11   168   0.152E-10    0.208E-10
RMM:   2    -0.139062316974E+03   -0.10041E-08    0.00000E+00     1   0.101E-10
 109 F= -.13906232E+03 E0= -.13907511E+03  d E =0.149157E-09
quench:  g(F)=  0.000E+00 g(S)=  0.000E+00 dE (1.order)= 0.000E+00
 bond charge predicted
       N       E                     dE             d eps       ncg     rms          rms(c)
DAV:   1    -0.139062316973E+03   -0.53842E-09   -0.77838E-11   168   0.162E-10    0.199E-10
RMM:   2    -0.139062316974E+03   -0.56025E-09    0.00000E+00     0   0.940E-11
 110 F= -.13906232E+03 E0= -.13907511E+03  d E =-.945874E-10
quench:  g(F)=  0.000E+00 g(S)=  0.000E+00 dE (1.order)= 0.000E+00
 bond charge predicted
       N       E                     dE             d eps       ncg     rms          rms(c)
DAV:   1    -0.139062316975E+03   -0.11096E-08   -0.45057E-11   168   0.131E-10    0.204E-10
RMM:   2    -0.139062316974E+03    0.58208E-09    0.00000E+00     0   0.101E-10
 111 F= -.13906232E+03 E0= -.13907511E+03  d E =0.327418E-10
quench:  g(F)=  0.000E+00 g(S)=  0.000E+00 dE (1.order)= 0.000E+00
 bond charge predicted
       N       E                     dE             d eps       ncg     rms          rms(c)
DAV:   1    -0.139062316974E+03    0.99681E-09   -0.69697E-11   168   0.142E-10    0.172E-10
RMM:   2    -0.139062316974E+03   -0.46930E-09    0.00000E+00     1   0.100E-10
 112 F= -.13906232E+03 E0= -.13907511E+03  d E =-.545697E-10
quench:  g(F)=  0.000E+00 g(S)=  0.000E+00 dE (1.order)= 0.000E+00
 bond charge predicted
       N       E                     dE             d eps       ncg     rms          rms(c)
DAV:   1    -0.139062316974E+03   -0.27649E-09    0.27953E-11   168   0.139E-10    0.216E-10
RMM:   2    -0.139062316974E+03   -0.20009E-09    0.00000E+00     0   0.106E-10
 113 F= -.13906232E+03 E0= -.13907511E+03  d E =-.727596E-11
quench:  g(F)=  0.000E+00 g(S)=  0.000E+00 dE (1.order)= 0.000E+00
 bond charge predicted
       N       E                     dE             d eps       ncg     rms          rms(c)
DAV:   1    -0.139062316974E+03    0.25102E-09   -0.73376E-11   168   0.172E-10    0.241E-10
RMM:   2    -0.139062316974E+03   -0.40018E-09    0.00000E+00     0   0.119E-10
 114 F= -.13906232E+03 E0= -.13907511E+03  d E =0.509317E-10
quench:  g(F)=  0.000E+00 g(S)=  0.000E+00 dE (1.order)= 0.000E+00
 bond charge predicted
       N       E                     dE             d eps       ncg     rms          rms(c)
DAV:   1    -0.139062316974E+03   -0.48749E-09   -0.15771E-11   168   0.223E-10    0.214E-10
RMM:   2    -0.139062316974E+03    0.50932E-10    0.00000E+00     0   0.130E-10
 115 F= -.13906232E+03 E0= -.13907511E+03  d E =-.363798E-10
quench:  g(F)=  0.000E+00 g(S)=  0.000E+00 dE (1.order)= 0.000E+00
 bond charge predicted
       N       E                     dE             d eps       ncg     rms          rms(c)
DAV:   1    -0.139062316973E+03    0.71668E-09   -0.68698E-11   168   0.207E-10    0.167E-10
RMM:   2    -0.139062316974E+03   -0.54933E-09    0.00000E+00     0   0.119E-10
 116 F= -.13906232E+03 E0= -.13907511E+03  d E =0.116415E-09
quench:  g(F)=  0.000E+00 g(S)=  0.000E+00 dE (1.order)= 0.000E+00
 bond charge predicted
       N       E                     dE             d eps       ncg     rms          rms(c)
DAV:   1    -0.139062316974E+03   -0.26921E-09   -0.16840E-11   168   0.168E-10    0.226E-10
RMM:   2    -0.139062316974E+03   -0.25102E-09    0.00000E+00     0   0.114E-10
 117 F= -.13906232E+03 E0= -.13907511E+03  d E =0.291038E-10
quench:  g(F)=  0.000E+00 g(S)=  0.000E+00 dE (1.order)= 0.000E+00
 bond charge predicted
       N       E                     dE             d eps       ncg     rms          rms(c)
DAV:   1    -0.139062316974E+03   -0.71668E-09   -0.11694E-10   168   0.159E-10    0.205E-10
RMM:   2    -0.139062316974E+03    0.33833E-09    0.00000E+00     0   0.109E-10
 118 F= -.13906232E+03 E0= -.13907511E+03  d E =-.127329E-09
quench:  g(F)=  0.000E+00 g(S)=  0.000E+00 dE (1.order)= 0.000E+00
 bond charge predicted
       N       E                     dE             d eps       ncg     rms          rms(c)
DAV:   1    -0.139062316975E+03   -0.30195E-09    0.21912E-11   168   0.187E-10    0.243E-10
RMM:   2    -0.139062316974E+03    0.62573E-09    0.00000E+00     0   0.133E-10
 119 F= -.13906232E+03 E0= -.13907511E+03  d E =-.145519E-10
quench:  g(F)=  0.000E+00 g(S)=  0.000E+00 dE (1.order)= 0.000E+00
 bond charge predicted
       N       E                     dE             d eps       ncg     rms          rms(c)
DAV:   1    -0.139062316974E+03    0.28376E-09   -0.18277E-11   168   0.194E-10    0.235E-10
RMM:   2    -0.139062316974E+03    0.47658E-09    0.00000E+00     0   0.134E-10
 120 F= -.13906232E+03 E0= -.13907511E+03  d E =0.134605E-09
quench:  g(F)=  0.000E+00 g(S)=  0.000E+00 dE (1.order)= 0.000E+00
 bond charge predicted
       N       E                     dE             d eps       ncg     rms          rms(c)
DAV:   1    -0.139062316974E+03    0.45475E-09   -0.33259E-11   168   0.190E-10    0.202E-10
RMM:   2    -0.139062316974E+03   -0.18554E-09    0.00000E+00     0   0.109E-10
 121 F= -.13906232E+03 E0= -.13907511E+03  d E =-.207365E-09
quench:  g(F)=  0.000E+00 g(S)=  0.000E+00 dE (1.order)= 0.000E+00
 bond charge predicted
       N       E                     dE             d eps       ncg     rms          rms(c)
DAV:   1    -0.139062316974E+03   -0.80036E-10   -0.17391E-11   168   0.182E-10    0.249E-10
RMM:   2    -0.139062316974E+03    0.43656E-10    0.00000E+00     0   0.124E-10
 122 F= -.13906232E+03 E0= -.13907511E+03  d E =0.149157E-09
quench:  g(F)=  0.000E+00 g(S)=  0.000E+00 dE (1.order)= 0.000E+00
 bond charge predicted
       N       E                     dE             d eps       ncg     rms          rms(c)
DAV:   1    -0.139062316974E+03   -0.44020E-09   -0.63903E-11   168   0.205E-10    0.277E-10
RMM:   2    -0.139062316974E+03    0.43292E-09    0.00000E+00     0   0.109E-10
 123 F= -.13906232E+03 E0= -.13907511E+03  d E =-.509317E-10
quench:  g(F)=  0.000E+00 g(S)=  0.000E+00 dE (1.order)= 0.000E+00
 bond charge predicted
       N       E                     dE             d eps       ncg     rms          rms(c)
DAV:   1    -0.139062316974E+03    0.90949E-10   -0.70723E-12   168   0.126E-10    0.168E-10
RMM:   2    -0.139062316974E+03    0.31287E-09    0.00000E+00     0   0.100E-10
 124 F= -.13906232E+03 E0= -.13907511E+03  d E =-.291038E-10
quench:  g(F)=  0.000E+00 g(S)=  0.000E+00 dE (1.order)= 0.000E+00
 bond charge predicted
       N       E                     dE             d eps       ncg     rms          rms(c)
DAV:   1    -0.139062316974E+03    0.46202E-09   -0.92297E-11   168   0.120E-10    0.202E-10
RMM:   2    -0.139062316974E+03   -0.25466E-10    0.00000E+00     0   0.108E-10
 125 F= -.13906232E+03 E0= -.13907511E+03  d E =0.123691E-09
quench:  g(F)=  0.000E+00 g(S)=  0.000E+00 dE (1.order)= 0.000E+00
 bond charge predicted
       N       E                     dE             d eps       ncg     rms          rms(c)
DAV:   1    -0.139062316974E+03   -0.61482E-09   -0.53263E-11   168   0.193E-10    0.215E-10
RMM:   2    -0.139062316974E+03    0.39654E-09    0.00000E+00     0   0.120E-10
 126 F= -.13906232E+03 E0= -.13907511E+03  d E =-.192813E-09
quench:  g(F)=  0.000E+00 g(S)=  0.000E+00 dE (1.order)= 0.000E+00
 bond charge predicted
       N       E                     dE             d eps       ncg     rms          rms(c)
DAV:   1    -0.139062316975E+03   -0.25466E-10    0.28932E-11   168   0.190E-10    0.218E-10
RMM:   2    -0.139062316974E+03    0.58935E-09    0.00000E+00     0   0.106E-10
 127 F= -.13906232E+03 E0= -.13907511E+03  d E =0.167347E-09
quench:  g(F)=  0.000E+00 g(S)=  0.000E+00 dE (1.order)= 0.000E+00
 bond charge predicted
       N       E                     dE             d eps       ncg     rms          rms(c)
DAV:   1    -0.139062316974E+03    0.52023E-09    0.23262E-11   168   0.123E-10    0.181E-10
RMM:   2    -0.139062316974E+03    0.21828E-10    0.00000E+00     0   0.933E-11
 128 F= -.13906232E+03 E0= -.13907511E+03  d E =-.472937E-10
quench:  g(F)=  0.000E+00 g(S)=  0.000E+00 dE (1.order)= 0.000E+00
 bond charge predicted
       N       E                     dE             d eps       ncg     rms          rms(c)
DAV:   1    -0.139062316973E+03    0.56025E-09   -0.99099E-11   168   0.112E-10    0.179E-10
RMM:   2    -0.139062316974E+03   -0.50568E-09    0.00000E+00     0   0.860E-11
 129 F= -.13906232E+03 E0= -.13907511E+03  d E =0.327418E-10
quench:  g(F)=  0.000E+00 g(S)=  0.000E+00 dE (1.order)= 0.000E+00
 bond charge predicted
       N       E                     dE             d eps       ncg     rms          rms(c)
DAV:   1    -0.139062316974E+03   -0.56752E-09   -0.41730E-11   168   0.161E-10    0.179E-10
RMM:   2    -0.139062316974E+03   -0.29104E-10    0.00000E+00     0   0.105E-10
 130 F= -.13906232E+03 E0= -.13907511E+03  d E =-.909495E-10
quench:  g(F)=  0.000E+00 g(S)=  0.000E+00 dE (1.order)= 0.000E+00
 bond charge predicted
       N       E                     dE             d eps       ncg     rms          rms(c)
DAV:   1    -0.139062316974E+03    0.26557E-09    0.25018E-11   168   0.194E-10    0.239E-10
RMM:   2    -0.139062316974E+03   -0.32378E-09    0.00000E+00     0   0.113E-10
 131 F= -.13906232E+03 E0= -.13907511E+03  d E =-.291038E-10
quench:  g(F)=  0.000E+00 g(S)=  0.000E+00 dE (1.order)= 0.000E+00
 bond charge predicted
       N       E                     dE             d eps       ncg     rms          rms(c)
DAV:   1    -0.139062316974E+03    0.12733E-09   -0.27952E-11   168   0.178E-10    0.189E-10
RMM:   2    -0.139062316974E+03   -0.31650E-09    0.00000E+00     0   0.105E-10
 132 F= -.13906232E+03 E0= -.13907511E+03  d E =0.134605E-09
quench:  g(F)=  0.000E+00 g(S)=  0.000E+00 dE (1.order)= 0.000E+00
 bond charge predicted
       N       E                     dE             d eps       ncg     rms          rms(c)
DAV:   1    -0.139062316973E+03    0.14552E-09   -0.17396E-11   168   0.158E-10    0.285E-10
RMM:   2    -0.139062316974E+03   -0.62209E-09    0.00000E+00     0   0.106E-10
 133 F= -.13906232E+03 E0= -.13907511E+03  d E =-.160071E-09
quench:  g(F)=  0.000E+00 g(S)=  0.000E+00 dE (1.order)= 0.000E+00
 bond charge predicted
       N       E                     dE             d eps       ncg     rms          rms(c)
DAV:   1    -0.139062316974E+03   -0.20736E-09    0.65085E-11   168   0.199E-10    0.305E-10
RMM:   2    -0.139062316974E+03   -0.29831E-09    0.00000E+00     0   0.139E-10
 134 F= -.13906232E+03 E0= -.13907511E+03  d E =0.116415E-09
quench:  g(F)=  0.000E+00 g(S)=  0.000E+00 dE (1.order)= 0.000E+00
 bond charge predicted
       N       E                     dE             d eps       ncg     rms          rms(c)
DAV:   1    -0.139062316974E+03   -0.11642E-09   -0.39849E-11   168   0.283E-10    0.153E-10
RMM:   2    -0.139062316974E+03   -0.12005E-09    0.00000E+00     0   0.109E-10
 135 F= -.13906232E+03 E0= -.13907511E+03  d E =0.618456E-10
quench:  g(F)=  0.000E+00 g(S)=  0.000E+00 dE (1.order)= 0.000E+00
 bond charge predicted
       N       E                     dE             d eps       ncg     rms          rms(c)
DAV:   1    -0.139062316974E+03   -0.15280E-09   -0.42122E-11   168   0.149E-10    0.182E-10
RMM:   2    -0.139062316974E+03    0.00000E+00    0.00000E+00     0   0.906E-11
 136 F= -.13906232E+03 E0= -.13907511E+03  d E =-.327418E-10
quench:  g(F)=  0.000E+00 g(S)=  0.000E+00 dE (1.order)= 0.000E+00
 bond charge predicted
       N       E                     dE             d eps       ncg     rms          rms(c)
DAV:   1    -0.139062316974E+03    0.19645E-09    0.18371E-11   168   0.168E-10    0.208E-10
RMM:   2    -0.139062316974E+03   -0.28740E-09    0.00000E+00     0   0.113E-10
 137 F= -.13906232E+03 E0= -.13907511E+03  d E =-.909495E-10
quench:  g(F)=  0.000E+00 g(S)=  0.000E+00 dE (1.order)= 0.000E+00
 bond charge predicted
       N       E                     dE             d eps       ncg     rms          rms(c)
DAV:   1    -0.139062316974E+03   -0.41109E-09   -0.44608E-11   168   0.145E-10    0.194E-10
RMM:   2    -0.139062316974E+03    0.13461E-09    0.00000E+00     0   0.101E-10
 138 F= -.13906232E+03 E0= -.13907511E+03  d E =0.109139E-10
quench:  g(F)=  0.000E+00 g(S)=  0.000E+00 dE (1.order)= 0.000E+00
 bond charge predicted
       N       E                     dE             d eps       ncg     rms          rms(c)
DAV:   1    -0.139062316974E+03    0.17826E-09   -0.98952E-11   168   0.141E-10    0.252E-10
RMM:   2    -0.139062316974E+03   -0.69122E-10    0.00000E+00     0   0.113E-10
 139 F= -.13906232E+03 E0= -.13907511E+03  d E =-.254659E-10
quench:  g(F)=  0.000E+00 g(S)=  0.000E+00 dE (1.order)= 0.000E+00
 bond charge predicted
       N       E                     dE             d eps       ncg     rms          rms(c)
DAV:   1    -0.139062316975E+03   -0.73487E-09   -0.79459E-11   168   0.142E-10    0.186E-10
RMM:   2    -0.139062316974E+03    0.72032E-09    0.00000E+00     0   0.104E-10
 140 F= -.13906232E+03 E0= -.13907511E+03  d E =0.545697E-10
quench:  g(F)=  0.000E+00 g(S)=  0.000E+00 dE (1.order)= 0.000E+00
 bond charge predicted
       N       E                     dE             d eps       ncg     rms          rms(c)
DAV:   1    -0.139062316974E+03    0.45839E-09   -0.66704E-11   168   0.155E-10    0.149E-10
RMM:   2    -0.139062316974E+03    0.33469E-09    0.00000E+00     0   0.702E-11
 141 F= -.13906232E+03 E0= -.13907511E+03  d E =0.727596E-10
quench:  g(F)=  0.000E+00 g(S)=  0.000E+00 dE (1.order)= 0.000E+00
 bond charge predicted
       N       E                     dE             d eps       ncg     rms          rms(c)
DAV:   1    -0.139062316974E+03    0.10550E-09   -0.16272E-11   168   0.133E-10    0.215E-10
RMM:   2    -0.139062316974E+03    0.20736E-09    0.00000E+00     0   0.117E-10
 142 F= -.13906232E+03 E0= -.13907511E+03  d E =-.218279E-10
quench:  g(F)=  0.000E+00 g(S)=  0.000E+00 dE (1.order)= 0.000E+00
 bond charge predicted
       N       E                     dE             d eps       ncg     rms          rms(c)
DAV:   1    -0.139062316974E+03    0.42928E-09    0.84817E-11   168   0.184E-10    0.231E-10
RMM:   2    -0.139062316974E+03   -0.17462E-09    0.00000E+00     0   0.118E-10
 143 F= -.13906232E+03 E0= -.13907511E+03  d E =0.472937E-10
quench:  g(F)=  0.000E+00 g(S)=  0.000E+00 dE (1.order)= 0.000E+00
 bond charge predicted
       N       E                     dE             d eps       ncg     rms          rms(c)
DAV:   1    -0.139062316975E+03   -0.10295E-08   -0.40474E-11   168   0.226E-10    0.250E-10
RMM:   2    -0.139062316974E+03    0.86220E-09    0.00000E+00     0   0.122E-10
 144 F= -.13906232E+03 E0= -.13907511E+03  d E =0.727596E-11
quench:  g(F)=  0.000E+00 g(S)=  0.000E+00 dE (1.order)= 0.000E+00
 bond charge predicted
       N       E                     dE             d eps       ncg     rms          rms(c)
DAV:   1    -0.139062316974E+03    0.63665E-09   -0.96071E-11   168   0.122E-10    0.306E-10
RMM:   2    -0.139062316974E+03    0.16371E-09    0.00000E+00     0   0.123E-10
 145 F= -.13906232E+03 E0= -.13907511E+03  d E =-.618456E-10
quench:  g(F)=  0.000E+00 g(S)=  0.000E+00 dE (1.order)= 0.000E+00
 bond charge predicted
       N       E                     dE             d eps       ncg     rms          rms(c)
DAV:   1    -0.139062316973E+03    0.88039E-09   -0.44871E-11   168   0.216E-10    0.193E-10
RMM:   2    -0.139062316974E+03   -0.65484E-09    0.00000E+00     0   0.102E-10
 146 F= -.13906232E+03 E0= -.13907511E+03  d E =0.618456E-10
quench:  g(F)=  0.000E+00 g(S)=  0.000E+00 dE (1.order)= 0.000E+00
 bond charge predicted
       N       E                     dE             d eps       ncg     rms          rms(c)
DAV:   1    -0.139062316974E+03   -0.45839E-09   -0.97156E-11   168   0.155E-10    0.257E-10
RMM:   2    -0.139062316974E+03   -0.32014E-09    0.00000E+00     0   0.120E-10
 147 F= -.13906232E+03 E0= -.13907511E+03  d E =-.123691E-09
quench:  g(F)=  0.000E+00 g(S)=  0.000E+00 dE (1.order)= 0.000E+00
 bond charge predicted
       N       E                     dE             d eps       ncg     rms          rms(c)
DAV:   1    -0.139062316975E+03   -0.94951E-09    0.37868E-11   168   0.214E-10    0.360E-10
RMM:   2    -0.139062316974E+03    0.73487E-09    0.00000E+00     0   0.143E-10
 148 F= -.13906232E+03 E0= -.13907511E+03  d E =0.105501E-09
quench:  g(F)=  0.000E+00 g(S)=  0.000E+00 dE (1.order)= 0.000E+00
 bond charge predicted
       N       E                     dE             d eps       ncg     rms          rms(c)
DAV:   1    -0.139062316974E+03    0.70213E-09    0.57698E-12   168   0.244E-10    0.248E-10
RMM:   2    -0.139062316974E+03   -0.43656E-10    0.00000E+00     0   0.145E-10
 149 F= -.13906232E+03 E0= -.13907511E+03  d E =-.763976E-10
quench:  g(F)=  0.000E+00 g(S)=  0.000E+00 dE (1.order)= 0.000E+00
 bond charge predicted
       N       E                     dE             d eps       ncg     rms          rms(c)
DAV:   1    -0.139062316975E+03   -0.88767E-09    0.40389E-11   168   0.261E-10    0.203E-10
RMM:   2    -0.139062316974E+03    0.93496E-09    0.00000E+00     0   0.140E-10
 150 F= -.13906232E+03 E0= -.13907511E+03  d E =0.909495E-10
quench:  g(F)=  0.000E+00 g(S)=  0.000E+00 dE (1.order)= 0.000E+00
 bond charge predicted
       N       E                     dE             d eps       ncg     rms          rms(c)
DAV:   1    -0.139062316975E+03    0.12369E-09   -0.32600E-11   168   0.256E-10    0.284E-10
RMM:   2    -0.139062316974E+03    0.77125E-09    0.00000E+00     0   0.141E-10
 151 F= -.13906232E+03 E0= -.13907511E+03  d E =-.400178E-10
quench:  g(F)=  0.000E+00 g(S)=  0.000E+00 dE (1.order)= 0.000E+00
 bond charge predicted
       N       E                     dE             d eps       ncg     rms          rms(c)
DAV:   1    -0.139062316973E+03    0.16844E-08   -0.84325E-11   168   0.288E-10    0.287E-10
RMM:   2    -0.139062316974E+03   -0.93860E-09    0.00000E+00     0   0.122E-10
 152 F= -.13906232E+03 E0= -.13907511E+03  d E =-.254659E-10
quench:  g(F)=  0.000E+00 g(S)=  0.000E+00 dE (1.order)= 0.000E+00
 bond charge predicted
       N       E                     dE             d eps       ncg     rms          rms(c)
DAV:   1    -0.139062316974E+03   -0.96770E-09    0.30513E-11   168   0.245E-10    0.223E-10
RMM:   2    -0.139062316974E+03    0.69122E-10    0.00000E+00     0   0.105E-10
 153 F= -.13906232E+03 E0= -.13907511E+03  d E =0.400178E-10
quench:  g(F)=  0.000E+00 g(S)=  0.000E+00 dE (1.order)= 0.000E+00
 bond charge predicted
       N       E                     dE             d eps       ncg     rms          rms(c)
DAV:   1    -0.139062316974E+03   -0.37835E-09   -0.22755E-11   168   0.246E-10    0.214E-10
RMM:   2    -0.139062316974E+03    0.35652E-09    0.00000E+00     0   0.985E-11
 154 F= -.13906232E+03 E0= -.13907511E+03  d E =-.909495E-10
quench:  g(F)=  0.000E+00 g(S)=  0.000E+00 dE (1.order)= 0.000E+00
 bond charge predicted
       N       E                     dE             d eps       ncg     rms          rms(c)
DAV:   1    -0.139062316974E+03    0.68758E-09   -0.26482E-11   168   0.161E-10    0.216E-10
RMM:   2    -0.139062316974E+03   -0.20736E-09    0.00000E+00     0   0.108E-10
 155 F= -.13906232E+03 E0= -.13907511E+03  d E =0.123691E-09
quench:  g(F)=  0.000E+00 g(S)=  0.000E+00 dE (1.order)= 0.000E+00
 bond charge predicted
       N       E                     dE             d eps       ncg     rms          rms(c)
DAV:   1    -0.139062316973E+03    0.41837E-09   -0.44170E-11   168   0.222E-10    0.328E-10
RMM:   2    -0.139062316974E+03   -0.73123E-09    0.00000E+00     0   0.129E-10
 156 F= -.13906232E+03 E0= -.13907511E+03  d E =-.105501E-09
quench:  g(F)=  0.000E+00 g(S)=  0.000E+00 dE (1.order)= 0.000E+00
 bond charge predicted
       N       E                     dE             d eps       ncg     rms          rms(c)
DAV:   1    -0.139062316974E+03   -0.11278E-08   -0.13890E-10   168   0.271E-10    0.236E-10
RMM:   2    -0.139062316974E+03    0.39654E-09    0.00000E+00     0   0.102E-10
 157 F= -.13906232E+03 E0= -.13907511E+03  d E =0.000000E+00
quench:  g(F)=  0.000E+00 g(S)=  0.000E+00 dE (1.order)= 0.000E+00
 bond charge predicted
       N       E                     dE             d eps       ncg     rms          rms(c)
DAV:   1    -0.139062316974E+03    0.18190E-10   -0.80919E-12   168   0.202E-10    0.913E-11
RMM:   2    -0.139062316974E+03    0.37107E-09    0.00000E+00     0   0.934E-11
 158 F= -.13906232E+03 E0= -.13907511E+03  d E =-.727596E-11
quench:  g(F)=  0.000E+00 g(S)=  0.000E+00 dE (1.order)= 0.000E+00
 bond charge predicted
       N       E                     dE             d eps       ncg     rms          rms(c)
DAV:   1    -0.139062316973E+03    0.12551E-08   -0.71815E-12   168   0.935E-11    0.235E-10
RMM:   2    -0.139062316974E+03   -0.83310E-09    0.00000E+00     0   0.126E-10
 159 F= -.13906232E+03 E0= -.13907511E+03  d E =0.509317E-10
quench:  g(F)=  0.000E+00 g(S)=  0.000E+00 dE (1.order)= 0.000E+00
 bond charge predicted
       N       E                     dE             d eps       ncg     rms          rms(c)
DAV:   1    -0.139062316974E+03   -0.83674E-09    0.10493E-11   168   0.165E-10    0.152E-10
RMM:   2    -0.139062316974E+03    0.32742E-10    0.00000E+00     0   0.691E-11
 160 F= -.13906232E+03 E0= -.13907511E+03  d E =0.291038E-10
quench:  g(F)=  0.000E+00 g(S)=  0.000E+00 dE (1.order)= 0.000E+00
 bond charge predicted
       N       E                     dE             d eps       ncg     rms          rms(c)
DAV:   1    -0.139062316974E+03   -0.10914E-10    0.14525E-11   168   0.149E-10    0.199E-10
RMM:   2    -0.139062316974E+03    0.25466E-10    0.00000E+00     0   0.808E-11
 161 F= -.13906232E+03 E0= -.13907511E+03  d E =-.181899E-10
quench:  g(F)=  0.000E+00 g(S)=  0.000E+00 dE (1.order)= 0.000E+00
 bond charge predicted
       N       E                     dE             d eps       ncg     rms          rms(c)
DAV:   1    -0.139062316973E+03    0.48021E-09    0.18427E-11   168   0.133E-10    0.239E-10
RMM:   2    -0.139062316974E+03   -0.55661E-09    0.00000E+00     0   0.109E-10
 162 F= -.13906232E+03 E0= -.13907511E+03  d E =-.101863E-09
quench:  g(F)=  0.000E+00 g(S)=  0.000E+00 dE (1.order)= 0.000E+00
 bond charge predicted
       N       E                     dE             d eps       ncg     rms          rms(c)
DAV:   1    -0.139062316974E+03   -0.57844E-09    0.22342E-11   168   0.177E-10    0.184E-10
RMM:   2    -0.139062316974E+03    0.58208E-10    0.00000E+00     0   0.108E-10
 163 F= -.13906232E+03 E0= -.13907511E+03  d E =0.363798E-10
quench:  g(F)=  0.000E+00 g(S)=  0.000E+00 dE (1.order)= 0.000E+00
 bond charge predicted
       N       E                     dE             d eps       ncg     rms          rms(c)
DAV:   1    -0.139062316973E+03    0.92041E-09   -0.61331E-11   168   0.194E-10    0.177E-10
RMM:   2    -0.139062316974E+03   -0.88403E-09    0.00000E+00     0   0.130E-10
 164 F= -.13906232E+03 E0= -.13907511E+03  d E =-.218279E-10
quench:  g(F)=  0.000E+00 g(S)=  0.000E+00 dE (1.order)= 0.000E+00
 bond charge predicted
       N       E                     dE             d eps       ncg     rms          rms(c)
DAV:   1    -0.139062316974E+03   -0.81127E-09   -0.10241E-10   168   0.208E-10    0.250E-10
RMM:   2    -0.139062316974E+03   -0.12369E-09    0.00000E+00     0   0.118E-10
 165 F= -.13906232E+03 E0= -.13907511E+03  d E =-.509317E-10
quench:  g(F)=  0.000E+00 g(S)=  0.000E+00 dE (1.order)= 0.000E+00
 bond charge predicted
       N       E                     dE             d eps       ncg     rms          rms(c)
DAV:   1    -0.139062316974E+03   -0.10914E-10   -0.23633E-11   168   0.198E-10    0.240E-10
RMM:   2    -0.139062316974E+03    0.61846E-10    0.00000E+00     0   0.122E-10
 166 F= -.13906232E+03 E0= -.13907511E+03  d E =0.174623E-09
quench:  g(F)=  0.000E+00 g(S)=  0.000E+00 dE (1.order)= 0.000E+00
 bond charge predicted
       N       E                     dE             d eps       ncg     rms          rms(c)
DAV:   1    -0.139062316974E+03   -0.36380E-11   -0.36945E-12   168   0.199E-10    0.215E-10
RMM:   2    -0.139062316974E+03   -0.36380E-11    0.00000E+00     0   0.115E-10
 167 F= -.13906232E+03 E0= -.13907511E+03  d E =-.691216E-10
quench:  g(F)=  0.000E+00 g(S)=  0.000E+00 dE (1.order)= 0.000E+00
 bond charge predicted
       N       E                     dE             d eps       ncg     rms          rms(c)
DAV:   1    -0.139062316975E+03   -0.72032E-09    0.10728E-11   168   0.195E-10    0.188E-10
RMM:   2    -0.139062316974E+03    0.75306E-09    0.00000E+00     0   0.121E-10
 168 F= -.13906232E+03 E0= -.13907511E+03  d E =0.363798E-10
quench:  g(F)=  0.000E+00 g(S)=  0.000E+00 dE (1.order)= 0.000E+00
 bond charge predicted
       N       E                     dE             d eps       ncg     rms          rms(c)
DAV:   1    -0.139062316974E+03    0.49113E-09   -0.46585E-11   168   0.116E-10    0.228E-10
RMM:   2    -0.139062316974E+03    0.13461E-09    0.00000E+00     0   0.127E-10
 169 F= -.13906232E+03 E0= -.13907511E+03  d E =-.127329E-09
quench:  g(F)=  0.000E+00 g(S)=  0.000E+00 dE (1.order)= 0.000E+00
 bond charge predicted
       N       E                     dE             d eps       ncg     rms          rms(c)
DAV:   1    -0.139062316974E+03    0.45475E-09   -0.50150E-11   168   0.184E-10    0.278E-10
RMM:   2    -0.139062316974E+03   -0.30923E-09    0.00000E+00     0   0.163E-10
 170 F= -.13906232E+03 E0= -.13907511E+03  d E =0.109139E-10
quench:  g(F)=  0.000E+00 g(S)=  0.000E+00 dE (1.order)= 0.000E+00
 bond charge predicted
       N       E                     dE             d eps       ncg     rms          rms(c)
DAV:   1    -0.139062316974E+03   -0.24374E-09    0.19008E-11   168   0.290E-10    0.280E-10
RMM:   2    -0.139062316974E+03    0.25466E-10    0.00000E+00     0   0.119E-10
 171 F= -.13906232E+03 E0= -.13907511E+03  d E =0.909495E-10
quench:  g(F)=  0.000E+00 g(S)=  0.000E+00 dE (1.order)= 0.000E+00
 bond charge predicted
       N       E                     dE             d eps       ncg     rms          rms(c)
DAV:   1    -0.139062316974E+03    0.65484E-10   -0.48319E-11   168   0.144E-10    0.141E-10
RMM:   2    -0.139062316974E+03   -0.80036E-10    0.00000E+00     0   0.992E-11
 172 F= -.13906232E+03 E0= -.13907511E+03  d E =-.400178E-10
quench:  g(F)=  0.000E+00 g(S)=  0.000E+00 dE (1.order)= 0.000E+00
 bond charge predicted
       N       E                     dE             d eps       ncg     rms          rms(c)
DAV:   1    -0.139062316974E+03   -0.29468E-09    0.57030E-11   168   0.133E-10    0.247E-10
RMM:   2    -0.139062316974E+03    0.24738E-09    0.00000E+00     0   0.975E-11
 173 F= -.13906232E+03 E0= -.13907511E+03  d E =0.327418E-10
quench:  g(F)=  0.000E+00 g(S)=  0.000E+00 dE (1.order)= 0.000E+00
 bond charge predicted
       N       E                     dE             d eps       ncg     rms          rms(c)
DAV:   1    -0.139062316975E+03   -0.40382E-09   -0.10689E-11   168   0.152E-10    0.199E-10
RMM:   2    -0.139062316974E+03    0.65847E-09    0.00000E+00     0   0.890E-11
 174 F= -.13906232E+03 E0= -.13907511E+03  d E =0.727596E-11
quench:  g(F)=  0.000E+00 g(S)=  0.000E+00 dE (1.order)= 0.000E+00
 bond charge predicted
       N       E                     dE             d eps       ncg     rms          rms(c)
DAV:   1    -0.139062316973E+03    0.16989E-08   -0.52532E-11   168   0.148E-10    0.203E-10
RMM:   2    -0.139062316974E+03   -0.95679E-09    0.00000E+00     0   0.963E-11
 175 F= -.13906232E+03 E0= -.13907511E+03  d E =0.836735E-10
quench:  g(F)=  0.000E+00 g(S)=  0.000E+00 dE (1.order)= 0.000E+00
 bond charge predicted
       N       E                     dE             d eps       ncg     rms          rms(c)
DAV:   1    -0.139062316974E+03   -0.10623E-08    0.43971E-12   168   0.176E-10    0.252E-10
RMM:   2    -0.139062316974E+03    0.36380E-11    0.00000E+00     0   0.109E-10
 176 F= -.13906232E+03 E0= -.13907511E+03  d E =-.101863E-09
quench:  g(F)=  0.000E+00 g(S)=  0.000E+00 dE (1.order)= 0.000E+00
 bond charge predicted
       N       E                     dE             d eps       ncg     rms          rms(c)
DAV:   1    -0.139062316974E+03   -0.38199E-09   -0.92068E-12   168   0.231E-10    0.201E-10
RMM:   2    -0.139062316974E+03    0.44383E-09    0.00000E+00     0   0.116E-10
 177 F= -.13906232E+03 E0= -.13907511E+03  d E =0.582077E-10
quench:  g(F)=  0.000E+00 g(S)=  0.000E+00 dE (1.order)= 0.000E+00
 bond charge predicted
       N       E                     dE             d eps       ncg     rms          rms(c)
DAV:   1    -0.139062316974E+03    0.51659E-09    0.20661E-11   168   0.190E-10    0.179E-10
RMM:   2    -0.139062316974E+03   -0.22192E-09    0.00000E+00     0   0.106E-10
 178 F= -.13906232E+03 E0= -.13907511E+03  d E =-.149157E-09
quench:  g(F)=  0.000E+00 g(S)=  0.000E+00 dE (1.order)= 0.000E+00
 bond charge predicted
       N       E                     dE             d eps       ncg     rms          rms(c)
DAV:   1    -0.139062316974E+03   -0.65484E-10   -0.14780E-11   168   0.141E-10    0.272E-10
RMM:   2    -0.139062316974E+03   -0.11642E-09    0.00000E+00     0   0.121E-10
 179 F= -.13906232E+03 E0= -.13907511E+03  d E =0.400178E-10
quench:  g(F)=  0.000E+00 g(S)=  0.000E+00 dE (1.order)= 0.000E+00
 bond charge predicted
       N       E                     dE             d eps       ncg     rms          rms(c)
DAV:   1    -0.139062316974E+03   -0.26921E-09   -0.82693E-11   168   0.204E-10    0.159E-10
RMM:   2    -0.139062316974E+03    0.26193E-09    0.00000E+00     0   0.967E-11
 180 F= -.13906232E+03 E0= -.13907511E+03  d E =0.109139E-09
quench:  g(F)=  0.000E+00 g(S)=  0.000E+00 dE (1.order)= 0.000E+00
 bond charge predicted
       N       E                     dE             d eps       ncg     rms          rms(c)
DAV:   1    -0.139062316974E+03    0.40382E-09    0.34997E-11   168   0.159E-10    0.171E-10
RMM:   2    -0.139062316974E+03   -0.30195E-09    0.00000E+00     0   0.969E-11
 181 F= -.13906232E+03 E0= -.13907511E+03  d E =-.160071E-09
quench:  g(F)=  0.000E+00 g(S)=  0.000E+00 dE (1.order)= 0.000E+00
 bond charge predicted
       N       E                     dE             d eps       ncg     rms          rms(c)
DAV:   1    -0.139062316974E+03   -0.19645E-09   -0.46565E-11   168   0.143E-10    0.163E-10
RMM:   2    -0.139062316974E+03    0.80036E-10    0.00000E+00     0   0.950E-11
 182 F= -.13906232E+03 E0= -.13907511E+03  d E =0.185537E-09
quench:  g(F)=  0.000E+00 g(S)=  0.000E+00 dE (1.order)= 0.000E+00
 bond charge predicted
       N       E                     dE             d eps       ncg     rms          rms(c)
DAV:   1    -0.139062316974E+03   -0.10550E-09   -0.11037E-11   168   0.115E-10    0.242E-10
RMM:   2    -0.139062316974E+03    0.15643E-09    0.00000E+00     0   0.114E-10
 183 F= -.13906232E+03 E0= -.13907511E+03  d E =-.291038E-10
quench:  g(F)=  0.000E+00 g(S)=  0.000E+00 dE (1.order)= 0.000E+00
 bond charge predicted
       N       E                     dE             d eps       ncg     rms          rms(c)
DAV:   1    -0.139062316975E+03   -0.60754E-09   -0.78008E-11   168   0.160E-10    0.163E-10
RMM:   2    -0.139062316974E+03    0.62573E-09    0.00000E+00     0   0.929E-11
 184 F= -.13906232E+03 E0= -.13907511E+03  d E =-.138243E-09
quench:  g(F)=  0.000E+00 g(S)=  0.000E+00 dE (1.order)= 0.000E+00
 bond charge predicted
       N       E                     dE             d eps       ncg     rms          rms(c)
[...]
 bond charge predicted
       N       E                     dE             d eps       ncg     rms          rms(c)
DAV:   1    -0.139062316973E+03    0.10550E-08    0.17492E-11   168   0.124E-10    0.253E-10
RMM:   2    -0.139062316974E+03   -0.65120E-09    0.00000E+00     0   0.980E-11
 453 F= -.13906232E+03 E0= -.13907511E+03  d E =0.691216E-10
quench:  g(F)=  0.000E+00 g(S)=  0.000E+00 dE (1.order)= 0.000E+00
 bond charge predicted
       N       E                     dE             d eps       ncg     rms          rms(c)
DAV:   1    -0.139062316974E+03   -0.11896E-08   -0.23360E-11   168   0.119E-10    0.259E-10
RMM:   2    -0.139062316974E+03    0.45839E-09    0.00000E+00     0   0.112E-10
 454 F= -.13906232E+03 E0= -.13907511E+03  d E =-.800355E-10
quench:  g(F)=  0.000E+00 g(S)=  0.000E+00 dE (1.order)= 0.000E+00
 bond charge predicted
       N       E                     dE             d eps       ncg     rms          rms(c)
DAV:   1    -0.139062316975E+03   -0.47294E-10   -0.53612E-11   168   0.219E-10    0.174E-10
RMM:   2    -0.139062316974E+03    0.52023E-09    0.00000E+00     0   0.120E-10
 455 F= -.13906232E+03 E0= -.13907511E+03  d E =0.145519E-10
quench:  g(F)=  0.000E+00 g(S)=  0.000E+00 dE (1.order)= 0.000E+00
 bond charge predicted
       N       E                     dE             d eps       ncg     rms          rms(c)
DAV:   1    -0.139062316975E+03    0.00000E+00   -0.57958E-11   168   0.148E-10    0.214E-10
RMM:   2    -0.139062316974E+03    0.58935E-09    0.00000E+00     0   0.119E-10
 456 F= -.13906232E+03 E0= -.13907511E+03  d E =0.691216E-10
quench:  g(F)=  0.000E+00 g(S)=  0.000E+00 dE (1.order)= 0.000E+00
 bond charge predicted
       N       E                     dE             d eps       ncg     rms          rms(c)
DAV:   1    -0.139062316975E+03   -0.69122E-10   -0.58276E-11   168   0.203E-10    0.236E-10
RMM:   2    -0.139062316974E+03    0.64392E-09    0.00000E+00     0   0.108E-10
 457 F= -.13906232E+03 E0= -.13907511E+03  d E =-.145519E-10
quench:  g(F)=  0.000E+00 g(S)=  0.000E+00 dE (1.order)= 0.000E+00
 bond charge predicted
       N       E                     dE             d eps       ncg     rms          rms(c)
DAV:   1    -0.139062316973E+03    0.16043E-08   -0.47220E-11   168   0.209E-10    0.166E-10
RMM:   2    -0.139062316974E+03   -0.95679E-09    0.00000E+00     0   0.106E-10
 458 F= -.13906232E+03 E0= -.13907511E+03  d E =0.363798E-11
quench:  g(F)=  0.000E+00 g(S)=  0.000E+00 dE (1.order)= 0.000E+00
 bond charge predicted
       N       E                     dE             d eps       ncg     rms          rms(c)
DAV:   1    -0.139062316974E+03   -0.10550E-08   -0.59929E-11   168   0.114E-10    0.230E-10
RMM:   2    -0.139062316974E+03    0.69122E-10    0.00000E+00     0   0.100E-10
 459 F= -.13906232E+03 E0= -.13907511E+03  d E =-.291038E-10
quench:  g(F)=  0.000E+00 g(S)=  0.000E+00 dE (1.order)= 0.000E+00
 bond charge predicted
       N       E                     dE             d eps       ncg     rms          rms(c)
DAV:   1    -0.139062316975E+03   -0.59299E-09   -0.19921E-11   168   0.208E-10    0.185E-10
RMM:   2    -0.139062316974E+03    0.60390E-09    0.00000E+00     0   0.986E-11
 460 F= -.13906232E+03 E0= -.13907511E+03  d E =-.582077E-10
quench:  g(F)=  0.000E+00 g(S)=  0.000E+00 dE (1.order)= 0.000E+00
 bond charge predicted
       N       E                     dE             d eps       ncg     rms          rms(c)
DAV:   1    -0.139062316975E+03    0.18190E-10   -0.25718E-11   168   0.109E-10    0.190E-10
RMM:   2    -0.139062316974E+03    0.52387E-09    0.00000E+00     0   0.101E-10
 461 F= -.13906232E+03 E0= -.13907511E+03  d E =-.618456E-10
quench:  g(F)=  0.000E+00 g(S)=  0.000E+00 dE (1.order)= 0.000E+00
 bond charge predicted
       N       E                     dE             d eps       ncg     rms          rms(c)
DAV:   1    -0.139062316974E+03    0.10332E-08   -0.42364E-11   168   0.154E-10    0.179E-10
RMM:   2    -0.139062316974E+03   -0.45111E-09    0.00000E+00     0   0.109E-10
 462 F= -.13906232E+03 E0= -.13907511E+03  d E =0.582077E-10
quench:  g(F)=  0.000E+00 g(S)=  0.000E+00 dE (1.order)= 0.000E+00
 bond charge predicted
       N       E                     dE             d eps       ncg     rms          rms(c)
DAV:   1    -0.139062316975E+03   -0.11605E-08   -0.41390E-12   168   0.150E-10    0.175E-10
RMM:   2    -0.139062316974E+03    0.68758E-09    0.00000E+00     0   0.917E-11
 463 F= -.13906232E+03 E0= -.13907511E+03  d E =-.218279E-10
quench:  g(F)=  0.000E+00 g(S)=  0.000E+00 dE (1.order)= 0.000E+00
 bond charge predicted
       N       E                     dE             d eps       ncg     rms          rms(c)
DAV:   1    -0.139062316974E+03    0.53842E-09   -0.35491E-11   168   0.144E-10    0.218E-10
RMM:   2    -0.139062316974E+03    0.24738E-09    0.00000E+00     0   0.102E-10
 464 F= -.13906232E+03 E0= -.13907511E+03  d E =0.982254E-10
quench:  g(F)=  0.000E+00 g(S)=  0.000E+00 dE (1.order)= 0.000E+00
 bond charge predicted
       N       E                     dE             d eps       ncg     rms          rms(c)
DAV:   1    -0.139062316974E+03    0.53114E-09   -0.93714E-11   168   0.148E-10    0.176E-10
RMM:   2    -0.139062316974E+03   -0.32742E-09    0.00000E+00     0   0.974E-11
 465 F= -.13906232E+03 E0= -.13907511E+03  d E =-.436557E-10
quench:  g(F)=  0.000E+00 g(S)=  0.000E+00 dE (1.order)= 0.000E+00
 bond charge predicted
       N       E                     dE             d eps       ncg     rms          rms(c)
DAV:   1    -0.139062316974E+03   -0.27285E-09   -0.25267E-11   168   0.174E-10    0.181E-10
RMM:   2    -0.139062316974E+03    0.10914E-10    0.00000E+00     0   0.943E-11
 466 F= -.13906232E+03 E0= -.13907511E+03  d E =0.654836E-10
quench:  g(F)=  0.000E+00 g(S)=  0.000E+00 dE (1.order)= 0.000E+00
 bond charge predicted
       N       E                     dE             d eps       ncg     rms          rms(c)
DAV:   1    -0.139062316974E+03   -0.55661E-09   -0.57272E-11   168   0.160E-10    0.244E-10
RMM:   2    -0.139062316974E+03    0.52387E-09    0.00000E+00     0   0.111E-10
 467 F= -.13906232E+03 E0= -.13907511E+03  d E =-.436557E-10
quench:  g(F)=  0.000E+00 g(S)=  0.000E+00 dE (1.order)= 0.000E+00
 bond charge predicted
       N       E                     dE             d eps       ncg     rms          rms(c)
DAV:   1    -0.139062316975E+03   -0.32742E-10   -0.11083E-11   168   0.179E-10    0.233E-10
RMM:   2    -0.139062316974E+03    0.53478E-09    0.00000E+00     0   0.115E-10
 468 F= -.13906232E+03 E0= -.13907511E+03  d E =-.218279E-10
quench:  g(F)=  0.000E+00 g(S)=  0.000E+00 dE (1.order)= 0.000E+00
 bond charge predicted
       N       E                     dE             d eps       ncg     rms          rms(c)
DAV:   1    -0.139062316974E+03    0.78944E-09   -0.10361E-10   168   0.196E-10    0.194E-10
RMM:   2    -0.139062316974E+03   -0.37107E-09    0.00000E+00     0   0.101E-10
 469 F= -.13906232E+03 E0= -.13907511E+03  d E =-.116415E-09
quench:  g(F)=  0.000E+00 g(S)=  0.000E+00 dE (1.order)= 0.000E+00
 bond charge predicted
       N       E                     dE             d eps       ncg     rms          rms(c)
DAV:   1    -0.139062316974E+03   -0.44020E-09   -0.14028E-11   168   0.167E-10    0.250E-10
RMM:   2    -0.139062316974E+03    0.22555E-09    0.00000E+00     0   0.111E-10
 470 F= -.13906232E+03 E0= -.13907511E+03  d E =0.156433E-09
quench:  g(F)=  0.000E+00 g(S)=  0.000E+00 dE (1.order)= 0.000E+00
 bond charge predicted
       N       E                     dE             d eps       ncg     rms          rms(c)
DAV:   1    -0.139062316974E+03   -0.30195E-09   -0.17316E-12   168   0.205E-10    0.183E-10
RMM:   2    -0.139062316974E+03    0.47294E-09    0.00000E+00     0   0.122E-10
 471 F= -.13906232E+03 E0= -.13907511E+03  d E =-.545697E-10
quench:  g(F)=  0.000E+00 g(S)=  0.000E+00 dE (1.order)= 0.000E+00
 bond charge predicted
       N       E                     dE             d eps       ncg     rms          rms(c)
DAV:   1    -0.139062316975E+03   -0.47294E-10   -0.10542E-10   168   0.138E-10    0.188E-10
RMM:   2    -0.139062316974E+03    0.56752E-09    0.00000E+00     0   0.116E-10
 472 F= -.13906232E+03 E0= -.13907511E+03  d E =0.472937E-10
quench:  g(F)=  0.000E+00 g(S)=  0.000E+00 dE (1.order)= 0.000E+00
 bond charge predicted
       N       E                     dE             d eps       ncg     rms          rms(c)
DAV:   1    -0.139062316973E+03    0.11205E-08   -0.11462E-10   168   0.142E-10    0.182E-10
RMM:   2    -0.139062316974E+03   -0.62209E-09    0.00000E+00     0   0.888E-11
 473 F= -.13906232E+03 E0= -.13907511E+03  d E =-.691216E-10
quench:  g(F)=  0.000E+00 g(S)=  0.000E+00 dE (1.order)= 0.000E+00
 bond charge predicted
       N       E                     dE             d eps       ncg     rms          rms(c)
DAV:   1    -0.139062316974E+03   -0.32742E-09   -0.52175E-11   168   0.136E-10    0.141E-10
RMM:   2    -0.139062316974E+03   -0.18554E-09    0.00000E+00     0   0.841E-11
 474 F= -.13906232E+03 E0= -.13907511E+03  d E =0.109139E-09
quench:  g(F)=  0.000E+00 g(S)=  0.000E+00 dE (1.order)= 0.000E+00
 bond charge predicted
       N       E                     dE             d eps       ncg     rms          rms(c)
DAV:   1    -0.139062316974E+03   -0.72760E-10   -0.58195E-11   168   0.129E-10    0.210E-10
RMM:   2    -0.139062316974E+03   -0.18190E-09    0.00000E+00     0   0.909E-11
 475 F= -.13906232E+03 E0= -.13907511E+03  d E =-.691216E-10
quench:  g(F)=  0.000E+00 g(S)=  0.000E+00 dE (1.order)= 0.000E+00
 bond charge predicted
       N       E                     dE             d eps       ncg     rms          rms(c)
DAV:   1    -0.139062316974E+03    0.13097E-09   -0.52942E-11   168   0.178E-10    0.268E-10
RMM:   2    -0.139062316974E+03   -0.28012E-09    0.00000E+00     0   0.127E-10
 476 F= -.13906232E+03 E0= -.13907511E+03  d E =0.327418E-10
quench:  g(F)=  0.000E+00 g(S)=  0.000E+00 dE (1.order)= 0.000E+00
 bond charge predicted
       N       E                     dE             d eps       ncg     rms          rms(c)
DAV:   1    -0.139062316973E+03    0.25830E-09   -0.13210E-10   168   0.240E-10    0.166E-10
RMM:   2    -0.139062316974E+03   -0.50568E-09    0.00000E+00     0   0.859E-11
 477 F= -.13906232E+03 E0= -.13907511E+03  d E =0.327418E-10
quench:  g(F)=  0.000E+00 g(S)=  0.000E+00 dE (1.order)= 0.000E+00
 bond charge predicted
       N       E                     dE             d eps       ncg     rms          rms(c)
DAV:   1    -0.139062316975E+03   -0.19209E-08   -0.10328E-10   168   0.139E-10    0.308E-10
RMM:   2    -0.139062316974E+03    0.12733E-08    0.00000E+00     0   0.116E-10
 478 F= -.13906232E+03 E0= -.13907511E+03  d E =-.141881E-09
quench:  g(F)=  0.000E+00 g(S)=  0.000E+00 dE (1.order)= 0.000E+00
 bond charge predicted
       N       E                     dE             d eps       ncg     rms          rms(c)
DAV:   1    -0.139062316974E+03    0.18226E-08   -0.44378E-12   168   0.220E-10    0.242E-10
RMM:   2    -0.139062316974E+03   -0.44383E-09    0.00000E+00     0   0.106E-10
 479 F= -.13906232E+03 E0= -.13907511E+03  d E =0.105501E-09
quench:  g(F)=  0.000E+00 g(S)=  0.000E+00 dE (1.order)= 0.000E+00
 bond charge predicted
       N       E                     dE             d eps       ncg     rms          rms(c)
DAV:   1    -0.139062316974E+03   -0.35288E-09    0.72130E-11   168   0.203E-10    0.132E-10
RMM:   2    -0.139062316974E+03   -0.98225E-10    0.00000E+00     0   0.102E-10
 480 F= -.13906232E+03 E0= -.13907511E+03  d E =-.727596E-11
quench:  g(F)=  0.000E+00 g(S)=  0.000E+00 dE (1.order)= 0.000E+00
 bond charge predicted
       N       E                     dE             d eps       ncg     rms          rms(c)
DAV:   1    -0.139062316973E+03    0.60027E-09   -0.43199E-11   168   0.123E-10    0.311E-10
RMM:   2    -0.139062316974E+03   -0.73487E-09    0.00000E+00     0   0.121E-10
 481 F= -.13906232E+03 E0= -.13907511E+03  d E =-.363798E-10
quench:  g(F)=  0.000E+00 g(S)=  0.000E+00 dE (1.order)= 0.000E+00
 bond charge predicted
       N       E                     dE             d eps       ncg     rms          rms(c)
DAV:   1    -0.139062316973E+03   -0.15280E-09   -0.87453E-11   168   0.148E-10    0.148E-10
RMM:   2    -0.139062316974E+03   -0.48385E-09    0.00000E+00     0   0.105E-10
 482 F= -.13906232E+03 E0= -.13907511E+03  d E =0.982254E-10
quench:  g(F)=  0.000E+00 g(S)=  0.000E+00 dE (1.order)= 0.000E+00
 bond charge predicted
       N       E                     dE             d eps       ncg     rms          rms(c)
DAV:   1    -0.139062316973E+03   -0.61846E-10   -0.12381E-10   168   0.125E-10    0.165E-10
RMM:   2    -0.139062316974E+03   -0.41473E-09    0.00000E+00     0   0.100E-10
 483 F= -.13906232E+03 E0= -.13907511E+03  d E =0.727596E-11
quench:  g(F)=  0.000E+00 g(S)=  0.000E+00 dE (1.order)= 0.000E+00
 bond charge predicted
       N       E                     dE             d eps       ncg     rms          rms(c)
DAV:   1    -0.139062316974E+03   -0.16735E-09   -0.67550E-11   168   0.108E-10    0.287E-10
RMM:   2    -0.139062316974E+03   -0.26921E-09    0.00000E+00     0   0.114E-10
 484 F= -.13906232E+03 E0= -.13907511E+03  d E =-.218279E-10
quench:  g(F)=  0.000E+00 g(S)=  0.000E+00 dE (1.order)= 0.000E+00
 bond charge predicted
       N       E                     dE             d eps       ncg     rms          rms(c)
DAV:   1    -0.139062316974E+03   -0.24738E-09    0.95478E-12   168   0.187E-10    0.173E-10
RMM:   2    -0.139062316974E+03   -0.47294E-10    0.00000E+00     0   0.872E-11
 485 F= -.13906232E+03 E0= -.13907511E+03  d E =-.254659E-10
quench:  g(F)=  0.000E+00 g(S)=  0.000E+00 dE (1.order)= 0.000E+00
 bond charge predicted
       N       E                     dE             d eps       ncg     rms          rms(c)
DAV:   1    -0.139062316973E+03    0.41837E-09    0.17657E-11   168   0.134E-10    0.171E-10
RMM:   2    -0.139062316974E+03   -0.45111E-09    0.00000E+00     0   0.111E-10
 486 F= -.13906232E+03 E0= -.13907511E+03  d E =0.145519E-10
quench:  g(F)=  0.000E+00 g(S)=  0.000E+00 dE (1.order)= 0.000E+00
 bond charge predicted
       N       E                     dE             d eps       ncg     rms          rms(c)
DAV:   1    -0.139062316973E+03    0.26557E-09    0.35123E-12   168   0.131E-10    0.341E-10
RMM:   2    -0.139062316974E+03   -0.78217E-09    0.00000E+00     0   0.109E-10
 487 F= -.13906232E+03 E0= -.13907511E+03  d E =-.654836E-10
quench:  g(F)=  0.000E+00 g(S)=  0.000E+00 dE (1.order)= 0.000E+00
 bond charge predicted
       N       E                     dE             d eps       ncg     rms          rms(c)
DAV:   1    -0.139062316975E+03   -0.13279E-08    0.61442E-11   168   0.257E-10    0.217E-10
RMM:   2    -0.139062316974E+03    0.52751E-09    0.00000E+00     0   0.111E-10
 488 F= -.13906232E+03 E0= -.13907511E+03  d E =-.181899E-10
quench:  g(F)=  0.000E+00 g(S)=  0.000E+00 dE (1.order)= 0.000E+00
 bond charge predicted
       N       E                     dE             d eps       ncg     rms          rms(c)
DAV:   1    -0.139062316975E+03   -0.54570E-10   -0.69935E-11   168   0.265E-10    0.313E-10
RMM:   2    -0.139062316974E+03    0.55297E-09    0.00000E+00     0   0.139E-10
 489 F= -.13906232E+03 E0= -.13907511E+03  d E =-.291038E-10
quench:  g(F)=  0.000E+00 g(S)=  0.000E+00 dE (1.order)= 0.000E+00
 bond charge predicted
       N       E                     dE             d eps       ncg     rms          rms(c)
DAV:   1    -0.139062316974E+03    0.29104E-09   -0.29978E-11   168   0.330E-10    0.166E-10
RMM:   2    -0.139062316974E+03    0.36380E-09    0.00000E+00     0   0.106E-10
 490 F= -.13906232E+03 E0= -.13907511E+03  d E =0.101863E-09
quench:  g(F)=  0.000E+00 g(S)=  0.000E+00 dE (1.order)= 0.000E+00
 bond charge predicted
       N       E                     dE             d eps       ncg     rms          rms(c)
DAV:   1    -0.139062316974E+03    0.14552E-09   -0.30645E-11   168   0.153E-10    0.219E-10
RMM:   2    -0.139062316974E+03    0.22555E-09    0.00000E+00     0   0.102E-10
 491 F= -.13906232E+03 E0= -.13907511E+03  d E =0.727596E-11
quench:  g(F)=  0.000E+00 g(S)=  0.000E+00 dE (1.order)= 0.000E+00
 bond charge predicted
       N       E                     dE             d eps       ncg     rms          rms(c)
DAV:   1    -0.139062316972E+03    0.17972E-08    0.59861E-12   168   0.166E-10    0.175E-10
RMM:   2    -0.139062316974E+03   -0.15461E-08    0.00000E+00     0   0.103E-10
 492 F= -.13906232E+03 E0= -.13907511E+03  d E =0.254659E-10
quench:  g(F)=  0.000E+00 g(S)=  0.000E+00 dE (1.order)= 0.000E+00
 bond charge predicted
       N       E                     dE             d eps       ncg     rms          rms(c)
DAV:   1    -0.139062316974E+03   -0.13169E-08   -0.66670E-11   168   0.137E-10    0.249E-10
RMM:   2    -0.139062316974E+03   -0.24374E-09    0.00000E+00     0   0.941E-11
 493 F= -.13906232E+03 E0= -.13907511E+03  d E =-.145519E-10
quench:  g(F)=  0.000E+00 g(S)=  0.000E+00 dE (1.order)= 0.000E+00
 bond charge predicted
       N       E                     dE             d eps       ncg     rms          rms(c)
DAV:   1    -0.139062316974E+03   -0.51296E-09   -0.56817E-11   168   0.155E-10    0.154E-10
RMM:   2    -0.139062316974E+03    0.17099E-09    0.00000E+00     0   0.814E-11
 494 F= -.13906232E+03 E0= -.13907511E+03  d E =-.982254E-10
quench:  g(F)=  0.000E+00 g(S)=  0.000E+00 dE (1.order)= 0.000E+00
 bond charge predicted
       N       E                     dE             d eps       ncg     rms          rms(c)
DAV:   1    -0.139062316974E+03   -0.16007E-09   -0.29568E-11   168   0.136E-10    0.226E-10
RMM:   2    -0.139062316974E+03    0.46202E-09    0.00000E+00     0   0.102E-10
 495 F= -.13906232E+03 E0= -.13907511E+03  d E =0.130967E-09
quench:  g(F)=  0.000E+00 g(S)=  0.000E+00 dE (1.order)= 0.000E+00
 bond charge predicted
       N       E                     dE             d eps       ncg     rms          rms(c)
DAV:   1    -0.139062316975E+03   -0.70941E-09    0.19306E-11   168   0.127E-10    0.164E-10
RMM:   2    -0.139062316974E+03    0.11860E-08    0.00000E+00     0   0.989E-11
 496 F= -.13906232E+03 E0= -.13907511E+03  d E =0.145519E-10
quench:  g(F)=  0.000E+00 g(S)=  0.000E+00 dE (1.order)= 0.000E+00
 bond charge predicted
       N       E                     dE             d eps       ncg     rms          rms(c)
DAV:   1    -0.139062316973E+03    0.16043E-08   -0.14904E-10   168   0.138E-10    0.278E-10
RMM:   2    -0.139062316974E+03   -0.60027E-09    0.00000E+00     0   0.128E-10
 497 F= -.13906232E+03 E0= -.13907511E+03  d E =-.181899E-09
quench:  g(F)=  0.000E+00 g(S)=  0.000E+00 dE (1.order)= 0.000E+00
 bond charge predicted
       N       E                     dE             d eps       ncg     rms          rms(c)
DAV:   1    -0.139062316974E+03   -0.14552E-09   -0.20484E-11   168   0.169E-10    0.219E-10
RMM:   2    -0.139062316974E+03   -0.35652E-09    0.00000E+00     0   0.107E-10
 498 F= -.13906232E+03 E0= -.13907511E+03  d E =0.982254E-10
quench:  g(F)=  0.000E+00 g(S)=  0.000E+00 dE (1.order)= 0.000E+00
 bond charge predicted
       N       E                     dE             d eps       ncg     rms          rms(c)
DAV:   1    -0.139062316974E+03   -0.49477E-09   -0.93733E-12   168   0.196E-10    0.236E-10
RMM:   2    -0.139062316974E+03    0.15643E-09    0.00000E+00     0   0.116E-10
 499 F= -.13906232E+03 E0= -.13907511E+03  d E =0.181899E-10
quench:  g(F)=  0.000E+00 g(S)=  0.000E+00 dE (1.order)= 0.000E+00
 bond charge predicted
       N       E                     dE             d eps       ncg     rms          rms(c)
DAV:   1    -0.139062316975E+03   -0.66575E-09   -0.77448E-12   168   0.270E-10    0.177E-10
RMM:   2    -0.139062316974E+03    0.72760E-09    0.00000E+00     0   0.131E-10
 500 F= -.13906232E+03 E0= -.13907511E+03  d E =-.945874E-10
quench:  g(F)=  0.000E+00 g(S)=  0.000E+00 dE (1.order)= 0.000E+00
