 vasp.6.3.2 27Jun22 (build Mar 25 2024 10:42:18) complex                         
 executed on             LinuxGNU date 2024.03.31  13:59:32
 running on   32 total cores
 distrk:  each k-point on   32 cores,    1 groups
 distr:  one band on NCORE=   1 cores,   32 groups


--------------------------------------------------------------------------------------------------------


 INCAR:
   ISTART = 0
   ICHARG = 2
   PREC = Accurate
   IBRION = -1
   EDIFF = 0.000000001
   EDIFFG = -0.0005
   NSW = 0
   NELM = 100
   ENCUT = 520
   ISMEAR = -5
   SIGMA = 0.05
   ISPIN = 2
   ISYM = 0
   LWAVE = False
   LCHARG = False
   LASPH = True
   LORBIT = 11
   ADDGRID = TRUE

 POTCAR:    PAW_PBE S 06Sep2000                   
 -----------------------------------------------------------------------------
|                                                                             |
|           W    W    AA    RRRRR   N    N  II  N    N   GGGG   !!!           |
|           W    W   A  A   R    R  NN   N  II  NN   N  G    G  !!!           |
|           W    W  A    A  R    R  N N  N  II  N N  N  G       !!!           |
|           W WW W  AAAAAA  RRRRR   N  N N  II  N  N N  G  GGG   !            |
|           WW  WW  A    A  R   R   N   NN  II  N   NN  G    G                |
|           W    W  A    A  R    R  N    N  II  N    N   GGGG   !!!           |
|                                                                             |
|     You use a magnetic or noncollinear calculation, but did not specify     |
|     the initial magnetic moment with the MAGMOM tag. Note that a            |
|     default of 1 will be used for all atoms. This ferromagnetic setup       |
|     may break the symmetry of the crystal, in particular it may rule        |
|     out finding an antiferromagnetic solution. Thence, we recommend         |
|     setting the initial magnetic moment manually or verifying carefully     |
|     that this magnetic setup is desired.                                    |
|                                                                             |
 -----------------------------------------------------------------------------

 -----------------------------------------------------------------------------
|                                                                             |
|           W    W    AA    RRRRR   N    N  II  N    N   GGGG   !!!           |
|           W    W   A  A   R    R  NN   N  II  NN   N  G    G  !!!           |
|           W    W  A    A  R    R  N N  N  II  N N  N  G       !!!           |
|           W WW W  AAAAAA  RRRRR   N  N N  II  N  N N  G  GGG   !            |
|           WW  WW  A    A  R   R   N   NN  II  N   NN  G    G                |
|           W    W  A    A  R    R  N    N  II  N    N   GGGG   !!!           |
|                                                                             |
|     For optimal performance we recommend to set                             |
|       NCORE = 2 up to number-of-cores-per-socket                            |
|     NCORE specifies how many cores store one orbital (NPAR=cpu/NCORE).      |
|     This setting can greatly improve the performance of VASP for DFT.       |
|     The default, NCORE=1 might be grossly inefficient on modern             |
|     multi-core architectures or massively parallel machines. Do your        |
|     own testing! More info at https://www.vasp.at/wiki/index.php/NCORE      |
|     Unfortunately you need to use the default for GW and RPA                |
|     calculations (for HF NCORE is supported but not extensively tested      |
|     yet).                                                                   |
|                                                                             |
 -----------------------------------------------------------------------------

 POTCAR:    PAW_PBE S 06Sep2000                   
   SHA256 =  0fc7481fb0695f01bdc6462160264c5c84044ae9ec85a907d398b887a2bc3132 S/POTCAR              
   COPYR  = (c) Copyright 06Sep2000 Georg Kresse                                                    
   COPYR  = This file is part of the software VASP. Any use, copying, and all other rights are regul
   COPYR  = If you do not have a valid VASP license, you may not use, copy or distribute this file. 
   VRHFIN =S : s2p4                                                                                 
   LEXCH  = PE                                                                                      
   EATOM  =   276.8230 eV,   20.3459 Ry                                                             
                                                                                                    
   TITEL  = PAW_PBE S 06Sep2000                                                                     
   LULTRA =        F    use ultrasoft PP ?                                                          
   IUNSCR =        1    unscreen: 0-lin 1-nonlin 2-no                                               
   RPACOR =    1.500    partial core radius                                                         
   POMASS =   32.066; ZVAL   =    6.000    mass and valenz                                          
   RCORE  =    1.900    outmost cutoff radius                                                       
   RWIGS  =    2.200; RWIGS  =    1.164    wigner-seitz radius (au A)                               
   ENMAX  =  258.689; ENMIN  =  194.016 eV                                                          
   ICORE  =        2    local potential                                                             
   LCOR   =        T    correct aug charges                                                         
   LPAW   =        T    paw PP                                                                      
   EAUG   =  335.092                                                                                
   DEXC   =    0.000                                                                                
   RMAX   =    1.942    core radius for proj-oper                                                   
   RAUG   =    1.300    factor for augmentation sphere                                              
   RDEP   =    1.954    radius for radial grids                                                     
   RDEPT  =    1.744    core radius for aug-charge                                                  
                                                                                                    
   Atomic configuration                                                                             
    6 entries                                                                                       
     n  l   j            E        occ.                                                              
     1  0  0.50     -2405.8406   2.0000                                                             
     2  0  0.50      -211.7007   2.0000                                                             
     2  1  1.50      -156.4958   6.0000                                                             
     3  0  0.50       -17.2562   2.0000                                                             
     3  1  0.50        -7.0085   4.0000                                                             
     3  2  1.50        -6.8029   0.0000                                                             
   Description                                                                                      
     l       E           TYP  RCUT    TYP  RCUT                                                     
     0    -17.2561641     23  1.900                                                                 
     0    -15.8743224     23  1.900                                                                 
     1     -7.0085400     23  1.900                                                                 
     1     -2.7779785     23  1.900                                                                 
     2     -6.8029130     23  1.900                                                                 
  local pseudopotential read in
  partial core-charges read in
  partial kinetic energy density read in
  atomic valenz-charges read in
  non local Contribution for L=           0  read in
    real space projection operators read in
  non local Contribution for L=           0  read in
    real space projection operators read in
  non local Contribution for L=           1  read in
    real space projection operators read in
  non local Contribution for L=           1  read in
    real space projection operators read in
    PAW grid and wavefunctions read in

   number of l-projection  operators is LMAX  =           4
   number of lm-projection operators is LMMAX =           8

 -----------------------------------------------------------------------------
|                                                                             |
|               ----> ADVICE to this user running VASP <----                  |
|                                                                             |
|     You have a (more or less) 'large supercell' and for larger cells it     |
|     might be more efficient to use real-space projection operators.         |
|     Therefore, try LREAL= Auto in the INCAR file.                           |
|     Mind: For very accurate calculation, you might also keep the            |
|     reciprocal projection scheme (i.e. LREAL=.FALSE.).                      |
|                                                                             |
 -----------------------------------------------------------------------------

  PAW_PBE S 06Sep2000                   :
 energy of atom  1       EATOM= -276.8230
 kinetic energy error for atom=    0.0016 (will be added to EATOM!!)


 POSCAR: generated by phonopy
  positions in direct lattice
  No initial velocities read in
 exchange correlation table for  LEXCH =        8
   RHO(1)=    0.500       N(1)  =     2000
   RHO(2)=  100.500       N(2)  =     4000



--------------------------------------------------------------------------------------------------------


 ion  position               nearest neighbor table
   1  0.886  0.467  0.678-  45 1.98  24 2.13
   2  0.886  0.967  0.678-  46 1.98  23 2.13
   3  0.330  0.189  0.551-  41 2.05  19 2.13
   4  0.330  0.689  0.551-  42 2.05  20 2.13
   5  0.913  0.105  0.912-  51 1.97  11 2.14
   6  0.913  0.605  0.912-  52 1.98  12 2.13
   7  0.240  0.301  0.777-  19 1.98  37 2.23
   8  0.240  0.801  0.777-  20 1.98  38 2.23
   9  0.144  0.306  0.224-  31 2.05  39 2.13
  10  0.144  0.806  0.224-  32 2.05  40 2.13
  11  0.856  0.194  0.776-  47 2.05   5 2.14
  12  0.856  0.694  0.776-  48 2.05   6 2.13
  13  0.760  0.199  0.223-  27 1.98  33 2.23
  14  0.760  0.699  0.223-  28 1.98  34 2.23
  15  0.170  0.439  0.449-  31 2.05  30 2.13
  16  0.170  0.939  0.449-  32 2.05  29 2.13
  17  0.413  0.145  0.912-  37 1.98  43 2.13
  18  0.413  0.645  0.912-  38 1.98  44 2.13
  19  0.386  0.283  0.678-   7 1.98   3 2.13
  20  0.386  0.783  0.678-   8 1.98   4 2.13
  21  0.644  0.444  0.224-  53 2.05  35 2.13
  22  0.644  0.944  0.224-  54 2.05  36 2.13
  23  0.830  0.061  0.551-  47 2.05   2 2.13
  24  0.830  0.561  0.551-  48 2.05   1 2.13
  25  0.260  0.051  0.223-  29 1.98  50 2.23
  26  0.260  0.551  0.223-  30 1.98  49 2.23
  27  0.614  0.217  0.322-  13 1.98  55 2.13
  28  0.614  0.717  0.322-  14 1.98  56 2.13
  29  0.114  0.033  0.322-  25 1.98  16 2.13
  30  0.114  0.533  0.322-  26 1.98  15 2.13
  31  0.060  0.345  0.374-   9 2.05  15 2.05
  32  0.060  0.845  0.374-  10 2.05  16 2.05
  33  0.743  0.289  0.071-  35 1.98  13 2.23
  34  0.743  0.789  0.071-  36 1.98  14 2.23
  35  0.587  0.355  0.088-  33 1.98  21 2.13
  36  0.587  0.855  0.088-  34 1.98  22 2.13
  37  0.257  0.211  0.929-  17 1.98   7 2.23
  38  0.257  0.711  0.929-  18 1.98   8 2.23
  39  0.087  0.395  0.088-  49 1.98   9 2.13
  40  0.087  0.895  0.088-  50 1.98  10 2.13
  41  0.440  0.095  0.626-  43 2.05   3 2.05
  42  0.440  0.595  0.626-  44 2.05   4 2.05
  43  0.356  0.056  0.776-  41 2.05  17 2.13
  44  0.356  0.556  0.776-  42 2.05  18 2.13
  45  0.740  0.449  0.777-   1 1.98  52 2.23
  46  0.740  0.949  0.777-   2 1.98  51 2.23
  47  0.940  0.155  0.626-  11 2.05  23 2.05
  48  0.940  0.655  0.626-  12 2.05  24 2.05
  49  0.243  0.461  0.071-  39 1.98  26 2.23
  50  0.243  0.961  0.071-  40 1.98  25 2.23
  51  0.757  0.039  0.929-   5 1.97  46 2.23
  52  0.757  0.539  0.929-   6 1.98  45 2.23
  53  0.560  0.405  0.374-  21 2.05  55 2.05
  54  0.560  0.905  0.374-  22 2.05  56 2.05
  55  0.670  0.311  0.449-  53 2.05  27 2.13
  56  0.670  0.811  0.449-  54 2.05  28 2.13


IMPORTANT INFORMATION: All symmetrisations will be switched off!
NOSYMM: (Re-)initialisation of all symmetry stuff for point group C_1.


----------------------------------------------------------------------------------------

                                     Primitive cell                                     

  volume of cell :    1863.6770

  direct lattice vectors                    reciprocal lattice vectors
     0.000000000 10.307367086 -0.372855731     0.000000000  0.096453423 -0.015606996
    16.788494411  0.000000000  0.000000000     0.059564603  0.000000000  0.000000000
     0.000000000 -1.732519801-10.707215182     0.000000000 -0.003358783 -0.092851486

  length of vectors
    10.314108670 16.788494411 10.846477853     0.097707938  0.059564603  0.092912216

  position of ions in fractional coordinates (direct lattice)
     0.886423141  0.467004751  0.678126386
     0.886423141  0.967004751  0.678126386
     0.329563264  0.188743823  0.550707721
     0.329563264  0.688743823  0.550707721
     0.912671285  0.104646239  0.911960471
     0.912671285  0.605241885  0.911960471
     0.239736405  0.300831047  0.776574189
     0.239736405  0.800831047  0.776574189
     0.144417516  0.305688762  0.224396680
     0.144417516  0.805688762  0.224396680
     0.855582484  0.194311238  0.775603320
     0.855582484  0.694311238  0.775603320
     0.760263595  0.199168953  0.223425811
     0.760263595  0.699168953  0.223425811
     0.170436736  0.438743823  0.449292279
     0.170436736  0.938743823  0.449292279
     0.412671285  0.144758115  0.911960471
     0.412671285  0.644758115  0.911960471
     0.386423141  0.282995249  0.678126386
     0.386423141  0.782995249  0.678126386
     0.644417516  0.444311238  0.224396680
     0.644417516  0.944311238  0.224396680
     0.829563264  0.061256177  0.550707721
     0.829563264  0.561256177  0.550707721
     0.260263595  0.050831047  0.223425811
     0.260263595  0.550831047  0.223425811
     0.613576859  0.217004751  0.321873614
     0.613576859  0.717004751  0.321873614
     0.113576859  0.032995249  0.321873614
     0.113576859  0.532995249  0.321873614
     0.059895700  0.345087734  0.374484367
     0.059895700  0.845087734  0.374484367
     0.743425210  0.289344343  0.071165234
     0.743425210  0.789344343  0.071165234
     0.587328715  0.355241885  0.088039529
     0.587328715  0.855241885  0.088039529
     0.256574790  0.210655657  0.928834766
     0.256574790  0.710655657  0.928834766
     0.087328715  0.394758115  0.088039529
     0.087328715  0.894758115  0.088039529
     0.440104300  0.095087734  0.625515633
     0.440104300  0.595087734  0.625515633
     0.355582484  0.055688762  0.775603320
     0.355582484  0.555688762  0.775603320
     0.739736405  0.449168953  0.776574189
     0.739736405  0.949168953  0.776574189
     0.940104300  0.154912266  0.625515633
     0.940104300  0.654912266  0.625515633
     0.243425210  0.460655657  0.071165234
     0.243425210  0.960655657  0.071165234
     0.756574790  0.039344343  0.928834766
     0.756574790  0.539344343  0.928834766
     0.559895700  0.404912266  0.374484367
     0.559895700  0.904912266  0.374484367
     0.670436736  0.311256177  0.449292279
     0.670436736  0.811256177  0.449292279

  ion indices of the primitive-cell ions
   primitive index   ion index
                 1           1
                 2           2
                 3           3
                 4           4
                 5           5
                 6           6
                 7           7
                 8           8
                 9           9
                10          10
                11          11
                12          12
                13          13
                14          14
                15          15
                16          16
                17          17
                18          18
                19          19
                20          20
                21          21
                22          22
                23          23
                24          24
                25          25
                26          26
                27          27
                28          28
                29          29
                30          30
                31          31
                32          32
                33          33
                34          34
                35          35
                36          36
                37          37
                38          38
                39          39
                40          40
                41          41
                42          42
                43          43
                44          44
                45          45
                46          46
                47          47
                48          48
                49          49
                50          50
                51          51
                52          52
                53          53
                54          54
                55          55
                56          56

----------------------------------------------------------------------------------------



 KPOINTS: pymatgen with grid density = 595 / numbe

Automatic generation of k-mesh.
 Grid dimensions read from file:
 generate k-points for:    2    2    2

 Generating k-lattice:

  Cartesian coordinates                     Fractional coordinates (reciprocal lattice)
     0.000000000  0.048226712 -0.007803498     0.500000000  0.000000000 -0.000000000
     0.029782301  0.000000000  0.000000000     0.000000000  0.500000000  0.000000000
     0.000000000 -0.001679391 -0.046425743    -0.000000000  0.000000000  0.500000000

  Length of vectors
     0.048853969  0.029782301  0.046456108

  Shift w.r.t. Gamma in fractional coordinates (k-lattice)
     0.000000000  0.000000000  0.000000000

 TETIRR: Found     24 inequivalent tetrahedra from       48
 
 Subroutine IBZKPT returns following result:
 ===========================================
 
 Found      8 irreducible k-points:
 
 Following reciprocal coordinates:
            Coordinates               Weight
  0.000000  0.000000  0.000000      1.000000
  0.500000  0.000000  0.000000      1.000000
  0.000000  0.500000  0.000000      1.000000
  0.500000  0.500000  0.000000      1.000000
  0.000000  0.000000  0.500000      1.000000
  0.500000  0.000000  0.500000      1.000000
  0.000000  0.500000  0.500000      1.000000
  0.500000  0.500000  0.500000      1.000000
 
 Following cartesian coordinates:
            Coordinates               Weight
  0.000000  0.000000 -0.000000      1.000000
  0.000000  0.048227 -0.007803      1.000000
  0.029782  0.000000 -0.000000      1.000000
  0.029782  0.048227 -0.007803      1.000000
  0.000000 -0.001679 -0.046426      1.000000
  0.000000  0.046547 -0.054229      1.000000
  0.029782 -0.001679 -0.046426      1.000000
  0.029782  0.046547 -0.054229      1.000000
 


--------------------------------------------------------------------------------------------------------




 Dimension of arrays:
   k-points           NKPTS =      8   k-points in BZ     NKDIM =      8   number of bands    NBANDS=    256
   number of dos      NEDOS =    301   number of ions     NIONS =     56
   non local maximal  LDIM  =      4   non local SUM 2l+1 LMDIM =      8
   total plane-waves  NPLWV = 846720
   max r-space proj   IRMAX =      1   max aug-charges    IRDMAX= 114695
   dimension x,y,z NGX =    80 NGY =  126 NGZ =   84
   dimension x,y,z NGXF=   160 NGYF=  252 NGZF=  168
   support grid    NGXF=   320 NGYF=  504 NGZF=  336
   ions per type =              56
   NGX,Y,Z   is equivalent  to a cutoff of  12.89, 12.48, 12.87 a.u.
   NGXF,Y,Z  is equivalent  to a cutoff of  25.79, 24.95, 25.75 a.u.

 SYSTEM =  unknown system                          
 POSCAR =  generated by phonopy                    

 Startparameter for this run:
   NWRITE =      2    write-flag & timer
   PREC   = accura    normal or accurate (medium, high low for compatibility)
   ISTART =      0    job   : 0-new  1-cont  2-samecut
   ICHARG =      2    charge: 1-file 2-atom 10-const
   ISPIN  =      2    spin polarized calculation?
   LNONCOLLINEAR =      F non collinear calculations
   LSORBIT =      F    spin-orbit coupling
   INIWAV =      1    electr: 0-lowe 1-rand  2-diag
   LASPH  =      T    aspherical Exc in radial PAW
 Electronic Relaxation 1
   ENCUT  =  520.0 eV  38.22 Ry    6.18 a.u.  19.18 31.22 20.17*2*pi/ulx,y,z
   ENINI  =  520.0     initial cutoff
   ENAUG  =  335.1 eV  augmentation charge cutoff
   NELM   =    100;   NELMIN=  2; NELMDL= -5     # of ELM steps 
   EDIFF  = 0.1E-08   stopping-criterion for ELM
   LREAL  =      F    real-space projection
   NLSPLINE    = F    spline interpolate recip. space projectors
   LCOMPAT=      F    compatible to vasp.4.4
   GGA_COMPAT  = T    GGA compatible to vasp.4.4-vasp.4.6
   LMAXPAW     = -100 max onsite density
   LMAXMIX     =    2 max onsite mixed and CHGCAR
   VOSKOWN=      0    Vosko Wilk Nusair interpolation
   ROPT   =    0.00000
 Ionic relaxation
   EDIFFG = -.5E-03   stopping-criterion for IOM
   NSW    =      0    number of steps for IOM
   NBLOCK =      1;   KBLOCK =      1    inner block; outer block 
   IBRION =     -1    ionic relax: 0-MD 1-quasi-New 2-CG
   NFREE  =      0    steps in history (QN), initial steepest desc. (CG)
   ISIF   =      2    stress and relaxation
   IWAVPR =     10    prediction:  0-non 1-charg 2-wave 3-comb
   ISYM   =      0    0-nonsym 1-usesym 2-fastsym
   LCORR  =      T    Harris-Foulkes like correction to forces

   POTIM  = 0.5000    time-step for ionic-motion
   TEIN   =    0.0    initial temperature
   TEBEG  =    0.0;   TEEND  =   0.0 temperature during run
   SMASS  =  -3.00    Nose mass-parameter (am)
   estimated Nose-frequenzy (Omega)   =  0.10E-29 period in steps = 0.13E+47 mass=  -0.243E-26a.u.
   SCALEE = 1.0000    scale energy and forces
   NPACO  =    256;   APACO  = 10.0  distance and # of slots for P.C.
   PSTRESS=    0.0 pullay stress

  Mass of Ions in am
   POMASS =  32.07
  Ionic Valenz
   ZVAL   =   6.00
  Atomic Wigner-Seitz radii
   RWIGS  =  -1.00
  virtual crystal weights 
   VCA    =   1.00
   NELECT =     336.0000    total number of electrons
   NUPDOWN=      -1.0000    fix difference up-down

 DOS related values:
   EMIN   =  10.00;   EMAX   =-10.00  energy-range for DOS
   EFERMI =   0.00
   ISMEAR =    -5;   SIGMA  =   0.05  broadening in eV -4-tet -1-fermi 0-gaus

 Electronic relaxation 2 (details)
   IALGO  =     38    algorithm
   LDIAG  =      T    sub-space diagonalisation (order eigenvalues)
   LSUBROT=      F    optimize rotation matrix (better conditioning)
   TURBO    =      0    0=normal 1=particle mesh
   IRESTART =      0    0=no restart 2=restart with 2 vectors
   NREBOOT  =      0    no. of reboots
   NMIN     =      0    reboot dimension
   EREF     =   0.00    reference energy to select bands
   IMIX   =      4    mixing-type and parameters
     AMIX     =   0.40;   BMIX     =  1.00
     AMIX_MAG =   1.60;   BMIX_MAG =  1.00
     AMIN     =   0.10
     WC   =   100.;   INIMIX=   1;  MIXPRE=   1;  MAXMIX= -45

 Intra band minimization:
   WEIMIN = 0.0000     energy-eigenvalue tresh-hold
   EBREAK =  0.98E-12  absolut break condition
   DEPER  =   0.30     relativ break condition  

   TIME   =   0.40     timestep for ELM

  volume/ion in A,a.u.               =      33.28       224.58
  Fermi-wavevector in a.u.,A,eV,Ry     =   0.924835  1.747685 11.637339  0.855320
  Thomas-Fermi vector in A             =   2.050624

 Write flags
   LWAVE        =      F    write WAVECAR
   LDOWNSAMPLE  =      F    k-point downsampling of WAVECAR
   LCHARG       =      F    write CHGCAR
   LVTOT        =      F    write LOCPOT, total local potential
   LVHAR        =      F    write LOCPOT, Hartree potential only
   LELF         =      F    write electronic localiz. function (ELF)
   LORBIT       =     11    0 simple, 1 ext, 2 COOP (PROOUT), +10 PAW based schemes


 Dipole corrections
   LMONO  =      F    monopole corrections only (constant potential shift)
   LDIPOL =      F    correct potential (dipole corrections)
   IDIPOL =      0    1-x, 2-y, 3-z, 4-all directions 
   EPSILON=  1.0000000 bulk dielectric constant

 Exchange correlation treatment:
   GGA     =    --    GGA type
   LEXCH   =     8    internal setting for exchange type
   LIBXC   =     F    Libxc                    
   VOSKOWN =     0    Vosko Wilk Nusair interpolation
   LHFCALC =     F    Hartree Fock is set to
   LHFONE  =     F    Hartree Fock one center treatment
   AEXX    =    0.0000 exact exchange contribution

 Linear response parameters
   LEPSILON=     F    determine dielectric tensor
   LRPA    =     F    only Hartree local field effects (RPA)
   LNABLA  =     F    use nabla operator in PAW spheres
   LVEL    =     F    velocity operator in full k-point grid
   CSHIFT  =0.1000    complex shift for real part using Kramers Kronig
   OMEGAMAX=  -1.0    maximum frequency
   DEG_THRESHOLD= 0.2000000E-02 threshold for treating states as degnerate
   RTIME   =   -0.100 relaxation time in fs
  (WPLASMAI=    0.000 imaginary part of plasma frequency in eV, 0.658/RTIME)
   DFIELD  = 0.0000000 0.0000000 0.0000000 field for delta impulse in time

  Optional k-point grid parameters
   LKPOINTS_OPT  =     F    use optional k-point grid
   KPOINTS_OPT_MODE=     1    mode for optional k-point grid

 Orbital magnetization related:
   ORBITALMAG=     F  switch on orbital magnetization
   LCHIMAG   =     F  perturbation theory with respect to B field
   DQ        =  0.001000  dq finite difference perturbation B field
   LLRAUG    =     F  two centre corrections for induced B field



--------------------------------------------------------------------------------------------------------


 Static calculation
 charge density and potential will be updated during run
 spin polarized calculation
 Variant of blocked Davidson
 Davidson routine will perform the subspace rotation
 perform sub-space diagonalisation
    after iterative eigenvector-optimisation
 modified Broyden-mixing scheme, WC =      100.0
 initial mixing is a Kerker type mixing with AMIX =  0.4000 and BMIX =      1.0000
 Hartree-type preconditioning will be used
 using additional bands           88
 reciprocal scheme for non local part
 use partial core corrections
 calculate Harris-corrections to forces   (improved forces if not selfconsistent)
 use gradient corrections 
 use of overlap-Matrix (Vanderbilt PP)
 Fermi weights with tetrahedron method with Bloechl corrections


--------------------------------------------------------------------------------------------------------


  energy-cutoff  :      520.00
  volume of cell :     1863.68
      direct lattice vectors                 reciprocal lattice vectors
     0.000000000 10.307367086 -0.372855731     0.000000000  0.096453423 -0.015606996
    16.788494411  0.000000000  0.000000000     0.059564603  0.000000000  0.000000000
     0.000000000 -1.732519801-10.707215182     0.000000000 -0.003358783 -0.092851486

  length of vectors
    10.314108670 16.788494411 10.846477853     0.097707938  0.059564603  0.092912216



 k-points in units of 2pi/SCALE and weight: pymatgen with grid density = 595 / numbe
   0.00000000  0.00000000 -0.00000000       0.125
   0.00000000  0.04822671 -0.00780350       0.125
   0.02978230  0.00000000 -0.00000000       0.125
   0.02978230  0.04822671 -0.00780350       0.125
   0.00000000 -0.00167939 -0.04642574       0.125
   0.00000000  0.04654732 -0.05422924       0.125
   0.02978230 -0.00167939 -0.04642574       0.125
   0.02978230  0.04654732 -0.05422924       0.125

 k-points in reciprocal lattice and weights: pymatgen with grid density = 595 / numbe
   0.00000000  0.00000000  0.00000000       0.125
   0.50000000  0.00000000  0.00000000       0.125
   0.00000000  0.50000000  0.00000000       0.125
   0.50000000  0.50000000  0.00000000       0.125
   0.00000000  0.00000000  0.50000000       0.125
   0.50000000  0.00000000  0.50000000       0.125
   0.00000000  0.50000000  0.50000000       0.125
   0.50000000  0.50000000  0.50000000       0.125

 position of ions in fractional coordinates (direct lattice) 
   0.88642314  0.46700475  0.67812639
   0.88642314  0.96700475  0.67812639
   0.32956326  0.18874382  0.55070772
   0.32956326  0.68874382  0.55070772
   0.91267129  0.10464624  0.91196047
   0.91267129  0.60524188  0.91196047
   0.23973640  0.30083105  0.77657419
   0.23973640  0.80083105  0.77657419
   0.14441752  0.30568876  0.22439668
   0.14441752  0.80568876  0.22439668
   0.85558248  0.19431124  0.77560332
   0.85558248  0.69431124  0.77560332
   0.76026360  0.19916895  0.22342581
   0.76026360  0.69916895  0.22342581
   0.17043674  0.43874382  0.44929228
   0.17043674  0.93874382  0.44929228
   0.41267129  0.14475812  0.91196047
   0.41267129  0.64475812  0.91196047
   0.38642314  0.28299525  0.67812639
   0.38642314  0.78299525  0.67812639
   0.64441752  0.44431124  0.22439668
   0.64441752  0.94431124  0.22439668
   0.82956326  0.06125618  0.55070772
   0.82956326  0.56125618  0.55070772
   0.26026360  0.05083105  0.22342581
   0.26026360  0.55083105  0.22342581
   0.61357686  0.21700475  0.32187361
   0.61357686  0.71700475  0.32187361
   0.11357686  0.03299525  0.32187361
   0.11357686  0.53299525  0.32187361
   0.05989570  0.34508773  0.37448437
   0.05989570  0.84508773  0.37448437
   0.74342521  0.28934434  0.07116523
   0.74342521  0.78934434  0.07116523
   0.58732871  0.35524188  0.08803953
   0.58732871  0.85524188  0.08803953
   0.25657479  0.21065566  0.92883477
   0.25657479  0.71065566  0.92883477
   0.08732871  0.39475812  0.08803953
   0.08732871  0.89475812  0.08803953
   0.44010430  0.09508773  0.62551563
   0.44010430  0.59508773  0.62551563
   0.35558248  0.05568876  0.77560332
   0.35558248  0.55568876  0.77560332
   0.73973640  0.44916895  0.77657419
   0.73973640  0.94916895  0.77657419
   0.94010430  0.15491227  0.62551563
   0.94010430  0.65491227  0.62551563
   0.24342521  0.46065566  0.07116523
   0.24342521  0.96065566  0.07116523
   0.75657479  0.03934434  0.92883477
   0.75657479  0.53934434  0.92883477
   0.55989570  0.40491227  0.37448437
   0.55989570  0.90491227  0.37448437
   0.67043674  0.31125618  0.44929228
   0.67043674  0.81125618  0.44929228

 position of ions in cartesian coordinates  (Angst):
   7.84030666  7.96182132 -7.59135308
  16.23455387  7.96182132 -7.59135308
   3.16872461  2.44281751 -6.01942562
  11.56297182  2.44281751 -6.01942562
   1.75685280  7.82724839-10.10485172
  10.16110000  7.82724839-10.10485172
   5.05050035  1.12562097 -8.40433404
  13.44474755  1.12562097 -8.40433404
   5.13205407  1.09979266 -2.45651044
  13.52630128  1.09979266 -2.45651044
   3.26219313  7.47505463 -8.62356047
  11.65644034  7.47505463 -8.62356047
   3.34374686  7.44922632 -2.67573688
  11.73799406  7.44922632 -2.67573688
   7.36584822  0.97834624 -4.87421742
  15.76009542  0.97834624 -4.87421742
   2.43027081  2.67356485 -9.91842386
  10.82451801  2.67356485 -9.91842386
   4.75106415  2.80813777 -7.40492521
  13.14531135  2.80813777 -7.40492521
   7.45931673  6.25347620 -2.64293831
  15.85356394  6.25347620 -2.64293831
   1.02839899  7.59650105 -6.20585349
   9.42264619  7.59650105 -6.20585349
   0.85337674  2.29554277 -2.48930901
   9.24762395  2.29554277 -2.48930901
   3.64318306  5.76670951 -3.67514570
  12.03743026  5.76670951 -3.67514570
   0.55394055  0.61302597 -3.48871783
   8.94818775  0.61302597 -3.48871783
   5.79350349 -0.03143461 -4.03201715
  14.18775070 -0.03143461 -4.03201715
   4.85765589  7.53946136 -1.03917182
  13.25190310  7.53946136 -1.03917182
   5.96397640  5.90128244 -1.16164705
  14.35822361  5.90128244 -1.16164705
   3.53659131  1.03538593-10.04089909
  11.93083852  1.03538593-10.04089909
   6.62739441  0.74759889 -0.97521919
  15.02164161  0.74759889 -0.97521919
   1.59637989  3.45259836 -6.86162589
   9.99062710  3.45259836 -6.86162589
   0.93493047  2.32137108 -8.43713261
   9.32917768  2.32137108 -8.43713261
   7.54087046  6.27930451 -8.59076190
  15.93511767  6.27930451 -8.59076190
   2.60074371  8.60628190 -7.04805376
  10.99499092  8.60628190 -7.04805376
   7.73371492  2.38577782 -0.85274396
  16.12796212  2.38577782 -0.85274396
   0.66053229  6.18906947-10.22732695
   9.05477950  6.18906947-10.22732695
   6.79786731  5.12224893 -4.21844502
  15.19211452  5.12224893 -4.21844502
   5.22552259  6.13202978 -5.06064529
  13.61976980  6.13202978 -5.06064529



--------------------------------------------------------------------------------------------------------


 k-point   1 :   0.0000 0.0000 0.0000  plane waves:   50179
 k-point   2 :   0.5000 0.0000 0.0000  plane waves:   50160
 k-point   3 :   0.0000 0.5000 0.0000  plane waves:   50162
 k-point   4 :   0.5000 0.5000 0.0000  plane waves:   50192
 k-point   5 :   0.0000 0.0000 0.5000  plane waves:   50190
 k-point   6 :   0.5000 0.0000 0.5000  plane waves:   50190
 k-point   7 :   0.0000 0.5000 0.5000  plane waves:   50172
 k-point   8 :   0.5000 0.5000 0.5000  plane waves:   50200

 maximum and minimum number of plane-waves per node :     50200    50160

 maximum number of plane-waves:     50200
 maximum index in each direction: 
   IXMAX=   19   IYMAX=   31   IZMAX=   20
   IXMIN=  -19   IYMIN=  -31   IZMIN=  -20


 serial   3D FFT for wavefunctions
 parallel 3D FFT for charge:
    minimum data exchange during FFTs selected (reduces bandwidth)


 total amount of memory used by VASP MPI-rank0   322725. kBytes
=======================================================================

   base      :      30000. kBytes
   nonl-proj :      70692. kBytes
   fftplans  :      34504. kBytes
   grid      :      83442. kBytes
   one-center:        344. kBytes
   wavefun   :     103743. kBytes

     INWAV:  cpu time      0.0000: real time      0.0002
 Broyden mixing: mesh for mixing (old mesh)
   NGX = 39   NGY = 63   NGZ = 41
  (NGX  =160   NGY  =252   NGZ  =168)
  gives a total of 100737 points

 initial charge density was supplied:
 charge density of overlapping atoms calculated
 number of electron     336.0000000 magnetization      56.0000000
 keeping initial charge density in first step


--------------------------------------------------------------------------------------------------------


 Maximum index for augmentation-charges         3947 (set IRDMAX)


--------------------------------------------------------------------------------------------------------


 First call to EWALD:  gamma=   0.144
 Maximum number of real-space cells 3x 2x 3
 Maximum number of reciprocal cells 2x 4x 2

    FEWALD:  cpu time      0.0020: real time      0.0020


--------------------------------------- Iteration      1(   1)  ---------------------------------------


    POTLOK:  cpu time      0.4792: real time      0.4881
    SETDIJ:  cpu time     20.9223: real time     20.9246
     EDDAV:  cpu time     48.0869: real time     48.0950
 BZINTS: Fermi energy:   10.166141;  336.000000 electrons
         Band energy: 0.225103E+03;  BLOECHL correction:   -0.008874
       DOS:  cpu time      0.0493: real time      0.0493
    --------------------------------------------
      LOOP:  cpu time     69.5377: real time     69.5571

 eigenvalue-minimisations  :  8192
 total energy-change (2. order) : 0.2106175E+04  (-0.1333796E+05)
 number of electron     336.0000000 magnetization      56.0000000
 augmentation part      336.0000000 magnetization      56.0000000

 Free energy of the ion-electron system (eV)
  ---------------------------------------------------
  alpha Z        PSCENC =       253.99581917
  Ewald energy   TEWEN  =     -9970.73422250
  -Hartree energ DENC   =     -4765.94946284
  -exchange      EXHF   =         0.00000000
  -V(xc)+E(xc)   XCENC  =       682.51300925
  PAW double counting   =     12174.71095765   -11995.46358648
  entropy T*S    EENTRO =         0.00000000
  eigenvalues    EBANDS =       225.10347047
  atomic energy  EATOM  =     15501.99929693
  Solvation  Ediel_sol  =         0.00000000
  ---------------------------------------------------
  free energy    TOTEN  =      2106.17528166 eV

  energy without entropy =     2106.17528166  energy(sigma->0) =     2106.17528166


--------------------------------------------------------------------------------------------------------




--------------------------------------- Iteration      1(   2)  ---------------------------------------


     EDDAV:  cpu time     56.8106: real time     56.8207
 BZINTS: Fermi energy:    1.451387;  336.000000 electrons
         Band energy:-0.187481E+04;  BLOECHL correction:   -0.000000
       DOS:  cpu time      0.0301: real time      0.0301
    --------------------------------------------
      LOOP:  cpu time     56.8407: real time     56.8509

 eigenvalue-minimisations  : 10272
 total energy-change (2. order) :-0.2099909E+04  (-0.2021724E+04)
 number of electron     336.0000000 magnetization      56.0000000
 augmentation part      336.0000000 magnetization      56.0000000

 Free energy of the ion-electron system (eV)
  ---------------------------------------------------
  alpha Z        PSCENC =       253.99581917
  Ewald energy   TEWEN  =     -9970.73422250
  -Hartree energ DENC   =     -4765.94946284
  -exchange      EXHF   =         0.00000000
  -V(xc)+E(xc)   XCENC  =       682.51300925
  PAW double counting   =     12174.71095765   -11995.46358648
  entropy T*S    EENTRO =         0.00000000
  eigenvalues    EBANDS =     -1874.80563375
  atomic energy  EATOM  =     15501.99929693
  Solvation  Ediel_sol  =         0.00000000
  ---------------------------------------------------
  free energy    TOTEN  =         6.26617744 eV

  energy without entropy =        6.26617744  energy(sigma->0) =        6.26617744


--------------------------------------------------------------------------------------------------------




--------------------------------------- Iteration      1(   3)  ---------------------------------------


     EDDAV:  cpu time     57.1568: real time     57.1687
 BZINTS: Fermi energy:    0.219328;  336.000000 electrons
         Band energy:-0.209465E+04;  BLOECHL correction:    0.000000
       DOS:  cpu time      0.0281: real time      0.0281
    --------------------------------------------
      LOOP:  cpu time     57.1849: real time     57.1968

 eigenvalue-minimisations  : 10240
 total energy-change (2. order) :-0.2198459E+03  (-0.2171599E+03)
 number of electron     336.0000000 magnetization      56.0000000
 augmentation part      336.0000000 magnetization      56.0000000

 Free energy of the ion-electron system (eV)
  ---------------------------------------------------
  alpha Z        PSCENC =       253.99581917
  Ewald energy   TEWEN  =     -9970.73422250
  -Hartree energ DENC   =     -4765.94946284
  -exchange      EXHF   =         0.00000000
  -V(xc)+E(xc)   XCENC  =       682.51300925
  PAW double counting   =     12174.71095765   -11995.46358648
  entropy T*S    EENTRO =         0.00000000
  eigenvalues    EBANDS =     -2094.65148394
  atomic energy  EATOM  =     15501.99929693
  Solvation  Ediel_sol  =         0.00000000
  ---------------------------------------------------
  free energy    TOTEN  =      -213.57967275 eV

  energy without entropy =     -213.57967275  energy(sigma->0) =     -213.57967275


--------------------------------------------------------------------------------------------------------




--------------------------------------- Iteration      1(   4)  ---------------------------------------


     EDDAV:  cpu time     64.1635: real time     64.1824
 BZINTS: Fermi energy:    0.191634;  336.000000 electrons
         Band energy:-0.209955E+04;  BLOECHL correction:    0.000000
       DOS:  cpu time      0.0283: real time      0.0284
    --------------------------------------------
      LOOP:  cpu time     64.1919: real time     64.2108

 eigenvalue-minimisations  : 10336
 total energy-change (2. order) :-0.4896029E+01  (-0.4877667E+01)
 number of electron     336.0000000 magnetization      56.0000000
 augmentation part      336.0000000 magnetization      56.0000000

 Free energy of the ion-electron system (eV)
  ---------------------------------------------------
  alpha Z        PSCENC =       253.99581917
  Ewald energy   TEWEN  =     -9970.73422250
  -Hartree energ DENC   =     -4765.94946284
  -exchange      EXHF   =         0.00000000
  -V(xc)+E(xc)   XCENC  =       682.51300925
  PAW double counting   =     12174.71095765   -11995.46358648
  entropy T*S    EENTRO =         0.00000000
  eigenvalues    EBANDS =     -2099.54751311
  atomic energy  EATOM  =     15501.99929693
  Solvation  Ediel_sol  =         0.00000000
  ---------------------------------------------------
  free energy    TOTEN  =      -218.47570191 eV

  energy without entropy =     -218.47570191  energy(sigma->0) =     -218.47570191


--------------------------------------------------------------------------------------------------------




--------------------------------------- Iteration      1(   5)  ---------------------------------------


     EDDAV:  cpu time     56.6084: real time     56.6199
 BZINTS: Fermi energy:    0.191572;  336.000000 electrons
         Band energy:-0.209968E+04;  BLOECHL correction:    0.000000
       DOS:  cpu time      0.0276: real time      0.0276
    CHARGE:  cpu time     17.3124: real time     17.3152
    MIXING:  cpu time      0.0158: real time      0.0158
    --------------------------------------------
      LOOP:  cpu time     73.9643: real time     73.9786

 eigenvalue-minimisations  : 10144
 total energy-change (2. order) :-0.1371577E+00  (-0.1370917E+00)
 number of electron     335.9999997 magnetization      44.9918631
 augmentation part      -47.3223814 magnetization      44.8836853

 Broyden mixing:
  rms(total) = 0.82944E+01    rms(broyden)= 0.82944E+01
  rms(prec ) = 0.83143E+01
  weight for this iteration     100.00

 Free energy of the ion-electron system (eV)
  ---------------------------------------------------
  alpha Z        PSCENC =       253.99581917
  Ewald energy   TEWEN  =     -9970.73422250
  -Hartree energ DENC   =     -4765.94946284
  -exchange      EXHF   =         0.00000000
  -V(xc)+E(xc)   XCENC  =       682.51300925
  PAW double counting   =     12174.71095765   -11995.46358648
  entropy T*S    EENTRO =         0.00000000
  eigenvalues    EBANDS =     -2099.68467077
  atomic energy  EATOM  =     15501.99929693
  Solvation  Ediel_sol  =         0.00000000
  ---------------------------------------------------
  free energy    TOTEN  =      -218.61285958 eV

  energy without entropy =     -218.61285958  energy(sigma->0) =     -218.61285958


--------------------------------------------------------------------------------------------------------




--------------------------------------- Iteration      1(   6)  ---------------------------------------


    POTLOK:  cpu time      0.4630: real time      0.4664
    SETDIJ:  cpu time     21.6843: real time     21.6870
     EDDAV:  cpu time     56.0706: real time     56.0811
 BZINTS: Fermi energy:    0.408855;  336.000000 electrons
         Band energy:-0.201416E+04;  BLOECHL correction:    0.000000
       DOS:  cpu time      0.0274: real time      0.0274
    CHARGE:  cpu time     23.7247: real time     23.7273
    MIXING:  cpu time      0.0230: real time      0.0230
    --------------------------------------------
      LOOP:  cpu time    101.9930: real time    102.0122

 eigenvalue-minimisations  :  9632
 total energy-change (2. order) : 0.1022857E+03  (-0.2667900E+02)
 number of electron     335.9999997 magnetization      26.4980653
 augmentation part      -47.6485524 magnetization      27.5565977

 Broyden mixing:
  rms(total) = 0.49368E+01    rms(broyden)= 0.49368E+01
  rms(prec ) = 0.49591E+01
  weight for this iteration     100.00

 eigenvalues of (default mixing * dielectric matrix)
  average eigenvalue GAMMA=   1.6662
  1.6662

 Free energy of the ion-electron system (eV)
  ---------------------------------------------------
  alpha Z        PSCENC =       253.99581917
  Ewald energy   TEWEN  =     -9970.73422250
  -Hartree energ DENC   =     -4810.30394832
  -exchange      EXHF   =         0.00000000
  -V(xc)+E(xc)   XCENC  =       746.09919842
  PAW double counting   =     20736.32277771   -20559.54483614
  entropy T*S    EENTRO =         0.00000000
  eigenvalues    EBANDS =     -2014.16125557
  atomic energy  EATOM  =     15501.99929693
  Solvation  Ediel_sol  =         0.00000000
  ---------------------------------------------------
  free energy    TOTEN  =      -116.32717029 eV

  energy without entropy =     -116.32717029  energy(sigma->0) =     -116.32717029


--------------------------------------------------------------------------------------------------------




--------------------------------------- Iteration      1(   7)  ---------------------------------------


    POTLOK:  cpu time      0.4472: real time      0.4502
    SETDIJ:  cpu time     25.6642: real time     25.6674
     EDDAV:  cpu time     56.7627: real time     56.7742
 BZINTS: Fermi energy:    0.737666;  336.000000 electrons
         Band energy:-0.186781E+04;  BLOECHL correction:    0.000000
       DOS:  cpu time      0.0273: real time      0.0273
    CHARGE:  cpu time     24.1770: real time     24.1795
    MIXING:  cpu time      0.0165: real time      0.0165
    --------------------------------------------
      LOOP:  cpu time    107.0949: real time    107.1151

 eigenvalue-minimisations  : 10112
 total energy-change (2. order) :-0.1113974E+02  (-0.2695413E+01)
 number of electron     335.9999997 magnetization      19.7231852
 augmentation part      -47.3165691 magnetization      20.9288657

 Broyden mixing:
  rms(total) = 0.13989E+01    rms(broyden)= 0.13989E+01
  rms(prec ) = 0.14025E+01
  weight for this iteration     100.00

 eigenvalues of (default mixing * dielectric matrix)
  average eigenvalue GAMMA=   1.4854
  0.7902  2.1806

 Free energy of the ion-electron system (eV)
  ---------------------------------------------------
  alpha Z        PSCENC =       253.99581917
  Ewald energy   TEWEN  =     -9970.73422250
  -Hartree energ DENC   =     -4969.71762407
  -exchange      EXHF   =         0.00000000
  -V(xc)+E(xc)   XCENC  =       751.43278208
  PAW double counting   =     37035.30175999   -36861.93582703
  entropy T*S    EENTRO =         0.00000000
  eigenvalues    EBANDS =     -1867.80889984
  atomic energy  EATOM  =     15501.99929693
  Solvation  Ediel_sol  =         0.00000000
  ---------------------------------------------------
  free energy    TOTEN  =      -127.46691526 eV

  energy without entropy =     -127.46691526  energy(sigma->0) =     -127.46691526


--------------------------------------------------------------------------------------------------------




--------------------------------------- Iteration      1(   8)  ---------------------------------------


    POTLOK:  cpu time      0.4441: real time      0.4451
    SETDIJ:  cpu time     27.4227: real time     27.4269
     EDDAV:  cpu time     57.3469: real time     57.3575
 BZINTS: Fermi energy:    0.705499;  336.000000 electrons
         Band energy:-0.185526E+04;  BLOECHL correction:    0.000000
       DOS:  cpu time      0.0273: real time      0.0273
    CHARGE:  cpu time     20.6712: real time     20.6736
    MIXING:  cpu time      0.0143: real time      0.0143
    --------------------------------------------
      LOOP:  cpu time    105.9266: real time    105.9448

 eigenvalue-minimisations  :  9344
 total energy-change (2. order) :-0.4273802E+02  (-0.1977506E+01)
 number of electron     335.9999997 magnetization      16.0635084
 augmentation part      -47.0119558 magnetization      17.1081418

 Broyden mixing:
  rms(total) = 0.78224E+00    rms(broyden)= 0.78224E+00
  rms(prec ) = 0.78738E+00
  weight for this iteration     100.00

 eigenvalues of (default mixing * dielectric matrix)
  average eigenvalue GAMMA=   1.3384
  2.4898  0.9420  0.5835

 Free energy of the ion-electron system (eV)
  ---------------------------------------------------
  alpha Z        PSCENC =       253.99581917
  Ewald energy   TEWEN  =     -9970.73422250
  -Hartree energ DENC   =     -4999.35185077
  -exchange      EXHF   =         0.00000000
  -V(xc)+E(xc)   XCENC  =       726.54726667
  PAW double counting   =     40184.15675194   -40011.55781961
  entropy T*S    EENTRO =         0.00000000
  eigenvalues    EBANDS =     -1855.26018156
  atomic energy  EATOM  =     15501.99929693
  Solvation  Ediel_sol  =         0.00000000
  ---------------------------------------------------
  free energy    TOTEN  =      -170.20493972 eV

  energy without entropy =     -170.20493972  energy(sigma->0) =     -170.20493972


--------------------------------------------------------------------------------------------------------




--------------------------------------- Iteration      1(   9)  ---------------------------------------


    POTLOK:  cpu time      0.4357: real time      0.4366
    SETDIJ:  cpu time     18.3364: real time     18.3385
     EDDAV:  cpu time     57.2085: real time     57.2203
 BZINTS: Fermi energy:    0.628030;  336.000000 electrons
         Band energy:-0.186650E+04;  BLOECHL correction:    0.000000
       DOS:  cpu time      0.0257: real time      0.0257
    CHARGE:  cpu time     23.3586: real time     23.3614
    MIXING:  cpu time      0.0136: real time      0.0136
    --------------------------------------------
      LOOP:  cpu time     99.3784: real time     99.3962

 eigenvalue-minimisations  : 10240
 total energy-change (2. order) :-0.1674369E+02  (-0.6409418E+00)
 number of electron     335.9999997 magnetization      11.5343066
 augmentation part      -46.9156196 magnetization      12.3721215

 Broyden mixing:
  rms(total) = 0.43632E+00    rms(broyden)= 0.43632E+00
  rms(prec ) = 0.44837E+00
  weight for this iteration     100.00

 eigenvalues of (default mixing * dielectric matrix)
  average eigenvalue GAMMA=   1.3244
  2.5743  1.3009  0.7113  0.7113

 Free energy of the ion-electron system (eV)
  ---------------------------------------------------
  alpha Z        PSCENC =       253.99581917
  Ewald energy   TEWEN  =     -9970.73422250
  -Hartree energ DENC   =     -4995.55160105
  -exchange      EXHF   =         0.00000000
  -V(xc)+E(xc)   XCENC  =       717.22958232
  PAW double counting   =     40963.66679738   -40791.04950280
  entropy T*S    EENTRO =         0.00000000
  eigenvalues    EBANDS =     -1866.50479952
  atomic energy  EATOM  =     15501.99929693
  Solvation  Ediel_sol  =         0.00000000
  ---------------------------------------------------
  free energy    TOTEN  =      -186.94863006 eV

  energy without entropy =     -186.94863006  energy(sigma->0) =     -186.94863006


--------------------------------------------------------------------------------------------------------




--------------------------------------- Iteration      1(  10)  ---------------------------------------


    POTLOK:  cpu time      0.4648: real time      0.4655
    SETDIJ:  cpu time     20.0755: real time     20.0779
     EDDAV:  cpu time     56.5939: real time     56.6103
 BZINTS: Fermi energy:    0.474999;  336.000000 electrons
         Band energy:-0.190100E+04;  BLOECHL correction:    0.000000
       DOS:  cpu time      0.0266: real time      0.0267
    CHARGE:  cpu time     20.5124: real time     20.5146
    MIXING:  cpu time      1.7996: real time      1.7997
    --------------------------------------------
      LOOP:  cpu time     99.4728: real time     99.4946

 eigenvalue-minimisations  :  9984
 total energy-change (2. order) :-0.2007020E+02  (-0.1302920E+01)
 number of electron     335.9999997 magnetization       5.3087278
 augmentation part      -46.8736581 magnetization       5.8434888

 Broyden mixing:
  rms(total) = 0.32433E+00    rms(broyden)= 0.32433E+00
  rms(prec ) = 0.33729E+00
  weight for this iteration     100.00

 eigenvalues of (default mixing * dielectric matrix)
  average eigenvalue GAMMA=   1.4490
  2.4865  2.4865  0.9417  0.7283  0.6021

 Free energy of the ion-electron system (eV)
  ---------------------------------------------------
  alpha Z        PSCENC =       253.99581917
  Ewald energy   TEWEN  =     -9970.73422250
  -Hartree energ DENC   =     -4970.20540969
  -exchange      EXHF   =         0.00000000
  -V(xc)+E(xc)   XCENC  =       705.65035672
  PAW double counting   =     40973.71675812   -40800.44532828
  entropy T*S    EENTRO =         0.00000000
  eigenvalues    EBANDS =     -1900.99609679
  atomic energy  EATOM  =     15501.99929693
  Solvation  Ediel_sol  =         0.00000000
  ---------------------------------------------------
  free energy    TOTEN  =      -207.01882631 eV

  energy without entropy =     -207.01882631  energy(sigma->0) =     -207.01882631


--------------------------------------------------------------------------------------------------------




--------------------------------------- Iteration      1(  11)  ---------------------------------------


    POTLOK:  cpu time      0.4235: real time      0.4244
    SETDIJ:  cpu time     20.5917: real time     20.5944
     EDDAV:  cpu time     57.0660: real time     57.0777
 BZINTS: Fermi energy:    0.257114;  336.000000 electrons
         Band energy:-0.195838E+04;  BLOECHL correction:    0.000000
       DOS:  cpu time      0.0263: real time      0.0263
    CHARGE:  cpu time     19.6804: real time     19.6823
    MIXING:  cpu time      1.6122: real time      1.6124
    --------------------------------------------
      LOOP:  cpu time     99.4001: real time     99.4176

 eigenvalue-minimisations  :  9952
 total energy-change (2. order) :-0.1785260E+02  (-0.2165217E+01)
 number of electron     335.9999997 magnetization       3.5776065
 augmentation part      -46.9053535 magnetization       3.7609621

 Broyden mixing:
  rms(total) = 0.18667E+00    rms(broyden)= 0.18667E+00
  rms(prec ) = 0.20036E+00
  weight for this iteration     100.00

 eigenvalues of (default mixing * dielectric matrix)
  average eigenvalue GAMMA=   1.4663
  2.7962  2.7962  1.0268  0.8893  0.6991  0.5899

 Free energy of the ion-electron system (eV)
  ---------------------------------------------------
  alpha Z        PSCENC =       253.99581917
  Ewald energy   TEWEN  =     -9970.73422250
  -Hartree energ DENC   =     -4920.61870660
  -exchange      EXHF   =         0.00000000
  -V(xc)+E(xc)   XCENC  =       694.53759576
  PAW double counting   =     40400.91499762   -40226.58378116
  entropy T*S    EENTRO =         0.00000000
  eigenvalues    EBANDS =     -1958.38242379
  atomic energy  EATOM  =     15501.99929693
  Solvation  Ediel_sol  =         0.00000000
  ---------------------------------------------------
  free energy    TOTEN  =      -224.87142455 eV

  energy without entropy =     -224.87142455  energy(sigma->0) =     -224.87142455


--------------------------------------------------------------------------------------------------------




--------------------------------------- Iteration      1(  12)  ---------------------------------------


    POTLOK:  cpu time      0.4685: real time      0.4694
    SETDIJ:  cpu time     18.9222: real time     18.9245
     EDDAV:  cpu time     57.2851: real time     57.2985
 BZINTS: Fermi energy:    0.183826;  336.000000 electrons
         Band energy:-0.197899E+04;  BLOECHL correction:    0.000000
       DOS:  cpu time      0.0257: real time      0.0258
    CHARGE:  cpu time     20.3488: real time     20.3512
    MIXING:  cpu time      0.0115: real time      0.0115
    --------------------------------------------
      LOOP:  cpu time     97.0618: real time     97.0808

 eigenvalue-minimisations  : 10048
 total energy-change (2. order) :-0.3387050E+01  (-0.3875337E+00)
 number of electron     335.9999997 magnetization       2.3934458
 augmentation part      -46.9152808 magnetization       2.4767366

 Broyden mixing:
  rms(total) = 0.15988E+00    rms(broyden)= 0.15988E+00
  rms(prec ) = 0.17242E+00
  weight for this iteration     100.00

 eigenvalues of (default mixing * dielectric matrix)
  average eigenvalue GAMMA=   1.4913
  3.1001  3.1001  1.0547  1.0547  0.7809  0.7809  0.5678

 Free energy of the ion-electron system (eV)
  ---------------------------------------------------
  alpha Z        PSCENC =       253.99581917
  Ewald energy   TEWEN  =     -9970.73422250
  -Hartree energ DENC   =     -4901.18157369
  -exchange      EXHF   =         0.00000000
  -V(xc)+E(xc)   XCENC  =       692.08728755
  PAW double counting   =     39969.66855231   -39795.10126662
  entropy T*S    EENTRO =         0.00000000
  eigenvalues    EBANDS =     -1978.99236767
  atomic energy  EATOM  =     15501.99929693
  Solvation  Ediel_sol  =         0.00000000
  ---------------------------------------------------
  free energy    TOTEN  =      -228.25847452 eV

  energy without entropy =     -228.25847452  energy(sigma->0) =     -228.25847452


--------------------------------------------------------------------------------------------------------




--------------------------------------- Iteration      1(  13)  ---------------------------------------


    POTLOK:  cpu time      0.4768: real time      0.4778
    SETDIJ:  cpu time     25.5086: real time     25.5116
     EDDAV:  cpu time     53.8373: real time     53.8478
 BZINTS: Fermi energy:    0.115664;  336.000000 electrons
         Band energy:-0.200147E+04;  BLOECHL correction:    0.000000
       DOS:  cpu time      0.0290: real time      0.0291
    CHARGE:  cpu time     27.5114: real time     27.5143
    MIXING:  cpu time      0.0164: real time      0.0164
    --------------------------------------------
      LOOP:  cpu time    107.3794: real time    107.3969

 eigenvalue-minimisations  :  9568
 total energy-change (2. order) :-0.1056141E+01  (-0.1340305E+00)
 number of electron     335.9999997 magnetization       0.8904536
 augmentation part      -46.9736386 magnetization       0.9164870

 Broyden mixing:
  rms(total) = 0.93146E-01    rms(broyden)= 0.93146E-01
  rms(prec ) = 0.99966E-01
  weight for this iteration     100.00

 eigenvalues of (default mixing * dielectric matrix)
  average eigenvalue GAMMA=   1.5510
  3.3214  3.3214  1.5823  1.2851  0.9268  0.6995  0.6995  0.5721

 Free energy of the ion-electron system (eV)
  ---------------------------------------------------
  alpha Z        PSCENC =       253.99581917
  Ewald energy   TEWEN  =     -9970.73422250
  -Hartree energ DENC   =     -4878.01160901
  -exchange      EXHF   =         0.00000000
  -V(xc)+E(xc)   XCENC  =       690.10107122
  PAW double counting   =     39148.54570758   -38973.73814512
  entropy T*S    EENTRO =         0.00000000
  eigenvalues    EBANDS =     -2001.47253392
  atomic energy  EATOM  =     15501.99929693
  Solvation  Ediel_sol  =         0.00000000
  ---------------------------------------------------
  free energy    TOTEN  =      -229.31461564 eV

  energy without entropy =     -229.31461564  energy(sigma->0) =     -229.31461564


--------------------------------------------------------------------------------------------------------




--------------------------------------- Iteration      1(  14)  ---------------------------------------


    POTLOK:  cpu time      0.4520: real time      0.4530
    SETDIJ:  cpu time     19.2593: real time     19.2620
     EDDAV:  cpu time     52.0894: real time     52.1016
 BZINTS: Fermi energy:    0.080339;  336.000000 electrons
         Band energy:-0.201195E+04;  BLOECHL correction:    0.000000
       DOS:  cpu time      0.0257: real time      0.0258
    CHARGE:  cpu time     24.0417: real time     24.0443
    MIXING:  cpu time      0.0157: real time      0.0157
    --------------------------------------------
      LOOP:  cpu time     95.8838: real time     95.9023

 eigenvalue-minimisations  :  9056
 total energy-change (2. order) :-0.6532205E-01  (-0.1629603E-01)
 number of electron     335.9999997 magnetization       0.4183364
 augmentation part      -47.0007583 magnetization       0.4253549

 Broyden mixing:
  rms(total) = 0.43819E-01    rms(broyden)= 0.43819E-01
  rms(prec ) = 0.46525E-01
  weight for this iteration     100.00

 eigenvalues of (default mixing * dielectric matrix)
  average eigenvalue GAMMA=   1.5781
  4.1287  2.5565  2.5565  1.0965  1.0965  0.7711  0.7711  0.5746  0.6518

 Free energy of the ion-electron system (eV)
  ---------------------------------------------------
  alpha Z        PSCENC =       253.99581917
  Ewald energy   TEWEN  =     -9970.73422250
  -Hartree energ DENC   =     -4866.63707434
  -exchange      EXHF   =         0.00000000
  -V(xc)+E(xc)   XCENC  =       689.18743945
  PAW double counting   =     39086.78375815   -38912.02120175
  entropy T*S    EENTRO =         0.00000000
  eigenvalues    EBANDS =     -2011.95375281
  atomic energy  EATOM  =     15501.99929693
  Solvation  Ediel_sol  =         0.00000000
  ---------------------------------------------------
  free energy    TOTEN  =      -229.37993769 eV

  energy without entropy =     -229.37993769  energy(sigma->0) =     -229.37993769


--------------------------------------------------------------------------------------------------------




--------------------------------------- Iteration      1(  15)  ---------------------------------------


    POTLOK:  cpu time      0.4475: real time      0.4483
    SETDIJ:  cpu time     22.2164: real time     22.2188
     EDDAV:  cpu time     57.2647: real time     57.2756
 BZINTS: Fermi energy:    0.078454;  336.000000 electrons
         Band energy:-0.201166E+04;  BLOECHL correction:    0.000000
       DOS:  cpu time      0.0257: real time      0.0257
    CHARGE:  cpu time     13.8989: real time     13.9008
    MIXING:  cpu time      0.0161: real time      0.0161
    --------------------------------------------
      LOOP:  cpu time     93.8692: real time     93.8854

 eigenvalue-minimisations  :  9600
 total energy-change (2. order) : 0.1245924E-02  (-0.2078821E-02)
 number of electron     335.9999997 magnetization       0.1722886
 augmentation part      -46.9946373 magnetization       0.1765767

 Broyden mixing:
  rms(total) = 0.20238E-01    rms(broyden)= 0.20238E-01
  rms(prec ) = 0.21818E-01
  weight for this iteration     100.00

 eigenvalues of (default mixing * dielectric matrix)
  average eigenvalue GAMMA=   1.5644
  4.5528  2.5272  2.5272  1.3340  0.9967  0.9967  0.7584  0.7584  0.6240  0.5690

 Free energy of the ion-electron system (eV)
  ---------------------------------------------------
  alpha Z        PSCENC =       253.99581917
  Ewald energy   TEWEN  =     -9970.73422250
  -Hartree energ DENC   =     -4866.80582332
  -exchange      EXHF   =         0.00000000
  -V(xc)+E(xc)   XCENC  =       689.14897054
  PAW double counting   =     39172.45910067   -38997.78374782
  entropy T*S    EENTRO =         0.00000000
  eigenvalues    EBANDS =     -2011.65808545
  atomic energy  EATOM  =     15501.99929693
  Solvation  Ediel_sol  =         0.00000000
  ---------------------------------------------------
  free energy    TOTEN  =      -229.37869176 eV

  energy without entropy =     -229.37869176  energy(sigma->0) =     -229.37869176


--------------------------------------------------------------------------------------------------------




--------------------------------------- Iteration      1(  16)  ---------------------------------------


    POTLOK:  cpu time      0.4588: real time      0.4596
    SETDIJ:  cpu time     28.9336: real time     28.9384
     EDDAV:  cpu time     57.8004: real time     57.8339
 BZINTS: Fermi energy:    0.076422;  336.000000 electrons
         Band energy:-0.201212E+04;  BLOECHL correction:    0.000000
       DOS:  cpu time      0.0257: real time      0.0258
    CHARGE:  cpu time     27.1455: real time     27.1515
    MIXING:  cpu time      0.0083: real time      0.0083
    --------------------------------------------
      LOOP:  cpu time    114.3724: real time    114.4175

 eigenvalue-minimisations  :  9152
 total energy-change (2. order) : 0.3118072E-02  (-0.5522860E-03)
 number of electron     335.9999997 magnetization       0.0697761
 augmentation part      -46.9934875 magnetization       0.0705720

 Broyden mixing:
  rms(total) = 0.12348E-01    rms(broyden)= 0.12348E-01
  rms(prec ) = 0.13362E-01
  weight for this iteration     100.00

 eigenvalues of (default mixing * dielectric matrix)
  average eigenvalue GAMMA=   1.5464
  4.7579  2.4275  2.4275  1.8404  0.9957  0.9957  0.9222  0.7278  0.7278  0.5804
  0.6069

 Free energy of the ion-electron system (eV)
  ---------------------------------------------------
  alpha Z        PSCENC =       253.99581917
  Ewald energy   TEWEN  =     -9970.73422250
  -Hartree energ DENC   =     -4866.24531810
  -exchange      EXHF   =         0.00000000
  -V(xc)+E(xc)   XCENC  =       689.08070473
  PAW double counting   =     39142.61757226   -38967.96615388
  entropy T*S    EENTRO =         0.00000000
  eigenvalues    EBANDS =     -2012.12327230
  atomic energy  EATOM  =     15501.99929693
  Solvation  Ediel_sol  =         0.00000000
  ---------------------------------------------------
  free energy    TOTEN  =      -229.37557369 eV

  energy without entropy =     -229.37557369  energy(sigma->0) =     -229.37557369


--------------------------------------------------------------------------------------------------------




--------------------------------------- Iteration      1(  17)  ---------------------------------------


    POTLOK:  cpu time      0.4184: real time      0.4198
    SETDIJ:  cpu time     30.5528: real time     30.5568
     EDDAV:  cpu time     55.1632: real time     55.1741
 BZINTS: Fermi energy:    0.078259;  336.000000 electrons
         Band energy:-0.201120E+04;  BLOECHL correction:    0.000000
       DOS:  cpu time      0.0273: real time      0.0274
    CHARGE:  cpu time     17.9604: real time     17.9624
    MIXING:  cpu time      0.0166: real time      0.0167
    --------------------------------------------
      LOOP:  cpu time    104.1387: real time    104.1572

 eigenvalue-minimisations  :  9504
 total energy-change (2. order) :-0.5030169E-03  (-0.1192146E-03)
 number of electron     335.9999997 magnetization       0.0178141
 augmentation part      -46.9884217 magnetization       0.0182101

 Broyden mixing:
  rms(total) = 0.49314E-02    rms(broyden)= 0.49314E-02
  rms(prec ) = 0.55342E-02
  weight for this iteration     100.00

 eigenvalues of (default mixing * dielectric matrix)
  average eigenvalue GAMMA=   1.5758
  4.9482  2.6012  2.6012  2.2000  1.1777  0.9961  0.9961  0.7616  0.7616  0.6814
  0.5867  0.5980

 Free energy of the ion-electron system (eV)
  ---------------------------------------------------
  alpha Z        PSCENC =       253.99581917
  Ewald energy   TEWEN  =     -9970.73422250
  -Hartree energ DENC   =     -4867.20625268
  -exchange      EXHF   =         0.00000000
  -V(xc)+E(xc)   XCENC  =       689.14051788
  PAW double counting   =     39183.45273756   -39008.82559571
  entropy T*S    EENTRO =         0.00000000
  eigenvalues    EBANDS =     -2011.19837737
  atomic energy  EATOM  =     15501.99929693
  Solvation  Ediel_sol  =         0.00000000
  ---------------------------------------------------
  free energy    TOTEN  =      -229.37607671 eV

  energy without entropy =     -229.37607671  energy(sigma->0) =     -229.37607671


--------------------------------------------------------------------------------------------------------




--------------------------------------- Iteration      1(  18)  ---------------------------------------


    POTLOK:  cpu time      0.4407: real time      0.4459
    SETDIJ:  cpu time     25.3472: real time     25.3504
     EDDAV:  cpu time     54.9507: real time     54.9614
 BZINTS: Fermi energy:    0.079523;  336.000000 electrons
         Band energy:-0.201067E+04;  BLOECHL correction:    0.000000
       DOS:  cpu time      0.0258: real time      0.0259
    CHARGE:  cpu time     15.5841: real time     15.5862
    MIXING:  cpu time      0.0128: real time      0.0128
    --------------------------------------------
      LOOP:  cpu time     96.3614: real time     96.3825

 eigenvalue-minimisations  :  9504
 total energy-change (2. order) :-0.1158635E-03  (-0.3974496E-04)
 number of electron     335.9999997 magnetization       0.0051281
 augmentation part      -46.9850743 magnetization       0.0056693

 Broyden mixing:
  rms(total) = 0.44592E-02    rms(broyden)= 0.44592E-02
  rms(prec ) = 0.47125E-02
  weight for this iteration     100.00

 eigenvalues of (default mixing * dielectric matrix)
  average eigenvalue GAMMA=   1.5443
  5.0023  2.6446  2.6446  2.2631  1.1303  1.1303  0.9905  0.9905  0.7251  0.7251
  0.5781  0.6446  0.6066

 Free energy of the ion-electron system (eV)
  ---------------------------------------------------
  alpha Z        PSCENC =       253.99581917
  Ewald energy   TEWEN  =     -9970.73422250
  -Hartree energ DENC   =     -4867.75259405
  -exchange      EXHF   =         0.00000000
  -V(xc)+E(xc)   XCENC  =       689.17598654
  PAW double counting   =     39212.33925570   -39037.72700920
  entropy T*S    EENTRO =         0.00000000
  eigenvalues    EBANDS =     -2010.67272517
  atomic energy  EATOM  =     15501.99929693
  Solvation  Ediel_sol  =         0.00000000
  ---------------------------------------------------
  free energy    TOTEN  =      -229.37619257 eV

  energy without entropy =     -229.37619257  energy(sigma->0) =     -229.37619257


--------------------------------------------------------------------------------------------------------




--------------------------------------- Iteration      1(  19)  ---------------------------------------


    POTLOK:  cpu time      0.4195: real time      0.4206
    SETDIJ:  cpu time     14.6940: real time     14.6953
     EDDAV:  cpu time     58.5074: real time     58.5238
 BZINTS: Fermi energy:    0.078628;  336.000000 electrons
         Band energy:-0.201093E+04;  BLOECHL correction:    0.000000
       DOS:  cpu time      0.0283: real time      0.0283
    CHARGE:  cpu time     25.0995: real time     25.1031
    MIXING:  cpu time      0.0160: real time      0.0160
    --------------------------------------------
      LOOP:  cpu time     98.7646: real time     98.7871

 eigenvalue-minimisations  :  9760
 total energy-change (2. order) :-0.6131184E-05  (-0.6244116E-05)
 number of electron     335.9999997 magnetization      -0.0005252
 augmentation part      -46.9859111 magnetization      -0.0002844

 Broyden mixing:
  rms(total) = 0.20206E-02    rms(broyden)= 0.20206E-02
  rms(prec ) = 0.21960E-02
  weight for this iteration     100.00

 eigenvalues of (default mixing * dielectric matrix)
  average eigenvalue GAMMA=   1.5453
  5.0452  2.7066  2.7066  2.1085  1.4080  1.4080  1.0324  1.0324  0.8588  0.7536
  0.7536  0.5795  0.6094  0.6309

 Free energy of the ion-electron system (eV)
  ---------------------------------------------------
  alpha Z        PSCENC =       253.99581917
  Ewald energy   TEWEN  =     -9970.73422250
  -Hartree energ DENC   =     -4867.47732910
  -exchange      EXHF   =         0.00000000
  -V(xc)+E(xc)   XCENC  =       689.15900762
  PAW double counting   =     39210.93792229   -39036.32251956
  entropy T*S    EENTRO =         0.00000000
  eigenvalues    EBANDS =     -2010.93417356
  atomic energy  EATOM  =     15501.99929693
  Solvation  Ediel_sol  =         0.00000000
  ---------------------------------------------------
  free energy    TOTEN  =      -229.37619870 eV

  energy without entropy =     -229.37619870  energy(sigma->0) =     -229.37619870


--------------------------------------------------------------------------------------------------------




--------------------------------------- Iteration      1(  20)  ---------------------------------------


    POTLOK:  cpu time      0.4222: real time      0.4259
    SETDIJ:  cpu time     28.3661: real time     28.3690
     EDDAV:  cpu time     54.1738: real time     54.1844
 BZINTS: Fermi energy:    0.078227;  336.000000 electrons
         Band energy:-0.201107E+04;  BLOECHL correction:   -0.000000
       DOS:  cpu time      0.0273: real time      0.0274
    CHARGE:  cpu time     22.4577: real time     22.4610
    MIXING:  cpu time      0.0119: real time      0.0119
    --------------------------------------------
      LOOP:  cpu time    105.4590: real time    105.4795

 eigenvalue-minimisations  :  9184
 total energy-change (2. order) :-0.1062241E-04  (-0.3467097E-05)
 number of electron     335.9999997 magnetization      -0.0016383
 augmentation part      -46.9864370 magnetization      -0.0015593

 Broyden mixing:
  rms(total) = 0.95467E-03    rms(broyden)= 0.95455E-03
  rms(prec ) = 0.10141E-02
  weight for this iteration     100.00

 eigenvalues of (default mixing * dielectric matrix)
  average eigenvalue GAMMA=   1.5469
  5.0952  2.7075  2.7075  2.0990  2.0990  1.2297  1.2297  0.9905  0.9905  0.7802
  0.7328  0.7328  0.5775  0.6159  0.6159

 Free energy of the ion-electron system (eV)
  ---------------------------------------------------
  alpha Z        PSCENC =       253.99581917
  Ewald energy   TEWEN  =     -9970.73422250
  -Hartree energ DENC   =     -4867.33526902
  -exchange      EXHF   =         0.00000000
  -V(xc)+E(xc)   XCENC  =       689.15204684
  PAW double counting   =     39216.14566303   -39041.52836384
  entropy T*S    EENTRO =         0.00000000
  eigenvalues    EBANDS =     -2011.07117993
  atomic energy  EATOM  =     15501.99929693
  Solvation  Ediel_sol  =         0.00000000
  ---------------------------------------------------
  free energy    TOTEN  =      -229.37620933 eV

  energy without entropy =     -229.37620933  energy(sigma->0) =     -229.37620933


--------------------------------------------------------------------------------------------------------




--------------------------------------- Iteration      1(  21)  ---------------------------------------


    POTLOK:  cpu time      0.4381: real time      0.4390
    SETDIJ:  cpu time     21.3267: real time     21.3290
     EDDAV:  cpu time     56.0865: real time     56.0972
 BZINTS: Fermi energy:    0.078071;  336.000000 electrons
         Band energy:-0.201113E+04;  BLOECHL correction:    0.000000
       DOS:  cpu time      0.0256: real time      0.0257
    CHARGE:  cpu time     24.2778: real time     24.2804
    MIXING:  cpu time      0.0274: real time      0.0274
    --------------------------------------------
      LOOP:  cpu time    102.1822: real time    102.1986

 eigenvalue-minimisations  :  9280
 total energy-change (2. order) : 0.1151984E-05  (-0.8891709E-06)
 number of electron     335.9999997 magnetization      -0.0013465
 augmentation part      -46.9866345 magnetization      -0.0013505

 Broyden mixing:
  rms(total) = 0.42453E-03    rms(broyden)= 0.42426E-03
  rms(prec ) = 0.44670E-03
  weight for this iteration     100.00

 eigenvalues of (default mixing * dielectric matrix)
  average eigenvalue GAMMA=   1.5118
  5.0970  2.6672  2.6672  2.5699  1.6178  1.3983  1.1550  1.1550  0.9275  0.9275
  0.7391  0.7391  0.7251  0.5772  0.6126  0.6126

 Free energy of the ion-electron system (eV)
  ---------------------------------------------------
  alpha Z        PSCENC =       253.99581917
  Ewald energy   TEWEN  =     -9970.73422250
  -Hartree energ DENC   =     -4867.27530377
  -exchange      EXHF   =         0.00000000
  -V(xc)+E(xc)   XCENC  =       689.14836725
  PAW double counting   =     39215.56748467   -39040.94936315
  entropy T*S    EENTRO =         0.00000000
  eigenvalues    EBANDS =     -2011.12828677
  atomic energy  EATOM  =     15501.99929693
  Solvation  Ediel_sol  =         0.00000000
  ---------------------------------------------------
  free energy    TOTEN  =      -229.37620817 eV

  energy without entropy =     -229.37620817  energy(sigma->0) =     -229.37620817


--------------------------------------------------------------------------------------------------------




--------------------------------------- Iteration      1(  22)  ---------------------------------------


    POTLOK:  cpu time      0.4465: real time      0.4515
    SETDIJ:  cpu time     26.0175: real time     26.0316
     EDDAV:  cpu time     55.2774: real time     55.2964
 BZINTS: Fermi energy:    0.078057;  336.000000 electrons
         Band energy:-0.201115E+04;  BLOECHL correction:    0.000000
       DOS:  cpu time      0.0265: real time      0.0266
    CHARGE:  cpu time     29.8321: real time     29.8367
    MIXING:  cpu time      0.0192: real time      0.0192
    --------------------------------------------
      LOOP:  cpu time    111.6193: real time    111.6620

 eigenvalue-minimisations  :  9792
 total energy-change (2. order) : 0.4526846E-06  (-0.1418281E-06)
 number of electron     335.9999997 magnetization      -0.0004749
 augmentation part      -46.9867037 magnetization      -0.0004965

 Broyden mixing:
  rms(total) = 0.23142E-03    rms(broyden)= 0.23092E-03
  rms(prec ) = 0.24559E-03
  weight for this iteration     100.00

 eigenvalues of (default mixing * dielectric matrix)
  average eigenvalue GAMMA=   1.5002
  5.0913  2.6560  2.6560  2.6231  1.6728  1.4387  1.4387  1.0830  1.0830  0.9002
  0.9002  0.7422  0.7422  0.6731  0.5783  0.6127  0.6127

 Free energy of the ion-electron system (eV)
  ---------------------------------------------------
  alpha Z        PSCENC =       253.99581917
  Ewald energy   TEWEN  =     -9970.73422250
  -Hartree energ DENC   =     -4867.25358205
  -exchange      EXHF   =         0.00000000
  -V(xc)+E(xc)   XCENC  =       689.14678064
  PAW double counting   =     39214.15547909   -39039.53705105
  entropy T*S    EENTRO =         0.00000000
  eigenvalues    EBANDS =     -2011.14872796
  atomic energy  EATOM  =     15501.99929693
  Solvation  Ediel_sol  =         0.00000000
  ---------------------------------------------------
  free energy    TOTEN  =      -229.37620772 eV

  energy without entropy =     -229.37620772  energy(sigma->0) =     -229.37620772


--------------------------------------------------------------------------------------------------------




--------------------------------------- Iteration      1(  23)  ---------------------------------------


    POTLOK:  cpu time      0.4244: real time      0.4253
    SETDIJ:  cpu time     18.8220: real time     18.8239
     EDDAV:  cpu time     54.7654: real time     54.7758
 BZINTS: Fermi energy:    0.078077;  336.000000 electrons
         Band energy:-0.201114E+04;  BLOECHL correction:    0.000000
       DOS:  cpu time      0.0266: real time      0.0267
    CHARGE:  cpu time     29.8995: real time     29.9026
    MIXING:  cpu time      0.0146: real time      0.0145
    --------------------------------------------
      LOOP:  cpu time    103.9526: real time    103.9689

 eigenvalue-minimisations  :  9216
 total energy-change (2. order) :-0.2219822E-06  (-0.5735648E-07)
 number of electron     335.9999997 magnetization      -0.0002586
 augmentation part      -46.9866773 magnetization      -0.0002550

 Broyden mixing:
[...]

  length of vectors
    10.314108670 16.788494411 10.846477853     0.097707938  0.059564603  0.092912216


 FORCES acting on ions
    electron-ion (+dipol)            ewald-force                    non-local-force                 convergence-correction
 -----------------------------------------------------------------------------------------------
   0.987E+02 -.105E+03 -.125E+02   -.104E+03 0.113E+03 0.112E+02   0.495E+01 -.888E+01 0.132E+01   0.169E-05 -.279E-06 0.787E-06
   0.987E+02 -.105E+03 -.127E+02   -.104E+03 0.113E+03 0.114E+02   0.496E+01 -.888E+01 0.131E+01   0.167E-05 -.253E-06 0.816E-06
   -.124E+02 0.420E+02 -.127E+03   0.126E+02 -.472E+02 0.134E+03   -.246E+00 0.519E+01 -.705E+01   0.100E-06 0.139E-07 -.119E-05
   -.123E+02 0.420E+02 -.127E+03   0.126E+02 -.472E+02 0.134E+03   -.246E+00 0.519E+01 -.705E+01   0.130E-06 0.242E-07 -.122E-05
   -.219E+02 -.910E+02 0.975E+02   0.206E+02 0.997E+02 -.103E+03   0.144E+01 -.866E+01 0.527E+01   -.651E-07 -.415E-07 0.181E-05
   -.211E+02 -.902E+02 0.981E+02   0.197E+02 0.989E+02 -.103E+03   0.134E+01 -.874E+01 0.530E+01   -.412E-07 -.581E-07 0.184E-05
   -.108E+03 0.951E+02 0.627E+01   0.114E+03 -.101E+03 -.416E+01   -.534E+01 0.592E+01 -.212E+01   -.168E-05 -.172E-07 0.677E-06
   -.108E+03 0.950E+02 0.624E+01   0.114E+03 -.101E+03 -.413E+01   -.534E+01 0.592E+01 -.212E+01   -.171E-05 -.127E-07 0.666E-06
   0.136E+03 -.539E+02 -.187E+02   -.143E+03 0.595E+02 0.193E+02   0.680E+01 -.552E+01 -.558E+00   0.158E-05 0.123E-07 -.101E-05
   0.136E+03 -.540E+02 -.187E+02   -.143E+03 0.595E+02 0.192E+02   0.680E+01 -.552E+01 -.558E+00   0.160E-05 0.832E-08 -.101E-05
   -.136E+03 0.538E+02 0.194E+02   0.143E+03 -.593E+02 -.200E+02   -.677E+01 0.552E+01 0.576E+00   -.158E-05 -.170E-07 0.102E-05
   -.136E+03 0.540E+02 0.187E+02   0.143E+03 -.595E+02 -.193E+02   -.680E+01 0.552E+01 0.558E+00   -.159E-05 -.255E-07 0.998E-06
   0.108E+03 -.951E+02 -.631E+01   -.114E+03 0.101E+03 0.419E+01   0.534E+01 -.592E+01 0.212E+01   0.167E-05 0.321E-07 -.682E-06
   0.108E+03 -.950E+02 -.625E+01   -.114E+03 0.101E+03 0.413E+01   0.534E+01 -.592E+01 0.212E+01   0.172E-05 0.259E-07 -.668E-06
   -.123E+02 -.420E+02 0.127E+03   0.126E+02 0.472E+02 -.134E+03   -.246E+00 -.519E+01 0.705E+01   0.110E-06 0.340E-07 0.118E-05
   -.124E+02 -.420E+02 0.127E+03   0.126E+02 0.472E+02 -.134E+03   -.246E+00 -.519E+01 0.705E+01   0.891E-07 0.433E-07 0.122E-05
   0.211E+02 -.902E+02 0.981E+02   -.197E+02 0.989E+02 -.103E+03   -.133E+01 -.874E+01 0.530E+01   0.646E-07 -.318E-07 0.181E-05
   0.212E+02 -.902E+02 0.981E+02   -.198E+02 0.989E+02 -.103E+03   -.134E+01 -.874E+01 0.530E+01   0.779E-07 -.153E-07 0.183E-05
   -.987E+02 -.105E+03 -.125E+02   0.104E+03 0.113E+03 0.112E+02   -.495E+01 -.888E+01 0.132E+01   -.166E-05 -.220E-06 0.784E-06
   -.986E+02 -.105E+03 -.125E+02   0.104E+03 0.113E+03 0.112E+02   -.495E+01 -.888E+01 0.132E+01   -.169E-05 -.226E-06 0.779E-06
   -.136E+03 -.540E+02 -.187E+02   0.143E+03 0.595E+02 0.193E+02   -.680E+01 -.552E+01 -.558E+00   -.158E-05 -.257E-07 -.100E-05
   -.136E+03 -.539E+02 -.187E+02   0.143E+03 0.595E+02 0.192E+02   -.680E+01 -.552E+01 -.559E+00   -.161E-05 -.153E-07 -.101E-05
   0.123E+02 0.420E+02 -.127E+03   -.125E+02 -.472E+02 0.134E+03   0.241E+00 0.519E+01 -.704E+01   -.118E-06 -.302E-07 -.116E-05
   0.124E+02 0.420E+02 -.127E+03   -.126E+02 -.472E+02 0.134E+03   0.246E+00 0.519E+01 -.705E+01   -.989E-07 -.596E-07 -.119E-05
   -.108E+03 -.950E+02 -.623E+01   0.114E+03 0.101E+03 0.412E+01   -.534E+01 -.592E+01 0.212E+01   -.172E-05 0.967E-07 -.689E-06
   -.108E+03 -.950E+02 -.626E+01   0.114E+03 0.101E+03 0.414E+01   -.534E+01 -.592E+01 0.212E+01   -.166E-05 0.114E-06 -.676E-06
   0.986E+02 0.105E+03 0.125E+02   -.104E+03 -.113E+03 -.112E+02   0.495E+01 0.888E+01 -.132E+01   0.167E-05 0.235E-06 -.787E-06
   0.987E+02 0.105E+03 0.125E+02   -.104E+03 -.113E+03 -.112E+02   0.495E+01 0.888E+01 -.132E+01   0.170E-05 0.234E-06 -.775E-06
   -.987E+02 0.105E+03 0.126E+02   0.104E+03 -.113E+03 -.112E+02   -.495E+01 0.888E+01 -.132E+01   -.171E-05 0.252E-06 -.774E-06
   -.986E+02 0.105E+03 0.125E+02   0.104E+03 -.113E+03 -.112E+02   -.495E+01 0.888E+01 -.132E+01   -.166E-05 0.251E-06 -.796E-06
   0.728E+02 0.962E+02 0.632E+02   -.755E+02 -.106E+03 -.653E+02   0.274E+01 0.971E+01 0.207E+01   0.853E-06 0.407E-06 0.538E-06
   0.728E+02 0.961E+02 0.633E+02   -.755E+02 -.106E+03 -.653E+02   0.274E+01 0.971E+01 0.207E+01   0.858E-06 0.409E-06 0.566E-06
   0.219E+02 -.939E+02 -.890E+02   -.205E+02 0.100E+03 0.941E+02   -.133E+01 -.628E+01 -.508E+01   0.290E-06 0.693E-07 -.147E-05
   0.219E+02 -.938E+02 -.889E+02   -.205E+02 0.100E+03 0.940E+02   -.133E+01 -.628E+01 -.509E+01   0.296E-06 0.734E-07 -.149E-05
   -.211E+02 0.902E+02 -.981E+02   0.198E+02 -.989E+02 0.103E+03   0.134E+01 0.874E+01 -.530E+01   -.605E-07 0.340E-07 -.183E-05
   -.211E+02 0.902E+02 -.981E+02   0.198E+02 -.990E+02 0.103E+03   0.134E+01 0.874E+01 -.530E+01   -.904E-07 0.351E-07 -.185E-05
   -.219E+02 0.939E+02 0.889E+02   0.205E+02 -.100E+03 -.940E+02   0.133E+01 0.628E+01 0.509E+01   -.294E-06 -.687E-07 0.145E-05
   -.218E+02 0.938E+02 0.889E+02   0.204E+02 -.100E+03 -.940E+02   0.133E+01 0.628E+01 0.509E+01   -.277E-06 -.694E-07 0.146E-05
   0.212E+02 0.902E+02 -.981E+02   -.198E+02 -.990E+02 0.103E+03   -.134E+01 0.874E+01 -.530E+01   0.692E-07 0.493E-07 -.183E-05
   0.212E+02 0.901E+02 -.980E+02   -.199E+02 -.989E+02 0.103E+03   -.134E+01 0.874E+01 -.530E+01   0.503E-07 0.410E-07 -.186E-05
   0.727E+02 -.961E+02 -.633E+02   -.755E+02 0.106E+03 0.653E+02   0.274E+01 -.971E+01 -.207E+01   0.852E-06 -.418E-06 -.509E-06
   0.728E+02 -.961E+02 -.633E+02   -.755E+02 0.106E+03 0.653E+02   0.274E+01 -.971E+01 -.207E+01   0.875E-06 -.401E-06 -.557E-06
   0.136E+03 0.539E+02 0.187E+02   -.143E+03 -.595E+02 -.193E+02   0.680E+01 0.552E+01 0.559E+00   0.157E-05 0.184E-07 0.101E-05
   0.136E+03 0.540E+02 0.187E+02   -.143E+03 -.595E+02 -.193E+02   0.680E+01 0.552E+01 0.558E+00   0.162E-05 0.333E-07 0.995E-06
   0.108E+03 0.950E+02 0.627E+01   -.114E+03 -.101E+03 -.415E+01   0.534E+01 0.592E+01 -.212E+01   0.170E-05 -.979E-07 0.688E-06
   0.109E+03 0.951E+02 0.611E+01   -.114E+03 -.101E+03 -.400E+01   0.532E+01 0.591E+01 -.209E+01   0.167E-05 -.876E-07 0.685E-06
   -.729E+02 -.961E+02 -.631E+02   0.756E+02 0.106E+03 0.652E+02   -.273E+01 -.973E+01 -.209E+01   -.864E-06 -.431E-06 -.517E-06
   -.727E+02 -.961E+02 -.633E+02   0.755E+02 0.106E+03 0.653E+02   -.274E+01 -.971E+01 -.207E+01   -.849E-06 -.428E-06 -.541E-06
   -.218E+02 -.938E+02 -.889E+02   0.205E+02 0.100E+03 0.940E+02   0.133E+01 -.628E+01 -.509E+01   -.283E-06 0.147E-06 -.145E-05
   -.218E+02 -.938E+02 -.889E+02   0.205E+02 0.100E+03 0.939E+02   0.133E+01 -.628E+01 -.509E+01   -.317E-06 0.132E-06 -.149E-05
   0.218E+02 0.947E+02 0.890E+02   -.204E+02 -.101E+03 -.940E+02   -.138E+01 0.620E+01 0.506E+01   0.274E-06 -.143E-06 0.142E-05
   0.219E+02 0.938E+02 0.889E+02   -.205E+02 -.100E+03 -.940E+02   -.133E+01 0.628E+01 0.509E+01   0.304E-06 -.151E-06 0.147E-05
   -.728E+02 0.961E+02 0.633E+02   0.755E+02 -.106E+03 -.653E+02   -.274E+01 0.971E+01 0.207E+01   -.858E-06 0.425E-06 0.527E-06
   -.728E+02 0.962E+02 0.633E+02   0.755E+02 -.106E+03 -.653E+02   -.274E+01 0.971E+01 0.207E+01   -.878E-06 0.407E-06 0.562E-06
   0.124E+02 -.420E+02 0.127E+03   -.126E+02 0.472E+02 -.134E+03   0.245E+00 -.519E+01 0.705E+01   -.101E-06 -.748E-08 0.121E-05
   0.124E+02 -.420E+02 0.127E+03   -.126E+02 0.472E+02 -.134E+03   0.246E+00 -.519E+01 0.705E+01   -.115E-06 -.138E-07 0.124E-05
 -----------------------------------------------------------------------------------------------
   -.748E-01 0.267E-01 0.283E-01   0.206E-12 0.369E-12 0.341E-12   0.748E-01 -.267E-01 -.283E-01   0.719E-08 0.128E-07 -.356E-08


 POSITION                                       TOTAL-FORCE (eV/Angst)
 -----------------------------------------------------------------------------------
      7.84031      7.96182     -7.59135         0.002388     -0.001319      0.000928
     16.23455      7.96182     -7.59135         0.005181     -0.004531     -0.007097
      3.16872      2.44282     -6.01943         0.002013     -0.000963     -0.002517
     11.56297      2.44282     -6.01943         0.002153     -0.000942     -0.002518
      1.75685      7.82725    -10.10485         0.079654      0.047560      0.018761
     10.16110      7.82725    -10.10485        -0.000040      0.000048     -0.000463
      5.05050      1.12562     -8.40433         0.001344     -0.000623     -0.000558
     13.44475      1.12562     -8.40433         0.001570     -0.000672     -0.000661
      5.13205      1.09979     -2.45651        -0.000055      0.000399     -0.000244
     13.52630      1.09979     -2.45651        -0.000000      0.000241     -0.000291
      3.26219      7.47505     -8.62356        -0.035242      0.021056     -0.009650
     11.65644      7.47505     -8.62356         0.000110     -0.000462      0.000266
      3.34375      7.44923     -2.67574        -0.001509      0.000745      0.000500
     11.73799      7.44923     -2.67574        -0.001541      0.000675      0.000706
      7.36585      0.97835     -4.87422         0.002164      0.000869      0.002517
     15.76010      0.97835     -4.87422         0.002095      0.000929      0.002559
      2.43027      2.67356     -9.91842         0.000561     -0.000412     -0.000526
     10.82452      2.67356     -9.91842         0.000050      0.000044     -0.000447
      4.75106      2.80814     -7.40493        -0.002412     -0.001212      0.000678
     13.14531      2.80814     -7.40493        -0.002442     -0.001169      0.000953
      7.45932      6.25348     -2.64294         0.000073      0.000604     -0.000180
     15.85356      6.25348     -2.64294        -0.000020      0.000293     -0.000365
      1.02840      7.59650     -6.20585        -0.000101      0.000063      0.001297
      9.42265      7.59650     -6.20585        -0.002179     -0.000908     -0.002542
      0.85338      2.29554     -2.48931         0.001498      0.000655      0.000620
      9.24762      2.29554     -2.48931         0.001639      0.000690      0.000673
      3.64318      5.76671     -3.67515         0.002500      0.001056     -0.000993
     12.03743      5.76671     -3.67515         0.002581      0.001282     -0.000970
      0.55394      0.61303     -3.48872        -0.002422      0.001212     -0.000929
      8.94819      0.61303     -3.48872        -0.002500      0.001253     -0.000964
      5.79350     -0.03143     -4.03202        -0.001221      0.001808      0.000214
     14.18775     -0.03143     -4.03202        -0.001190      0.001863      0.000248
      4.85766      7.53946     -1.03917        -0.003942      0.002436     -0.000350
     13.25190      7.53946     -1.03917        -0.004011      0.002094     -0.000169
      5.96398      5.90128     -1.16165        -0.000161     -0.000190      0.000634
     14.35822      5.90128     -1.16165        -0.000164     -0.000082      0.000480
      3.53659      1.03539    -10.04090         0.003575     -0.002114      0.000348
     11.93084      1.03539    -10.04090         0.003909     -0.002083      0.000253
      6.62739      0.74760     -0.97522         0.000034      0.000064      0.000501
     15.02164      0.74760     -0.97522        -0.000244      0.000157      0.000428
      1.59638      3.45260     -6.86163        -0.001107     -0.001692      0.000053
      9.99063      3.45260     -6.86163        -0.001225     -0.001761     -0.000270
      0.93493      2.32137     -8.43713        -0.000269     -0.000469      0.000157
      9.32918      2.32137     -8.43713        -0.000071     -0.000458      0.000286
      7.54087      6.27930     -8.59076        -0.001571     -0.000584     -0.000640
     15.93512      6.27930     -8.59076        -0.017445     -0.010950      0.011780
      2.60074      8.60628     -7.04805         0.008536     -0.012567     -0.011664
     10.99499      8.60628     -7.04805         0.001243     -0.001763     -0.000241
      7.73371      2.38578     -0.85274         0.003886      0.001973     -0.000295
     16.12796      2.38578     -0.85274         0.004127      0.002133     -0.000266
      0.66053      6.18907    -10.22733        -0.043678     -0.047497     -0.005750
      9.05478      6.18907    -10.22733        -0.003961     -0.002090      0.000287
      6.79787      5.12225     -4.21845         0.000978      0.001817      0.000310
     15.19211      5.12225     -4.21845         0.001125      0.001871      0.000041
      5.22552      6.13203     -5.06065        -0.002173      0.000909      0.002493
     13.61977      6.13203     -5.06065        -0.002092      0.000715      0.002588
 -----------------------------------------------------------------------------------
    total drift:                               -0.000010     -0.000002     -0.000000


--------------------------------------------------------------------------------------------------------



  FREE ENERGIE OF THE ION-ELECTRON SYSTEM (eV)
  ---------------------------------------------------
  free  energy   TOTEN  =      -229.37620775 eV

  energy  without entropy=     -229.37620775  energy(sigma->0) =     -229.37620775



--------------------------------------------------------------------------------------------------------


    POTLOK:  cpu time     18.0616: real time     18.0745


--------------------------------------------------------------------------------------------------------


     LOOP+:  cpu time   3650.7736: real time   3651.5376
    4ORBIT:  cpu time      0.0000: real time      0.0000



 total charge

# of ion       s       p       d       tot
------------------------------------------
    1        1.376   2.247   0.000   3.623
    2        1.376   2.247   0.000   3.623
    3        1.376   2.258   0.000   3.635
    4        1.376   2.258   0.000   3.635
    5        1.376   2.247   0.000   3.623
    6        1.376   2.247   0.000   3.623
    7        1.375   2.262   0.000   3.638
    8        1.375   2.262   0.000   3.638
    9        1.377   2.257   0.000   3.634
   10        1.377   2.257   0.000   3.634
   11        1.377   2.256   0.000   3.633
   12        1.377   2.257   0.000   3.634
   13        1.375   2.262   0.000   3.638
   14        1.375   2.262   0.000   3.638
   15        1.376   2.258   0.000   3.635
   16        1.376   2.258   0.000   3.635
   17        1.376   2.247   0.000   3.623
   18        1.376   2.247   0.000   3.623
   19        1.376   2.247   0.000   3.623
   20        1.376   2.247   0.000   3.623
   21        1.377   2.257   0.000   3.634
   22        1.377   2.257   0.000   3.634
   23        1.376   2.258   0.000   3.635
   24        1.376   2.258   0.000   3.635
   25        1.375   2.262   0.000   3.638
   26        1.375   2.262   0.000   3.638
   27        1.376   2.247   0.000   3.623
   28        1.376   2.247   0.000   3.623
   29        1.376   2.247   0.000   3.623
   30        1.376   2.247   0.000   3.623
   31        1.376   2.254   0.000   3.630
   32        1.376   2.254   0.000   3.630
   33        1.375   2.263   0.000   3.638
   34        1.375   2.263   0.000   3.638
   35        1.376   2.247   0.000   3.622
   36        1.376   2.247   0.000   3.623
   37        1.375   2.263   0.000   3.638
   38        1.375   2.263   0.000   3.638
   39        1.376   2.247   0.000   3.622
   40        1.376   2.247   0.000   3.623
   41        1.376   2.254   0.000   3.630
   42        1.376   2.254   0.000   3.630
   43        1.377   2.257   0.000   3.634
   44        1.377   2.257   0.000   3.634
   45        1.375   2.262   0.000   3.638
   46        1.375   2.263   0.000   3.638
   47        1.376   2.254   0.000   3.630
   48        1.376   2.254   0.000   3.630
   49        1.375   2.263   0.000   3.638
   50        1.375   2.263   0.000   3.638
   51        1.375   2.265   0.000   3.640
   52        1.375   2.263   0.000   3.638
   53        1.376   2.254   0.000   3.630
   54        1.376   2.254   0.000   3.630
   55        1.376   2.258   0.000   3.635
   56        1.376   2.258   0.000   3.635
--------------------------------------------------
tot         77.049 126.314   0.000 203.363



 magnetization (x)

# of ion       s       p       d       tot
------------------------------------------
    1        0.000   0.000   0.000   0.000
    2        0.000   0.000   0.000   0.000
    3        0.000   0.000   0.000   0.000
    4        0.000   0.000   0.000   0.000
    5        0.000   0.000   0.000   0.000
    6        0.000   0.000   0.000   0.000
    7        0.000   0.000   0.000   0.000
    8        0.000   0.000   0.000   0.000
    9        0.000   0.000   0.000   0.000
   10        0.000   0.000   0.000   0.000
   11        0.000   0.000   0.000   0.000
   12        0.000   0.000   0.000   0.000
   13        0.000   0.000   0.000   0.000
   14        0.000   0.000   0.000   0.000
   15        0.000   0.000   0.000   0.000
   16        0.000   0.000   0.000   0.000
   17        0.000   0.000   0.000   0.000
   18        0.000   0.000   0.000   0.000
   19        0.000   0.000   0.000   0.000
   20        0.000   0.000   0.000   0.000
   21        0.000   0.000   0.000   0.000
   22        0.000   0.000   0.000   0.000
   23        0.000   0.000   0.000   0.000
   24        0.000   0.000   0.000   0.000
   25        0.000   0.000   0.000   0.000
   26        0.000   0.000   0.000   0.000
   27        0.000   0.000   0.000   0.000
   28        0.000   0.000   0.000   0.000
   29        0.000   0.000   0.000   0.000
   30        0.000   0.000   0.000   0.000
   31        0.000   0.000   0.000   0.000
   32        0.000   0.000   0.000   0.000
   33        0.000   0.000   0.000   0.000
   34        0.000   0.000   0.000   0.000
   35        0.000   0.000   0.000   0.000
   36        0.000   0.000   0.000   0.000
   37        0.000   0.000   0.000   0.000
   38        0.000   0.000   0.000   0.000
   39        0.000   0.000   0.000   0.000
   40        0.000   0.000   0.000   0.000
   41        0.000   0.000   0.000   0.000
   42        0.000   0.000   0.000   0.000
   43        0.000   0.000   0.000   0.000
   44        0.000   0.000   0.000   0.000
   45        0.000   0.000   0.000   0.000
   46        0.000   0.000   0.000   0.000
   47        0.000   0.000   0.000   0.000
   48        0.000   0.000   0.000   0.000
   49        0.000   0.000   0.000   0.000
   50        0.000   0.000   0.000   0.000
   51        0.000   0.000   0.000   0.000
   52        0.000   0.000   0.000   0.000
   53        0.000   0.000   0.000   0.000
   54        0.000   0.000   0.000   0.000
   55        0.000   0.000   0.000   0.000
   56        0.000   0.000   0.000   0.000
--------------------------------------------------
tot          0.000   0.000   0.000   0.000

 BZINTS: Fermi energy:    0.078018;  336.000000 electrons
         Band energy:-0.201115E+04;  BLOECHL correction:    0.000000

 total amount of memory used by VASP MPI-rank0   322725. kBytes
=======================================================================

   base      :      30000. kBytes
   nonl-proj :      70692. kBytes
   fftplans  :      34504. kBytes
   grid      :      83442. kBytes
   one-center:        344. kBytes
   wavefun   :     103743. kBytes

  
  
 General timing and accounting informations for this job:
 ========================================================
  
                  Total CPU time used (sec):     3697.050
                            User time (sec):     3695.691
                          System time (sec):        1.359
                         Elapsed time (sec):     3698.487
  
                   Maximum memory used (kb):      613540.
                   Average memory used (kb):          N/A
  
                          Minor page faults:       603895
                          Major page faults:           22
                 Voluntary context switches:         6122
