  80  80   0   0
  0.2323530E+02  0.1210264E-08  0.7093817E-09  0.2165102E-08  0.2000000E-14
   1000.0000000000000     
  CAR 
 NVT-AIMD user_Na5AlS4_Na5AlS4 1000K     
      9.18374191    -24.39902643  301      1.58971903      1.00000000
    -24.399  0.0000E+00  0.0000E+00
    -24.287  0.0000E+00  0.0000E+00
    -24.175  0.0000E+00  0.0000E+00
    -24.063 -0.4853E-28 -0.5449E-29
    -23.951 -0.3865E-24 -0.4342E-25
    -23.839 -0.1627E-20 -0.1828E-21
    -23.727 -0.3640E-17 -0.4092E-18
    -23.615 -0.4324E-14 -0.4864E-15
    -23.503 -0.2638E-11 -0.2970E-12
    -23.392 -0.8743E-09 -0.9856E-10
    -23.280 -0.1530E-06 -0.1729E-07
    -23.168 -0.1409E-04 -0.1600E-05
    -23.056 -0.6795E-03 -0.7792E-04
    -22.944 -0.1697E-01 -0.1983E-02
    -22.832 -0.2144E+00 -0.2604E-01
    -22.720 -0.1282E+01 -0.1697E+00
    -22.608 -0.2733E+01 -0.4753E+00
    -22.496  0.4235E+01  0.2164E-02
    -22.384  0.3117E+02  0.3497E+01
    -22.272  0.6984E+02  0.1131E+02
    -22.160  0.1097E+03  0.2356E+02
    -22.048  0.1500E+03  0.4031E+02
    -21.936  0.1721E+03  0.5955E+02
    -21.824  0.1667E+03  0.7821E+02
    -21.712  0.1645E+03  0.9663E+02
    -21.600  0.1849E+03  0.1174E+03
    -21.489  0.2023E+03  0.1401E+03
    -21.377  0.1978E+03  0.1622E+03
    -21.265  0.1797E+03  0.1824E+03
    -21.153  0.1532E+03  0.1996E+03
    -21.041  0.1225E+03  0.2134E+03
    -20.929  0.9002E+02  0.2236E+03
    -20.817  0.5667E+02  0.2299E+03
    -20.705  0.3165E+02  0.2335E+03
    -20.593  0.1949E+02  0.2357E+03
    -20.481  0.1345E+02  0.2373E+03
    -20.369  0.8544E+01  0.2382E+03
    -20.257  0.5149E+01  0.2388E+03
    -20.145  0.3588E+01  0.2392E+03
    -20.033  0.2820E+01  0.2395E+03
    -19.921  0.2297E+01  0.2398E+03
    -19.809  0.1520E+01  0.2400E+03
    -19.697  0.4557E+00  0.2400E+03
    -19.585 -0.5773E-01  0.2400E+03
    -19.474 -0.6454E-01  0.2400E+03
    -19.362 -0.1379E-01  0.2400E+03
    -19.250 -0.1279E-02  0.2400E+03
    -19.138 -0.5793E-04  0.2400E+03
    -19.026 -0.1334E-05  0.2400E+03
    -18.914 -0.1589E-07  0.2400E+03
    -18.802 -0.9862E-10  0.2400E+03
    -18.690 -0.3207E-12  0.2400E+03
    -18.578 -0.4701E-15  0.2400E+03
    -18.466  0.0000E+00  0.2400E+03
    -18.354  0.0000E+00  0.2400E+03
    -18.242  0.0000E+00  0.2400E+03
    -18.130  0.0000E+00  0.2400E+03
    -18.018  0.0000E+00  0.2400E+03
    -17.906  0.0000E+00  0.2400E+03
    -17.794  0.0000E+00  0.2400E+03
    -17.682  0.0000E+00  0.2400E+03
    -17.571  0.0000E+00  0.2400E+03
    -17.459  0.0000E+00  0.2400E+03
    -17.347  0.0000E+00  0.2400E+03
    -17.235  0.0000E+00  0.2400E+03
    -17.123  0.0000E+00  0.2400E+03
    -17.011  0.0000E+00  0.2400E+03
    -16.899  0.0000E+00  0.2400E+03
    -16.787  0.0000E+00  0.2400E+03
    -16.675  0.0000E+00  0.2400E+03
    -16.563  0.0000E+00  0.2400E+03
    -16.451  0.0000E+00  0.2400E+03
    -16.339  0.0000E+00  0.2400E+03
    -16.227  0.0000E+00  0.2400E+03
    -16.115  0.0000E+00  0.2400E+03
    -16.003  0.0000E+00  0.2400E+03
    -15.891  0.0000E+00  0.2400E+03
    -15.779  0.0000E+00  0.2400E+03
    -15.668  0.0000E+00  0.2400E+03
    -15.556  0.0000E+00  0.2400E+03
    -15.444  0.0000E+00  0.2400E+03
    -15.332  0.0000E+00  0.2400E+03
    -15.220  0.0000E+00  0.2400E+03
    -15.108  0.0000E+00  0.2400E+03
    -14.996  0.0000E+00  0.2400E+03
    -14.884  0.0000E+00  0.2400E+03
    -14.772  0.0000E+00  0.2400E+03
    -14.660  0.0000E+00  0.2400E+03
    -14.548  0.0000E+00  0.2400E+03
    -14.436  0.0000E+00  0.2400E+03
    -14.324  0.0000E+00  0.2400E+03
    -14.212  0.0000E+00  0.2400E+03
    -14.100  0.0000E+00  0.2400E+03
    -13.988  0.0000E+00  0.2400E+03
    -13.876  0.0000E+00  0.2400E+03
    -13.764  0.0000E+00  0.2400E+03
    -13.653  0.0000E+00  0.2400E+03
    -13.541  0.0000E+00  0.2400E+03
    -13.429  0.0000E+00  0.2400E+03
    -13.317  0.0000E+00  0.2400E+03
    -13.205  0.0000E+00  0.2400E+03
    -13.093  0.0000E+00  0.2400E+03
    -12.981  0.0000E+00  0.2400E+03
    -12.869  0.0000E+00  0.2400E+03
    -12.757  0.0000E+00  0.2400E+03
    -12.645 -0.1268E-27  0.2400E+03
    -12.533 -0.6650E-24  0.2400E+03
    -12.421 -0.1877E-20  0.2400E+03
    -12.309 -0.2857E-17  0.2400E+03
    -12.197 -0.2289E-14  0.2400E+03
    -12.085 -0.1010E-11  0.2400E+03
    -11.973 -0.2429E-09  0.2400E+03
    -11.861 -0.3181E-07  0.2400E+03
    -11.750 -0.2276E-05  0.2400E+03
    -11.638 -0.8880E-04  0.2400E+03
    -11.526 -0.1873E-02  0.2400E+03
    -11.414 -0.2080E-01  0.2400E+03
    -11.302 -0.1133E+00  0.2400E+03
    -11.190 -0.2242E+00  0.2400E+03
    -11.078  0.3767E+00  0.2400E+03
    -10.966  0.2717E+01  0.2403E+03
    -10.854  0.6373E+01  0.2410E+03
    -10.742  0.9918E+01  0.2421E+03
    -10.630  0.1260E+02  0.2435E+03
    -10.518  0.1527E+02  0.2452E+03
    -10.406  0.1889E+02  0.2474E+03
    -10.294  0.2268E+02  0.2499E+03
    -10.182  0.2669E+02  0.2529E+03
    -10.070  0.3069E+02  0.2563E+03
     -9.958  0.3302E+02  0.2600E+03
     -9.846  0.3510E+02  0.2639E+03
     -9.735  0.3839E+02  0.2682E+03
     -9.623  0.4100E+02  0.2728E+03
     -9.511  0.4322E+02  0.2777E+03
     -9.399  0.4593E+02  0.2828E+03
     -9.287  0.4638E+02  0.2880E+03
     -9.175  0.4227E+02  0.2928E+03
     -9.063  0.3391E+02  0.2966E+03
     -8.951  0.2402E+02  0.2993E+03
     -8.839  0.1671E+02  0.3012E+03
     -8.727  0.1188E+02  0.3025E+03
     -8.615  0.7703E+01  0.3034E+03
     -8.503  0.4007E+01  0.3039E+03
     -8.391  0.1345E+01  0.3040E+03
     -8.279  0.1112E+00  0.3040E+03
     -8.167 -0.1262E+00  0.3040E+03
     -8.055 -0.6080E-01  0.3040E+03
     -7.943 -0.1215E-01  0.3040E+03
     -7.832 -0.1210E-02  0.3040E+03
     -7.720 -0.6196E-04  0.3040E+03
     -7.608 -0.1645E-05  0.3040E+03
     -7.496 -0.2275E-07  0.3040E+03
     -7.384 -0.1641E-09  0.3040E+03
     -7.272 -0.6189E-12  0.3040E+03
     -7.160 -0.1214E-14  0.3040E+03
     -7.048  0.0000E+00  0.3040E+03
     -6.936  0.0000E+00  0.3040E+03
     -6.824  0.0000E+00  0.3040E+03
     -6.712  0.0000E+00  0.3040E+03
     -6.600  0.0000E+00  0.3040E+03
     -6.488  0.0000E+00  0.3040E+03
     -6.376  0.0000E+00  0.3040E+03
     -6.264  0.0000E+00  0.3040E+03
     -6.152  0.0000E+00  0.3040E+03
     -6.040  0.0000E+00  0.3040E+03
     -5.929  0.0000E+00  0.3040E+03
     -5.817  0.0000E+00  0.3040E+03
     -5.705  0.0000E+00  0.3040E+03
     -5.593  0.0000E+00  0.3040E+03
     -5.481  0.0000E+00  0.3040E+03
     -5.369 -0.5141E-30  0.3040E+03
     -5.257 -0.4512E-26  0.3040E+03
     -5.145 -0.2086E-22  0.3040E+03
     -5.033 -0.5105E-19  0.3040E+03
     -4.921 -0.6612E-16  0.3040E+03
     -4.809 -0.4391E-13  0.3040E+03
     -4.697 -0.1579E-10  0.3040E+03
     -4.585 -0.2996E-08  0.3040E+03
     -4.473 -0.2989E-06  0.3040E+03
     -4.361 -0.1563E-04  0.3040E+03
     -4.249 -0.4249E-03  0.3040E+03
     -4.137 -0.5916E-02  0.3040E+03
     -4.025 -0.4053E-01  0.3040E+03
     -3.914 -0.1183E+00  0.3040E+03
     -3.802 -0.5200E-02  0.3040E+03
     -3.690  0.8651E+00  0.3041E+03
     -3.578  0.2804E+01  0.3044E+03
     -3.466  0.5727E+01  0.3050E+03
     -3.354  0.9227E+01  0.3061E+03
     -3.242  0.1306E+02  0.3075E+03
     -3.130  0.1802E+02  0.3095E+03
     -3.018  0.2278E+02  0.3121E+03
     -2.906  0.2356E+02  0.3147E+03
     -2.794  0.1955E+02  0.3169E+03
     -2.682  0.1361E+02  0.3185E+03
     -2.570  0.8423E+01  0.3194E+03
     -2.458  0.4210E+01  0.3199E+03
     -2.346  0.1055E+01  0.3200E+03
     -2.234 -0.2978E+00  0.3200E+03
     -2.122  0.4224E+00  0.3200E+03
     -2.011  0.3329E+01  0.3204E+03
     -1.899  0.9218E+01  0.3214E+03
     -1.787  0.1904E+02  0.3236E+03
     -1.675  0.3062E+02  0.3270E+03
     -1.563  0.4145E+02  0.3316E+03
     -1.451  0.5014E+02  0.3372E+03
     -1.339  0.5545E+02  0.3434E+03
     -1.227  0.5737E+02  0.3499E+03
     -1.115  0.5388E+02  0.3559E+03
     -1.003  0.4534E+02  0.3610E+03
     -0.891  0.3781E+02  0.3653E+03
     -0.779  0.3557E+02  0.3693E+03
     -0.667  0.3814E+02  0.3735E+03
     -0.555  0.4311E+02  0.3784E+03
     -0.443  0.4985E+02  0.3840E+03
     -0.331  0.5691E+02  0.3903E+03
     -0.219  0.6264E+02  0.3974E+03
     -0.107  0.6724E+02  0.4049E+03
      0.004  0.6999E+02  0.4127E+03
      0.116  0.7108E+02  0.4207E+03
      0.228  0.7178E+02  0.4288E+03
      0.340  0.7217E+02  0.4369E+03
      0.452  0.7214E+02  0.4449E+03
      0.564  0.7173E+02  0.4530E+03
      0.676  0.6927E+02  0.4608E+03
      0.788  0.6448E+02  0.4680E+03
      0.900  0.5871E+02  0.4746E+03
      1.012  0.5162E+02  0.4804E+03
      1.124  0.4359E+02  0.4853E+03
      1.236  0.3593E+02  0.4893E+03
      1.348  0.2632E+02  0.4923E+03
      1.460  0.1505E+02  0.4940E+03
      1.572  0.7615E+01  0.4948E+03
      1.684  0.4567E+01  0.4953E+03
      1.796  0.2560E+01  0.4956E+03
      1.907  0.1117E+01  0.4958E+03
      2.019  0.8638E+00  0.4958E+03
      2.131  0.8837E+00  0.4959E+03
      2.243  0.4639E+00  0.4960E+03
      2.355  0.5536E-01  0.4960E+03
      2.467 -0.4044E-01  0.4960E+03
      2.579 -0.1842E-01  0.4960E+03
      2.691 -0.2226E-01  0.4960E+03
      2.803 -0.8792E-01  0.4960E+03
      2.915 -0.1110E+00  0.4960E+03
      3.027  0.4651E+00  0.4960E+03
      3.139  0.2322E+01  0.4963E+03
      3.251  0.4849E+01  0.4968E+03
      3.363  0.5642E+01  0.4975E+03
      3.475  0.3657E+01  0.4979E+03
      3.587  0.1019E+01  0.4980E+03
      3.699  0.7776E-02  0.4980E+03
      3.810  0.1568E+01  0.4982E+03
      3.922  0.4769E+01  0.4987E+03
      4.034  0.7113E+01  0.4995E+03
      4.146  0.8102E+01  0.5004E+03
      4.258  0.8308E+01  0.5013E+03
      4.370  0.7888E+01  0.5022E+03
      4.482  0.7607E+01  0.5031E+03
      4.594  0.7328E+01  0.5039E+03
      4.706  0.8518E+01  0.5049E+03
      4.818  0.1388E+02  0.5064E+03
      4.930  0.2150E+02  0.5088E+03
      5.042  0.2694E+02  0.5119E+03
      5.154  0.2961E+02  0.5152E+03
      5.266  0.3162E+02  0.5187E+03
      5.378  0.3317E+02  0.5224E+03
      5.490  0.3457E+02  0.5263E+03
      5.602  0.3658E+02  0.5304E+03
      5.714  0.3901E+02  0.5348E+03
      5.825  0.4097E+02  0.5394E+03
      5.937  0.4179E+02  0.5441E+03
      6.049  0.4258E+02  0.5488E+03
      6.161  0.4364E+02  0.5537E+03
      6.273  0.4441E+02  0.5587E+03
      6.385  0.4478E+02  0.5637E+03
      6.497  0.4442E+02  0.5687E+03
      6.609  0.4474E+02  0.5737E+03
      6.721  0.4623E+02  0.5789E+03
      6.833  0.4678E+02  0.5842E+03
      6.945  0.4549E+02  0.5893E+03
      7.057  0.4297E+02  0.5941E+03
      7.169  0.3441E+02  0.5980E+03
      7.281  0.1731E+02  0.5999E+03
      7.393  0.2948E+01  0.6002E+03
      7.505 -0.1232E+01  0.6001E+03
      7.617 -0.6649E+00  0.6000E+03
      7.728 -0.1186E+00  0.6000E+03
      7.840 -0.9900E-02  0.6000E+03
      7.952 -0.4160E-03  0.6000E+03
      8.064 -0.9019E-05  0.6000E+03
      8.176 -0.1019E-06  0.6000E+03
      8.288 -0.6041E-09  0.6000E+03
      8.400 -0.1883E-11  0.6000E+03
      8.512 -0.3519E-14  0.6000E+03
      8.624  0.0000E+00  0.6000E+03
      8.736  0.0000E+00  0.6000E+03
      8.848  0.0000E+00  0.6000E+03
      8.960  0.0000E+00  0.6000E+03
      9.072  0.0000E+00  0.6000E+03
      9.184  0.0000E+00  0.6000E+03
      9.15801770    -24.54970580  301      1.41159846      1.00000000
    -24.550  0.0000E+00  0.0000E+00
    -24.437  0.0000E+00  0.0000E+00
    -24.325  0.0000E+00  0.0000E+00
    -24.213 -0.4263E-28 -0.4789E-29
    -24.100 -0.3350E-24 -0.3764E-25
    -23.988 -0.1391E-20 -0.1563E-21
    -23.876 -0.3062E-17 -0.3442E-18
    -23.763 -0.3574E-14 -0.4019E-15
    -23.651 -0.2138E-11 -0.2406E-12
    -23.538 -0.6945E-09 -0.7827E-10
    -23.426 -0.1190E-06 -0.1345E-07
    -23.314 -0.1074E-04 -0.1220E-05
    -23.201 -0.5072E-03 -0.5819E-04
    -23.089 -0.1243E-01 -0.1454E-02
    -22.977 -0.1544E+00 -0.1880E-01
    -22.864 -0.9109E+00 -0.1211E+00
    -22.752 -0.1900E+01 -0.3342E+00
    -22.640  0.3264E+01  0.3290E-01
    -22.527  0.2274E+02  0.2586E+01
    -22.415  0.4796E+02  0.7967E+01
    -22.303  0.6919E+02  0.1572E+02
    -22.190  0.1005E+03  0.2700E+02
    -22.078  0.1483E+03  0.4364E+02
    -21.965  0.1926E+03  0.6525E+02
    -21.853  0.2154E+03  0.8942E+02
    -21.741  0.2189E+03  0.1140E+03
    -21.628  0.2147E+03  0.1381E+03
    -21.516  0.2070E+03  0.1614E+03
    -21.404  0.1919E+03  0.1829E+03
    -21.291  0.1640E+03  0.2014E+03
    -21.179  0.1279E+03  0.2158E+03
    -21.067  0.9086E+02  0.2260E+03
    -20.954  0.5697E+02  0.2324E+03
    -20.842  0.3328E+02  0.2362E+03
    -20.729  0.1882E+02  0.2383E+03
    -20.617  0.9098E+01  0.2393E+03
    -20.505  0.4340E+01  0.2398E+03
    -20.392  0.1952E+01  0.2400E+03
    -20.280  0.2807E+00  0.2400E+03
    -20.168 -0.1987E+00  0.2400E+03
    -20.055 -0.9575E-01  0.2400E+03
    -19.943 -0.1654E-01  0.2400E+03
    -19.831 -0.1361E-02  0.2400E+03
    -19.718 -0.5698E-04  0.2400E+03
    -19.606 -0.1244E-05  0.2400E+03
    -19.494 -0.1430E-07  0.2400E+03
    -19.381 -0.8695E-10  0.2400E+03
    -19.269 -0.2806E-12  0.2400E+03
    -19.156 -0.4737E-15  0.2400E+03
    -19.044  0.0000E+00  0.2400E+03
    -18.932  0.0000E+00  0.2400E+03
    -18.819  0.0000E+00  0.2400E+03
    -18.707  0.0000E+00  0.2400E+03
    -18.595  0.0000E+00  0.2400E+03
    -18.482  0.0000E+00  0.2400E+03
    -18.370  0.0000E+00  0.2400E+03
    -18.258  0.0000E+00  0.2400E+03
    -18.145  0.0000E+00  0.2400E+03
    -18.033  0.0000E+00  0.2400E+03
    -17.921  0.0000E+00  0.2400E+03
    -17.808  0.0000E+00  0.2400E+03
    -17.696  0.0000E+00  0.2400E+03
    -17.583  0.0000E+00  0.2400E+03
    -17.471  0.0000E+00  0.2400E+03
    -17.359  0.0000E+00  0.2400E+03
    -17.246  0.0000E+00  0.2400E+03
    -17.134  0.0000E+00  0.2400E+03
    -17.022  0.0000E+00  0.2400E+03
    -16.909  0.0000E+00  0.2400E+03
    -16.797  0.0000E+00  0.2400E+03
    -16.685  0.0000E+00  0.2400E+03
    -16.572  0.0000E+00  0.2400E+03
    -16.460  0.0000E+00  0.2400E+03
    -16.347  0.0000E+00  0.2400E+03
    -16.235  0.0000E+00  0.2400E+03
    -16.123  0.0000E+00  0.2400E+03
    -16.010  0.0000E+00  0.2400E+03
    -15.898  0.0000E+00  0.2400E+03
    -15.786  0.0000E+00  0.2400E+03
    -15.673  0.0000E+00  0.2400E+03
    -15.561  0.0000E+00  0.2400E+03
    -15.449  0.0000E+00  0.2400E+03
    -15.336  0.0000E+00  0.2400E+03
    -15.224  0.0000E+00  0.2400E+03
    -15.112  0.0000E+00  0.2400E+03
    -14.999  0.0000E+00  0.2400E+03
    -14.887  0.0000E+00  0.2400E+03
    -14.774  0.0000E+00  0.2400E+03
    -14.662  0.0000E+00  0.2400E+03
    -14.550  0.0000E+00  0.2400E+03
    -14.437  0.0000E+00  0.2400E+03
    -14.325  0.0000E+00  0.2400E+03
    -14.213  0.0000E+00  0.2400E+03
    -14.100  0.0000E+00  0.2400E+03
    -13.988  0.0000E+00  0.2400E+03
    -13.876  0.0000E+00  0.2400E+03
    -13.763  0.0000E+00  0.2400E+03
    -13.651  0.0000E+00  0.2400E+03
    -13.539  0.0000E+00  0.2400E+03
    -13.426  0.0000E+00  0.2400E+03
    -13.314  0.0000E+00  0.2400E+03
    -13.201  0.0000E+00  0.2400E+03
    -13.089  0.0000E+00  0.2400E+03
    -12.977  0.0000E+00  0.2400E+03
    -12.864 -0.4071E-30  0.2400E+03
    -12.752 -0.3747E-26  0.2400E+03
    -12.640 -0.1791E-22  0.2400E+03
    -12.527 -0.4533E-19  0.2400E+03
    -12.415 -0.6068E-16  0.2400E+03
    -12.303 -0.4158E-13  0.2400E+03
    -12.190 -0.1539E-10  0.2400E+03
    -12.078 -0.2989E-08  0.2400E+03
    -11.965 -0.3031E-06  0.2400E+03
    -11.853 -0.1591E-04  0.2400E+03
    -11.741 -0.4259E-03  0.2400E+03
    -11.628 -0.5640E-02  0.2400E+03
    -11.516 -0.3420E-01  0.2400E+03
    -11.404 -0.6930E-01  0.2400E+03
    -11.291  0.1160E+00  0.2400E+03
    -11.179  0.7041E+00  0.2401E+03
    -11.067  0.1488E+01  0.2402E+03
    -10.954  0.3005E+01  0.2406E+03
    -10.842  0.6309E+01  0.2413E+03
    -10.730  0.1125E+02  0.2426E+03
    -10.617  0.1653E+02  0.2444E+03
    -10.505  0.2074E+02  0.2467E+03
    -10.392  0.2391E+02  0.2494E+03
    -10.280  0.2658E+02  0.2524E+03
    -10.168  0.2734E+02  0.2555E+03
    -10.055  0.2809E+02  0.2586E+03
     -9.943  0.3399E+02  0.2624E+03
     -9.831  0.4163E+02  0.2671E+03
     -9.718  0.4441E+02  0.2721E+03
     -9.606  0.4372E+02  0.2770E+03
     -9.494  0.4491E+02  0.2821E+03
     -9.381  0.4738E+02  0.2874E+03
     -9.269  0.4503E+02  0.2924E+03
     -9.157  0.3606E+02  0.2965E+03
     -9.044  0.2559E+02  0.2994E+03
     -8.932  0.1726E+02  0.3013E+03
     -8.819  0.1103E+02  0.3026E+03
     -8.707  0.6591E+01  0.3033E+03
     -8.595  0.3659E+01  0.3037E+03
     -8.482  0.1905E+01  0.3039E+03
     -8.370  0.7480E+00  0.3040E+03
     -8.258  0.6677E-01  0.3040E+03
     -8.145 -0.8361E-01  0.3040E+03
     -8.033 -0.3427E-01  0.3040E+03
     -7.921 -0.5316E-02  0.3040E+03
     -7.808 -0.3896E-03  0.3040E+03
     -7.696 -0.1431E-04  0.3040E+03
     -7.583 -0.2701E-06  0.3040E+03
     -7.471 -0.2652E-08  0.3040E+03
     -7.359 -0.1365E-10  0.3040E+03
     -7.246 -0.3690E-13  0.3040E+03
     -7.134  0.0000E+00  0.3040E+03
     -7.022  0.0000E+00  0.3040E+03
     -6.909  0.0000E+00  0.3040E+03
     -6.797  0.0000E+00  0.3040E+03
     -6.685  0.0000E+00  0.3040E+03
     -6.572  0.0000E+00  0.3040E+03
     -6.460  0.0000E+00  0.3040E+03
     -6.348  0.0000E+00  0.3040E+03
     -6.235  0.0000E+00  0.3040E+03
     -6.123  0.0000E+00  0.3040E+03
     -6.010  0.0000E+00  0.3040E+03
     -5.898  0.0000E+00  0.3040E+03
     -5.786  0.0000E+00  0.3040E+03
     -5.673  0.0000E+00  0.3040E+03
     -5.561  0.0000E+00  0.3040E+03
     -5.449 -0.5543E-29  0.3040E+03
     -5.336 -0.4371E-25  0.3040E+03
     -5.224 -0.1808E-21  0.3040E+03
     -5.112 -0.3926E-18  0.3040E+03
     -4.999 -0.4472E-15  0.3040E+03
     -4.887 -0.2582E-12  0.3040E+03
     -4.775 -0.8012E-10  0.3040E+03
     -4.662 -0.1296E-07  0.3040E+03
     -4.550 -0.1088E-05  0.3040E+03
     -4.437 -0.4705E-04  0.3040E+03
     -4.325 -0.1035E-02  0.3040E+03
     -4.213 -0.1125E-01  0.3040E+03
     -4.100 -0.5572E-01  0.3040E+03
     -3.988 -0.8456E-01  0.3040E+03
     -3.876  0.2232E+00  0.3040E+03
     -3.763  0.1136E+01  0.3041E+03
     -3.651  0.2676E+01  0.3044E+03
     -3.539  0.5405E+01  0.3050E+03
     -3.426  0.9120E+01  0.3061E+03
     -3.314  0.1235E+02  0.3075E+03
     -3.201  0.1561E+02  0.3092E+03
     -3.089  0.1960E+02  0.3114E+03
     -2.977  0.2234E+02  0.3139E+03
     -2.864  0.2149E+02  0.3163E+03
     -2.752  0.1632E+02  0.3182E+03
     -2.640  0.9349E+01  0.3192E+03
     -2.527  0.4513E+01  0.3197E+03
     -2.415  0.1995E+01  0.3199E+03
     -2.303  0.7106E+00  0.3200E+03
     -2.190  0.1220E+01  0.3202E+03
     -2.078  0.3924E+01  0.3206E+03
     -1.966  0.9322E+01  0.3217E+03
     -1.853  0.1698E+02  0.3236E+03
     -1.741  0.2596E+02  0.3265E+03
     -1.628  0.3697E+02  0.3306E+03
     -1.516  0.4805E+02  0.3360E+03
     -1.404  0.5547E+02  0.3422E+03
     -1.291  0.5823E+02  0.3488E+03
     -1.179  0.5574E+02  0.3550E+03
     -1.067  0.4890E+02  0.3605E+03
     -0.954  0.4172E+02  0.3652E+03
     -0.842  0.3776E+02  0.3695E+03
     -0.730  0.3794E+02  0.3737E+03
     -0.617  0.4164E+02  0.3784E+03
     -0.505  0.4817E+02  0.3838E+03
     -0.393  0.5628E+02  0.3901E+03
     -0.280  0.6302E+02  0.3972E+03
     -0.168  0.6628E+02  0.4047E+03
     -0.055  0.6691E+02  0.4122E+03
      0.057  0.6772E+02  0.4198E+03
      0.169  0.6879E+02  0.4275E+03
      0.282  0.6994E+02  0.4354E+03
      0.394  0.7151E+02  0.4434E+03
      0.506  0.7161E+02  0.4514E+03
      0.619  0.6992E+02  0.4593E+03
      0.731  0.6677E+02  0.4668E+03
      0.843  0.6090E+02  0.4736E+03
      0.956  0.5322E+02  0.4796E+03
      1.068  0.4588E+02  0.4848E+03
      1.181  0.3773E+02  0.4890E+03
      1.293  0.2765E+02  0.4921E+03
      1.405  0.1782E+02  0.4941E+03
      1.518  0.1037E+02  0.4953E+03
      1.630  0.5171E+01  0.4958E+03
      1.742  0.1639E+01  0.4960E+03
      1.855 -0.7375E-02  0.4960E+03
      1.967 -0.2211E+00  0.4960E+03
      2.079 -0.7452E-01  0.4960E+03
      2.192 -0.1061E-01  0.4960E+03
      2.304 -0.7384E-03  0.4960E+03
      2.416 -0.2811E-04  0.4960E+03
      2.529 -0.9664E-04  0.4960E+03
      2.641 -0.2403E-02  0.4960E+03
      2.754 -0.3015E-01  0.4960E+03
      2.866 -0.1742E+00  0.4960E+03
      2.978 -0.2943E+00  0.4959E+03
      3.091  0.1071E+01  0.4961E+03
      3.203  0.5055E+01  0.4966E+03
      3.315  0.7441E+01  0.4975E+03
      3.428  0.4475E+01  0.4980E+03
      3.540  0.5706E+00  0.4980E+03
      3.652 -0.6642E+00  0.4980E+03
      3.765  0.4165E+00  0.4980E+03
      3.877  0.4398E+01  0.4985E+03
      3.990  0.9407E+01  0.4996E+03
      4.102  0.1069E+02  0.5008E+03
      4.214  0.7875E+01  0.5016E+03
      4.327  0.4457E+01  0.5021E+03
      4.439  0.3409E+01  0.5025E+03
      4.551  0.5874E+01  0.5032E+03
      4.664  0.1137E+02  0.5045E+03
      4.776  0.1831E+02  0.5065E+03
      4.888  0.2387E+02  0.5092E+03
      5.001  0.2725E+02  0.5123E+03
      5.113  0.2982E+02  0.5156E+03
      5.225  0.3127E+02  0.5191E+03
      5.338  0.3375E+02  0.5229E+03
      5.450  0.3793E+02  0.5272E+03
      5.563  0.3871E+02  0.5315E+03
      5.675  0.3596E+02  0.5356E+03
      5.787  0.3569E+02  0.5396E+03
      5.900  0.3898E+02  0.5439E+03
      6.012  0.4153E+02  0.5486E+03
      6.124  0.4251E+02  0.5534E+03
      6.237  0.4369E+02  0.5583E+03
      6.349  0.4505E+02  0.5634E+03
      6.461  0.4698E+02  0.5686E+03
      6.574  0.4974E+02  0.5742E+03
      6.686  0.4961E+02  0.5798E+03
      6.798  0.4580E+02  0.5849E+03
      6.911  0.4255E+02  0.5897E+03
      7.023  0.4020E+02  0.5942E+03
      7.136  0.3273E+02  0.5979E+03
      7.248  0.1725E+02  0.5998E+03
      7.360  0.3364E+01  0.6002E+03
      7.473 -0.1120E+01  0.6001E+03
      7.585 -0.6758E+00  0.6000E+03
      7.697 -0.1247E+00  0.6000E+03
      7.810 -0.1058E-01  0.6000E+03
      7.922 -0.4479E-03  0.6000E+03
      8.034 -0.9727E-05  0.6000E+03
      8.147 -0.1098E-06  0.6000E+03
      8.259 -0.6493E-09  0.6000E+03
      8.372 -0.2016E-11  0.6000E+03
      8.484 -0.3993E-14  0.6000E+03
      8.596  0.0000E+00  0.6000E+03
      8.709  0.0000E+00  0.6000E+03
      8.821  0.0000E+00  0.6000E+03
      8.933  0.0000E+00  0.6000E+03
      9.046  0.0000E+00  0.6000E+03
      9.158  0.0000E+00  0.6000E+03
      9.16308393    -24.32700870  301      1.52243450      1.00000000
    -24.327  0.0000E+00  0.0000E+00
    -24.215  0.0000E+00  0.0000E+00
    -24.104  0.0000E+00  0.0000E+00
    -23.992 -0.4383E-28 -0.4920E-29
    -23.880 -0.3446E-24 -0.3868E-25
    -23.769 -0.1432E-20 -0.1609E-21
    -23.657 -0.3163E-17 -0.3553E-18
    -23.546 -0.3707E-14 -0.4166E-15
    -23.434 -0.2230E-11 -0.2508E-12
    -23.322 -0.7287E-09 -0.8207E-10
    -23.211 -0.1257E-06 -0.1419E-07
    -23.099 -0.1140E-04 -0.1294E-05
    -22.987 -0.5412E-03 -0.6203E-04
    -22.876 -0.1329E-01 -0.1553E-02
    -22.764 -0.1646E+00 -0.2001E-01
    -22.653 -0.9619E+00 -0.1278E+00
    -22.541 -0.1989E+01 -0.3503E+00
    -22.429  0.3167E+01  0.6099E-02
    -22.318  0.2264E+02  0.2544E+01
    -22.206  0.5158E+02  0.8317E+01
    -22.094  0.8453E+02  0.1777E+02
    -21.983  0.1210E+03  0.3131E+02
    -21.871  0.1480E+03  0.4787E+02
    -21.759  0.1610E+03  0.6590E+02
    -21.648  0.1818E+03  0.8626E+02
    -21.536  0.2180E+03  0.1107E+03
    -21.425  0.2390E+03  0.1375E+03
    -21.313  0.2322E+03  0.1636E+03
    -21.201  0.2096E+03  0.1871E+03
    -21.090  0.1672E+03  0.2059E+03
    -20.978  0.1138E+03  0.2187E+03
    -20.866  0.7490E+02  0.2271E+03
    -20.755  0.5336E+02  0.2331E+03
    -20.643  0.3516E+02  0.2371E+03
    -20.531  0.1796E+02  0.2391E+03
    -20.420  0.6870E+01  0.2399E+03
    -20.308  0.1466E+01  0.2401E+03
    -20.197 -0.3311E+00  0.2400E+03
    -20.085 -0.3239E+00  0.2400E+03
    -19.973 -0.8473E-01  0.2400E+03
    -19.862 -0.1030E-01  0.2400E+03
    -19.750 -0.6350E-03  0.2400E+03
    -19.638 -0.2037E-04  0.2400E+03
    -19.527 -0.3431E-06  0.2400E+03
    -19.415 -0.3041E-08  0.2400E+03
    -19.303 -0.1419E-10  0.2400E+03
    -19.192 -0.3480E-13  0.2400E+03
    -19.080  0.0000E+00  0.2400E+03
    -18.969  0.0000E+00  0.2400E+03
    -18.857  0.0000E+00  0.2400E+03
    -18.745  0.0000E+00  0.2400E+03
    -18.634  0.0000E+00  0.2400E+03
    -18.522  0.0000E+00  0.2400E+03
    -18.410  0.0000E+00  0.2400E+03
    -18.299  0.0000E+00  0.2400E+03
    -18.187  0.0000E+00  0.2400E+03
    -18.076  0.0000E+00  0.2400E+03
    -17.964  0.0000E+00  0.2400E+03
    -17.852  0.0000E+00  0.2400E+03
    -17.741  0.0000E+00  0.2400E+03
    -17.629  0.0000E+00  0.2400E+03
    -17.517  0.0000E+00  0.2400E+03
    -17.406  0.0000E+00  0.2400E+03
    -17.294  0.0000E+00  0.2400E+03
    -17.182  0.0000E+00  0.2400E+03
    -17.071  0.0000E+00  0.2400E+03
    -16.959  0.0000E+00  0.2400E+03
    -16.848  0.0000E+00  0.2400E+03
    -16.736  0.0000E+00  0.2400E+03
    -16.624  0.0000E+00  0.2400E+03
    -16.513  0.0000E+00  0.2400E+03
    -16.401  0.0000E+00  0.2400E+03
    -16.289  0.0000E+00  0.2400E+03
    -16.178  0.0000E+00  0.2400E+03
    -16.066  0.0000E+00  0.2400E+03
    -15.954  0.0000E+00  0.2400E+03
    -15.843  0.0000E+00  0.2400E+03
    -15.731  0.0000E+00  0.2400E+03
    -15.620  0.0000E+00  0.2400E+03
    -15.508  0.0000E+00  0.2400E+03
    -15.396  0.0000E+00  0.2400E+03
    -15.285  0.0000E+00  0.2400E+03
    -15.173  0.0000E+00  0.2400E+03
    -15.061  0.0000E+00  0.2400E+03
    -14.950  0.0000E+00  0.2400E+03
    -14.838  0.0000E+00  0.2400E+03
    -14.727  0.0000E+00  0.2400E+03
    -14.615  0.0000E+00  0.2400E+03
    -14.503  0.0000E+00  0.2400E+03
    -14.392  0.0000E+00  0.2400E+03
    -14.280  0.0000E+00  0.2400E+03
    -14.168  0.0000E+00  0.2400E+03
    -14.057  0.0000E+00  0.2400E+03
    -13.945  0.0000E+00  0.2400E+03
    -13.833  0.0000E+00  0.2400E+03
    -13.722  0.0000E+00  0.2400E+03
    -13.610  0.0000E+00  0.2400E+03
    -13.499  0.0000E+00  0.2400E+03
    -13.387  0.0000E+00  0.2400E+03
    -13.275  0.0000E+00  0.2400E+03
    -13.164  0.0000E+00  0.2400E+03
    -13.052  0.0000E+00  0.2400E+03
    -12.940  0.0000E+00  0.2400E+03
    -12.829  0.0000E+00  0.2400E+03
    -12.717  0.0000E+00  0.2400E+03
    -12.605 -0.6335E-28  0.2400E+03
    -12.494 -0.3696E-24  0.2400E+03
    -12.382 -0.1159E-20  0.2400E+03
    -12.271 -0.1954E-17  0.2400E+03
    -12.159 -0.1720E-14  0.2400E+03
    -12.047 -0.8319E-12  0.2400E+03
    -11.936 -0.2155E-09  0.2400E+03
    -11.824 -0.2984E-07  0.2400E+03
    -11.712 -0.2198E-05  0.2400E+03
    -11.601 -0.8551E-04  0.2400E+03
    -11.489 -0.1733E-02  0.2400E+03
    -11.378 -0.1777E-01  0.2400E+03
    -11.266 -0.8507E-01  0.2400E+03
    -11.154 -0.1293E+00  0.2400E+03
    -11.043  0.3225E+00  0.2400E+03
    -10.931  0.1719E+01  0.2402E+03
    -10.819  0.4230E+01  0.2407E+03
    -10.708  0.8519E+01  0.2416E+03
    -10.596  0.1355E+02  0.2431E+03
    -10.484  0.1616E+02  0.2450E+03
    -10.373  0.1615E+02  0.2468E+03
    -10.261  0.1731E+02  0.2487E+03
    -10.150  0.2333E+02  0.2513E+03
    -10.038  0.3180E+02  0.2549E+03
     -9.926  0.3430E+02  0.2587E+03
     -9.815  0.3149E+02  0.2623E+03
     -9.703  0.3393E+02  0.2661E+03
     -9.591  0.4251E+02  0.2708E+03
     -9.480  0.5024E+02  0.2765E+03
     -9.368  0.5374E+02  0.2825E+03
     -9.256  0.5291E+02  0.2884E+03
     -9.145  0.4753E+02  0.2938E+03
     -9.033  0.3823E+02  0.2981E+03
     -8.922  0.2779E+02  0.3012E+03
     -8.810  0.1698E+02  0.3031E+03
     -8.698  0.6953E+01  0.3039E+03
     -8.587  0.1322E+01  0.3040E+03
     -8.475 -0.7305E-01  0.3040E+03
     -8.363 -0.1247E+00  0.3040E+03
     -8.252 -0.7040E-01  0.3040E+03
     -8.140 -0.2362E-01  0.3040E+03
     -8.028 -0.3894E-02  0.3040E+03
     -7.917 -0.3143E-03  0.3040E+03
     -7.805 -0.1272E-04  0.3040E+03
     -7.694 -0.2632E-06  0.3040E+03
     -7.582 -0.2814E-08  0.3040E+03
     -7.470 -0.1566E-10  0.3040E+03
     -7.359 -0.4556E-13  0.3040E+03
     -7.247 -0.7855E-16  0.3040E+03
     -7.135  0.0000E+00  0.3040E+03
     -7.024  0.0000E+00  0.3040E+03
     -6.912  0.0000E+00  0.3040E+03
     -6.801  0.0000E+00  0.3040E+03
     -6.689  0.0000E+00  0.3040E+03
     -6.577  0.0000E+00  0.3040E+03
     -6.466  0.0000E+00  0.3040E+03
     -6.354  0.0000E+00  0.3040E+03
     -6.242  0.0000E+00  0.3040E+03
     -6.131  0.0000E+00  0.3040E+03
     -6.019  0.0000E+00  0.3040E+03
     -5.907  0.0000E+00  0.3040E+03
     -5.796  0.0000E+00  0.3040E+03
     -5.684  0.0000E+00  0.3040E+03
     -5.573  0.0000E+00  0.3040E+03
     -5.461  0.0000E+00  0.3040E+03
     -5.349  0.0000E+00  0.3040E+03
     -5.238 -0.1782E-28  0.3040E+03
     -5.126 -0.1119E-24  0.3040E+03
     -5.014 -0.3766E-21  0.3040E+03
     -4.903 -0.6794E-18  0.3040E+03
     -4.791 -0.6469E-15  0.3040E+03
     -4.679 -0.3288E-12  0.3040E+03
     -4.568 -0.9048E-10  0.3040E+03
     -4.456 -0.1328E-07  0.3040E+03
     -4.345 -0.1038E-05  0.3040E+03
     -4.233 -0.4291E-04  0.3040E+03
     -4.121 -0.9320E-03  0.3040E+03
     -4.010 -0.1047E-01  0.3040E+03
     -3.898 -0.5876E-01  0.3040E+03
     -3.786 -0.1450E+00  0.3040E+03
     -3.675 -0.6887E-02  0.3040E+03
     -3.563  0.1014E+01  0.3041E+03
     -3.452  0.3996E+01  0.3045E+03
     -3.340  0.9831E+01  0.3056E+03
     -3.228  0.1654E+02  0.3075E+03
     -3.117  0.1950E+02  0.3097E+03
     -3.005  0.1880E+02  0.3118E+03
     -2.893  0.2016E+02  0.3140E+03
     -2.782  0.2249E+02  0.3166E+03
     -2.670  0.1866E+02  0.3187E+03
     -2.558  0.9765E+01  0.3198E+03
     -2.447  0.2642E+01  0.3201E+03
     -2.335 -0.1948E+00  0.3200E+03
     -2.224 -0.6437E+00  0.3200E+03
     -2.112 -0.2343E+00  0.3199E+03
     -2.000  0.1946E+01  0.3202E+03
     -1.889  0.7683E+01  0.3210E+03
     -1.777  0.1734E+02  0.3230E+03
     -1.665  0.2942E+02  0.3263E+03
     -1.554  0.4093E+02  0.3308E+03
     -1.442  0.4895E+02  0.3363E+03
     -1.330  0.5370E+02  0.3424E+03
     -1.219  0.5590E+02  0.3486E+03
     -1.107  0.5395E+02  0.3547E+03
     -0.996  0.4815E+02  0.3601E+03
     -0.884  0.4090E+02  0.3647E+03
     -0.772  0.3508E+02  0.3686E+03
     -0.661  0.3569E+02  0.3726E+03
     -0.549  0.4273E+02  0.3774E+03
     -0.437  0.5009E+02  0.3830E+03
     -0.326  0.5566E+02  0.3893E+03
     -0.214  0.6061E+02  0.3961E+03
     -0.103  0.6506E+02  0.4034E+03
      0.009  0.6932E+02  0.4111E+03
      0.121  0.7277E+02  0.4193E+03