       N       E                     dE             d eps       ncg     rms          rms(c)
DAV:   1     0.479997296424E+04    0.48000E+04   -0.20267E+05   648   0.141E+03
DAV:   2     0.374095753024E+03   -0.44259E+04   -0.42585E+04   640   0.403E+02
DAV:   3    -0.284099068744E+03   -0.65819E+03   -0.64921E+03   708   0.168E+02
DAV:   4    -0.326294604898E+03   -0.42196E+02   -0.41969E+02   688   0.389E+01
DAV:   5    -0.328152878077E+03   -0.18583E+01   -0.18559E+01   856   0.850E+00    0.269E+01
RMM:   6    -0.309591864496E+03    0.18561E+02   -0.31900E+01   645   0.590E+00    0.180E+01
RMM:   7    -0.308640678758E+03    0.95119E+00   -0.40719E+01   626   0.557E+00    0.105E+01
RMM:   8    -0.308913517237E+03   -0.27284E+00   -0.96774E+00   611   0.402E+00    0.529E+00
RMM:   9    -0.308167229579E+03    0.74629E+00   -0.16063E+00   664   0.207E+00    0.874E-01
RMM:  10    -0.308301495591E+03   -0.13427E+00   -0.11241E+00   699   0.117E+00    0.238E+00
RMM:  11    -0.308226962224E+03    0.74533E-01   -0.15099E-01   642   0.621E-01    0.957E-01
RMM:  12    -0.308221621934E+03    0.53403E-02   -0.64799E-02   692   0.344E-01    0.180E-01
RMM:  13    -0.308222900809E+03   -0.12789E-02   -0.24710E-02   845   0.211E-01    0.212E-01
RMM:  14    -0.308223027018E+03   -0.12621E-03   -0.12038E-03   625   0.617E-02    0.264E-01
RMM:  15    -0.308222877708E+03    0.14931E-03   -0.26595E-04   647   0.305E-02    0.239E-01
RMM:  16    -0.308222799517E+03    0.78191E-04   -0.10728E-04   530   0.163E-02    0.195E-01
RMM:  17    -0.308222721723E+03    0.77794E-04   -0.87707E-04   690   0.329E-02    0.481E-02
RMM:  18    -0.308222783364E+03   -0.61641E-04   -0.28865E-04   661   0.187E-02    0.189E-01
RMM:  19    -0.308222793619E+03   -0.10255E-04   -0.34859E-05   482   0.103E-02    0.162E-01
RMM:  20    -0.308222796365E+03   -0.27460E-05   -0.52626E-06   352   0.464E-03
      1 T=  1000. E= -.29801106E+03 F= -.30822280E+03 E0= -.30828723E+03  EK= 0.10212E+02 SP= 0.00E+00 SK= 0.00E+00
       N       E                     dE             d eps       ncg     rms          rms(c)
DAV:   1    -0.307959017541E+03    0.26378E+00   -0.69325E+01   680   0.147E+01    0.305E+00
RMM:   2    -0.308122148572E+03   -0.16313E+00   -0.18097E+00   784   0.310E+00    0.880E-01
RMM:   3    -0.308143367038E+03   -0.21218E-01   -0.28377E-01   638   0.139E+00    0.688E-01
RMM:   4    -0.308147227015E+03   -0.38600E-02   -0.83195E-02   846   0.670E-01    0.534E-01
RMM:   5    -0.308145489908E+03    0.17371E-02   -0.67537E-03   668   0.168E-01    0.355E-01
RMM:   6    -0.308145200501E+03    0.28941E-03   -0.56996E-03   652   0.115E-01    0.109E-01
RMM:   7    -0.308145235568E+03   -0.35066E-04   -0.11313E-03   787   0.686E-02    0.575E-02
RMM:   8    -0.308145195043E+03    0.40525E-04   -0.27383E-04   605   0.293E-02    0.273E-02
RMM:   9    -0.308145193457E+03    0.15854E-05   -0.46088E-05   518   0.191E-02
      2 T=   992. E= -.29801126E+03 F= -.30814519E+03 E0= -.30820694E+03  EK= 0.10134E+02 SP= 0.36E-05 SK= 0.10E-09
       N       E                     dE             d eps       ncg     rms          rms(c)
DAV:   1    -0.307901383658E+03    0.24381E+00   -0.43860E-01   848   0.337E+00    0.893E-01
RMM:   2    -0.307912964107E+03   -0.11580E-01   -0.11954E-01   600   0.729E-01    0.132E-01
RMM:   3    -0.307915009536E+03   -0.20454E-02   -0.20816E-02   799   0.324E-01    0.302E-01
RMM:   4    -0.307915279048E+03   -0.26951E-03   -0.34523E-03   745   0.139E-01    0.256E-01
RMM:   5    -0.307915341360E+03   -0.62312E-04   -0.70491E-04   907   0.556E-02    0.252E-01
RMM:   6    -0.307915348644E+03   -0.72836E-05   -0.42118E-05   403   0.133E-02
      3 T=   970. E= -.29801091E+03 F= -.30791535E+03 E0= -.30797275E+03  EK= 0.99063E+01 SP= -.19E-02 SK= 0.29E-04
       N       E                     dE             d eps       ncg     rms          rms(c)
DAV:   1    -0.307527914734E+03    0.38743E+00   -0.61083E-01   816   0.295E+00    0.104E+00
RMM:   2    -0.307544695193E+03   -0.16780E-01   -0.17659E-01   620   0.768E-01    0.591E-01
RMM:   3    -0.307547796160E+03   -0.31010E-02   -0.34419E-02   792   0.381E-01    0.720E-01
RMM:   4    -0.307548290549E+03   -0.49439E-03   -0.60808E-03   648   0.173E-01    0.211E-01
RMM:   5    -0.307548408540E+03   -0.11799E-03   -0.30575E-03   865   0.104E-01    0.286E-01
RMM:   6    -0.307548077071E+03    0.33147E-03   -0.69550E-04   630   0.469E-02    0.148E-01
RMM:   7    -0.307548060256E+03    0.16815E-04   -0.10327E-03   546   0.401E-02    0.375E-02
RMM:   8    -0.307548042102E+03    0.18154E-04   -0.10678E-04   548   0.231E-02    0.258E-02
RMM:   9    -0.307548050383E+03   -0.82812E-05   -0.65272E-05   552   0.131E-02
      4 T=   935. E= -.29800986E+03 F= -.30754805E+03 E0= -.30759872E+03  EK= 0.95490E+01 SP= -.11E-01 SK= 0.45E-03
       N       E                     dE             d eps       ncg     rms          rms(c)
DAV:   1    -0.307055220259E+03    0.49282E+00   -0.19453E-01   920   0.247E+00    0.131E+00
RMM:   2    -0.307063597548E+03   -0.83773E-02   -0.90794E-02   636   0.568E-01    0.498E-01
RMM:   3    -0.307065380866E+03   -0.17833E-02   -0.20629E-02   792   0.282E-01    0.260E-01
RMM:   4    -0.307065581634E+03   -0.20077E-03   -0.32548E-03   720   0.125E-01    0.130E-01
RMM:   5    -0.307065582937E+03   -0.13036E-05   -0.10789E-03   831   0.604E-02    0.738E-02
RMM:   6    -0.307065545696E+03    0.37242E-04   -0.10791E-04   601   0.204E-02    0.378E-02
RMM:   7    -0.307065544319E+03    0.13765E-05   -0.12656E-04   528   0.144E-02    0.151E-02
RMM:   8    -0.307065542175E+03    0.21444E-05   -0.13545E-05   390   0.822E-03
      5 T=   890. E= -.29800794E+03 F= -.30706554E+03 E0= -.30710636E+03  EK= 0.90920E+01 SP= -.37E-01 SK= 0.26E-02
       N       E                     dE             d eps       ncg     rms          rms(c)
DAV:   1    -0.306492857944E+03    0.57269E+00   -0.11464E-01   936   0.239E+00    0.507E-01
RMM:   2    -0.306497957712E+03   -0.50998E-02   -0.72474E-02   649   0.515E-01    0.215E-01
RMM:   3    -0.306498658074E+03   -0.70036E-03   -0.17285E-02   792   0.257E-01    0.267E-01
RMM:   4    -0.306498634269E+03    0.23805E-04   -0.25660E-03   765   0.109E-01    0.175E-01
RMM:   5    -0.306498142088E+03    0.49218E-03   -0.96831E-04   680   0.533E-02    0.479E-02
RMM:   6    -0.306497970624E+03    0.17146E-03   -0.45210E-04   759   0.311E-02    0.448E-02
RMM:   7    -0.306497917312E+03    0.53312E-04   -0.98300E-05   631   0.157E-02    0.255E-02
RMM:   8    -0.306497889572E+03    0.27741E-04   -0.48434E-05   544   0.105E-02    0.132E-02
RMM:   9    -0.306497879575E+03    0.99965E-05   -0.21136E-05   401   0.736E-03
      6 T=   839. E= -.29800609E+03 F= -.30649788E+03 E0= -.30653432E+03  EK= 0.85722E+01 SP= -.90E-01 SK= 0.97E-02
       N       E                     dE             d eps       ncg     rms          rms(c)
DAV:   1    -0.305875036065E+03    0.62285E+00   -0.88904E-02   928   0.205E+00    0.445E-01
RMM:   2    -0.305880003968E+03   -0.49679E-02   -0.49709E-02   663   0.411E-01    0.764E-02
RMM:   3    -0.305880975408E+03   -0.97144E-03   -0.10498E-02   792   0.205E-01    0.169E-01
RMM:   4    -0.305881107877E+03   -0.13247E-03   -0.16828E-03   818   0.836E-02    0.132E-01
RMM:   5    -0.305881091035E+03    0.16842E-04   -0.17793E-04   726   0.234E-02    0.895E-02
RMM:   6    -0.305881067951E+03    0.23084E-04   -0.26996E-05   413   0.100E-02    0.497E-02
RMM:   7    -0.305881044357E+03    0.23594E-04   -0.32993E-05   461   0.847E-03    0.111E-02
RMM:   8    -0.305881040299E+03    0.40578E-05   -0.15339E-05   398   0.623E-03
      7 T=   787. E= -.29800405E+03 F= -.30588104E+03 E0= -.30591532E+03  EK= 0.80335E+01 SP= -.18E+00 SK= 0.27E-01
       N       E                     dE             d eps       ncg     rms          rms(c)
DAV:   1    -0.305246967441E+03    0.63408E+00   -0.58413E-02   936   0.192E+00    0.326E-01
RMM:   2    -0.305251331974E+03   -0.43645E-02   -0.41885E-02   676   0.361E-01    0.773E-02
RMM:   3    -0.305252100082E+03   -0.76811E-03   -0.79459E-03   792   0.178E-01    0.147E-01
RMM:   4    -0.305252227180E+03   -0.12710E-03   -0.13939E-03   825   0.744E-02    0.123E-01
RMM:   5    -0.305252228318E+03   -0.11376E-05   -0.99139E-05   647   0.183E-02
      8 T=   736. E= -.29800227E+03 F= -.30525223E+03 E0= -.30528514E+03  EK= 0.75184E+01 SP= -.33E+00 SK= 0.62E-01
       N       E                     dE             d eps       ncg     rms          rms(c)
DAV:   1    -0.304638988309E+03    0.61324E+00   -0.49373E-02   920   0.183E+00    0.106E-01
RMM:   2    -0.304642701039E+03   -0.37127E-02   -0.34985E-02   680   0.327E-01    0.185E-01
RMM:   3    -0.304643353290E+03   -0.65225E-03   -0.66837E-03   792   0.161E-01    0.250E-01
RMM:   4    -0.304643466664E+03   -0.11337E-03   -0.11349E-03   831   0.666E-02    0.244E-01
RMM:   5    -0.304643468215E+03   -0.15508E-05   -0.72412E-05   572   0.158E-02
      9 T=   692. E= -.29800071E+03 F= -.30464347E+03 E0= -.30467547E+03  EK= 0.70632E+01 SP= -.54E+00 SK= 0.12E+00
       N       E                     dE             d eps       ncg     rms          rms(c)
DAV:   1    -0.304074624285E+03    0.56884E+00   -0.42505E-02   900   0.178E+00    0.105E-01
RMM:   2    -0.304077666419E+03   -0.30421E-02   -0.29004E-02   691   0.304E-01    0.237E-01
RMM:   3    -0.304078189884E+03   -0.52347E-03   -0.53391E-03   792   0.146E-01    0.307E-01
RMM:   4    -0.304078241200E+03   -0.51316E-04   -0.92456E-04   825   0.596E-02    0.312E-01
RMM:   5    -0.304078284081E+03   -0.42881E-04   -0.18770E-04   705   0.316E-02    0.333E-01
RMM:   6    -0.304078335930E+03   -0.51849E-04   -0.24691E-04   672   0.365E-02    0.395E-01
RMM:   7    -0.304078454445E+03   -0.11852E-03   -0.13971E-04   648   0.245E-02    0.459E-01
RMM:   8    -0.304078465813E+03   -0.11368E-04   -0.30858E-05   428   0.103E-02    0.523E-01
RMM:   9    -0.304078557934E+03   -0.92121E-04   -0.44590E-05   488   0.143E-02    0.606E-01
RMM:  10    -0.304078648544E+03   -0.90610E-04   -0.35018E-05   489   0.108E-02    0.677E-01
RMM:  11    -0.304078512465E+03    0.13608E-03   -0.42860E-05   480   0.158E-02    0.576E-01
RMM:  12    -0.304078599748E+03   -0.87282E-04   -0.17573E-05   367   0.103E-02    0.639E-01
RMM:  13    -0.304078447624E+03    0.15212E-03   -0.61259E-05   658   0.179E-02    0.526E-01
RMM:  14    -0.304078245418E+03    0.20221E-03   -0.28228E-04   730   0.321E-02    0.298E-01
RMM:  15    -0.304078204561E+03    0.40856E-04   -0.54519E-05   599   0.141E-02    0.218E-01
RMM:  16    -0.304078190044E+03    0.14517E-04   -0.94351E-06   354   0.681E-03    0.177E-01
RMM:  17    -0.304078186659E+03    0.33847E-05   -0.25559E-06   318   0.371E-03
     10 T=   656. E= -.29799951E+03 F= -.30407819E+03 E0= -.30410950E+03  EK= 0.66946E+01 SP= -.83E+00 SK= 0.22E+00
       N       E                     dE             d eps       ncg     rms          rms(c)
DAV:   1    -0.303568399872E+03    0.50979E+00   -0.25779E-02   928   0.177E+00    0.434E-01
RMM:   2    -0.303570783965E+03   -0.23841E-02   -0.25961E-02   698   0.297E-01    0.124E-01
RMM:   3    -0.303571205432E+03   -0.42147E-03   -0.48605E-03   792   0.135E-01    0.874E-02
RMM:   4    -0.303571161137E+03    0.44295E-04   -0.86422E-04   748   0.593E-02    0.563E-02
RMM:   5    -0.303571118958E+03    0.42179E-04   -0.18996E-04   611   0.244E-02    0.148E-02
RMM:   6    -0.303571113157E+03    0.58008E-05   -0.58322E-05   539   0.132E-02
     11 T=   630. E= -.29799898E+03 F= -.30357111E+03 E0= -.30360200E+03  EK= 0.64298E+01 SP= -.12E+01 SK= 0.35E+00
       N       E                     dE             d eps       ncg     rms          rms(c)
DAV:   1    -0.303124442550E+03    0.44668E+00   -0.28094E-02   920   0.171E+00    0.376E-01
RMM:   2    -0.303126696710E+03   -0.22542E-02   -0.22230E-02   700   0.258E-01    0.886E-02
RMM:   3    -0.303127048776E+03   -0.35207E-03   -0.37515E-03   800   0.122E-01    0.523E-02
RMM:   4    -0.303127107707E+03   -0.58931E-04   -0.69782E-04   784   0.512E-02    0.408E-02
RMM:   5    -0.303127094592E+03    0.13114E-04   -0.74656E-05   585   0.155E-02    0.161E-02
RMM:   6    -0.303127094500E+03    0.92848E-07   -0.13279E-05   380   0.762E-03
     12 T=   615. E= -.29799853E+03 F= -.30312709E+03 E0= -.30315767E+03  EK= 0.62780E+01 SP= -.17E+01 SK= 0.53E+00
       N       E                     dE             d eps       ncg     rms          rms(c)
DAV:   1    -0.302741060046E+03    0.38603E+00   -0.22205E-02   928   0.171E+00    0.141E-01
RMM:   2    -0.302743155472E+03   -0.20954E-02   -0.19874E-02   702   0.249E-01    0.962E-02
RMM:   3    -0.302743481282E+03   -0.32581E-03   -0.33313E-03   795   0.114E-01    0.121E-01
RMM:   4    -0.302743539196E+03   -0.57914E-04   -0.59480E-04   799   0.481E-02    0.114E-01
RMM:   5    -0.302743538490E+03    0.70558E-06   -0.40840E-05   439   0.126E-02
     13 T=   611. E= -.29799820E+03 F= -.30274354E+03 E0= -.30277393E+03  EK= 0.62413E+01 SP= -.22E+01 SK= 0.75E+00
       N       E                     dE             d eps       ncg     rms          rms(c)
DAV:   1    -0.302410365390E+03    0.33317E+00   -0.28940E-02   908   0.173E+00    0.255E-01
RMM:   2    -0.302412523266E+03   -0.21579E-02   -0.20675E-02   694   0.255E-01    0.694E-02
RMM:   3    -0.302412881959E+03   -0.35869E-03   -0.38983E-03   796   0.121E-01    0.863E-02
RMM:   4    -0.302412911188E+03   -0.29229E-04   -0.63799E-04   781   0.503E-02    0.658E-02
RMM:   5    -0.302412914619E+03   -0.34308E-05   -0.68280E-05   553   0.146E-02
     14 T=   619. E= -.29799745E+03 F= -.30241291E+03 E0= -.30244335E+03  EK= 0.63191E+01 SP= -.29E+01 SK= 0.10E+01
       N       E                     dE             d eps       ncg     rms          rms(c)
DAV:   1    -0.302121641812E+03    0.29127E+00   -0.32929E-02   904   0.173E+00    0.197E-01
RMM:   2    -0.302124090263E+03   -0.24485E-02   -0.23420E-02   693   0.255E-01    0.686E-02
RMM:   3    -0.302124438012E+03   -0.34775E-03   -0.40290E-03   797   0.123E-01    0.927E-02
RMM:   4    -0.302124487986E+03   -0.49975E-04   -0.65840E-04   798   0.507E-02    0.821E-02
RMM:   5    -0.302124486659E+03    0.13271E-05   -0.55711E-05   493   0.134E-02
     15 T=   637. E= -.29799662E+03 F= -.30212449E+03 E0= -.30215515E+03  EK= 0.65078E+01 SP= -.37E+01 SK= 0.13E+01
       N       E                     dE             d eps       ncg     rms          rms(c)
DAV:   1    -0.301863279942E+03    0.26121E+00   -0.33129E-02   896   0.174E+00    0.157E-01
RMM:   2    -0.301865761095E+03   -0.24812E-02   -0.23542E-02   688   0.260E-01    0.100E-01
RMM:   3    -0.301866163736E+03   -0.40264E-03   -0.43328E-03   796   0.126E-01    0.137E-01
RMM:   4    -0.301866223965E+03   -0.60229E-04   -0.63735E-04   794   0.505E-02    0.117E-01
RMM:   5    -0.301866222100E+03    0.18655E-05   -0.64418E-05   532   0.145E-02
     16 T=   666. E= -.29799587E+03 F= -.30186622E+03 E0= -.30189729E+03  EK= 0.68040E+01 SP= -.45E+01 SK= 0.16E+01
       N       E                     dE             d eps       ncg     rms          rms(c)
DAV:   1    -0.301622509141E+03    0.24371E+00   -0.26155E-02   912   0.175E+00    0.232E-01
RMM:   2    -0.301624961578E+03   -0.24524E-02   -0.24089E-02   689   0.259E-01    0.695E-02
RMM:   3    -0.301625348827E+03   -0.38725E-03   -0.42153E-03   794   0.125E-01    0.989E-02
RMM:   4    -0.301625402936E+03   -0.54109E-04   -0.63489E-04   805   0.513E-02    0.781E-02
RMM:   5    -0.301625399859E+03    0.30771E-05   -0.72038E-05   575   0.141E-02
     17 T=   705. E= -.29799545E+03 F= -.30162540E+03 E0= -.30165720E+03  EK= 0.72037E+01 SP= -.55E+01 SK= 0.19E+01
       N       E                     dE             d eps       ncg     rms          rms(c)
DAV:   1    -0.301385823709E+03    0.23958E+00   -0.18121E-02   940   0.186E+00    0.213E-01
RMM:   2    -0.301387948814E+03   -0.21251E-02   -0.20117E-02   673   0.250E-01    0.527E-02
RMM:   3    -0.301388310580E+03   -0.36177E-03   -0.38189E-03   797   0.122E-01    0.886E-02
RMM:   4    -0.301388361335E+03   -0.50755E-04   -0.59106E-04   807   0.494E-02    0.717E-02
RMM:   5    -0.301388359506E+03    0.18287E-05   -0.46511E-05   496   0.129E-02
     18 T=   754. E= -.29799442E+03 F= -.30138836E+03 E0= -.30142132E+03  EK= 0.77029E+01 SP= -.65E+01 SK= 0.22E+01
       N       E                     dE             d eps       ncg     rms          rms(c)
DAV:   1    -0.301140956389E+03    0.24740E+00   -0.21905E-02   952   0.192E+00    0.162E-01
RMM:   2    -0.301143337958E+03   -0.23816E-02   -0.22363E-02   670   0.258E-01    0.810E-02
RMM:   3    -0.301143737594E+03   -0.39964E-03   -0.42147E-03   798   0.125E-01    0.115E-01
RMM:   4    -0.301143787884E+03   -0.50290E-04   -0.58741E-04   798   0.502E-02    0.965E-02
RMM:   5    -0.301143787184E+03    0.70031E-06   -0.61653E-05   528   0.144E-02
     19 T=   812. E= -.29799347E+03 F= -.30114379E+03 E0= -.30117819E+03  EK= 0.82969E+01 SP= -.75E+01 SK= 0.24E+01
       N       E                     dE             d eps       ncg     rms          rms(c)
DAV:   1    -0.300877630558E+03    0.26616E+00   -0.36422E-02   920   0.195E+00    0.207E-01
RMM:   2    -0.300880491799E+03   -0.28612E-02   -0.27786E-02   673   0.285E-01    0.101E-01
RMM:   3    -0.300880947075E+03   -0.45528E-03   -0.49944E-03   797   0.137E-01    0.139E-01
RMM:   4    -0.300880998868E+03   -0.51794E-04   -0.67069E-04   787   0.538E-02    0.101E-01
RMM:   5    -0.300880995990E+03    0.28782E-05   -0.10272E-04   634   0.177E-02    0.624E-02
RMM:   6    -0.300880991529E+03    0.44610E-05   -0.16300E-05   365   0.785E-03
     20 T=   879. E= -.29799280E+03 F= -.30088099E+03 E0= -.30091653E+03  EK= 0.89791E+01 SP= -.87E+01 SK= 0.26E+01
       N       E                     dE             d eps       ncg     rms          rms(c)
DAV:   1    -0.300585835516E+03    0.29516E+00   -0.51529E-02   920   0.203E+00    0.462E-01
RMM:   2    -0.300589042935E+03   -0.32074E-02   -0.31842E-02   662   0.304E-01    0.756E-02
RMM:   3    -0.300589667026E+03   -0.62409E-03   -0.66184E-03   796   0.152E-01    0.726E-02
RMM:   4    -0.300589728071E+03   -0.61045E-04   -0.80898E-04   792   0.589E-02    0.413E-02
RMM:   5    -0.300589733475E+03   -0.54045E-05   -0.10750E-04   632   0.181E-02    0.277E-02
RMM:   6    -0.300589732876E+03    0.59958E-06   -0.79434E-06   352   0.670E-03
     21 T=   954. E= -.29799276E+03 F= -.30058973E+03 E0= -.30062687E+03  EK= 0.97391E+01 SP= -.98E+01 SK= 0.27E+01
       N       E                     dE             d eps       ncg     rms          rms(c)
DAV:   1    -0.300251328900E+03    0.33840E+00   -0.44988E-02   920   0.214E+00    0.253E-01
RMM:   2    -0.300255027358E+03   -0.36985E-02   -0.36902E-02   671   0.318E-01    0.105E-01
RMM:   3    -0.300255634821E+03   -0.60746E-03   -0.72016E-03   792   0.156E-01    0.159E-01
RMM:   4    -0.300255691580E+03   -0.56759E-04   -0.92894E-04   815   0.624E-02    0.124E-01
RMM:   5    -0.300255654352E+03    0.37228E-04   -0.12890E-04   685   0.196E-02    0.862E-02
RMM:   6    -0.300255553376E+03    0.10098E-03   -0.90369E-05   529   0.122E-02    0.250E-02
RMM:   7    -0.300255467173E+03    0.86202E-04   -0.15804E-04   522   0.126E-02    0.377E-02
RMM:   8    -0.300255436267E+03    0.30907E-04   -0.49422E-05   552   0.846E-03    0.367E-02
RMM:   9    -0.300255435129E+03    0.11378E-05   -0.31635E-06   346   0.400E-03
     22 T=  1034. E= -.29799404E+03 F= -.30025544E+03 E0= -.30030108E+03  EK= 0.10555E+02 SP= -.11E+02 SK= 0.27E+01
       N       E                     dE             d eps       ncg     rms          rms(c)
DAV:   1    -0.299858411905E+03    0.39702E+00   -0.54597E-02   928   0.226E+00    0.511E-01
RMM:   2    -0.299859909578E+03   -0.14977E-02   -0.49467E-02   663   0.353E-01    0.151E-01
RMM:   3    -0.299859804165E+03    0.10541E-03   -0.10051E-02   786   0.182E-01    0.100E-01
RMM:   4    -0.299859847070E+03   -0.42905E-04   -0.13289E-03   785   0.723E-02    0.690E-02
RMM:   5    -0.299859837464E+03    0.96062E-05   -0.23691E-04   702   0.248E-02    0.429E-02
RMM:   6    -0.299859831216E+03    0.62484E-05   -0.44376E-05   495   0.107E-02
     23 T=  1116. E= -.29799360E+03 F= -.29985983E+03 E0= -.29991472E+03  EK= 0.11397E+02 SP= -.12E+02 SK= 0.26E+01
       N       E                     dE             d eps       ncg     rms          rms(c)
DAV:   1    -0.299404596704E+03    0.45524E+00   -0.15650E-01   888   0.234E+00    0.550E-01
RMM:   2    -0.299405697811E+03   -0.11011E-02   -0.72011E-02   649   0.410E-01    0.368E-01
RMM:   3    -0.299399203048E+03    0.64948E-02   -0.13562E-02   761   0.225E-01    0.251E-01
RMM:   4    -0.299398174673E+03    0.10284E-02   -0.38308E-03   815   0.988E-02    0.168E-01
RMM:   5    -0.299398087242E+03    0.87431E-04   -0.62981E-04   725   0.376E-02    0.126E-01
RMM:   6    -0.299398010926E+03    0.76316E-04   -0.15385E-04   560   0.182E-02    0.796E-02
RMM:   7    -0.299397948396E+03    0.62530E-04   -0.14295E-04   532   0.159E-02    0.370E-02
RMM:   8    -0.299397927183E+03    0.21214E-04   -0.15642E-04   606   0.140E-02    0.229E-02
RMM:   9    -0.299397917309E+03    0.98732E-05   -0.27045E-05   475   0.804E-03
     24 T=  1198. E= -.29799607E+03 F= -.29939792E+03 E0= -.29945361E+03  EK= 0.12231E+02 SP= -.13E+02 SK= 0.24E+01
       N       E                     dE             d eps       ncg     rms          rms(c)
DAV:   1    -0.298861359263E+03    0.53657E+00   -0.10544E-01   896   0.230E+00    0.590E-01
RMM:   2    -0.298861413314E+03   -0.54050E-04   -0.64657E-02   663   0.405E-01    0.300E-01
RMM:   3    -0.298859468663E+03    0.19447E-02   -0.13388E-02   775   0.212E-01    0.196E-01
RMM:   4    -0.298858949658E+03    0.51901E-03   -0.23912E-03   741   0.886E-02    0.142E-01
RMM:   5    -0.298858869488E+03    0.80170E-04   -0.46340E-04   769   0.347E-02    0.129E-01
RMM:   6    -0.298858667884E+03    0.20160E-03   -0.25043E-04   534   0.214E-02    0.532E-02
RMM:   7    -0.298858545284E+03    0.12260E-03   -0.25335E-04   558   0.193E-02    0.257E-02
RMM:   8    -0.298858541041E+03    0.42428E-05   -0.62458E-05   589   0.114E-02
     25 T=  1274. E= -.29800017E+03 F= -.29885854E+03 E0= -.29891348E+03  EK= 0.13013E+02 SP= -.14E+02 SK= 0.21E+01
       N       E                     dE             d eps       ncg     rms          rms(c)
DAV:   1    -0.298221134082E+03    0.63741E+00   -0.48698E-02   936   0.239E+00    0.407E-01
RMM:   2    -0.298226220718E+03   -0.50866E-02   -0.49420E-02   659   0.383E-01    0.142E-01
RMM:   3    -0.298227203925E+03   -0.98321E-03   -0.11099E-02   797   0.195E-01    0.211E-01
RMM:   4    -0.298226730632E+03    0.47329E-03   -0.15048E-03   725   0.763E-02    0.151E-01
RMM:   5    -0.298226735978E+03   -0.53465E-05   -0.30022E-04   746   0.284E-02    0.134E-01
RMM:   6    -0.298226707170E+03    0.28808E-04   -0.41056E-05   487   0.111E-02    0.102E-01
RMM:   7    -0.298226661457E+03    0.45713E-04   -0.84618E-05   485   0.121E-02    0.226E-02
RMM:   8    -0.298226651292E+03    0.10165E-04   -0.64133E-05   509   0.961E-03    0.326E-02
RMM:   9    -0.298226649330E+03    0.19615E-05   -0.94774E-06   372   0.565E-03
     26 T=  1341. E= -.29800480E+03 F= -.29822665E+03 E0= -.29827728E+03  EK= 0.13689E+02 SP= -.15E+02 SK= 0.18E+01
       N       E                     dE             d eps       ncg     rms          rms(c)
DAV:   1    -0.297488782399E+03    0.73787E+00   -0.58715E-02   936   0.246E+00    0.541E-01
RMM:   2    -0.297493329455E+03   -0.45471E-02   -0.52143E-02   658   0.400E-01    0.133E-01
RMM:   3    -0.297494370180E+03   -0.10407E-02   -0.13083E-02   795   0.208E-01    0.186E-01
RMM:   4    -0.297493982589E+03    0.38759E-03   -0.17637E-03   726   0.825E-02    0.134E-01
RMM:   5    -0.297493956201E+03    0.26388E-04   -0.38322E-04   745   0.310E-02    0.105E-01
RMM:   6    -0.297493865255E+03    0.90946E-04   -0.90359E-05   541   0.146E-02    0.582E-02
RMM:   7    -0.297493787681E+03    0.77574E-04   -0.11354E-04   534   0.128E-02    0.153E-02
RMM:   8    -0.297493767714E+03    0.19967E-04   -0.75341E-05   564   0.100E-02    0.206E-02
RMM:   9    -0.297493765494E+03    0.22201E-05   -0.15632E-05   383   0.632E-03
     27 T=  1391. E= -.29800910E+03 F= -.29749377E+03 E0= -.29754108E+03  EK= 0.14206E+02 SP= -.16E+02 SK= 0.15E+01
       N       E                     dE             d eps       ncg     rms          rms(c)
DAV:   1    -0.296655850610E+03    0.83792E+00   -0.68620E-02   936   0.250E+00    0.410E-01
RMM:   2    -0.296661625447E+03   -0.57748E-02   -0.52822E-02   651   0.414E-01    0.102E-01
RMM:   3    -0.296662874137E+03   -0.12487E-02   -0.12555E-02   798   0.212E-01    0.220E-01
RMM:   4    -0.296662920843E+03   -0.46706E-04   -0.16557E-03   793   0.799E-02    0.198E-01
RMM:   5    -0.296662921537E+03   -0.69349E-06   -0.15167E-04   710   0.216E-02    0.186E-01
RMM:   6    -0.296662919166E+03    0.23711E-05   -0.12878E-05   363   0.794E-03
     28 T=  1422. E= -.29801180E+03 F= -.29666292E+03 E0= -.29670701E+03  EK= 0.14525E+02 SP= -.17E+02 SK= 0.12E+01
       N       E                     dE             d eps       ncg     rms          rms(c)
DAV:   1    -0.295746574393E+03    0.91635E+00   -0.73769E-02   936   0.261E+00    0.210E-01
RMM:   2    -0.295752780730E+03   -0.62063E-02   -0.57717E-02   649   0.433E-01    0.256E-01
RMM:   3    -0.295753996674E+03   -0.12159E-02   -0.13140E-02   797   0.217E-01    0.359E-01
RMM:   4    -0.295754191593E+03   -0.19492E-03   -0.20061E-03   832   0.841E-02    0.354E-01
RMM:   5    -0.295754193375E+03   -0.17821E-05   -0.12509E-04   704   0.206E-02    0.346E-01
RMM:   6    -0.295754197420E+03   -0.40446E-05   -0.30082E-05   469   0.925E-03
     29 T=  1433. E= -.29801288E+03 F= -.29575420E+03 E0= -.29579311E+03  EK= 0.14631E+02 SP= -.18E+02 SK= 0.85E+00
       N       E                     dE             d eps       ncg     rms          rms(c)
DAV:   1    -0.294797587023E+03    0.95661E+00   -0.74690E-02   920   0.265E+00    0.741E-01
RMM:   2    -0.294804400946E+03   -0.68139E-02   -0.65121E-02   654   0.456E-01    0.287E-01
RMM:   3    -0.294806402298E+03   -0.20014E-02   -0.16914E-02   800   0.237E-01    0.287E-01
RMM:   4    -0.294805590368E+03    0.81193E-03   -0.26680E-03   715   0.957E-02    0.190E-01
RMM:   5    -0.294805581714E+03    0.86541E-05   -0.63198E-04   749   0.410E-02    0.878E-02
RMM:   6    -0.294805492426E+03    0.89288E-04   -0.18919E-04   597   0.205E-02    0.287E-02
RMM:   7    -0.294805485003E+03    0.74231E-05   -0.46797E-05   545   0.111E-02
     30 T=  1424. E= -.29801045E+03 F= -.29480549E+03 E0= -.29483903E+03  EK= 0.14544E+02 SP= -.18E+02 SK= 0.59E+00
       N       E                     dE             d eps       ncg     rms          rms(c)
DAV:   1    -0.293868344745E+03    0.93715E+00   -0.90357E-02   920   0.268E+00    0.851E-01
RMM:   2    -0.293875577750E+03   -0.72330E-02   -0.79603E-02   652   0.501E-01    0.238E-01
RMM:   3    -0.293877029085E+03   -0.14513E-02   -0.19545E-02   797   0.259E-01    0.239E-01
RMM:   4    -0.293876799348E+03    0.22974E-03   -0.27261E-03   732   0.100E-01    0.194E-01
RMM:   5    -0.293876427311E+03    0.37204E-03   -0.91166E-04   642   0.464E-02    0.662E-02
RMM:   6    -0.293876380764E+03    0.46547E-04   -0.65743E-04   713   0.336E-02    0.581E-02
RMM:   7    -0.293876352205E+03    0.28559E-04   -0.96308E-05   571   0.172E-02    0.336E-02
RMM:   8    -0.293876348625E+03    0.35800E-05   -0.15188E-04   538   0.147E-02    0.181E-02
RMM:   9    -0.293876342688E+03    0.59368E-05   -0.19836E-05   412   0.882E-03
     31 T=  1402. E= -.29800691E+03 F= -.29387634E+03 E0= -.29390772E+03  EK= 0.14315E+02 SP= -.19E+02 SK= 0.38E+00
       N       E                     dE             d eps       ncg     rms          rms(c)
DAV:   1    -0.293023453256E+03    0.85290E+00   -0.11308E-01   928   0.259E+00    0.560E-01
RMM:   2    -0.293031675742E+03   -0.82225E-02   -0.75544E-02   651   0.499E-01    0.153E-01
RMM:   3    -0.293033376423E+03   -0.17007E-02   -0.18185E-02   799   0.256E-01    0.280E-01
RMM:   4    -0.293033579749E+03   -0.20333E-03   -0.23207E-03   807   0.928E-02    0.222E-01
RMM:   5    -0.293033554732E+03    0.25017E-04   -0.28251E-04   667   0.295E-02    0.109E-01
RMM:   6    -0.293033495232E+03    0.59500E-04   -0.91720E-05   619   0.177E-02    0.358E-02
RMM:   7    -0.293033469676E+03    0.25557E-04   -0.59343E-05   523   0.110E-02    0.584E-02
RMM:   8    -0.293033464363E+03    0.53125E-05   -0.22027E-05   398   0.764E-03
     32 T=  1373. E= -.29800325E+03 F= -.29303346E+03 E0= -.29306369E+03  EK= 0.14018E+02 SP= -.19E+02 SK= 0.23E+00
       N       E                     dE             d eps       ncg     rms          rms(c)
DAV:   1    -0.292322598613E+03    0.71087E+00   -0.11651E-01   920   0.257E+00    0.596E-01
RMM:   2    -0.292331826533E+03   -0.92279E-02   -0.82283E-02   642   0.501E-01    0.830E-02
RMM:   3    -0.292333700770E+03   -0.18742E-02   -0.18916E-02   800   0.258E-01    0.233E-01
RMM:   4    -0.292333900446E+03   -0.19968E-03   -0.23783E-03   803   0.952E-02    0.173E-01
RMM:   5    -0.292333904632E+03   -0.41858E-05   -0.24522E-04   746   0.276E-02    0.140E-01
RMM:   6    -0.292333902852E+03    0.17801E-05   -0.20721E-05   381   0.938E-03
     33 T=  1344. E= -.29800083E+03 F= -.29233390E+03 E0= -.29236346E+03  EK= 0.13721E+02 SP= -.20E+02 SK= 0.12E+00
       N       E                     dE             d eps       ncg     rms          rms(c)
DAV:   1    -0.291798759628E+03    0.53515E+00   -0.85148E-02   952   0.257E+00    0.415E-01
RMM:   2    -0.291806834590E+03   -0.80750E-02   -0.70809E-02   644   0.474E-01    0.158E-01
RMM:   3    -0.291808432542E+03   -0.15980E-02   -0.16077E-02   796   0.244E-01    0.288E-01
RMM:   4    -0.291808676259E+03   -0.24372E-03   -0.25640E-03   822   0.948E-02    0.247E-01
RMM:   5    -0.291808678638E+03   -0.23791E-05   -0.20087E-04   733   0.254E-02    0.193E-01
RMM:   6    -0.291808676320E+03    0.23180E-05   -0.23571E-05   383   0.981E-03
     34 T=  1319. E= -.29800034E+03 F= -.29180868E+03 E0= -.29183791E+03  EK= 0.13473E+02 SP= -.20E+02 SK= 0.54E-01
       N       E                     dE             d eps       ncg     rms          rms(c)
DAV:   1    -0.291447393314E+03    0.36129E+00   -0.71789E-02   960   0.256E+00    0.808E-01
RMM:   2    -0.291454650714E+03   -0.72574E-02   -0.64976E-02   643   0.459E-01    0.149E-01
RMM:   3    -0.291456189048E+03   -0.15383E-02   -0.15367E-02   798   0.237E-01    0.140E-01
RMM:   4    -0.291456381549E+03   -0.19250E-03   -0.23709E-03   793   0.914E-02    0.941E-02
RMM:   5    -0.291456364311E+03    0.17238E-04   -0.22527E-04   735   0.273E-02    0.476E-02
RMM:   6    -0.291456364601E+03   -0.29017E-06   -0.28049E-05   410   0.110E-02
     35 T=  1301. E= -.29800290E+03 F= -.29145636E+03 E0= -.29148578E+03  EK= 0.13283E+02 SP= -.20E+02 SK= 0.15E-01
       N       E                     dE             d eps       ncg     rms          rms(c)
DAV:   1    -0.291230268588E+03    0.22610E+00   -0.74294E-02   952   0.256E+00    0.429E-01
RMM:   2    -0.291237539879E+03   -0.72713E-02   -0.64680E-02   645   0.465E-01    0.143E-01
RMM:   3    -0.291238957568E+03   -0.14177E-02   -0.14490E-02   799   0.235E-01    0.280E-01
RMM:   4    -0.291239166822E+03   -0.20925E-03   -0.22507E-03   824   0.890E-02    0.262E-01
RMM:   5    -0.291239180405E+03   -0.13583E-04   -0.15678E-04   701   0.234E-02    0.271E-01
RMM:   6    -0.291239172753E+03    0.76518E-05   -0.15739E-05   367   0.862E-03
     36 T=  1285. E= -.29800587E+03 F= -.29123917E+03 E0= -.29127006E+03  EK= 0.13126E+02 SP= -.20E+02 SK= 0.27E-03
       N       E                     dE             d eps       ncg     rms          rms(c)
DAV:   1    -0.291097672492E+03    0.14151E+00   -0.67095E-02   984   0.257E+00    0.328E-01
RMM:   2    -0.291104403800E+03   -0.67313E-02   -0.60936E-02   644   0.458E-01    0.232E-01
RMM:   3    -0.291105738765E+03   -0.13350E-02   -0.13717E-02   800   0.230E-01    0.342E-01
RMM:   4    -0.291105933233E+03   -0.19447E-03   -0.19967E-03   825   0.861E-02    0.327E-01
RMM:   5    -0.291105957521E+03   -0.24288E-04   -0.16249E-04   707   0.235E-02    0.370E-01
RMM:   6    -0.291105953372E+03    0.41496E-05   -0.19164E-04   553   0.252E-02    0.587E-02
RMM:   7    -0.291105943784E+03    0.95880E-05   -0.11879E-04   610   0.150E-02    0.130E-01
RMM:   8    -0.291105941172E+03    0.26111E-05   -0.14436E-05   402   0.759E-03
     37 T=  1269. E= -.29800885E+03 F= -.29110594E+03 E0= -.29114033E+03  EK= 0.12959E+02 SP= -.20E+02 SK= 0.69E-02
       N       E                     dE             d eps       ncg     rms          rms(c)
DAV:   1    -0.290999559983E+03    0.10638E+00   -0.67162E-02   960   0.262E+00    0.131E+00
RMM:   2    -0.291006110286E+03   -0.65503E-02   -0.75111E-02   647   0.482E-01    0.455E-01
RMM:   3    -0.291008083766E+03   -0.19735E-02   -0.18260E-02   798   0.253E-01    0.180E-01
RMM:   4    -0.291007976740E+03    0.10703E-03   -0.33710E-03   708   0.108E-01    0.108E-01
RMM:   5    -0.291007783779E+03    0.19296E-03   -0.50128E-04   713   0.423E-02    0.270E-02
RMM:   6    -0.291007790852E+03   -0.70734E-05   -0.14698E-04   697   0.207E-02    0.157E-02
RMM:   7    -0.291007788919E+03    0.19330E-05   -0.15291E-05   368   0.814E-03
     38 T=  1248. E= -.29801001E+03 F= -.29100779E+03 E0= -.29104525E+03  EK= 0.12743E+02 SP= -.20E+02 SK= 0.31E-01
       N       E                     dE             d eps       ncg     rms          rms(c)
DAV:   1    -0.290905860890E+03    0.10193E+00   -0.62992E-02   928   0.259E+00    0.279E-01
RMM:   2    -0.290912206190E+03   -0.63453E-02   -0.61707E-02   649   0.465E-01    0.359E-01
RMM:   3    -0.290913531953E+03   -0.13258E-02   -0.14184E-02   796   0.232E-01    0.474E-01
RMM:   4    -0.290913782625E+03   -0.25067E-03   -0.21108E-03   820   0.872E-02    0.548E-01
RMM:   5    -0.290913788141E+03   -0.55161E-05   -0.88417E-04   661   0.701E-02    0.261E-01
RMM:   6    -0.290914627666E+03   -0.83952E-03   -0.44262E-03   766   0.105E-01    0.707E-01
RMM:   7    -0.290914429672E+03    0.19799E-03   -0.32825E-04   721   0.357E-02    0.735E-01
RMM:   8    -0.290913876015E+03    0.55366E-03   -0.43684E-04   639   0.454E-02    0.490E-01
RMM:   9    -0.290913552572E+03    0.32344E-03   -0.16022E-03   770   0.680E-02    0.983E-02
RMM:  10    -0.290913576904E+03   -0.24332E-04   -0.79255E-05   488   0.169E-02    0.168E-01
RMM:  11    -0.290913558859E+03    0.18046E-04   -0.28240E-05   388   0.141E-02    0.983E-02
RMM:  12    -0.290913547272E+03    0.11587E-04   -0.39566E-05   506   0.128E-02    0.188E-02
RMM:  13    -0.290913547344E+03   -0.71930E-07   -0.78027E-06   340   0.470E-03
     39 T=  1220. E= -.29800923E+03 F= -.29091355E+03 E0= -.29095266E+03  EK= 0.12457E+02 SP= -.20E+02 SK= 0.68E-01
       N       E                     dE             d eps       ncg     rms          rms(c)
DAV:   1    -0.290806289712E+03    0.10726E+00   -0.57749E-02   928   0.259E+00    0.715E-01
RMM:   2    -0.290811904989E+03   -0.56153E-02   -0.58377E-02   657   0.452E-01    0.126E-01
RMM:   3    -0.290813136105E+03   -0.12311E-02   -0.13603E-02   795   0.228E-01    0.152E-01
RMM:   4    -0.290813285613E+03   -0.14951E-03   -0.21448E-03   783   0.908E-02    0.108E-01
RMM:   5    -0.290813276928E+03    0.86847E-05   -0.23362E-04   735   0.278E-02    0.650E-02
RMM:   6    -0.290813262905E+03    0.14024E-04   -0.52805E-05   539   0.124E-02    0.324E-02
RMM:   7    -0.290813259996E+03    0.29084E-05   -0.13497E-05   367   0.719E-03
     40 T=  1185. E= -.29800769E+03 F= -.29081326E+03 E0= -.29085412E+03  EK= 0.12104E+02 SP= -.19E+02 SK= 0.11E+00
       N       E                     dE             d eps       ncg     rms          rms(c)
DAV:   1    -0.290703497114E+03    0.10977E+00   -0.50094E-02   928   0.258E+00    0.442E-01
RMM:   2    -0.290708192350E+03   -0.46952E-02   -0.53572E-02   660   0.444E-01    0.107E-01
RMM:   3    -0.290709061657E+03   -0.86931E-03   -0.13125E-02   796   0.221E-01    0.214E-01
RMM:   4    -0.290709147167E+03   -0.85510E-04   -0.19269E-03   810   0.882E-02    0.183E-01
RMM:   5    -0.290709012369E+03    0.13480E-03   -0.20641E-04   731   0.254E-02    0.142E-01
RMM:   6    -0.290708676711E+03    0.33566E-03   -0.21076E-04   565   0.189E-02    0.680E-02
RMM:   7    -0.290708173604E+03    0.50311E-03   -0.12099E-03   753   0.324E-02    0.869E-02
RMM:   8    -0.290708100404E+03    0.73199E-04   -0.12253E-04   672   0.165E-02    0.672E-02
RMM:   9    -0.290708039559E+03    0.60846E-04   -0.17512E-04   641   0.148E-02    0.266E-02
RMM:  10    -0.290708007945E+03    0.31614E-04   -0.81057E-05   598   0.113E-02    0.288E-02
RMM:  11    -0.290708000845E+03    0.70998E-05   -0.20584E-05   402   0.702E-03
     41 T=  1145. E= -.29800656E+03 F= -.29070800E+03 E0= -.29074269E+03  EK= 0.11697E+02 SP= -.19E+02 SK= 0.16E+00
       N       E                     dE             d eps       ncg     rms          rms(c)
DAV:   1    -0.290612372734E+03    0.95635E-01   -0.26969E-02   944   0.295E+00    0.483E-01
RMM:   2    -0.290610580556E+03    0.17922E-02   -0.65041E-02   668   0.460E-01    0.159E-01
RMM:   3    -0.290609178158E+03    0.14024E-02   -0.16926E-02   794   0.230E-01    0.189E-01
RMM:   4    -0.290608310953E+03    0.86720E-03   -0.23811E-03   724   0.103E-01    0.104E-01
RMM:   5    -0.290607226953E+03    0.10840E-02   -0.16888E-03   653   0.685E-02    0.632E-02
RMM:   6    -0.290607080522E+03    0.14643E-03   -0.74535E-04   757   0.407E-02    0.603E-02
RMM:   7    -0.290607063890E+03    0.16631E-04   -0.87377E-05   612   0.184E-02    0.336E-02
RMM:   8    -0.290606993899E+03    0.69992E-04   -0.19211E-04   625   0.189E-02    0.175E-02
RMM:   9    -0.290606988904E+03    0.49943E-05   -0.37412E-05   534   0.102E-02
     42 T=  1103. E= -.29800459E+03 F= -.29060699E+03 E0= -.29063529E+03  EK= 0.11264E+02 SP= -.19E+02 SK= 0.19E+00
       N       E                     dE             d eps       ncg     rms          rms(c)
DAV:   1    -0.290524107756E+03    0.82886E-01   -0.64107E-02   936   0.247E+00    0.557E-01
RMM:   2    -0.290528085304E+03   -0.39775E-02   -0.58295E-02   664   0.449E-01    0.106E-01
RMM:   3    -0.290528736000E+03   -0.65070E-03   -0.13836E-02   796   0.221E-01    0.199E-01
RMM:   4    -0.290528721586E+03    0.14413E-04   -0.17586E-03   777   0.887E-02    0.127E-01
RMM:   5    -0.290528468407E+03    0.25318E-03   -0.52118E-04   633   0.404E-02    0.282E-02
RMM:   6    -0.290528365403E+03    0.10300E-03   -0.27938E-04   693   0.249E-02    0.418E-02
RMM:   7    -0.290528338875E+03    0.26527E-04   -0.69810E-05   608   0.132E-02    0.246E-02
RMM:   8    -0.290528315443E+03    0.23433E-04   -0.48795E-05   521   0.997E-03    0.133E-02
RMM:   9    -0.290528305099E+03    0.10344E-04   -0.26358E-05   451   0.727E-03    0.640E-03
RMM:  10    -0.290528303672E+03    0.14264E-05   -0.96570E-06   356   0.526E-03
     43 T=  1061. E= -.29800286E+03 F= -.29052830E+03 E0= -.29055309E+03  EK= 0.10838E+02 SP= -.19E+02 SK= 0.22E+00
       N       E                     dE             d eps       ncg     rms          rms(c)
DAV:   1    -0.290479810625E+03    0.48494E-01   -0.60392E-02   936   0.239E+00    0.437E-01
RMM:   2    -0.290484838528E+03   -0.50279E-02   -0.49732E-02   668   0.410E-01    0.764E-02
RMM:   3    -0.290485803561E+03   -0.96503E-03   -0.10855E-02   793   0.202E-01    0.182E-01
RMM:   4    -0.290485918871E+03   -0.11531E-03   -0.14865E-03   816   0.806E-02    0.149E-01
RMM:   5    -0.290485909209E+03    0.96620E-05   -0.19322E-04   741   0.256E-02    0.114E-01
RMM:   6    -0.290485889562E+03    0.19647E-04   -0.27727E-05   417   0.974E-03    0.707E-02
RMM:   7    -0.290485864001E+03    0.25561E-04   -0.76686E-05   486   0.107E-02    0.285E-02
RMM:   8    -0.290485863696E+03    0.30456E-06   -0.30328E-05   456   0.737E-03
     44 T=  1023. E= -.29800209E+03 F= -.29048586E+03 E0= -.29050866E+03  EK= 0.10442E+02 SP= -.18E+02 SK= 0.24E+00
       N       E                     dE             d eps       ncg     rms          rms(c)
DAV:   1    -0.290480286247E+03    0.55778E-02   -0.52235E-02   936   0.235E+00    0.505E-01
RMM:   2    -0.290485142555E+03   -0.48563E-02   -0.47146E-02   665   0.397E-01    0.533E-02
RMM:   3    -0.290486128094E+03   -0.98554E-03   -0.10326E-02   798   0.198E-01    0.127E-01
RMM:   4    -0.290486243342E+03   -0.11525E-03   -0.13941E-03   799   0.781E-02    0.936E-02
RMM:   5    -0.290486251909E+03   -0.85673E-05   -0.20807E-04   741   0.267E-02    0.689E-02
RMM:   6    -0.290486249868E+03    0.20407E-05   -0.13891E-05   365   0.826E-03
     45 T=   989. E= -.29800161E+03 F= -.29048625E+03 E0= -.29050767E+03  EK= 0.10096E+02 SP= -.18E+02 SK= 0.24E+00
       N       E                     dE             d eps       ncg     rms          rms(c)
DAV:   1    -0.290525522203E+03   -0.39270E-01   -0.41225E-02   944   0.234E+00    0.270E-01
RMM:   2    -0.290530206402E+03   -0.46842E-02   -0.43774E-02   666   0.380E-01    0.113E-01
RMM:   3    -0.290531112359E+03   -0.90596E-03   -0.94712E-03   802   0.189E-01    0.193E-01
RMM:   4    -0.290531234433E+03   -0.12207E-03   -0.13456E-03   819   0.739E-02    0.174E-01
RMM:   5    -0.290531238157E+03   -0.37238E-05   -0.14723E-04   680   0.220E-02    0.149E-01
RMM:   6    -0.290531234268E+03    0.38886E-05   -0.13634E-05   364   0.819E-03
     46 T=   960. E= -.29800186E+03 F= -.29053123E+03 E0= -.29055139E+03  EK= 0.98063E+01 SP= -.18E+02 SK= 0.23E+00
       N       E                     dE             d eps       ncg     rms          rms(c)
DAV:   1    -0.290612536316E+03   -0.81298E-01   -0.37032E-02   944   0.231E+00    0.442E-01
RMM:   2    -0.290616653227E+03   -0.41169E-02   -0.39210E-02   659   0.366E-01    0.795E-02
RMM:   3    -0.290617462000E+03   -0.80877E-03   -0.87814E-03   803   0.185E-01    0.113E-01
RMM:   4    -0.290617571640E+03   -0.10964E-03   -0.13385E-03   791   0.740E-02    0.815E-02
RMM:   5    -0.290617560396E+03    0.11244E-04   -0.18195E-04   708   0.247E-02    0.445E-02
RMM:   6    -0.290617550091E+03    0.10305E-04   -0.32914E-05   420   0.110E-02    0.273E-02
RMM:   7    -0.290617535672E+03    0.14418E-04   -0.26677E-05   435   0.740E-03    0.725E-03
RMM:   8    -0.290617525842E+03    0.98299E-05   -0.36360E-05   451   0.714E-03
     47 T=   938. E= -.29800201E+03 F= -.29061753E+03 E0= -.29063512E+03  EK= 0.95757E+01 SP= -.17E+02 SK= 0.21E+00
       N       E                     dE             d eps       ncg     rms          rms(c)
DAV:   1    -0.290736699511E+03   -0.11916E+00   -0.33174E-02   936   0.235E+00    0.354E-01
RMM:   2    -0.290740570891E+03   -0.38714E-02   -0.36686E-02   655   0.366E-01    0.528E-02
RMM:   3    -0.290741313928E+03   -0.74304E-03   -0.81846E-03   801   0.182E-01    0.134E-01
RMM:   4    -0.290741399960E+03   -0.86032E-04   -0.11585E-03   792   0.704E-02    0.114E-01
RMM:   5    -0.290741413976E+03   -0.14016E-04   -0.14560E-04   619   0.228E-02    0.121E-01
RMM:   6    -0.290741391316E+03    0.22660E-04   -0.36456E-05   469   0.113E-02    0.100E-01
RMM:   7    -0.290741370856E+03    0.20460E-04   -0.15083E-04   572   0.169E-02    0.543E-02
RMM:   8    -0.290741368075E+03    0.27809E-05   -0.25908E-05   459   0.761E-03
     48 T=   921. E= -.29800206E+03 F= -.29074137E+03 E0= -.29075566E+03  EK= 0.94033E+01 SP= -.17E+02 SK= 0.19E+00
       N       E                     dE             d eps       ncg     rms          rms(c)
DAV:   1    -0.290897051861E+03   -0.15568E+00   -0.25528E-02   952   0.236E+00    0.274E-01
RMM:   2    -0.290900168308E+03   -0.31164E-02   -0.34290E-02   653   0.357E-01    0.103E-01
RMM:   3    -0.290900823995E+03   -0.65569E-03   -0.85314E-03   803   0.180E-01    0.170E-01
RMM:   4    -0.290900896328E+03   -0.72332E-04   -0.11248E-03   795   0.694E-02    0.142E-01
RMM:   5    -0.290900882949E+03    0.13379E-04   -0.17173E-04   675   0.249E-02    0.120E-01
RMM:   6    -0.290900822862E+03    0.60086E-04   -0.82746E-05   525   0.154E-02    0.435E-02
RMM:   7    -0.290900765764E+03    0.57098E-04   -0.15502E-04   548   0.141E-02    0.479E-02
RMM:   8    -0.290900759643E+03    0.61211E-05   -0.30380E-05   479   0.920E-03
     49 T=   910. E= -.29800209E+03 F= -.29090076E+03 E0= -.29091412E+03  EK= 0.92888E+01 SP= -.17E+02 SK= 0.17E+00
       N       E                     dE             d eps       ncg     rms          rms(c)
DAV:   1    -0.291091003146E+03   -0.19024E+00   -0.19291E-02   952   0.232E+00    0.518E-01
RMM:   2    -0.291094317607E+03   -0.33145E-02   -0.32017E-02   660   0.336E-01    0.140E-01
RMM:   3    -0.291095047044E+03   -0.72944E-03   -0.79932E-03   806   0.175E-01    0.898E-02
RMM:   4    -0.291095121355E+03   -0.74311E-04   -0.10661E-03   748   0.671E-02    0.350E-02
RMM:   5    -0.291095133165E+03   -0.11810E-04   -0.19553E-04   745   0.270E-02    0.163E-02
RMM:   6    -0.291095131727E+03    0.14385E-05   -0.16884E-05   377   0.875E-03
     50 T=   904. E= -.29800173E+03 F= -.29109513E+03 E0= -.29110906E+03  EK= 0.92323E+01 SP= -.16E+02 SK= 0.14E+00
       N       E                     dE             d eps       ncg     rms          rms(c)
DAV:   1    -0.291317689175E+03   -0.22256E+00   -0.17563E-02   960   0.226E+00    0.224E-01
RMM:   2    -0.291321042088E+03   -0.33529E-02   -0.32097E-02   662   0.340E-01    0.110E-01
RMM:   3    -0.291321702758E+03   -0.66067E-03   -0.76457E-03   803   0.170E-01    0.178E-01
RMM:   4    -0.291321783819E+03   -0.81061E-04   -0.10330E-03   808   0.638E-02    0.165E-01
RMM:   5    -0.291321778881E+03    0.49376E-05   -0.96144E-05   563   0.191E-02
     51 T=   904. E= -.29800113E+03 F= -.29132178E+03 E0= -.29133906E+03  EK= 0.92304E+01 SP= -.16E+02 SK= 0.12E+00
       N       E                     dE             d eps       ncg     rms          rms(c)
DAV:   1    -0.291574168704E+03   -0.25238E+00   -0.17936E-02   968   0.226E+00    0.235E-01
RMM:   2    -0.291575765545E+03   -0.15968E-02   -0.30614E-02   662   0.325E-01    0.249E-01
RMM:   3    -0.291576303171E+03   -0.53763E-03   -0.73372E-03   799   0.169E-01    0.282E-01
RMM:   4    -0.291576513213E+03   -0.21004E-03   -0.11926E-03   806   0.658E-02    0.347E-01
RMM:   5    -0.291576414349E+03    0.98864E-04   -0.32658E-04   575   0.318E-02    0.171E-01
RMM:   6    -0.291576285418E+03    0.12893E-03   -0.48582E-04   562   0.249E-02    0.803E-02
RMM:   7    -0.291576292775E+03   -0.73568E-05   -0.87127E-05   632   0.146E-02
     52 T=   909. E= -.29799972E+03 F= -.29157629E+03 E0= -.29159593E+03  EK= 0.92781E+01 SP= -.16E+02 SK= 0.94E-01
       N       E                     dE             d eps       ncg     rms          rms(c)
DAV:   1    -0.291860189153E+03   -0.28390E+00   -0.70038E-02   984   0.227E+00    0.924E-01
RMM:   2    -0.291860493558E+03   -0.30441E-03   -0.44031E-02   653   0.346E-01    0.410E-01
RMM:   3    -0.291858815195E+03    0.16784E-02   -0.11201E-02   766   0.196E-01    0.150E-01
RMM:   4    -0.291858602288E+03    0.21291E-03   -0.23439E-03   723   0.866E-02    0.609E-02
RMM:   5    -0.291858568764E+03    0.33524E-04   -0.32962E-04   746   0.317E-02    0.428E-02
RMM:   6    -0.291858545955E+03    0.22809E-04   -0.69261E-05   543   0.142E-02    0.203E-02
RMM:   7    -0.291858539956E+03    0.59997E-05   -0.32185E-05   464   0.933E-03
     53 T=   918. E= -.29800008E+03 F= -.29185854E+03 E0= -.29187799E+03  EK= 0.93708E+01 SP= -.16E+02 SK= 0.76E-01
       N       E                     dE             d eps       ncg     rms          rms(c)
DAV:   1    -0.292159246073E+03   -0.30070E+00   -0.29919E-02   944   0.223E+00    0.390E-01
RMM:   2    -0.292159068962E+03    0.17711E-03   -0.40781E-02   677   0.359E-01    0.298E-01
RMM:   3    -0.292159017814E+03    0.51148E-04   -0.76289E-03   765   0.176E-01    0.253E-01
RMM:   4    -0.292159090474E+03   -0.72660E-04   -0.15276E-03   778   0.753E-02    0.226E-01
RMM:   5    -0.292159041841E+03    0.48633E-04   -0.28798E-04   630   0.334E-02    0.110E-01
RMM:   6    -0.292158979258E+03    0.62583E-04   -0.25716E-04   612   0.250E-02    0.611E-02
RMM:   7    -0.292158973796E+03    0.54623E-05   -0.63443E-05   616   0.152E-02
     54 T=   930. E= -.29800089E+03 F= -.29215897E+03 E0= -.29217810E+03  EK= 0.94976E+01 SP= -.15E+02 SK= 0.62E-01
       N       E                     dE             d eps       ncg     rms          rms(c)
DAV:   1    -0.292458664676E+03   -0.29969E+00   -0.36567E-02   944   0.221E+00    0.489E-01
RMM:   2    -0.292462463896E+03   -0.37992E-02   -0.38861E-02   691   0.356E-01    0.746E-02
RMM:   3    -0.292462945606E+03   -0.48171E-03   -0.79379E-03   803   0.173E-01    0.115E-01
RMM:   4    -0.292462834506E+03    0.11110E-03   -0.11200E-03   797   0.685E-02    0.967E-02
RMM:   5    -0.292462914636E+03   -0.80130E-04   -0.13608E-04   655   0.227E-02    0.109E-01
RMM:   6    -0.292462926947E+03   -0.12311E-04   -0.17264E-05   382   0.911E-03    0.111E-01
RMM:   7    -0.292462937022E+03   -0.10075E-04   -0.76968E-06   359   0.777E-03    0.107E-01
RMM:   8    -0.292463399901E+03   -0.46288E-03   -0.85167E-04   805   0.641E-02    0.117E-01
RMM:   9    -0.292464337311E+03   -0.93741E-03   -0.13804E-03   852   0.703E-02    0.262E-01
RMM:  10    -0.292464916922E+03   -0.57961E-03   -0.84515E-04   741   0.251E-02    0.304E-01
RMM:  11    -0.292464180073E+03    0.73685E-03   -0.50826E-04   727   0.295E-02    0.249E-01
RMM:  12    -0.292464065214E+03    0.11486E-03   -0.51739E-05   514   0.104E-02    0.235E-01
RMM:  13    -0.292463523781E+03    0.54143E-03   -0.42668E-04   743   0.365E-02    0.175E-01
RMM:  14    -0.292462859776E+03    0.66400E-03   -0.76098E-04   790   0.391E-02    0.125E-01
RMM:  15    -0.292463112532E+03   -0.25276E-03   -0.83311E-05   543   0.102E-02    0.129E-01
RMM:  16    -0.292463118994E+03   -0.64614E-05   -0.89011E-06   363   0.628E-03
     55 T=   944. E= -.29800140E+03 F= -.29246312E+03 E0= -.29248019E+03  EK= 0.96419E+01 SP= -.15E+02 SK= 0.52E-01
       N       E                     dE             d eps       ncg     rms          rms(c)
DAV:   1    -0.292749195513E+03   -0.28608E+00   -0.42186E-02   928   0.225E+00    0.475E-01
RMM:   2    -0.292750734962E+03   -0.15394E-02   -0.42750E-02   685   0.378E-01    0.153E-01
RMM:   3    -0.292749819137E+03    0.91582E-03   -0.10559E-02   796   0.186E-01    0.175E-01
RMM:   4    -0.292749073433E+03    0.74570E-03   -0.15800E-03   746   0.790E-02    0.957E-02
RMM:   5    -0.292748307333E+03    0.76610E-03   -0.14311E-03   677   0.537E-02    0.425E-02
RMM:   6    -0.292748237053E+03    0.70281E-04   -0.53617E-04   774   0.321E-02    0.398E-02
RMM:   7    -0.292748229383E+03    0.76696E-05   -0.56823E-05   522   0.150E-02
     56 T=   958. E= -.29799558E+03 F= -.29274823E+03 E0= -.29275919E+03  EK= 0.97841E+01 SP= -.15E+02 SK= 0.45E-01
       N       E                     dE             d eps       ncg     rms          rms(c)
DAV:   1    -0.293040703439E+03   -0.29247E+00   -0.26468E-02   984   0.275E+00    0.503E-01
RMM:   2    -0.293022715931E+03    0.17988E-01   -0.62295E-02   672   0.407E-01    0.262E-01
RMM:   3    -0.293016357430E+03    0.63585E-02   -0.24556E-02   791   0.223E-01    0.249E-01
RMM:   4    -0.293013595124E+03    0.27623E-02   -0.37821E-03   686   0.111E-01    0.104E-01
RMM:   5    -0.293012034062E+03    0.15611E-02   -0.36094E-03   662   0.841E-02    0.903E-02
RMM:   6    -0.293012050768E+03   -0.16705E-04   -0.88444E-04   853   0.487E-02    0.609E-02
RMM:   7    -0.293012002416E+03    0.48352E-04   -0.14106E-04   553   0.210E-02    0.217E-02
RMM:   8    -0.293011977580E+03    0.24835E-04   -0.14327E-04   541   0.166E-02    0.120E-02
RMM:   9    -0.293011980374E+03   -0.27937E-05   -0.37852E-05   487   0.931E-03
     57 T=   970. E= -.29799583E+03 F= -.29301198E+03 E0= -.29302306E+03  EK= 0.99065E+01 SP= -.15E+02 SK= 0.40E-01
       N       E                     dE             d eps       ncg     rms          rms(c)
DAV:   1    -0.293241319368E+03   -0.22934E+00   -0.40690E-02   936   0.239E+00    0.489E-01
RMM:   2    -0.293241374131E+03   -0.54764E-04   -0.44834E-02   692   0.384E-01    0.137E-01
RMM:   3    -0.293240401241E+03    0.97289E-03   -0.10398E-02   797   0.185E-01    0.164E-01
RMM:   4    -0.293239630753E+03    0.77049E-03   -0.14770E-03   715   0.808E-02    0.710E-02
RMM:   5    -0.293239048980E+03    0.58177E-03   -0.11778E-03   678   0.542E-02    0.490E-02
RMM:   6    -0.293239012467E+03    0.36513E-04   -0.39772E-04   775   0.311E-02    0.313E-02
RMM:   7    -0.293238984815E+03    0.27652E-04   -0.64922E-05   569   0.162E-02    0.158E-02
RMM:   8    -0.293238962997E+03    0.21818E-04   -0.63788E-05   514   0.120E-02    0.114E-02
RMM:   9    -0.293238959318E+03    0.36791E-05   -0.23904E-05   413   0.741E-03
     58 T=   979. E= -.29799644E+03 F= -.29323896E+03 E0= -.29324900E+03  EK= 0.99972E+01 SP= -.15E+02 SK= 0.37E-01
       N       E                     dE             d eps       ncg     rms          rms(c)
DAV:   1    -0.293413444840E+03   -0.17448E+00   -0.45163E-02   928   0.232E+00    0.469E-01
RMM:   2    -0.293417286410E+03   -0.38416E-02   -0.48877E-02   696   0.390E-01    0.114E-01
RMM:   3    -0.293417746314E+03   -0.45990E-03   -0.90204E-03   797   0.184E-01    0.189E-01
RMM:   4    -0.293417733671E+03    0.12643E-04   -0.11611E-03   798   0.739E-02    0.133E-01
RMM:   5    -0.293417577173E+03    0.15650E-03   -0.31128E-04   654   0.314E-02    0.404E-02
RMM:   6    -0.293417485983E+03    0.91190E-04   -0.22897E-04   559   0.192E-02    0.317E-02
RMM:   7    -0.293417476461E+03    0.95219E-05   -0.99036E-05   613   0.125E-02
     59 T=   984. E= -.29799340E+03 F= -.29341748E+03 E0= -.29342204E+03  EK= 0.10047E+02 SP= -.15E+02 SK= 0.35E-01
       N       E                     dE             d eps       ncg     rms          rms(c)
DAV:   1    -0.293564214335E+03   -0.14673E+00   -0.42202E-02   928   0.239E+00    0.541E-01
RMM:   2    -0.293559195167E+03    0.50192E-02   -0.54847E-02   675   0.395E-01    0.204E-01
RMM:   3    -0.293557724161E+03    0.14710E-02   -0.16520E-02   794   0.204E-01    0.224E-01
RMM:   4    -0.293556964611E+03    0.75955E-03   -0.20395E-03   678   0.917E-02    0.983E-02
RMM:   5    -0.293556186195E+03    0.77842E-03   -0.18764E-03   658   0.636E-02    0.852E-02
RMM:   6    -0.293556163211E+03    0.22984E-04   -0.56072E-04   755   0.336E-02    0.558E-02
RMM:   7    -0.293556133986E+03    0.29225E-04   -0.12223E-04   551   0.154E-02    0.238E-02
RMM:   8    -0.293556077056E+03    0.56930E-04   -0.12141E-04   535   0.140E-02    0.955E-03
RMM:   9    -0.293556073621E+03    0.34342E-05   -0.46213E-05   493   0.881E-03
     60 T=   985. E= -.29799253E+03 F= -.29355607E+03 E0= -.29356024E+03  EK= 0.10058E+02 SP= -.15E+02 SK= 0.33E-01
       N       E                     dE             d eps       ncg     rms          rms(c)
DAV:   1    -0.293661998787E+03   -0.10592E+00   -0.35117E-02   936   0.229E+00    0.450E-01
RMM:   2    -0.293664369877E+03   -0.23711E-02   -0.41592E-02   682   0.368E-01    0.103E-01
RMM:   3    -0.293664685194E+03   -0.31532E-03   -0.86412E-03   793   0.179E-01    0.156E-01
RMM:   4    -0.293664657347E+03    0.27847E-04   -0.11557E-03   768   0.751E-02    0.100E-01
RMM:   5    -0.293664489031E+03    0.16832E-03   -0.42464E-04   631   0.364E-02    0.268E-02
RMM:   6    -0.293664464162E+03    0.24869E-04   -0.19665E-04   691   0.191E-02    0.299E-02
RMM:   7    -0.293664461162E+03    0.29995E-05   -0.23095E-05   397   0.844E-03
     61 T=   983. E= -.29799136E+03 F= -.29366446E+03 E0= -.29366848E+03  EK= 0.10042E+02 SP= -.14E+02 SK= 0.31E-01
       N       E                     dE             d eps       ncg     rms          rms(c)
DAV:   1    -0.293749836963E+03   -0.85373E-01   -0.33466E-02   952   0.232E+00    0.393E-01
RMM:   2    -0.293754056775E+03   -0.42198E-02   -0.38849E-02   682   0.363E-01    0.709E-02
RMM:   3    -0.293754767678E+03   -0.71090E-03   -0.75094E-03   798   0.177E-01    0.148E-01
RMM:   4    -0.293754853771E+03   -0.86092E-04   -0.10772E-03   805   0.704E-02    0.114E-01
RMM:   5    -0.293754851457E+03    0.23142E-05   -0.13723E-04   684   0.216E-02    0.746E-02
RMM:   6    -0.293754849139E+03    0.23180E-05   -0.24856E-05   399   0.911E-03
     62 T=   980. E= -.29799001E+03 F= -.29375485E+03 E0= -.29375879E+03  EK= 0.10012E+02 SP= -.14E+02 SK= 0.29E-01
       N       E                     dE             d eps       ncg     rms          rms(c)
DAV:   1    -0.293837798013E+03   -0.82947E-01   -0.41037E-02   952   0.232E+00    0.437E-01
RMM:   2    -0.293841619721E+03   -0.38217E-02   -0.34716E-02   674   0.360E-01    0.418E-02
RMM:   3    -0.293842326002E+03   -0.70628E-03   -0.72794E-03   797   0.176E-01    0.120E-01
RMM:   4    -0.293842432780E+03   -0.10678E-03   -0.11373E-03   810   0.712E-02    0.893E-02
RMM:   5    -0.293842440503E+03   -0.77238E-05   -0.11127E-04   603   0.202E-02    0.697E-02
RMM:   6    -0.293842440076E+03    0.42735E-06   -0.84836E-06   352   0.746E-03
     63 T=   978. E= -.29798908E+03 F= -.29384244E+03 E0= -.29384634E+03  EK= 0.99844E+01 SP= -.14E+02 SK= 0.27E-01
       N       E                     dE             d eps       ncg     rms          rms(c)
DAV:   1    -0.293936024029E+03   -0.93584E-01   -0.33946E-02   936   0.232E+00    0.337E-01
RMM:   2    -0.293939723347E+03   -0.36993E-02   -0.32876E-02   669   0.355E-01    0.716E-02
RMM:   3    -0.293940407916E+03   -0.68457E-03   -0.70643E-03   799   0.173E-01    0.139E-01
RMM:   4    -0.293940502290E+03   -0.94374E-04   -0.11100E-03   794   0.704E-02    0.106E-01
RMM:   5    -0.293940501516E+03    0.77423E-06   -0.15419E-04   667   0.225E-02    0.590E-02
RMM:   6    -0.293940500797E+03    0.71836E-06   -0.23583E-05   408   0.920E-03
     64 T=   977. E= -.29798861E+03 F= -.29394050E+03 E0= -.29394438E+03  EK= 0.99717E+01 SP= -.14E+02 SK= 0.24E-01
       N       E                     dE             d eps       ncg     rms          rms(c)
DAV:   1    -0.294053229773E+03   -0.11273E+00   -0.33386E-02   936   0.230E+00    0.342E-01
RMM:   2    -0.294057079925E+03   -0.38502E-02   -0.34385E-02   675   0.358E-01    0.617E-02
RMM:   3    -0.294057743513E+03   -0.66359E-03   -0.67955E-03   795   0.173E-01    0.132E-01
RMM:   4    -0.294057856700E+03   -0.11319E-03   -0.12195E-03   816   0.731E-02    0.109E-01
RMM:   5    -0.294057863923E+03   -0.72230E-05   -0.11423E-04   586   0.198E-02    0.979E-02
RMM:   6    -0.294057863797E+03    0.12509E-06   -0.10330E-05   360   0.765E-03
     65 T=   978. E= -.29798786E+03 F= -.29405786E+03 E0= -.29406174E+03  EK= 0.99838E+01 SP= -.14E+02 SK= 0.22E-01
       N       E                     dE             d eps       ncg     rms          rms(c)
DAV:   1    -0.294196457998E+03   -0.13859E+00   -0.39100E-02   920   0.230E+00    0.171E-01
RMM:   2    -0.294200420517E+03   -0.39625E-02   -0.34617E-02   673   0.357E-01    0.165E-01
RMM:   3    -0.294201108740E+03   -0.68822E-03   -0.70731E-03   796   0.174E-01    0.232E-01
RMM:   4    -0.294201217691E+03   -0.10895E-03   -0.11470E-03   819   0.708E-02    0.217E-01
RMM:   5    -0.294201218085E+03   -0.39377E-06   -0.10354E-04   575   0.192E-02    0.196E-01
RMM:   6    -0.294201200238E+03    0.17848E-04   -0.47872E-05   522   0.113E-02    0.905E-02
RMM:   7    -0.294201214340E+03   -0.14103E-04   -0.18839E-04   576   0.164E-02    0.118E-01
RMM:   8    -0.294201211972E+03    0.23683E-05   -0.16260E-05   381   0.747E-03
     66 T=   982. E= -.29798817E+03 F= -.29420121E+03 E0= -.29420508E+03  EK= 0.10026E+02 SP= -.14E+02 SK= 0.20E-01
       N       E                     dE             d eps       ncg     rms          rms(c)
DAV:   1    -0.294365632145E+03   -0.16442E+00   -0.27787E-02   928   0.232E+00    0.882E-01
RMM:   2    -0.294369058494E+03   -0.34263E-02   -0.35727E-02   678   0.358E-01    0.294E-01
RMM:   3    -0.294369790668E+03   -0.73217E-03   -0.78149E-03   794   0.180E-01    0.552E-02
RMM:   4    -0.294369888169E+03   -0.97501E-04   -0.12529E-03   735   0.795E-02    0.191E-02
RMM:   5    -0.294369909571E+03   -0.21402E-04   -0.25455E-04   754   0.299E-02    0.110E-02
RMM:   6    -0.294369909997E+03   -0.42651E-06   -0.14963E-05   360   0.894E-03
     67 T=   989. E= -.29798760E+03 F= -.29436991E+03 E0= -.29437378E+03  EK= 0.10097E+02 SP= -.14E+02 SK= 0.19E-01
       N       E                     dE             d eps       ncg     rms          rms(c)
DAV:   1    -0.294560611737E+03   -0.19070E+00   -0.28279E-02   928   0.231E+00    0.184E-01
RMM:   2    -0.294564337866E+03   -0.37261E-02   -0.33104E-02   672   0.358E-01    0.286E-01
RMM:   3    -0.294565029184E+03   -0.69132E-03   -0.68678E-03   793   0.172E-01    0.367E-01
RMM:   4    -0.294565148601E+03   -0.11942E-03   -0.11522E-03   809   0.752E-02    0.389E-01
RMM:   5    -0.294565469659E+03   -0.32106E-03   -0.80173E-04   727   0.736E-02    0.494E-01
RMM:   6    -0.294565537115E+03   -0.67456E-04   -0.13069E-04   654   0.209E-02    0.573E-01
RMM:   7    -0.294565684727E+03   -0.14761E-03   -0.70592E-05   543   0.171E-02    0.667E-01
RMM:   8    -0.294565959439E+03   -0.27471E-03   -0.13610E-04   634   0.235E-02    0.794E-01
RMM:   9    -0.294565383998E+03    0.57544E-03   -0.54302E-04   772   0.531E-02    0.496E-01
RMM:  10    -0.294565249556E+03    0.13444E-03   -0.12460E-04   689   0.221E-02    0.389E-01
RMM:  11    -0.294565181396E+03    0.68160E-04   -0.39356E-05   468   0.131E-02    0.314E-01
RMM:  12    -0.294565044617E+03    0.13678E-03   -0.40816E-04   737   0.404E-02    0.822E-02
RMM:  13    -0.294565039582E+03    0.50349E-05   -0.31707E-05   480   0.105E-02
     68 T=   998. E= -.29798742E+03 F= -.29456504E+03 E0= -.29456891E+03  EK= 0.10196E+02 SP= -.14E+02 SK= 0.18E-01
       N       E                     dE             d eps       ncg     rms          rms(c)
DAV:   1    -0.294781271128E+03   -0.21623E+00   -0.33547E-02   936   0.233E+00    0.334E-01
RMM:   2    -0.294785140595E+03   -0.38695E-02   -0.33869E-02   678   0.364E-01    0.758E-02
RMM:   3    -0.294785802879E+03   -0.66228E-03   -0.66373E-03   795   0.173E-01    0.138E-01
RMM:   4    -0.294785921239E+03   -0.11836E-03   -0.12369E-03   797   0.736E-02    0.111E-01
RMM:   5    -0.294785927285E+03   -0.60460E-05   -0.13957E-04   647   0.227E-02    0.750E-02
RMM:   6    -0.294785925689E+03    0.15956E-05   -0.19043E-05   368   0.879E-03
     69 T=  1011. E= -.29798728E+03 F= -.29478593E+03 E0= -.29478979E+03  EK= 0.10320E+02 SP= -.14E+02 SK= 0.19E-01
       N       E                     dE             d eps       ncg     rms          rms(c)
DAV:   1    -0.295027283337E+03   -0.24136E+00   -0.34048E-02   928   0.233E+00    0.507E-01
RMM:   2    -0.295031183920E+03   -0.39006E-02   -0.34279E-02   670   0.358E-01    0.844E-02
RMM:   3    -0.295031918915E+03   -0.73500E-03   -0.74178E-03   799   0.181E-01    0.784E-02
RMM:   4    -0.295032025373E+03   -0.10646E-03   -0.12233E-03   795   0.753E-02    0.399E-02
RMM:   5    -0.295032035715E+03   -0.10342E-04   -0.15458E-04   683   0.237E-02    0.197E-02
RMM:   6    -0.295032035482E+03    0.23288E-06   -0.10132E-05   356   0.778E-03
     70 T=  1025. E= -.29798670E+03 F= -.29503204E+03 E0= -.29503590E+03  EK= 0.10464E+02 SP= -.13E+02 SK= 0.21E-01
       N       E                     dE             d eps       ncg     rms          rms(c)
DAV:   1    -0.295297702633E+03   -0.26567E+00   -0.32348E-02   952   0.234E+00    0.256E-01
RMM:   2    -0.295302105105E+03   -0.44025E-02   -0.38008E-02   678   0.366E-01    0.108E-01
RMM:   3    -0.295302858514E+03   -0.75341E-03   -0.76164E-03   795   0.181E-01    0.167E-01
RMM:   4    -0.295302974137E+03   -0.11562E-03   -0.12352E-03   816   0.742E-02    0.147E-01
RMM:   5    -0.295302975129E+03   -0.99245E-06   -0.13206E-04   636   0.216E-02    0.125E-01
RMM:   6    -0.295302963656E+03    0.11473E-04   -0.30281E-05   467   0.921E-03    0.673E-02
RMM:   7    -0.295302964292E+03   -0.63600E-06   -0.70392E-05   469   0.992E-03
     71 T=  1040. E= -.29798689E+03 F= -.29530296E+03 E0= -.29530683E+03  EK= 0.10625E+02 SP= -.13E+02 SK= 0.25E-01
       N       E                     dE             d eps       ncg     rms          rms(c)
DAV:   1    -0.295590250907E+03   -0.28729E+00   -0.24271E-02   952   0.236E+00    0.352E-01
RMM:   2    -0.295593780173E+03   -0.35293E-02   -0.30054E-02   659   0.344E-01    0.571E-02
RMM:   3    -0.295594510432E+03   -0.73026E-03   -0.71691E-03   804   0.175E-01    0.959E-02
RMM:   4    -0.295594602750E+03   -0.92318E-04   -0.10590E-03   770   0.705E-02    0.564E-02
RMM:   5    -0.295594615876E+03   -0.13125E-04   -0.19610E-04   669   0.257E-02    0.290E-02
RMM:   6    -0.295594615893E+03   -0.17433E-07   -0.10596E-05   356   0.786E-03
     72 T=  1057. E= -.29798737E+03 F= -.29559462E+03 E0= -.29559849E+03  EK= 0.10792E+02 SP= -.13E+02 SK= 0.30E-01
       N       E                     dE             d eps       ncg     rms          rms(c)
DAV:   1    -0.295894254130E+03   -0.29964E+00   -0.20135E-02   960   0.237E+00    0.225E-01
RMM:   2    -0.295897672651E+03   -0.34185E-02   -0.27426E-02   669   0.332E-01    0.752E-02
RMM:   3    -0.295898322604E+03   -0.64995E-03   -0.63171E-03   803   0.168E-01    0.125E-01
RMM:   4    -0.295898431012E+03   -0.10841E-03   -0.11540E-03   794   0.682E-02    0.108E-01
RMM:   5    -0.295898434999E+03   -0.39869E-05   -0.94097E-05   500   0.180E-02
     73 T=  1073. E= -.29798734E+03 F= -.29589843E+03 E0= -.29590232E+03  EK= 0.10955E+02 SP= -.13E+02 SK= 0.39E-01
       N       E                     dE             d eps       ncg     rms          rms(c)
DAV:   1    -0.296199163349E+03   -0.30073E+00   -0.20916E-02   952   0.235E+00    0.832E-02
RMM:   2    -0.296202496410E+03   -0.33331E-02   -0.26163E-02   676   0.325E-01    0.179E-01
RMM:   3    -0.296203143479E+03   -0.64707E-03   -0.61605E-03   800   0.165E-01    0.240E-01
RMM:   4    -0.296203260415E+03   -0.11694E-03   -0.11349E-03   815   0.665E-02    0.247E-01
RMM:   5    -0.296203261710E+03   -0.12948E-05   -0.53488E-05   457   0.150E-02
     74 T=  1087. E= -.29798735E+03 F= -.29620326E+03 E0= -.29620717E+03  EK= 0.11096E+02 SP= -.13E+02 SK= 0.52E-01
       N       E                     dE             d eps       ncg     rms          rms(c)
DAV:   1    -0.296491206200E+03   -0.28795E+00   -0.23132E-02   952   0.236E+00    0.255E-01
RMM:   2    -0.296494627543E+03   -0.34213E-02   -0.27307E-02   683   0.334E-01    0.345E-01
RMM:   3    -0.296495510051E+03   -0.88251E-03   -0.67199E-03   794   0.166E-01    0.584E-01
RMM:   4    -0.296495279521E+03    0.23053E-03   -0.16302E-03   619   0.932E-02    0.193E-01
RMM:   5    -0.296495310440E+03   -0.30919E-04   -0.63421E-04   803   0.469E-02    0.117E-01
RMM:   6    -0.296495316951E+03   -0.65106E-05   -0.52083E-05   453   0.184E-02
     75 T=  1097. E= -.29798675E+03 F= -.29649532E+03 E0= -.29649928E+03  EK= 0.11199E+02 SP= -.13E+02 SK= 0.68E-01
       N       E                     dE             d eps       ncg     rms          rms(c)
DAV:   1    -0.296754815458E+03   -0.25951E+00   -0.25710E-02   952   0.241E+00    0.691E-01
RMM:   2    -0.296758049154E+03   -0.32337E-02   -0.32078E-02   667   0.367E-01    0.226E-01
RMM:   3    -0.296758873300E+03   -0.82415E-03   -0.80720E-03   803   0.186E-01    0.702E-02
RMM:   4    -0.296758958890E+03   -0.85590E-04   -0.11616E-03   669   0.809E-02    0.337E-02
RMM:   5    -0.296759002631E+03   -0.43741E-04   -0.46970E-04   755   0.407E-02    0.139E-02
RMM:   6    -0.296759002080E+03    0.55040E-06   -0.24929E-05   378   0.115E-02
     76 T=  1101. E= -.29798587E+03 F= -.29675900E+03 E0= -.29676307E+03  EK= 0.11246E+02 SP= -.13E+02 SK= 0.88E-01
       N       E                     dE             d eps       ncg     rms          rms(c)
DAV:   1    -0.296976068625E+03   -0.21707E+00   -0.25319E-02   936   0.243E+00    0.345E-01
RMM:   2    -0.296979730595E+03   -0.36620E-02   -0.29925E-02   685   0.337E-01    0.885E-02
RMM:   3    -0.296980335963E+03   -0.60537E-03   -0.62195E-03   799   0.170E-01    0.104E-01
RMM:   4    -0.296980447968E+03   -0.11201E-03   -0.12952E-03   761   0.729E-02    0.480E-02
RMM:   5    -0.296980452609E+03   -0.46401E-05   -0.16057E-04   679   0.264E-02    0.129E-02
RMM:   6    -0.296980452953E+03   -0.34419E-06   -0.28696E-05   391   0.121E-02
     77 T=  1099. E= -.29798477E+03 F= -.29698045E+03 E0= -.29698473E+03  EK= 0.11221E+02 SP= -.12E+02 SK= 0.11E+00
       N       E                     dE             d eps       ncg     rms          rms(c)
DAV:   1    -0.297147929951E+03   -0.16748E+00   -0.24403E-02   952   0.241E+00    0.215E-01
RMM:   2    -0.297151697523E+03   -0.37676E-02   -0.30696E-02   679   0.352E-01    0.919E-02
RMM:   3    -0.297152426534E+03   -0.72901E-03   -0.69767E-03   801   0.177E-01    0.146E-01
RMM:   4    -0.297152555777E+03   -0.12924E-03   -0.13138E-03   818   0.728E-02    0.134E-01
RMM:   5    -0.297152559094E+03   -0.33173E-05   -0.70849E-05   486   0.168E-02
     78 T=  1089. E= -.29798345E+03 F= -.29715256E+03 E0= -.29715729E+03  EK= 0.11121E+02 SP= -.12E+02 SK= 0.14E+00
       N       E                     dE             d eps       ncg     rms          rms(c)
DAV:   1    -0.297268536014E+03   -0.11598E+00   -0.23888E-02   952   0.239E+00    0.137E-01
RMM:   2    -0.297272196007E+03   -0.36600E-02   -0.29570E-02   688   0.345E-01    0.252E-01
RMM:   3    -0.297272926181E+03   -0.73017E-03   -0.65720E-03   794   0.170E-01    0.349E-01
RMM:   4    -0.297272958275E+03   -0.32093E-04   -0.12428E-03   767   0.773E-02    0.293E-01
RMM:   5    -0.297272957810E+03    0.46439E-06   -0.38057E-04   702   0.427E-02    0.212E-01
RMM:   6    -0.297272921194E+03    0.36617E-04   -0.10023E-04   551   0.233E-02    0.183E-01
RMM:   7    -0.297272899254E+03    0.21940E-04   -0.32048E-05   400   0.127E-02    0.155E-01
RMM:   8    -0.297272879306E+03    0.19947E-04   -0.27342E-05   440   0.107E-02    0.113E-01
RMM:   9    -0.297272868378E+03    0.10928E-04   -0.19135E-05   380   0.764E-03    0.771E-02
RMM:  10    -0.297272858722E+03    0.96561E-05   -0.42635E-05   511   0.112E-02
     79 T=  1072. E= -.29798264E+03 F= -.29727286E+03 E0= -.29728012E+03  EK= 0.10947E+02 SP= -.12E+02 SK= 0.16E+00
       N       E                     dE             d eps       ncg     rms          rms(c)
DAV:   1    -0.297336385635E+03   -0.63517E-01   -0.33573E-02   936   0.237E+00    0.632E-01
RMM:   2    -0.297339487300E+03   -0.31017E-02   -0.34025E-02   678   0.366E-01    0.195E-01
RMM:   3    -0.297339860205E+03   -0.37291E-03   -0.87774E-03   809   0.188E-01    0.832E-02
RMM:   4    -0.297339728842E+03    0.13136E-03   -0.15326E-03   768   0.781E-02    0.624E-02
RMM:   5    -0.297339250040E+03    0.47880E-03   -0.57921E-04   645   0.328E-02    0.534E-02
RMM:   6    -0.297338897234E+03    0.35281E-03   -0.42899E-04   614   0.233E-02    0.511E-02
RMM:   7    -0.297338676107E+03    0.22113E-03   -0.18534E-04   664   0.163E-02    0.504E-02
RMM:   8    -0.297338181794E+03    0.49431E-03   -0.38419E-04   694   0.213E-02    0.330E-02
RMM:   9    -0.297337837794E+03    0.34400E-03   -0.95544E-04   802   0.300E-02    0.457E-02
RMM:  10    -0.297338546343E+03   -0.70855E-03   -0.15655E-03   790   0.342E-02    0.523E-02
RMM:  11    -0.297338243077E+03    0.30327E-03   -0.17629E-04   584   0.154E-02    0.538E-02
RMM:  12    -0.297337750096E+03    0.49298E-03   -0.76807E-04   751   0.239E-02    0.235E-02
RMM:  13    -0.297337781358E+03   -0.31262E-04   -0.49440E-05   534   0.100E-02    0.337E-02
RMM:  14    -0.297337666407E+03    0.11495E-03   -0.19568E-04   613   0.129E-02    0.102E-02
RMM:  15    -0.297337650927E+03    0.15479E-04   -0.10494E-04   573   0.107E-02    0.152E-02
RMM:  16    -0.297337632051E+03    0.18876E-04   -0.18489E-05   400   0.577E-03    0.757E-03
RMM:  17    -0.297337615607E+03    0.16444E-04   -0.66288E-05   513   0.747E-03    0.135E-02
RMM:  18    -0.297337634897E+03   -0.19289E-04   -0.16159E-05   383   0.515E-03    0.149E-02
RMM:  19    -0.297337634741E+03    0.15592E-06   -0.45215E-06   237   0.328E-03
     80 T=  1049. E= -.29797667E+03 F= -.29733763E+03 E0= -.29736699E+03  EK= 0.10709E+02 SP= -.12E+02 SK= 0.18E+00
       N       E                     dE             d eps       ncg     rms          rms(c)
DAV:   1    -0.297452163995E+03   -0.11453E+00   -0.72975E-01   912   0.297E+00    0.864E-01
RMM:   2    -0.297379877938E+03    0.72286E-01   -0.11333E-01   650   0.494E-01    0.561E-01
RMM:   3    -0.297369963983E+03    0.99140E-02   -0.46020E-02   779   0.302E-01    0.430E-01
RMM:   4    -0.297365008294E+03    0.49557E-02   -0.68337E-03   696   0.141E-01    0.241E-01
RMM:   5    -0.297363963548E+03    0.10447E-02   -0.15128E-02   645   0.120E-01    0.274E-01
RMM:   6    -0.297362163587E+03    0.18000E-02   -0.15040E-03   696   0.660E-02    0.139E-01
RMM:   7    -0.297362141757E+03    0.21829E-04   -0.72774E-04   621   0.345E-02    0.772E-02
RMM:   8    -0.297362289806E+03   -0.14805E-03   -0.62783E-04   636   0.290E-02    0.112E-01
RMM:   9    -0.297362031979E+03    0.25783E-03   -0.48109E-04   626   0.233E-02    0.508E-02
RMM:  10    -0.297361944255E+03    0.87725E-04   -0.98745E-05   558   0.156E-02    0.173E-02
RMM:  11    -0.297361948755E+03   -0.45008E-05   -0.40786E-05   534   0.932E-03
     81 T=  1021. E= -.29797063E+03 F= -.29736195E+03 E0= -.29740109E+03  EK= 0.10425E+02 SP= -.11E+02 SK= 0.19E+00
       N       E                     dE             d eps       ncg     rms          rms(c)
DAV:   1    -0.297419935565E+03   -0.57991E-01   -0.75954E-01   912   0.263E+00    0.685E-01
RMM:   2    -0.297392149385E+03    0.27786E-01   -0.87261E-02   669   0.449E-01    0.497E-01
RMM:   3    -0.297378291277E+03    0.13858E-01   -0.24508E-02   771   0.253E-01    0.352E-01
RMM:   4    -0.297373889987E+03    0.44013E-02   -0.69045E-03   761   0.129E-01    0.220E-01
RMM:   5    -0.297370637453E+03    0.32525E-02   -0.25208E-03   750   0.614E-02    0.197E-01
RMM:   6    -0.297368581390E+03    0.20561E-02   -0.27175E-03   657   0.529E-02    0.192E-01
RMM:   7    -0.297368965371E+03   -0.38398E-03   -0.59660E-03   786   0.732E-02    0.291E-01
RMM:   8    -0.297365991381E+03    0.29740E-02   -0.12263E-03   644   0.398E-02    0.881E-02
RMM:   9    -0.297365649006E+03    0.34237E-03   -0.53714E-04   647   0.316E-02    0.848E-02
RMM:  10    -0.297365640455E+03    0.85515E-05   -0.35309E-04   625   0.228E-02    0.773E-02
RMM:  11    -0.297365504183E+03    0.13627E-03   -0.16175E-04   591   0.146E-02    0.389E-02
RMM:  12    -0.297365456794E+03    0.47389E-04   -0.13874E-04   572   0.127E-02    0.245E-02
RMM:  13    -0.297365449299E+03    0.74951E-05   -0.39241E-05   461   0.803E-03
     82 T=   991. E= -.29796997E+03 F= -.29736545E+03 E0= -.29740394E+03  EK= 0.10118E+02 SP= -.11E+02 SK= 0.19E+00
       N       E                     dE             d eps       ncg     rms          rms(c)
DAV:   1    -0.297362503744E+03    0.29531E-02   -0.11972E-01   920   0.231E+00    0.318E-01
RMM:   2    -0.297363016063E+03   -0.51232E-03   -0.40393E-02   698   0.376E-01    0.164E-01
RMM:   3    -0.297359722457E+03    0.32936E-02   -0.10089E-02   792   0.189E-01    0.194E-01
RMM:   4    -0.297359510995E+03    0.21146E-03   -0.17050E-03   819   0.831E-02    0.199E-01
RMM:   5    -0.297359271965E+03    0.23903E-03   -0.13286E-04   674   0.221E-02    0.192E-01
RMM:   6    -0.297357655378E+03    0.16166E-02   -0.74576E-04   625   0.551E-02    0.210E-01
RMM:   7    -0.297377688027E+03   -0.20033E-01   -0.19737E-02   930   0.160E-01    0.971E-01
RMM:   8    -0.297355632315E+03    0.22056E-01   -0.84531E-03   823   0.119E-01    0.245E-01
RMM:   9    -0.297355643362E+03   -0.11047E-04   -0.40866E-04   741   0.286E-02    0.204E-01
RMM:  10    -0.297355805890E+03   -0.16253E-03   -0.41315E-04   700   0.446E-02    0.670E-02
RMM:  11    -0.297356301130E+03   -0.49524E-03   -0.39505E-04   689   0.397E-02    0.168E-01
RMM:  12    -0.297355582927E+03    0.71820E-03   -0.25609E-04   641   0.300E-02    0.539E-02
RMM:  13    -0.297355510139E+03    0.72788E-04   -0.61574E-05   535   0.106E-02    0.356E-02
RMM:  14    -0.297355603188E+03   -0.93049E-04   -0.25246E-05   413   0.117E-02    0.643E-02
RMM:  15    -0.297355462879E+03    0.14031E-03   -0.46634E-05   554   0.107E-02    0.180E-02
RMM:  16    -0.297355453314E+03    0.95653E-05   -0.91108E-06   354   0.429E-03
     83 T=   961. E= -.29796929E+03 F= -.29735545E+03 E0= -.29739321E+03  EK= 0.98087E+01 SP= -.11E+02 SK= 0.18E+00
       N       E                     dE             d eps       ncg     rms          rms(c)
DAV:   1    -0.297337308426E+03    0.18154E-01   -0.36905E-02   920   0.218E+00    0.276E-01
RMM:   2    -0.297340946529E+03   -0.36381E-02   -0.31137E-02   693   0.352E-01    0.590E-02
RMM:   3    -0.297341589128E+03   -0.64260E-03   -0.62444E-03   796   0.170E-01    0.108E-01
RMM:   4    -0.297341664259E+03   -0.75131E-04   -0.13513E-03   786   0.737E-02    0.904E-02
RMM:   5    -0.297341667343E+03   -0.30842E-05   -0.10208E-04   604   0.190E-02    0.712E-02
RMM:   6    -0.297341663461E+03    0.38817E-05   -0.14596E-05   363   0.821E-03
     84 T=   932. E= -.29796876E+03 F= -.29734166E+03 E0= -.29737855E+03  EK= 0.95138E+01 SP= -.10E+02 SK= 0.17E+00
       N       E                     dE             d eps       ncg     rms          rms(c)
DAV:   1    -0.297327086560E+03    0.14581E-01   -0.24644E-02   952   0.213E+00    0.172E-01
RMM:   2    -0.297330013454E+03   -0.29269E-02   -0.24121E-02   694   0.313E-01    0.626E-02
RMM:   3    -0.297330574761E+03   -0.56131E-03   -0.53727E-03   807   0.157E-01    0.946E-02
RMM:   4    -0.297330677794E+03   -0.10303E-03   -0.11027E-03   806   0.650E-02    0.842E-02
RMM:   5    -0.297330676614E+03    0.11798E-05   -0.58718E-05   492   0.152E-02
     85 T=   905. E= -.29796787E+03 F= -.29733068E+03 E0= -.29736659E+03  EK= 0.92459E+01 SP= -.10E+02 SK= 0.15E+00
       N       E                     dE             d eps       ncg     rms          rms(c)
DAV:   1    -0.297324392788E+03    0.62850E-02   -0.26233E-02   952   0.210E+00    0.124E-01
RMM:   2    -0.297327441804E+03   -0.30490E-02   -0.25853E-02   693   0.314E-01    0.868E-02
RMM:   3    -0.297327991548E+03   -0.54974E-03   -0.53624E-03   799   0.157E-01    0.116E-01
RMM:   4    -0.297328101555E+03   -0.11001E-03   -0.11187E-03   822   0.670E-02    0.108E-01
RMM:   5    -0.297328097742E+03    0.38135E-05   -0.64573E-05   496   0.153E-02
     86 T=   883. E= -.29796711E+03 F= -.29732810E+03 E0= -.29736251E+03  EK= 0.90141E+01 SP= -.98E+01 SK= 0.12E+00
       N       E                     dE             d eps       ncg     rms          rms(c)
DAV:   1    -0.297331527900E+03   -0.34263E-02   -0.34650E-02   920   0.208E+00    0.154E-01
RMM:   2    -0.297334607641E+03   -0.30797E-02   -0.26270E-02   698   0.320E-01    0.817E-02
RMM:   3    -0.297335161925E+03   -0.55428E-03   -0.54997E-03   797   0.157E-01    0.116E-01
RMM:   4    -0.297335257899E+03   -0.95974E-04   -0.99978E-04   808   0.659E-02    0.105E-01
RMM:   5    -0.297335256960E+03    0.93899E-06   -0.83887E-05   527   0.167E-02
     87 T=   864. E= -.29796674E+03 F= -.29733526E+03 E0= -.29736744E+03  EK= 0.88225E+01 SP= -.95E+01 SK= 0.89E-01
       N       E                     dE             d eps       ncg     rms          rms(c)
DAV:   1    -0.297345989552E+03   -0.10732E-01   -0.28252E-02   920   0.205E+00    0.208E-01
RMM:   2    -0.297348907127E+03   -0.29176E-02   -0.25999E-02   703   0.309E-01    0.692E-02
RMM:   3    -0.297349408715E+03   -0.50159E-03   -0.53749E-03   803   0.155E-01    0.836E-02
RMM:   4    -0.297349438238E+03   -0.29522E-04   -0.10492E-03   790   0.648E-02    0.654E-02
RMM:   5    -0.297349432595E+03    0.56427E-05   -0.97310E-05   614   0.173E-02
     88 T=   849. E= -.29796628E+03 F= -.29734943E+03 E0= -.29737917E+03  EK= 0.86709E+01 SP= -.93E+01 SK= 0.61E-01
       N       E                     dE             d eps       ncg     rms          rms(c)
DAV:   1    -0.297362872527E+03   -0.13434E-01   -0.20338E-02   936   0.205E+00    0.238E-01
[...]
DAV:   1    -0.295143880487E+03   -0.17134E+00   -0.90697E-01   944   0.286E+00    0.125E+00
RMM:   2    -0.295063246283E+03    0.80634E-01   -0.17882E-01   653   0.554E-01    0.576E-01
RMM:   3    -0.295056316702E+03    0.69296E-02   -0.40659E-02   773   0.317E-01    0.380E-01
RMM:   4    -0.295053266344E+03    0.30504E-02   -0.98333E-03   712   0.153E-01    0.202E-01
RMM:   5    -0.295051702744E+03    0.15636E-02   -0.63284E-03   688   0.980E-02    0.126E-01
RMM:   6    -0.295051659731E+03    0.43013E-04   -0.11021E-03   774   0.528E-02    0.116E-01
RMM:   7    -0.295051627545E+03    0.32186E-04   -0.19511E-04   530   0.202E-02    0.848E-02
RMM:   8    -0.295051377040E+03    0.25051E-03   -0.46433E-04   624   0.265E-02    0.606E-02
RMM:   9    -0.295051283067E+03    0.93973E-04   -0.25267E-04   594   0.176E-02    0.291E-02
RMM:  10    -0.295051256875E+03    0.26192E-04   -0.70473E-05   589   0.105E-02    0.176E-02
RMM:  11    -0.295051227756E+03    0.29119E-04   -0.70913E-05   563   0.105E-02    0.903E-03
RMM:  12    -0.295051226858E+03    0.89888E-06   -0.90415E-06   352   0.558E-03
   3277 T=  1069. E= -.29613928E+03 F= -.29505123E+03 E0= -.29509018E+03  EK= 0.10918E+02 SP= -.12E+02 SK= 0.49E-01
       N       E                     dE             d eps       ncg     rms          rms(c)
DAV:   1    -0.295142612650E+03   -0.91385E-01   -0.10837E-01   936   0.246E+00    0.571E-01
RMM:   2    -0.295136382004E+03    0.62306E-02   -0.71001E-02   663   0.427E-01    0.467E-01
RMM:   3    -0.295132299580E+03    0.40824E-02   -0.14194E-02   768   0.224E-01    0.272E-01
RMM:   4    -0.295131436633E+03    0.86295E-03   -0.33932E-03   762   0.971E-02    0.238E-01
RMM:   5    -0.295130710573E+03    0.72606E-03   -0.84614E-04   623   0.453E-02    0.112E-01
RMM:   6    -0.295130208651E+03    0.50192E-03   -0.10523E-03   617   0.411E-02    0.779E-02
RMM:   7    -0.295130181311E+03    0.27340E-04   -0.21259E-04   664   0.233E-02    0.474E-02
RMM:   8    -0.295130153389E+03    0.27922E-04   -0.78551E-05   554   0.123E-02    0.312E-02
RMM:   9    -0.295130108496E+03    0.44893E-04   -0.86358E-05   549   0.112E-02    0.140E-02
RMM:  10    -0.295130084630E+03    0.23866E-04   -0.42600E-05   523   0.871E-03    0.166E-02
RMM:  11    -0.295130060235E+03    0.24395E-04   -0.32812E-05   517   0.696E-03    0.130E-02
RMM:  12    -0.295130020348E+03    0.39887E-04   -0.74676E-05   558   0.927E-03    0.118E-02
RMM:  13    -0.295129996374E+03    0.23974E-04   -0.53325E-05   527   0.831E-03    0.714E-03
RMM:  14    -0.295129979201E+03    0.17173E-04   -0.15597E-04   612   0.125E-02    0.478E-03
RMM:  15    -0.295129979133E+03    0.67696E-07   -0.10635E-05   360   0.586E-03
   3278 T=  1059. E= -.29614054E+03 F= -.29512998E+03 E0= -.29516228E+03  EK= 0.10819E+02 SP= -.12E+02 SK= 0.60E-01
       N       E                     dE             d eps       ncg     rms          rms(c)
DAV:   1    -0.295202285058E+03   -0.72306E-01   -0.38341E-02   936   0.272E+00    0.415E-01
RMM:   2    -0.295198444042E+03    0.38410E-02   -0.50864E-02   673   0.410E-01    0.159E-01
RMM:   3    -0.295196121255E+03    0.23228E-02   -0.14312E-02   795   0.210E-01    0.175E-01
RMM:   4    -0.295194879460E+03    0.12418E-02   -0.24347E-03   732   0.965E-02    0.122E-01
RMM:   5    -0.295193443885E+03    0.14356E-02   -0.17809E-03   660   0.622E-02    0.711E-02
RMM:   6    -0.295192995308E+03    0.44858E-03   -0.10293E-03   736   0.432E-02    0.566E-02
RMM:   7    -0.295192892015E+03    0.10329E-03   -0.28930E-04   699   0.254E-02    0.262E-02
RMM:   8    -0.295192812842E+03    0.79173E-04   -0.17841E-04   597   0.193E-02    0.130E-02
RMM:   9    -0.295192810503E+03    0.23386E-05   -0.68385E-05   606   0.124E-02
   3279 T=  1047. E= -.29614087E+03 F= -.29519281E+03 E0= -.29522288E+03  EK= 0.10690E+02 SP= -.12E+02 SK= 0.71E-01
       N       E                     dE             d eps       ncg     rms          rms(c)
DAV:   1    -0.295230151524E+03   -0.37339E-01   -0.27453E-02   968   0.249E+00    0.330E-01
RMM:   2    -0.295233515586E+03   -0.33641E-02   -0.35469E-02   676   0.375E-01    0.923E-02
RMM:   3    -0.295234130809E+03   -0.61522E-03   -0.80236E-03   800   0.182E-01    0.132E-01
RMM:   4    -0.295234196696E+03   -0.65888E-04   -0.13226E-03   778   0.757E-02    0.943E-02
RMM:   5    -0.295234149449E+03    0.47248E-04   -0.22392E-04   687   0.279E-02    0.548E-02
RMM:   6    -0.295234105836E+03    0.43613E-04   -0.72211E-05   589   0.139E-02    0.285E-02
RMM:   7    -0.295234070707E+03    0.35129E-04   -0.47984E-05   524   0.994E-03    0.110E-02
RMM:   8    -0.295234063676E+03    0.70313E-05   -0.24265E-05   426   0.709E-03
   3280 T=  1031. E= -.29614006E+03 F= -.29523406E+03 E0= -.29526545E+03  EK= 0.10530E+02 SP= -.12E+02 SK= 0.79E-01
       N       E                     dE             d eps       ncg     rms          rms(c)
DAV:   1    -0.295251082319E+03   -0.17012E-01   -0.19116E-03   960   0.244E+00    0.345E-01
RMM:   2    -0.295255324595E+03   -0.42423E-02   -0.38224E-02   670   0.388E-01    0.867E-02
RMM:   3    -0.295256119092E+03   -0.79450E-03   -0.82011E-03   797   0.185E-01    0.150E-01
RMM:   4    -0.295256229485E+03   -0.11039E-03   -0.13281E-03   798   0.755E-02    0.125E-01
RMM:   5    -0.295256226331E+03    0.31539E-05   -0.13967E-04   677   0.225E-02    0.104E-01
RMM:   6    -0.295256220099E+03    0.62318E-05   -0.15378E-05   376   0.829E-03
   3281 T=  1013. E= -.29613724E+03 F= -.29525622E+03 E0= -.29529166E+03  EK= 0.10348E+02 SP= -.11E+02 SK= 0.84E-01
       N       E                     dE             d eps       ncg     rms          rms(c)
DAV:   1    -0.295319826784E+03   -0.63600E-01   -0.31381E-01   960   0.244E+00    0.112E+00
RMM:   2    -0.295288179237E+03    0.31648E-01   -0.18182E-01   645   0.523E-01    0.517E-01
RMM:   3    -0.295281766789E+03    0.64124E-02   -0.26612E-02   728   0.309E-01    0.361E-01
RMM:   4    -0.295279542567E+03    0.22242E-02   -0.10555E-02   736   0.145E-01    0.242E-01
RMM:   5    -0.295278006344E+03    0.15362E-02   -0.66538E-03   668   0.937E-02    0.133E-01
RMM:   6    -0.295278035548E+03   -0.29205E-04   -0.61306E-04   677   0.490E-02    0.101E-01
RMM:   7    -0.295277966670E+03    0.68878E-04   -0.53867E-04   583   0.313E-02    0.476E-02
RMM:   8    -0.295277926790E+03    0.39880E-04   -0.37851E-04   590   0.225E-02    0.219E-02
RMM:   9    -0.295277929027E+03   -0.22364E-05   -0.64984E-05   589   0.124E-02
   3282 T=   995. E= -.29613723E+03 F= -.29527793E+03 E0= -.29529910E+03  EK= 0.10162E+02 SP= -.11E+02 SK= 0.85E-01
       N       E                     dE             d eps       ncg     rms          rms(c)
DAV:   1    -0.295373459279E+03   -0.95532E-01   -0.13621E-02   968   0.320E+00    0.608E-01
RMM:   2    -0.295340392427E+03    0.33067E-01   -0.73532E-02   653   0.426E-01    0.296E-01
RMM:   3    -0.295326757064E+03    0.13635E-01   -0.39809E-02   769   0.257E-01    0.283E-01
RMM:   4    -0.295322661514E+03    0.40956E-02   -0.58723E-03   744   0.131E-01    0.205E-01
RMM:   5    -0.295318252559E+03    0.44090E-02   -0.56882E-03   641   0.104E-01    0.122E-01
RMM:   6    -0.295317588227E+03    0.66433E-03   -0.25035E-03   777   0.673E-02    0.116E-01
RMM:   7    -0.295317519053E+03    0.69175E-04   -0.35482E-04   689   0.316E-02    0.653E-02
RMM:   8    -0.295317171151E+03    0.34790E-03   -0.96906E-04   711   0.383E-02    0.375E-02
RMM:   9    -0.295317153730E+03    0.17422E-04   -0.14121E-04   679   0.194E-02    0.162E-02
RMM:  10    -0.295317151370E+03    0.23594E-05   -0.47749E-05   567   0.119E-02
   3283 T=   979. E= -.29613550E+03 F= -.29531715E+03 E0= -.29533656E+03  EK= 0.10001E+02 SP= -.11E+02 SK= 0.82E-01
       N       E                     dE             d eps       ncg     rms          rms(c)
DAV:   1    -0.295391743561E+03   -0.74590E-01   -0.35311E-03   936   0.247E+00    0.363E-01
RMM:   2    -0.295395895707E+03   -0.41521E-02   -0.41724E-02   688   0.397E-01    0.109E-01
RMM:   3    -0.295396550471E+03   -0.65476E-03   -0.78992E-03   791   0.183E-01    0.158E-01
RMM:   4    -0.295396634275E+03   -0.83804E-04   -0.15283E-03   797   0.780E-02    0.135E-01
RMM:   5    -0.295396625509E+03    0.87655E-05   -0.11970E-04   694   0.208E-02    0.106E-01
RMM:   6    -0.295396600768E+03    0.24742E-04   -0.37365E-05   480   0.108E-02    0.642E-02
RMM:   7    -0.295396573724E+03    0.27044E-04   -0.68515E-05   484   0.113E-02    0.202E-02
RMM:   8    -0.295396569582E+03    0.41419E-05   -0.30494E-05   450   0.703E-03
   3284 T=   968. E= -.29613350E+03 F= -.29539657E+03 E0= -.29542592E+03  EK= 0.98865E+01 SP= -.11E+02 SK= 0.77E-01
       N       E                     dE             d eps       ncg     rms          rms(c)
DAV:   1    -0.295651530643E+03   -0.25496E+00   -0.10817E+00   952   0.284E+00    0.782E-01
RMM:   2    -0.295566681186E+03    0.84849E-01   -0.10594E-01   664   0.486E-01    0.919E-01
RMM:   3    -0.295605248344E+03   -0.38567E-01   -0.16492E-02   748   0.251E-01    0.633E-01
RMM:   4    -0.295638314656E+03   -0.33066E-01   -0.27080E-02   682   0.165E-01    0.570E-01
RMM:   5    -0.295705411047E+03   -0.67096E-01   -0.55125E-02   717   0.178E-01    0.864E-01
RMM:   6    -0.295697487722E+03    0.79233E-02   -0.24314E-03   749   0.814E-02    0.852E-01
RMM:   7    -0.295734195647E+03   -0.36708E-01   -0.82266E-03   745   0.789E-02    0.970E-01
RMM:   8    -0.295646525634E+03    0.87670E-01   -0.35863E-02   824   0.149E-01    0.707E-01
RMM:   9    -0.295535006558E+03    0.11152E+00   -0.23870E-01   992   0.397E-01    0.257E-01
RMM:  10    -0.295535285429E+03   -0.27887E-03   -0.86058E-03   778   0.115E-01    0.212E-01
RMM:  11    -0.295534583030E+03    0.70240E-03   -0.24228E-03   697   0.532E-02    0.182E-01
RMM:  12    -0.295533352880E+03    0.12302E-02   -0.81956E-03   817   0.780E-02    0.182E-01
RMM:  13    -0.295532792237E+03    0.56064E-03   -0.21491E-03   721   0.457E-02    0.102E-01
RMM:  14    -0.295532979856E+03   -0.18762E-03   -0.52144E-04   632   0.245E-02    0.893E-02
RMM:  15    -0.295532309527E+03    0.67033E-03   -0.47611E-04   672   0.226E-02    0.522E-02
RMM:  16    -0.295532350273E+03   -0.40746E-04   -0.37860E-04   655   0.189E-02    0.502E-02
RMM:  17    -0.295532443749E+03   -0.93476E-04   -0.37296E-04   655   0.177E-02    0.505E-02
RMM:  18    -0.295532272412E+03    0.17134E-03   -0.24465E-04   606   0.143E-02    0.236E-02
RMM:  19    -0.295532246215E+03    0.26197E-04   -0.22456E-05   413   0.688E-03    0.115E-02
RMM:  20    -0.295532249426E+03   -0.32107E-05   -0.83409E-06   338   0.403E-03
   3285 T=   963. E= -.29613312E+03 F= -.29553225E+03 E0= -.29555969E+03  EK= 0.98360E+01 SP= -.11E+02 SK= 0.71E-01
       N       E                     dE             d eps       ncg     rms          rms(c)
DAV:   1    -0.295724344868E+03   -0.19210E+00   -0.40497E-02   952   0.247E+00    0.350E-01
RMM:   2    -0.295728411591E+03   -0.40667E-02   -0.40622E-02   690   0.379E-01    0.809E-02
RMM:   3    -0.295729083619E+03   -0.67203E-03   -0.80189E-03   794   0.180E-01    0.145E-01
RMM:   4    -0.295729185248E+03   -0.10163E-03   -0.13437E-03   808   0.750E-02    0.117E-01
RMM:   5    -0.295729156288E+03    0.28959E-04   -0.12805E-04   691   0.208E-02    0.807E-02
RMM:   6    -0.295729113645E+03    0.42644E-04   -0.48776E-05   526   0.116E-02    0.335E-02
RMM:   7    -0.295729085729E+03    0.27915E-04   -0.62012E-05   519   0.970E-03    0.213E-02
RMM:   8    -0.295729081508E+03    0.42213E-05   -0.14707E-05   387   0.630E-03
   3286 T=   965. E= -.29613514E+03 F= -.29572908E+03 E0= -.29574606E+03  EK= 0.98529E+01 SP= -.10E+02 SK= 0.64E-01
       N       E                     dE             d eps       ncg     rms          rms(c)
DAV:   1    -0.295995677599E+03   -0.26659E+00   -0.35179E-02   936   0.266E+00    0.474E-01
RMM:   2    -0.295984278956E+03    0.11399E-01   -0.57504E-02   677   0.405E-01    0.221E-01
RMM:   3    -0.295979686715E+03    0.45922E-02   -0.18291E-02   792   0.215E-01    0.226E-01
RMM:   4    -0.295978063435E+03    0.16233E-02   -0.30345E-03   762   0.970E-02    0.184E-01
RMM:   5    -0.295975007116E+03    0.30563E-02   -0.30610E-03   635   0.726E-02    0.666E-02
RMM:   6    -0.295974442459E+03    0.56466E-03   -0.19510E-03   667   0.518E-02    0.788E-02
RMM:   7    -0.295974360641E+03    0.81818E-04   -0.44444E-04   766   0.309E-02    0.427E-02
RMM:   8    -0.295974189823E+03    0.17082E-03   -0.35212E-04   618   0.252E-02    0.152E-02
RMM:   9    -0.295974158382E+03    0.31441E-04   -0.16962E-04   596   0.169E-02    0.122E-02
RMM:  10    -0.295974143127E+03    0.15255E-04   -0.80577E-05   616   0.123E-02    0.884E-03
RMM:  11    -0.295974132665E+03    0.10462E-04   -0.32449E-05   456   0.855E-03    0.548E-03
RMM:  12    -0.295974125862E+03    0.68026E-05   -0.22317E-05   419   0.664E-03
   3287 T=   972. E= -.29613584E+03 F= -.29597413E+03 E0= -.29599089E+03  EK= 0.99266E+01 SP= -.10E+02 SK= 0.59E-01
       N       E                     dE             d eps       ncg     rms          rms(c)
DAV:   1    -0.296250610251E+03   -0.27648E+00   -0.24129E-02   960   0.243E+00    0.657E-01
RMM:   2    -0.296253853618E+03   -0.32434E-02   -0.70293E-02   664   0.405E-01    0.293E-01
RMM:   3    -0.296252384333E+03    0.14693E-02   -0.13263E-02   768   0.215E-01    0.234E-01
RMM:   4    -0.296251600658E+03    0.78368E-03   -0.30754E-03   764   0.964E-02    0.166E-01
RMM:   5    -0.296250559135E+03    0.10415E-02   -0.20832E-03   622   0.506E-02    0.916E-02
RMM:   6    -0.296250076570E+03    0.48256E-03   -0.10512E-03   700   0.329E-02    0.968E-02
RMM:   7    -0.296249469228E+03    0.60734E-03   -0.22721E-04   619   0.171E-02    0.105E-01
RMM:   8    -0.296248446490E+03    0.10227E-02   -0.43622E-04   619   0.189E-02    0.104E-01
RMM:   9    -0.296247815576E+03    0.63091E-03   -0.25467E-04   617   0.157E-02    0.956E-02
RMM:  10    -0.296247146922E+03    0.66865E-03   -0.49856E-04   719   0.207E-02    0.472E-02
RMM:  11    -0.296248305436E+03   -0.11585E-02   -0.84540E-04   743   0.247E-02    0.979E-02
RMM:  12    -0.296248517755E+03   -0.21232E-03   -0.72098E-05   583   0.103E-02    0.985E-02
RMM:  13    -0.296247277538E+03    0.12402E-02   -0.68455E-04   732   0.220E-02    0.531E-02
RMM:  14    -0.296247410585E+03   -0.13305E-03   -0.22878E-05   439   0.738E-03    0.652E-02
RMM:  15    -0.296247268684E+03    0.14190E-03   -0.31868E-05   441   0.591E-03    0.512E-02
RMM:  16    -0.296247112573E+03    0.15611E-03   -0.10706E-04   594   0.933E-03    0.202E-02
RMM:  17    -0.296247092173E+03    0.20401E-04   -0.27439E-05   434   0.573E-03    0.722E-03
RMM:  18    -0.296247091952E+03    0.22037E-06   -0.32710E-06   342   0.350E-03
   3288 T=   983. E= -.29613348E+03 F= -.29624709E+03 E0= -.29627409E+03  EK= 0.10036E+02 SP= -.10E+02 SK= 0.55E-01
       N       E                     dE             d eps       ncg     rms          rms(c)
DAV:   1    -0.296615853866E+03   -0.36876E+00   -0.57943E-01   960   0.273E+00    0.709E-01
RMM:   2    -0.296534425185E+03    0.81429E-01   -0.97786E-02   660   0.457E-01    0.258E-01
RMM:   3    -0.296534109783E+03    0.31540E-03   -0.22222E-02   793   0.242E-01    0.292E-01
RMM:   4    -0.296534395516E+03   -0.28573E-03   -0.38337E-03   701   0.106E-01    0.234E-01
RMM:   5    -0.296532794647E+03    0.16009E-02   -0.10325E-03   730   0.538E-02    0.109E-01
RMM:   6    -0.296532834504E+03   -0.39857E-04   -0.67867E-04   629   0.343E-02    0.101E-01
RMM:   7    -0.296532434695E+03    0.39981E-03   -0.14557E-04   629   0.215E-02    0.509E-02
RMM:   8    -0.296532390993E+03    0.43702E-04   -0.11828E-04   545   0.163E-02    0.189E-02
RMM:   9    -0.296532371431E+03    0.19562E-04   -0.11127E-04   565   0.133E-02    0.140E-02
RMM:  10    -0.296532370045E+03    0.13861E-05   -0.22016E-05   421   0.749E-03
   3289 T=   995. E= -.29613437E+03 F= -.29653237E+03 E0= -.29656330E+03  EK= 0.10156E+02 SP= -.98E+01 SK= 0.54E-01
                                                                                                                                                                                                                                                                                                                                                                                                                                                                                                                                                                                                                                                                                                                                                                                                                                                                                                                                                                                                                                                                                                                                                                                                                                                                                                                                                                                                                                                                                                                                                                                                                                                                                                                                                                                                                                                                                                                                    91 T=  1012. E= -.29613531E+03 F= -.29704685E+03 E0= -.29708305E+03  EK= 0.10337E+02 SP= -.95E+01 SK= 0.56E-01
       N       E                     dE             d eps       ncg     rms          rms(c)
DAV:   1    -0.297238541320E+03   -0.19168E+00   -0.32395E-02   944   0.229E+00    0.399E-01
RMM:   2    -0.297242152961E+03   -0.36116E-02   -0.33546E-02   674   0.334E-01    0.107E-01
RMM:   3    -0.297243086488E+03   -0.93353E-03   -0.72612E-03   792   0.167E-01    0.171E-01
RMM:   4    -0.297242582952E+03    0.50354E-03   -0.12333E-03   720   0.712E-02    0.106E-01
RMM:   5    -0.297242596439E+03   -0.13487E-04   -0.23776E-04   734   0.261E-02    0.792E-02
RMM:   6    -0.297242589004E+03    0.74358E-05   -0.26182E-05   397   0.993E-03
   3292 T=  1014. E= -.29613583E+03 F= -.29724259E+03 E0= -.29728016E+03  EK= 0.10360E+02 SP= -.93E+01 SK= 0.59E-01
       N       E                     dE             d eps       ncg     rms          rms(c)
DAV:   1    -0.297375433843E+03   -0.13284E+00   -0.22543E-02   936   0.230E+00    0.190E-01
RMM:   2    -0.297378773405E+03   -0.33396E-02   -0.30708E-02   672   0.317E-01    0.126E-01
RMM:   3    -0.297379322716E+03   -0.54931E-03   -0.60649E-03   796   0.155E-01    0.176E-01
RMM:   4    -0.297379377669E+03   -0.54953E-04   -0.85010E-04   793   0.630E-02    0.166E-01
RMM:   5    -0.297379379124E+03   -0.14550E-05   -0.94208E-05   616   0.185E-02
   3293 T=  1011. E= -.29613600E+03 F= -.29737938E+03 E0= -.29741828E+03  EK= 0.10320E+02 SP= -.91E+01 SK= 0.61E-01
       N       E                     dE             d eps       ncg     rms          rms(c)
DAV:   1    -0.297444999776E+03   -0.65622E-01   -0.25822E-02   952   0.231E+00    0.124E-01
RMM:   2    -0.297448044039E+03   -0.30443E-02   -0.28080E-02   674   0.310E-01    0.167E-01
RMM:   3    -0.297448544571E+03   -0.50053E-03   -0.53938E-03   794   0.149E-01    0.224E-01
RMM:   4    -0.297448622748E+03   -0.78177E-04   -0.79883E-04   809   0.603E-02    0.217E-01
RMM:   5    -0.297448616888E+03    0.58603E-05   -0.81749E-05   580   0.174E-02
   3294 T=  1000. E= -.29613559E+03 F= -.29744862E+03 E0= -.29748912E+03  EK= 0.10212E+02 SP= -.90E+01 SK= 0.63E-01
