 vasp.6.3.2 27Jun22 (build Mar 25 2024 10:42:18) complex                         
 executed on             LinuxGNU date 2024.03.31  17:15:10
 running on   32 total cores
 distrk:  each k-point on   32 cores,    1 groups
 distr:  one band on NCORE=   1 cores,   32 groups


--------------------------------------------------------------------------------------------------------


 INCAR:
   ISTART = 0
   ICHARG = 2
   PREC = Accurate
   IBRION = -1
   EDIFF = 0.000000001
   EDIFFG = -0.0005
   NSW = 0
   NELM = 100
   ENCUT = 520
   ISMEAR = -5
   SIGMA = 0.05
   ISPIN = 2
   ISYM = 0
   LWAVE = False
   LCHARG = False
   LASPH = True
   LORBIT = 11
   ADDGRID = TRUE

 POTCAR:    PAW_PBE S 06Sep2000                   
 -----------------------------------------------------------------------------
|                                                                             |
|           W    W    AA    RRRRR   N    N  II  N    N   GGGG   !!!           |
|           W    W   A  A   R    R  NN   N  II  NN   N  G    G  !!!           |
|           W    W  A    A  R    R  N N  N  II  N N  N  G       !!!           |
|           W WW W  AAAAAA  RRRRR   N  N N  II  N  N N  G  GGG   !            |
|           WW  WW  A    A  R   R   N   NN  II  N   NN  G    G                |
|           W    W  A    A  R    R  N    N  II  N    N   GGGG   !!!           |
|                                                                             |
|     You use a magnetic or noncollinear calculation, but did not specify     |
|     the initial magnetic moment with the MAGMOM tag. Note that a            |
|     default of 1 will be used for all atoms. This ferromagnetic setup       |
|     may break the symmetry of the crystal, in particular it may rule        |
|     out finding an antiferromagnetic solution. Thence, we recommend         |
|     setting the initial magnetic moment manually or verifying carefully     |
|     that this magnetic setup is desired.                                    |
|                                                                             |
 -----------------------------------------------------------------------------

 -----------------------------------------------------------------------------
|                                                                             |
|           W    W    AA    RRRRR   N    N  II  N    N   GGGG   !!!           |
|           W    W   A  A   R    R  NN   N  II  NN   N  G    G  !!!           |
|           W    W  A    A  R    R  N N  N  II  N N  N  G       !!!           |
|           W WW W  AAAAAA  RRRRR   N  N N  II  N  N N  G  GGG   !            |
|           WW  WW  A    A  R   R   N   NN  II  N   NN  G    G                |
|           W    W  A    A  R    R  N    N  II  N    N   GGGG   !!!           |
|                                                                             |
|     For optimal performance we recommend to set                             |
|       NCORE = 2 up to number-of-cores-per-socket                            |
|     NCORE specifies how many cores store one orbital (NPAR=cpu/NCORE).      |
|     This setting can greatly improve the performance of VASP for DFT.       |
|     The default, NCORE=1 might be grossly inefficient on modern             |
|     multi-core architectures or massively parallel machines. Do your        |
|     own testing! More info at https://www.vasp.at/wiki/index.php/NCORE      |
|     Unfortunately you need to use the default for GW and RPA                |
|     calculations (for HF NCORE is supported but not extensively tested      |
|     yet).                                                                   |
|                                                                             |
 -----------------------------------------------------------------------------

 POTCAR:    PAW_PBE S 06Sep2000                   
   SHA256 =  0fc7481fb0695f01bdc6462160264c5c84044ae9ec85a907d398b887a2bc3132 S/POTCAR              
   COPYR  = (c) Copyright 06Sep2000 Georg Kresse                                                    
   COPYR  = This file is part of the software VASP. Any use, copying, and all other rights are regul
   COPYR  = If you do not have a valid VASP license, you may not use, copy or distribute this file. 
   VRHFIN =S : s2p4                                                                                 
   LEXCH  = PE                                                                                      
   EATOM  =   276.8230 eV,   20.3459 Ry                                                             
                                                                                                    
   TITEL  = PAW_PBE S 06Sep2000                                                                     
   LULTRA =        F    use ultrasoft PP ?                                                          
   IUNSCR =        1    unscreen: 0-lin 1-nonlin 2-no                                               
   RPACOR =    1.500    partial core radius                                                         
   POMASS =   32.066; ZVAL   =    6.000    mass and valenz                                          
   RCORE  =    1.900    outmost cutoff radius                                                       
   RWIGS  =    2.200; RWIGS  =    1.164    wigner-seitz radius (au A)                               
   ENMAX  =  258.689; ENMIN  =  194.016 eV                                                          
   ICORE  =        2    local potential                                                             
   LCOR   =        T    correct aug charges                                                         
   LPAW   =        T    paw PP                                                                      
   EAUG   =  335.092                                                                                
   DEXC   =    0.000                                                                                
   RMAX   =    1.942    core radius for proj-oper                                                   
   RAUG   =    1.300    factor for augmentation sphere                                              
   RDEP   =    1.954    radius for radial grids                                                     
   RDEPT  =    1.744    core radius for aug-charge                                                  
                                                                                                    
   Atomic configuration                                                                             
    6 entries                                                                                       
     n  l   j            E        occ.                                                              
     1  0  0.50     -2405.8406   2.0000                                                             
     2  0  0.50      -211.7007   2.0000                                                             
     2  1  1.50      -156.4958   6.0000                                                             
     3  0  0.50       -17.2562   2.0000                                                             
     3  1  0.50        -7.0085   4.0000                                                             
     3  2  1.50        -6.8029   0.0000                                                             
   Description                                                                                      
     l       E           TYP  RCUT    TYP  RCUT                                                     
     0    -17.2561641     23  1.900                                                                 
     0    -15.8743224     23  1.900                                                                 
     1     -7.0085400     23  1.900                                                                 
     1     -2.7779785     23  1.900                                                                 
     2     -6.8029130     23  1.900                                                                 
  local pseudopotential read in
  partial core-charges read in
  partial kinetic energy density read in
  atomic valenz-charges read in
  non local Contribution for L=           0  read in
    real space projection operators read in
  non local Contribution for L=           0  read in
    real space projection operators read in
  non local Contribution for L=           1  read in
    real space projection operators read in
  non local Contribution for L=           1  read in
    real space projection operators read in
    PAW grid and wavefunctions read in

   number of l-projection  operators is LMAX  =           4
   number of lm-projection operators is LMMAX =           8

 -----------------------------------------------------------------------------
|                                                                             |
|               ----> ADVICE to this user running VASP <----                  |
|                                                                             |
|     You have a (more or less) 'large supercell' and for larger cells it     |
|     might be more efficient to use real-space projection operators.         |
|     Therefore, try LREAL= Auto in the INCAR file.                           |
|     Mind: For very accurate calculation, you might also keep the            |
|     reciprocal projection scheme (i.e. LREAL=.FALSE.).                      |
|                                                                             |
 -----------------------------------------------------------------------------

  PAW_PBE S 06Sep2000                   :
 energy of atom  1       EATOM= -276.8230
 kinetic energy error for atom=    0.0016 (will be added to EATOM!!)


 POSCAR: generated by phonopy
  positions in direct lattice
  No initial velocities read in
 exchange correlation table for  LEXCH =        8
   RHO(1)=    0.500       N(1)  =     2000
   RHO(2)=  100.500       N(2)  =     4000



--------------------------------------------------------------------------------------------------------


 ion  position               nearest neighbor table
   1  0.886  0.467  0.678-  45 1.98  24 2.13
   2  0.886  0.967  0.678-  46 1.98  23 2.13
   3  0.330  0.189  0.551-  41 2.05  19 2.13
   4  0.330  0.689  0.551-  42 2.05  20 2.13
   5  0.913  0.105  0.912-  51 1.98  11 2.13
   6  0.913  0.605  0.912-  52 1.98  12 2.13
   7  0.240  0.301  0.777-  19 1.98  37 2.23
   8  0.240  0.801  0.777-  20 1.98  38 2.23
   9  0.144  0.306  0.224-  31 2.06  39 2.13
  10  0.144  0.806  0.224-  32 2.05  40 2.13
  11  0.856  0.194  0.776-  47 2.05   5 2.13
  12  0.856  0.694  0.776-  48 2.05   6 2.13
  13  0.760  0.199  0.223-  27 1.98  33 2.23
  14  0.760  0.699  0.223-  28 1.98  34 2.23
  15  0.170  0.439  0.449-  31 2.05  30 2.13
  16  0.170  0.939  0.449-  32 2.05  29 2.13
  17  0.413  0.145  0.912-  37 1.98  43 2.13
  18  0.413  0.645  0.912-  38 1.98  44 2.13
  19  0.386  0.283  0.678-   7 1.98   3 2.13
  20  0.386  0.783  0.678-   8 1.98   4 2.13
  21  0.644  0.444  0.224-  53 2.05  35 2.13
  22  0.644  0.944  0.224-  54 2.05  36 2.13
  23  0.830  0.061  0.551-  47 2.05   2 2.13
  24  0.830  0.561  0.551-  48 2.05   1 2.13
  25  0.260  0.051  0.223-  29 1.98  50 2.23
  26  0.260  0.551  0.223-  30 1.98  49 2.23
  27  0.614  0.217  0.322-  13 1.98  55 2.13
  28  0.614  0.717  0.322-  14 1.98  56 2.13
  29  0.114  0.033  0.322-  25 1.98  16 2.13
  30  0.114  0.533  0.322-  26 1.98  15 2.13
  31  0.060  0.345  0.375-  15 2.05   9 2.06
  32  0.060  0.845  0.374-  10 2.05  16 2.05
  33  0.743  0.289  0.071-  35 1.98  13 2.23
  34  0.743  0.789  0.071-  36 1.98  14 2.23
  35  0.587  0.355  0.088-  33 1.98  21 2.13
  36  0.587  0.855  0.088-  34 1.98  22 2.13
  37  0.257  0.211  0.929-  17 1.98   7 2.23
  38  0.257  0.711  0.929-  18 1.98   8 2.23
  39  0.087  0.395  0.088-  49 1.98   9 2.13
  40  0.087  0.895  0.088-  50 1.98  10 2.13
  41  0.440  0.095  0.626-  43 2.05   3 2.05
  42  0.440  0.595  0.626-  44 2.05   4 2.05
  43  0.356  0.056  0.776-  41 2.05  17 2.13
  44  0.356  0.556  0.776-  42 2.05  18 2.13
  45  0.740  0.449  0.777-   1 1.98  52 2.23
  46  0.740  0.949  0.777-   2 1.98  51 2.23
  47  0.940  0.155  0.626-  11 2.05  23 2.05
  48  0.940  0.655  0.626-  12 2.05  24 2.05
  49  0.243  0.461  0.071-  39 1.98  26 2.23
  50  0.243  0.961  0.071-  40 1.98  25 2.23
  51  0.757  0.039  0.929-   5 1.98  46 2.23
  52  0.757  0.539  0.929-   6 1.98  45 2.23
  53  0.560  0.405  0.374-  21 2.05  55 2.05
  54  0.560  0.905  0.374-  22 2.05  56 2.05
  55  0.670  0.311  0.449-  53 2.05  27 2.13
  56  0.670  0.811  0.449-  54 2.05  28 2.13


IMPORTANT INFORMATION: All symmetrisations will be switched off!
NOSYMM: (Re-)initialisation of all symmetry stuff for point group C_1.


----------------------------------------------------------------------------------------

                                     Primitive cell                                     

  volume of cell :    1863.6770

  direct lattice vectors                    reciprocal lattice vectors
     0.000000000 10.307367086 -0.372855731     0.000000000  0.096453423 -0.015606996
    16.788494411  0.000000000  0.000000000     0.059564603  0.000000000  0.000000000
     0.000000000 -1.732519801-10.707215182     0.000000000 -0.003358783 -0.092851486

  length of vectors
    10.314108670 16.788494411 10.846477853     0.097707938  0.059564603  0.092912216

  position of ions in fractional coordinates (direct lattice)
     0.886423141  0.467004751  0.678126386
     0.886423141  0.967004751  0.678126386
     0.329563264  0.188743823  0.550707721
     0.329563264  0.688743823  0.550707721
     0.912671285  0.105241885  0.911960471
     0.912671285  0.605241885  0.911960471
     0.239736405  0.300831047  0.776574189
     0.239736405  0.800831047  0.776574189
     0.144417516  0.305688762  0.224396680
     0.144417516  0.805688762  0.224396680
     0.855582484  0.194311238  0.775603320
     0.855582484  0.694311238  0.775603320
     0.760263595  0.199168953  0.223425811
     0.760263595  0.699168953  0.223425811
     0.170436736  0.438743823  0.449292279
     0.170436736  0.938743823  0.449292279
     0.412671285  0.144758115  0.911960471
     0.412671285  0.644758115  0.911960471
     0.386423141  0.282995249  0.678126386
     0.386423141  0.782995249  0.678126386
     0.644417516  0.444311238  0.224396680
     0.644417516  0.944311238  0.224396680
     0.829563264  0.061256177  0.550707721
     0.829563264  0.561256177  0.550707721
     0.260263595  0.050831047  0.223425811
     0.260263595  0.550831047  0.223425811
     0.613576859  0.217004751  0.321873614
     0.613576859  0.717004751  0.321873614
     0.113576859  0.032995249  0.321873614
     0.113576859  0.532995249  0.321873614
     0.059895700  0.345087734  0.375406325
     0.059895700  0.845087734  0.374484367
     0.743425210  0.289344343  0.071165234
     0.743425210  0.789344343  0.071165234
     0.587328715  0.355241885  0.088039529
     0.587328715  0.855241885  0.088039529
     0.256574790  0.210655657  0.928834766
     0.256574790  0.710655657  0.928834766
     0.087328715  0.394758115  0.088039529
     0.087328715  0.894758115  0.088039529
     0.440104300  0.095087734  0.625515633
     0.440104300  0.595087734  0.625515633
     0.355582484  0.055688762  0.775603320
     0.355582484  0.555688762  0.775603320
     0.739736405  0.449168953  0.776574189
     0.739736405  0.949168953  0.776574189
     0.940104300  0.154912266  0.625515633
     0.940104300  0.654912266  0.625515633
     0.243425210  0.460655657  0.071165234
     0.243425210  0.960655657  0.071165234
     0.756574790  0.039344343  0.928834766
     0.756574790  0.539344343  0.928834766
     0.559895700  0.404912266  0.374484367
     0.559895700  0.904912266  0.374484367
     0.670436736  0.311256177  0.449292279
     0.670436736  0.811256177  0.449292279

  ion indices of the primitive-cell ions
   primitive index   ion index
                 1           1
                 2           2
                 3           3
                 4           4
                 5           5
                 6           6
                 7           7
                 8           8
                 9           9
                10          10
                11          11
                12          12
                13          13
                14          14
                15          15
                16          16
                17          17
                18          18
                19          19
                20          20
                21          21
                22          22
                23          23
                24          24
                25          25
                26          26
                27          27
                28          28
                29          29
                30          30
                31          31
                32          32
                33          33
                34          34
                35          35
                36          36
                37          37
                38          38
                39          39
                40          40
                41          41
                42          42
                43          43
                44          44
                45          45
                46          46
                47          47
                48          48
                49          49
                50          50
                51          51
                52          52
                53          53
                54          54
                55          55
                56          56

----------------------------------------------------------------------------------------



 KPOINTS: pymatgen with grid density = 595 / numbe

Automatic generation of k-mesh.
 Grid dimensions read from file:
 generate k-points for:    2    2    2

 Generating k-lattice:

  Cartesian coordinates                     Fractional coordinates (reciprocal lattice)
     0.000000000  0.048226712 -0.007803498     0.500000000  0.000000000 -0.000000000
     0.029782301  0.000000000  0.000000000     0.000000000  0.500000000  0.000000000
     0.000000000 -0.001679391 -0.046425743    -0.000000000  0.000000000  0.500000000

  Length of vectors
     0.048853969  0.029782301  0.046456108

  Shift w.r.t. Gamma in fractional coordinates (k-lattice)
     0.000000000  0.000000000  0.000000000

 TETIRR: Found     24 inequivalent tetrahedra from       48
 
 Subroutine IBZKPT returns following result:
 ===========================================
 
 Found      8 irreducible k-points:
 
 Following reciprocal coordinates:
            Coordinates               Weight
  0.000000  0.000000  0.000000      1.000000
  0.500000  0.000000  0.000000      1.000000
  0.000000  0.500000  0.000000      1.000000
  0.500000  0.500000  0.000000      1.000000
  0.000000  0.000000  0.500000      1.000000
  0.500000  0.000000  0.500000      1.000000
  0.000000  0.500000  0.500000      1.000000
  0.500000  0.500000  0.500000      1.000000
 
 Following cartesian coordinates:
            Coordinates               Weight
  0.000000  0.000000 -0.000000      1.000000
  0.000000  0.048227 -0.007803      1.000000
  0.029782  0.000000 -0.000000      1.000000
  0.029782  0.048227 -0.007803      1.000000
  0.000000 -0.001679 -0.046426      1.000000
  0.000000  0.046547 -0.054229      1.000000
  0.029782 -0.001679 -0.046426      1.000000
  0.029782  0.046547 -0.054229      1.000000
 


--------------------------------------------------------------------------------------------------------




 Dimension of arrays:
   k-points           NKPTS =      8   k-points in BZ     NKDIM =      8   number of bands    NBANDS=    256
   number of dos      NEDOS =    301   number of ions     NIONS =     56
   non local maximal  LDIM  =      4   non local SUM 2l+1 LMDIM =      8
   total plane-waves  NPLWV = 846720
   max r-space proj   IRMAX =      1   max aug-charges    IRDMAX= 114695
   dimension x,y,z NGX =    80 NGY =  126 NGZ =   84
   dimension x,y,z NGXF=   160 NGYF=  252 NGZF=  168
   support grid    NGXF=   320 NGYF=  504 NGZF=  336
   ions per type =              56
   NGX,Y,Z   is equivalent  to a cutoff of  12.89, 12.48, 12.87 a.u.
   NGXF,Y,Z  is equivalent  to a cutoff of  25.79, 24.95, 25.75 a.u.

 SYSTEM =  unknown system                          
 POSCAR =  generated by phonopy                    

 Startparameter for this run:
   NWRITE =      2    write-flag & timer
   PREC   = accura    normal or accurate (medium, high low for compatibility)
   ISTART =      0    job   : 0-new  1-cont  2-samecut
   ICHARG =      2    charge: 1-file 2-atom 10-const
   ISPIN  =      2    spin polarized calculation?
   LNONCOLLINEAR =      F non collinear calculations
   LSORBIT =      F    spin-orbit coupling
   INIWAV =      1    electr: 0-lowe 1-rand  2-diag
   LASPH  =      T    aspherical Exc in radial PAW
 Electronic Relaxation 1
   ENCUT  =  520.0 eV  38.22 Ry    6.18 a.u.  19.18 31.22 20.17*2*pi/ulx,y,z
   ENINI  =  520.0     initial cutoff
   ENAUG  =  335.1 eV  augmentation charge cutoff
   NELM   =    100;   NELMIN=  2; NELMDL= -5     # of ELM steps 
   EDIFF  = 0.1E-08   stopping-criterion for ELM
   LREAL  =      F    real-space projection
   NLSPLINE    = F    spline interpolate recip. space projectors
   LCOMPAT=      F    compatible to vasp.4.4
   GGA_COMPAT  = T    GGA compatible to vasp.4.4-vasp.4.6
   LMAXPAW     = -100 max onsite density
   LMAXMIX     =    2 max onsite mixed and CHGCAR
   VOSKOWN=      0    Vosko Wilk Nusair interpolation
   ROPT   =    0.00000
 Ionic relaxation
   EDIFFG = -.5E-03   stopping-criterion for IOM
   NSW    =      0    number of steps for IOM
   NBLOCK =      1;   KBLOCK =      1    inner block; outer block 
   IBRION =     -1    ionic relax: 0-MD 1-quasi-New 2-CG
   NFREE  =      0    steps in history (QN), initial steepest desc. (CG)
   ISIF   =      2    stress and relaxation
   IWAVPR =     10    prediction:  0-non 1-charg 2-wave 3-comb
   ISYM   =      0    0-nonsym 1-usesym 2-fastsym
   LCORR  =      T    Harris-Foulkes like correction to forces

   POTIM  = 0.5000    time-step for ionic-motion
   TEIN   =    0.0    initial temperature
   TEBEG  =    0.0;   TEEND  =   0.0 temperature during run
   SMASS  =  -3.00    Nose mass-parameter (am)
   estimated Nose-frequenzy (Omega)   =  0.10E-29 period in steps = 0.13E+47 mass=  -0.243E-26a.u.
   SCALEE = 1.0000    scale energy and forces
   NPACO  =    256;   APACO  = 10.0  distance and # of slots for P.C.
   PSTRESS=    0.0 pullay stress

  Mass of Ions in am
   POMASS =  32.07
  Ionic Valenz
   ZVAL   =   6.00
  Atomic Wigner-Seitz radii
   RWIGS  =  -1.00
  virtual crystal weights 
   VCA    =   1.00
   NELECT =     336.0000    total number of electrons
   NUPDOWN=      -1.0000    fix difference up-down

 DOS related values:
   EMIN   =  10.00;   EMAX   =-10.00  energy-range for DOS
   EFERMI =   0.00
   ISMEAR =    -5;   SIGMA  =   0.05  broadening in eV -4-tet -1-fermi 0-gaus

 Electronic relaxation 2 (details)
   IALGO  =     38    algorithm
   LDIAG  =      T    sub-space diagonalisation (order eigenvalues)
   LSUBROT=      F    optimize rotation matrix (better conditioning)
   TURBO    =      0    0=normal 1=particle mesh
   IRESTART =      0    0=no restart 2=restart with 2 vectors
   NREBOOT  =      0    no. of reboots
   NMIN     =      0    reboot dimension
   EREF     =   0.00    reference energy to select bands
   IMIX   =      4    mixing-type and parameters
     AMIX     =   0.40;   BMIX     =  1.00
     AMIX_MAG =   1.60;   BMIX_MAG =  1.00
     AMIN     =   0.10
     WC   =   100.;   INIMIX=   1;  MIXPRE=   1;  MAXMIX= -45

 Intra band minimization:
   WEIMIN = 0.0000     energy-eigenvalue tresh-hold
   EBREAK =  0.98E-12  absolut break condition
   DEPER  =   0.30     relativ break condition  

   TIME   =   0.40     timestep for ELM

  volume/ion in A,a.u.               =      33.28       224.58
  Fermi-wavevector in a.u.,A,eV,Ry     =   0.924835  1.747685 11.637339  0.855320
  Thomas-Fermi vector in A             =   2.050624

 Write flags
   LWAVE        =      F    write WAVECAR
   LDOWNSAMPLE  =      F    k-point downsampling of WAVECAR
   LCHARG       =      F    write CHGCAR
   LVTOT        =      F    write LOCPOT, total local potential
   LVHAR        =      F    write LOCPOT, Hartree potential only
   LELF         =      F    write electronic localiz. function (ELF)
   LORBIT       =     11    0 simple, 1 ext, 2 COOP (PROOUT), +10 PAW based schemes


 Dipole corrections
   LMONO  =      F    monopole corrections only (constant potential shift)
   LDIPOL =      F    correct potential (dipole corrections)
   IDIPOL =      0    1-x, 2-y, 3-z, 4-all directions 
   EPSILON=  1.0000000 bulk dielectric constant

 Exchange correlation treatment:
   GGA     =    --    GGA type
   LEXCH   =     8    internal setting for exchange type
   LIBXC   =     F    Libxc                    
   VOSKOWN =     0    Vosko Wilk Nusair interpolation
   LHFCALC =     F    Hartree Fock is set to
   LHFONE  =     F    Hartree Fock one center treatment
   AEXX    =    0.0000 exact exchange contribution

 Linear response parameters
   LEPSILON=     F    determine dielectric tensor
   LRPA    =     F    only Hartree local field effects (RPA)
   LNABLA  =     F    use nabla operator in PAW spheres
   LVEL    =     F    velocity operator in full k-point grid
   CSHIFT  =0.1000    complex shift for real part using Kramers Kronig
   OMEGAMAX=  -1.0    maximum frequency
   DEG_THRESHOLD= 0.2000000E-02 threshold for treating states as degnerate
   RTIME   =   -0.100 relaxation time in fs
  (WPLASMAI=    0.000 imaginary part of plasma frequency in eV, 0.658/RTIME)
   DFIELD  = 0.0000000 0.0000000 0.0000000 field for delta impulse in time

  Optional k-point grid parameters
   LKPOINTS_OPT  =     F    use optional k-point grid
   KPOINTS_OPT_MODE=     1    mode for optional k-point grid

 Orbital magnetization related:
   ORBITALMAG=     F  switch on orbital magnetization
   LCHIMAG   =     F  perturbation theory with respect to B field
   DQ        =  0.001000  dq finite difference perturbation B field
   LLRAUG    =     F  two centre corrections for induced B field



--------------------------------------------------------------------------------------------------------


 Static calculation
 charge density and potential will be updated during run
 spin polarized calculation
 Variant of blocked Davidson
 Davidson routine will perform the subspace rotation
 perform sub-space diagonalisation
    after iterative eigenvector-optimisation
 modified Broyden-mixing scheme, WC =      100.0
 initial mixing is a Kerker type mixing with AMIX =  0.4000 and BMIX =      1.0000
 Hartree-type preconditioning will be used
 using additional bands           88
 reciprocal scheme for non local part
 use partial core corrections
 calculate Harris-corrections to forces   (improved forces if not selfconsistent)
 use gradient corrections 
 use of overlap-Matrix (Vanderbilt PP)
 Fermi weights with tetrahedron method with Bloechl corrections


--------------------------------------------------------------------------------------------------------


  energy-cutoff  :      520.00
  volume of cell :     1863.68
      direct lattice vectors                 reciprocal lattice vectors
     0.000000000 10.307367086 -0.372855731     0.000000000  0.096453423 -0.015606996
    16.788494411  0.000000000  0.000000000     0.059564603  0.000000000  0.000000000
     0.000000000 -1.732519801-10.707215182     0.000000000 -0.003358783 -0.092851486

  length of vectors
    10.314108670 16.788494411 10.846477853     0.097707938  0.059564603  0.092912216



 k-points in units of 2pi/SCALE and weight: pymatgen with grid density = 595 / numbe
   0.00000000  0.00000000 -0.00000000       0.125
   0.00000000  0.04822671 -0.00780350       0.125
   0.02978230  0.00000000 -0.00000000       0.125
   0.02978230  0.04822671 -0.00780350       0.125
   0.00000000 -0.00167939 -0.04642574       0.125
   0.00000000  0.04654732 -0.05422924       0.125
   0.02978230 -0.00167939 -0.04642574       0.125
   0.02978230  0.04654732 -0.05422924       0.125

 k-points in reciprocal lattice and weights: pymatgen with grid density = 595 / numbe
   0.00000000  0.00000000  0.00000000       0.125
   0.50000000  0.00000000  0.00000000       0.125
   0.00000000  0.50000000  0.00000000       0.125
   0.50000000  0.50000000  0.00000000       0.125
   0.00000000  0.00000000  0.50000000       0.125
   0.50000000  0.00000000  0.50000000       0.125
   0.00000000  0.50000000  0.50000000       0.125
   0.50000000  0.50000000  0.50000000       0.125

 position of ions in fractional coordinates (direct lattice) 
   0.88642314  0.46700475  0.67812639
   0.88642314  0.96700475  0.67812639
   0.32956326  0.18874382  0.55070772
   0.32956326  0.68874382  0.55070772
   0.91267129  0.10524188  0.91196047
   0.91267129  0.60524188  0.91196047
   0.23973640  0.30083105  0.77657419
   0.23973640  0.80083105  0.77657419
   0.14441752  0.30568876  0.22439668
   0.14441752  0.80568876  0.22439668
   0.85558248  0.19431124  0.77560332
   0.85558248  0.69431124  0.77560332
   0.76026360  0.19916895  0.22342581
   0.76026360  0.69916895  0.22342581
   0.17043674  0.43874382  0.44929228
   0.17043674  0.93874382  0.44929228
   0.41267129  0.14475812  0.91196047
   0.41267129  0.64475812  0.91196047
   0.38642314  0.28299525  0.67812639
   0.38642314  0.78299525  0.67812639
   0.64441752  0.44431124  0.22439668
   0.64441752  0.94431124  0.22439668
   0.82956326  0.06125618  0.55070772
   0.82956326  0.56125618  0.55070772
   0.26026360  0.05083105  0.22342581
   0.26026360  0.55083105  0.22342581
   0.61357686  0.21700475  0.32187361
   0.61357686  0.71700475  0.32187361
   0.11357686  0.03299525  0.32187361
   0.11357686  0.53299525  0.32187361
   0.05989570  0.34508773  0.37540633
   0.05989570  0.84508773  0.37448437
   0.74342521  0.28934434  0.07116523
   0.74342521  0.78934434  0.07116523
   0.58732871  0.35524188  0.08803953
   0.58732871  0.85524188  0.08803953
   0.25657479  0.21065566  0.92883477
   0.25657479  0.71065566  0.92883477
   0.08732871  0.39475812  0.08803953
   0.08732871  0.89475812  0.08803953
   0.44010430  0.09508773  0.62551563
   0.44010430  0.59508773  0.62551563
   0.35558248  0.05568876  0.77560332
   0.35558248  0.55568876  0.77560332
   0.73973640  0.44916895  0.77657419
   0.73973640  0.94916895  0.77657419
   0.94010430  0.15491227  0.62551563
   0.94010430  0.65491227  0.62551563
   0.24342521  0.46065566  0.07116523
   0.24342521  0.96065566  0.07116523
   0.75657479  0.03934434  0.92883477
   0.75657479  0.53934434  0.92883477
   0.55989570  0.40491227  0.37448437
   0.55989570  0.90491227  0.37448437
   0.67043674  0.31125618  0.44929228
   0.67043674  0.81125618  0.44929228

 position of ions in cartesian coordinates  (Angst):
   7.84030666  7.96182132 -7.59135308
  16.23455387  7.96182132 -7.59135308
   3.16872461  2.44281751 -6.01942562
  11.56297182  2.44281751 -6.01942562
   1.76685280  7.82724839-10.10485172
  10.16110000  7.82724839-10.10485172
   5.05050035  1.12562097 -8.40433404
  13.44474755  1.12562097 -8.40433404
   5.13205407  1.09979266 -2.45651044
  13.52630128  1.09979266 -2.45651044
   3.26219313  7.47505463 -8.62356047
  11.65644034  7.47505463 -8.62356047
   3.34374686  7.44922632 -2.67573688
  11.73799406  7.44922632 -2.67573688
   7.36584822  0.97834624 -4.87421742
  15.76009542  0.97834624 -4.87421742
   2.43027081  2.67356485 -9.91842386
  10.82451801  2.67356485 -9.91842386
   4.75106415  2.80813777 -7.40492521
  13.14531135  2.80813777 -7.40492521
   7.45931673  6.25347620 -2.64293831
  15.85356394  6.25347620 -2.64293831
   1.02839899  7.59650105 -6.20585349
   9.42264619  7.59650105 -6.20585349
   0.85337674  2.29554277 -2.48930901
   9.24762395  2.29554277 -2.48930901
   3.64318306  5.76670951 -3.67514570
  12.03743026  5.76670951 -3.67514570
   0.55394055  0.61302597 -3.48871783
   8.94818775  0.61302597 -3.48871783
   5.79350349 -0.03303192 -4.04188876
  14.18775070 -0.03143461 -4.03201715
   4.85765589  7.53946136 -1.03917182
  13.25190310  7.53946136 -1.03917182
   5.96397640  5.90128244 -1.16164705
  14.35822361  5.90128244 -1.16164705
   3.53659131  1.03538593-10.04089909
  11.93083852  1.03538593-10.04089909
   6.62739441  0.74759889 -0.97521919
  15.02164161  0.74759889 -0.97521919
   1.59637989  3.45259836 -6.86162589
   9.99062710  3.45259836 -6.86162589
   0.93493047  2.32137108 -8.43713261
   9.32917768  2.32137108 -8.43713261
   7.54087046  6.27930451 -8.59076190
  15.93511767  6.27930451 -8.59076190
   2.60074371  8.60628190 -7.04805376
  10.99499092  8.60628190 -7.04805376
   7.73371492  2.38577782 -0.85274396
  16.12796212  2.38577782 -0.85274396
   0.66053229  6.18906947-10.22732695
   9.05477950  6.18906947-10.22732695
   6.79786731  5.12224893 -4.21844502
  15.19211452  5.12224893 -4.21844502
   5.22552259  6.13202978 -5.06064529
  13.61976980  6.13202978 -5.06064529



--------------------------------------------------------------------------------------------------------


 k-point   1 :   0.0000 0.0000 0.0000  plane waves:   50179
 k-point   2 :   0.5000 0.0000 0.0000  plane waves:   50160
 k-point   3 :   0.0000 0.5000 0.0000  plane waves:   50162
 k-point   4 :   0.5000 0.5000 0.0000  plane waves:   50192
 k-point   5 :   0.0000 0.0000 0.5000  plane waves:   50190
 k-point   6 :   0.5000 0.0000 0.5000  plane waves:   50190
 k-point   7 :   0.0000 0.5000 0.5000  plane waves:   50172
 k-point   8 :   0.5000 0.5000 0.5000  plane waves:   50200

 maximum and minimum number of plane-waves per node :     50200    50160

 maximum number of plane-waves:     50200
 maximum index in each direction: 
   IXMAX=   19   IYMAX=   31   IZMAX=   20
   IXMIN=  -19   IYMIN=  -31   IZMIN=  -20


 serial   3D FFT for wavefunctions
 parallel 3D FFT for charge:
    minimum data exchange during FFTs selected (reduces bandwidth)


 total amount of memory used by VASP MPI-rank0   322725. kBytes
=======================================================================

   base      :      30000. kBytes
   nonl-proj :      70692. kBytes
   fftplans  :      34504. kBytes
   grid      :      83442. kBytes
   one-center:        344. kBytes
   wavefun   :     103743. kBytes

     INWAV:  cpu time      0.0000: real time      0.0001
 Broyden mixing: mesh for mixing (old mesh)
   NGX = 39   NGY = 63   NGZ = 41
  (NGX  =160   NGY  =252   NGZ  =168)
  gives a total of 100737 points

 initial charge density was supplied:
 charge density of overlapping atoms calculated
 number of electron     336.0000000 magnetization      56.0000000
 keeping initial charge density in first step


--------------------------------------------------------------------------------------------------------


 Maximum index for augmentation-charges         3947 (set IRDMAX)


--------------------------------------------------------------------------------------------------------


 First call to EWALD:  gamma=   0.144
 Maximum number of real-space cells 3x 2x 3
 Maximum number of reciprocal cells 2x 4x 2

    FEWALD:  cpu time      0.0020: real time      0.0020


--------------------------------------- Iteration      1(   1)  ---------------------------------------


    POTLOK:  cpu time      0.4919: real time      0.4921
    SETDIJ:  cpu time     23.6946: real time     23.6969
     EDDAV:  cpu time     40.8725: real time     40.8782
 BZINTS: Fermi energy:   10.166373;  336.000000 electrons
         Band energy: 0.225165E+03;  BLOECHL correction:   -0.008888
       DOS:  cpu time      0.0511: real time      0.0512
    --------------------------------------------
      LOOP:  cpu time     65.1102: real time     65.1185

 eigenvalue-minimisations  :  8192
 total energy-change (2. order) : 0.2106077E+04  (-0.1333789E+05)
 number of electron     336.0000000 magnetization      56.0000000
 augmentation part      336.0000000 magnetization      56.0000000

 Free energy of the ion-electron system (eV)
  ---------------------------------------------------
  alpha Z        PSCENC =       253.99581917
  Ewald energy   TEWEN  =     -9971.74512110
  -Hartree energ DENC   =     -4765.08599776
  -exchange      EXHF   =         0.00000000
  -V(xc)+E(xc)   XCENC  =       682.50053274
  PAW double counting   =     12174.71095765   -11995.46358648
  entropy T*S    EENTRO =         0.00000000
  eigenvalues    EBANDS =       225.16481918
  atomic energy  EATOM  =     15501.99929693
  Solvation  Ediel_sol  =         0.00000000
  ---------------------------------------------------
  free energy    TOTEN  =      2106.07672033 eV

  energy without entropy =     2106.07672033  energy(sigma->0) =     2106.07672033


--------------------------------------------------------------------------------------------------------




--------------------------------------- Iteration      1(   2)  ---------------------------------------


     EDDAV:  cpu time     46.2981: real time     46.3053
 BZINTS: Fermi energy:    1.452420;  336.000000 electrons
         Band energy:-0.187465E+04;  BLOECHL correction:   -0.000000
       DOS:  cpu time      0.0294: real time      0.0295
    --------------------------------------------
      LOOP:  cpu time     46.3275: real time     46.3348

 eigenvalue-minimisations  : 10272
 total energy-change (2. order) :-0.2099820E+04  (-0.2021642E+04)
 number of electron     336.0000000 magnetization      56.0000000
 augmentation part      336.0000000 magnetization      56.0000000

 Free energy of the ion-electron system (eV)
  ---------------------------------------------------
  alpha Z        PSCENC =       253.99581917
  Ewald energy   TEWEN  =     -9971.74512110
  -Hartree energ DENC   =     -4765.08599776
  -exchange      EXHF   =         0.00000000
  -V(xc)+E(xc)   XCENC  =       682.50053274
  PAW double counting   =     12174.71095765   -11995.46358648
  entropy T*S    EENTRO =         0.00000000
  eigenvalues    EBANDS =     -1874.65493651
  atomic energy  EATOM  =     15501.99929693
  Solvation  Ediel_sol  =         0.00000000
  ---------------------------------------------------
  free energy    TOTEN  =         6.25696464 eV

  energy without entropy =        6.25696464  energy(sigma->0) =        6.25696464


--------------------------------------------------------------------------------------------------------




--------------------------------------- Iteration      1(   3)  ---------------------------------------


     EDDAV:  cpu time     53.4538: real time     53.4621
 BZINTS: Fermi energy:    0.220408;  336.000000 electrons
         Band energy:-0.209449E+04;  BLOECHL correction:    0.000000
       DOS:  cpu time      0.0278: real time      0.0279
    --------------------------------------------
      LOOP:  cpu time     53.4816: real time     53.4899

 eigenvalue-minimisations  : 10240
 total energy-change (2. order) :-0.2198362E+03  (-0.2171496E+03)
 number of electron     336.0000000 magnetization      56.0000000
 augmentation part      336.0000000 magnetization      56.0000000

 Free energy of the ion-electron system (eV)
  ---------------------------------------------------
  alpha Z        PSCENC =       253.99581917
  Ewald energy   TEWEN  =     -9971.74512110
  -Hartree energ DENC   =     -4765.08599776
  -exchange      EXHF   =         0.00000000
  -V(xc)+E(xc)   XCENC  =       682.50053274
  PAW double counting   =     12174.71095765   -11995.46358648
  entropy T*S    EENTRO =         0.00000000
  eigenvalues    EBANDS =     -2094.49113422
  atomic energy  EATOM  =     15501.99929693
  Solvation  Ediel_sol  =         0.00000000
  ---------------------------------------------------
  free energy    TOTEN  =      -213.57923307 eV

  energy without entropy =     -213.57923307  energy(sigma->0) =     -213.57923307


--------------------------------------------------------------------------------------------------------




--------------------------------------- Iteration      1(   4)  ---------------------------------------


     EDDAV:  cpu time     47.3821: real time     47.3920
 BZINTS: Fermi energy:    0.192153;  336.000000 electrons
         Band energy:-0.209939E+04;  BLOECHL correction:    0.000000
       DOS:  cpu time      0.0276: real time      0.0277
    --------------------------------------------
      LOOP:  cpu time     47.4097: real time     47.4197

 eigenvalue-minimisations  : 10368
 total energy-change (2. order) :-0.4900434E+01  (-0.4882096E+01)
 number of electron     336.0000000 magnetization      56.0000000
 augmentation part      336.0000000 magnetization      56.0000000

 Free energy of the ion-electron system (eV)
  ---------------------------------------------------
  alpha Z        PSCENC =       253.99581917
  Ewald energy   TEWEN  =     -9971.74512110
  -Hartree energ DENC   =     -4765.08599776
  -exchange      EXHF   =         0.00000000
  -V(xc)+E(xc)   XCENC  =       682.50053274
  PAW double counting   =     12174.71095765   -11995.46358648
  entropy T*S    EENTRO =         0.00000000
  eigenvalues    EBANDS =     -2099.39156825
  atomic energy  EATOM  =     15501.99929693
  Solvation  Ediel_sol  =         0.00000000
  ---------------------------------------------------
  free energy    TOTEN  =      -218.47966710 eV

  energy without entropy =     -218.47966710  energy(sigma->0) =     -218.47966710


--------------------------------------------------------------------------------------------------------




--------------------------------------- Iteration      1(   5)  ---------------------------------------


     EDDAV:  cpu time     58.7909: real time     58.7998
 BZINTS: Fermi energy:    0.192180;  336.000000 electrons
         Band energy:-0.209952E+04;  BLOECHL correction:    0.000000
       DOS:  cpu time      0.0275: real time      0.0275
    CHARGE:  cpu time     15.4037: real time     15.4060
    MIXING:  cpu time      0.0080: real time      0.0080
    --------------------------------------------
      LOOP:  cpu time     74.2300: real time     74.2414

 eigenvalue-minimisations  : 10016
 total energy-change (2. order) :-0.1329245E+00  (-0.1328583E+00)
 number of electron     335.9999997 magnetization      44.9918631
 augmentation part      -47.3227761 magnetization      44.8837128

 Broyden mixing:
  rms(total) = 0.82825E+01    rms(broyden)= 0.82825E+01
  rms(prec ) = 0.83025E+01
  weight for this iteration     100.00

 Free energy of the ion-electron system (eV)
  ---------------------------------------------------
  alpha Z        PSCENC =       253.99581917
  Ewald energy   TEWEN  =     -9971.74512110
  -Hartree energ DENC   =     -4765.08599776
  -exchange      EXHF   =         0.00000000
  -V(xc)+E(xc)   XCENC  =       682.50053274
  PAW double counting   =     12174.71095765   -11995.46358648
  entropy T*S    EENTRO =         0.00000000
  eigenvalues    EBANDS =     -2099.52449271
  atomic energy  EATOM  =     15501.99929693
  Solvation  Ediel_sol  =         0.00000000
  ---------------------------------------------------
  free energy    TOTEN  =      -218.61259156 eV

  energy without entropy =     -218.61259156  energy(sigma->0) =     -218.61259156


--------------------------------------------------------------------------------------------------------




--------------------------------------- Iteration      1(   6)  ---------------------------------------


    POTLOK:  cpu time      0.4095: real time      0.4166
    SETDIJ:  cpu time     22.0834: real time     22.0853
     EDDAV:  cpu time     56.5624: real time     56.5707
 BZINTS: Fermi energy:    0.409808;  336.000000 electrons
         Band energy:-0.201406E+04;  BLOECHL correction:    0.000000
       DOS:  cpu time      0.0278: real time      0.0279
    CHARGE:  cpu time     24.7840: real time     24.7865
    MIXING:  cpu time      0.0064: real time      0.0064
    --------------------------------------------
      LOOP:  cpu time    103.8735: real time    103.8933

 eigenvalue-minimisations  :  9632
 total energy-change (2. order) : 0.1022858E+03  (-0.2668228E+02)
 number of electron     335.9999997 magnetization      26.4843435
 augmentation part      -47.6489492 magnetization      27.5429209

 Broyden mixing:
  rms(total) = 0.49349E+01    rms(broyden)= 0.49349E+01
  rms(prec ) = 0.49573E+01
  weight for this iteration     100.00

 eigenvalues of (default mixing * dielectric matrix)
  average eigenvalue GAMMA=   1.6661
  1.6661

 Free energy of the ion-electron system (eV)
  ---------------------------------------------------
  alpha Z        PSCENC =       253.99581917
  Ewald energy   TEWEN  =     -9971.74512110
  -Hartree energ DENC   =     -4809.38105331
  -exchange      EXHF   =         0.00000000
  -V(xc)+E(xc)   XCENC  =       746.07960365
  PAW double counting   =     20723.76354300   -20546.98298052
  entropy T*S    EENTRO =         0.00000000
  eigenvalues    EBANDS =     -2014.05586823
  atomic energy  EATOM  =     15501.99929693
  Solvation  Ediel_sol  =         0.00000000
  ---------------------------------------------------
  free energy    TOTEN  =      -116.32676042 eV

  energy without entropy =     -116.32676042  energy(sigma->0) =     -116.32676042


--------------------------------------------------------------------------------------------------------




--------------------------------------- Iteration      1(   7)  ---------------------------------------


    POTLOK:  cpu time      5.3405: real time      5.3435
    SETDIJ:  cpu time     28.8472: real time     28.8502
     EDDAV:  cpu time     56.1092: real time     56.1167
 BZINTS: Fermi energy:    0.738575;  336.000000 electrons
         Band energy:-0.186765E+04;  BLOECHL correction:    0.000000
       DOS:  cpu time      0.0278: real time      0.0279
    CHARGE:  cpu time     26.5896: real time     26.5920
    MIXING:  cpu time      0.0107: real time      0.0107
    --------------------------------------------
      LOOP:  cpu time    116.9251: real time    116.9410

 eigenvalue-minimisations  : 10144
 total energy-change (2. order) :-0.1114513E+02  (-0.2697402E+01)
 number of electron     335.9999997 magnetization      19.7143712
 augmentation part      -47.3164259 magnetization      20.9200482

 Broyden mixing:
  rms(total) = 0.14002E+01    rms(broyden)= 0.14002E+01
  rms(prec ) = 0.14038E+01
  weight for this iteration     100.00

 eigenvalues of (default mixing * dielectric matrix)
  average eigenvalue GAMMA=   1.4853
  0.7898  2.1807

 Free energy of the ion-electron system (eV)
  ---------------------------------------------------
  alpha Z        PSCENC =       253.99581917
  Ewald energy   TEWEN  =     -9971.74512110
  -Hartree energ DENC   =     -4968.86401483
  -exchange      EXHF   =         0.00000000
  -V(xc)+E(xc)   XCENC  =       751.41900000
  PAW double counting   =     37025.43003800   -36852.06094207
  entropy T*S    EENTRO =         0.00000000
  eigenvalues    EBANDS =     -1867.64597107
  atomic energy  EATOM  =     15501.99929693
  Solvation  Ediel_sol  =         0.00000000
  ---------------------------------------------------
  free energy    TOTEN  =      -127.47189498 eV

  energy without entropy =     -127.47189498  energy(sigma->0) =     -127.47189498


--------------------------------------------------------------------------------------------------------




--------------------------------------- Iteration      1(   8)  ---------------------------------------


    POTLOK:  cpu time      0.4141: real time      0.4148
    SETDIJ:  cpu time     18.2132: real time     18.2165
     EDDAV:  cpu time     45.9062: real time     45.9125
 BZINTS: Fermi energy:    0.706273;  336.000000 electrons
         Band energy:-0.185515E+04;  BLOECHL correction:    0.000000
       DOS:  cpu time      0.0278: real time      0.0278
    CHARGE:  cpu time     28.1207: real time     28.1230
    MIXING:  cpu time      0.0072: real time      0.0072
    --------------------------------------------
      LOOP:  cpu time     92.6892: real time     92.7019

 eigenvalue-minimisations  :  9312
 total energy-change (2. order) :-0.4274911E+02  (-0.1979591E+01)
 number of electron     335.9999997 magnetization      16.0518167
 augmentation part      -47.0116191 magnetization      17.0962879

 Broyden mixing:
  rms(total) = 0.78315E+00    rms(broyden)= 0.78315E+00
  rms(prec ) = 0.78830E+00
  weight for this iteration     100.00

 eigenvalues of (default mixing * dielectric matrix)
  average eigenvalue GAMMA=   1.3391
  2.4917  0.9425  0.5832

 Free energy of the ion-electron system (eV)
  ---------------------------------------------------
  alpha Z        PSCENC =       253.99581917
  Ewald energy   TEWEN  =     -9971.74512110
  -Hartree energ DENC   =     -4998.44787475
  -exchange      EXHF   =         0.00000000
  -V(xc)+E(xc)   XCENC  =       726.52503994
  PAW double counting   =     40169.95597616   -39997.35382711
  entropy T*S    EENTRO =         0.00000000
  eigenvalues    EBANDS =     -1855.15031786
  atomic energy  EATOM  =     15501.99929693
  Solvation  Ediel_sol  =         0.00000000
  ---------------------------------------------------
  free energy    TOTEN  =      -170.22100862 eV

  energy without entropy =     -170.22100862  energy(sigma->0) =     -170.22100862


--------------------------------------------------------------------------------------------------------




--------------------------------------- Iteration      1(   9)  ---------------------------------------


    POTLOK:  cpu time      0.4091: real time      0.4101
    SETDIJ:  cpu time     24.9133: real time     24.9153
     EDDAV:  cpu time     59.1660: real time     59.1735
 BZINTS: Fermi energy:    0.628252;  336.000000 electrons
         Band energy:-0.186642E+04;  BLOECHL correction:    0.000000
       DOS:  cpu time      0.0306: real time      0.0307
    CHARGE:  cpu time     21.6526: real time     21.6545
    MIXING:  cpu time      0.0103: real time      0.0103
    --------------------------------------------
      LOOP:  cpu time    106.1818: real time    106.1944

 eigenvalue-minimisations  : 10240
 total energy-change (2. order) :-0.1676656E+02  (-0.6427741E+00)
 number of electron     335.9999997 magnetization      11.5243336
 augmentation part      -46.9151064 magnetization      12.3618102

 Broyden mixing:
  rms(total) = 0.43626E+00    rms(broyden)= 0.43626E+00
  rms(prec ) = 0.44836E+00
  weight for this iteration     100.00

 eigenvalues of (default mixing * dielectric matrix)
  average eigenvalue GAMMA=   1.3248
  2.5764  1.3006  0.7112  0.7112

 Free energy of the ion-electron system (eV)
  ---------------------------------------------------
  alpha Z        PSCENC =       253.99581917
  Ewald energy   TEWEN  =     -9971.74512110
  -Hartree energ DENC   =     -4994.63734339
  -exchange      EXHF   =         0.00000000
  -V(xc)+E(xc)   XCENC  =       717.19438067
  PAW double counting   =     40951.40701264   -40778.78604899
  entropy T*S    EENTRO =         0.00000000
  eigenvalues    EBANDS =     -1866.41555993
  atomic energy  EATOM  =     15501.99929693
  Solvation  Ediel_sol  =         0.00000000
  ---------------------------------------------------
  free energy    TOTEN  =      -186.98756400 eV

  energy without entropy =     -186.98756400  energy(sigma->0) =     -186.98756400


--------------------------------------------------------------------------------------------------------




--------------------------------------- Iteration      1(  10)  ---------------------------------------


    POTLOK:  cpu time      0.4066: real time      0.4076
    SETDIJ:  cpu time     18.7364: real time     18.7378
     EDDAV:  cpu time     49.9951: real time     50.0065
 BZINTS: Fermi energy:    0.475345;  336.000000 electrons
         Band energy:-0.190096E+04;  BLOECHL correction:    0.000000
       DOS:  cpu time      0.0278: real time      0.0278
    CHARGE:  cpu time     24.0747: real time     24.0769
    MIXING:  cpu time      0.0083: real time      0.0083
    --------------------------------------------
      LOOP:  cpu time     93.2488: real time     93.2648

 eigenvalue-minimisations  :  9984
 total energy-change (2. order) :-0.2006090E+02  (-0.1303071E+01)
 number of electron     335.9999997 magnetization       5.3111703
 augmentation part      -46.8733939 magnetization       5.8454773

 Broyden mixing:
  rms(total) = 0.32414E+00    rms(broyden)= 0.32414E+00
  rms(prec ) = 0.33713E+00
  weight for this iteration     100.00

 eigenvalues of (default mixing * dielectric matrix)
  average eigenvalue GAMMA=   1.4487
  2.4859  2.4859  0.9416  0.7284  0.6019

 Free energy of the ion-electron system (eV)
  ---------------------------------------------------
  alpha Z        PSCENC =       253.99581917
  Ewald energy   TEWEN  =     -9971.74512110
  -Hartree energ DENC   =     -4969.23608547
  -exchange      EXHF   =         0.00000000
  -V(xc)+E(xc)   XCENC  =       705.61745116
  PAW double counting   =     40961.79454568   -40788.51868036
  entropy T*S    EENTRO =         0.00000000
  eigenvalues    EBANDS =     -1900.95569261
  atomic energy  EATOM  =     15501.99929693
  Solvation  Ediel_sol  =         0.00000000
  ---------------------------------------------------
  free energy    TOTEN  =      -207.04846661 eV

  energy without entropy =     -207.04846661  energy(sigma->0) =     -207.04846661


--------------------------------------------------------------------------------------------------------




--------------------------------------- Iteration      1(  11)  ---------------------------------------


    POTLOK:  cpu time      0.4160: real time      0.4170
    SETDIJ:  cpu time     25.3106: real time     25.3127
     EDDAV:  cpu time     49.0587: real time     49.0657
 BZINTS: Fermi energy:    0.257433;  336.000000 electrons
         Band energy:-0.195831E+04;  BLOECHL correction:    0.000000
       DOS:  cpu time      0.0293: real time      0.0294
    CHARGE:  cpu time     22.8740: real time     22.8762
    MIXING:  cpu time      0.0097: real time      0.0097
    --------------------------------------------
      LOOP:  cpu time     97.6983: real time     97.7108

 eigenvalue-minimisations  :  9952
 total energy-change (2. order) :-0.1782240E+02  (-0.2161118E+01)
 number of electron     335.9999997 magnetization       3.5762848
 augmentation part      -46.9052124 magnetization       3.7596801

 Broyden mixing:
  rms(total) = 0.18664E+00    rms(broyden)= 0.18664E+00
  rms(prec ) = 0.20033E+00
  weight for this iteration     100.00

 eigenvalues of (default mixing * dielectric matrix)
  average eigenvalue GAMMA=   1.4665
  2.7969  2.7969  1.0270  0.8891  0.6992  0.5900

 Free energy of the ion-electron system (eV)
  ---------------------------------------------------
  alpha Z        PSCENC =       253.99581917
  Ewald energy   TEWEN  =     -9971.74512110
  -Hartree energ DENC   =     -4919.66936864
  -exchange      EXHF   =         0.00000000
  -V(xc)+E(xc)   XCENC  =       694.52147767
  PAW double counting   =     40389.69112324   -40215.35648410
  entropy T*S    EENTRO =         0.00000000
  eigenvalues    EBANDS =     -1958.30760482
  atomic energy  EATOM  =     15501.99929693
  Solvation  Ediel_sol  =         0.00000000
  ---------------------------------------------------
  free energy    TOTEN  =      -224.87086165 eV

  energy without entropy =     -224.87086165  energy(sigma->0) =     -224.87086165


--------------------------------------------------------------------------------------------------------




--------------------------------------- Iteration      1(  12)  ---------------------------------------


    POTLOK:  cpu time      0.4193: real time      0.4202
    SETDIJ:  cpu time     24.0538: real time     24.0562
     EDDAV:  cpu time     45.8377: real time     45.8459
 BZINTS: Fermi energy:    0.184167;  336.000000 electrons
         Band energy:-0.197898E+04;  BLOECHL correction:    0.000000
       DOS:  cpu time      0.0274: real time      0.0275
    CHARGE:  cpu time     28.8101: real time     28.8131
    MIXING:  cpu time      0.0074: real time      0.0074
    --------------------------------------------
      LOOP:  cpu time     99.1557: real time     99.1702

 eigenvalue-minimisations  : 10080
 total energy-change (2. order) :-0.3389770E+01  (-0.3879533E+00)
 number of electron     335.9999997 magnetization       2.3946168
 augmentation part      -46.9154328 magnetization       2.4777972

 Broyden mixing:
  rms(total) = 0.15964E+00    rms(broyden)= 0.15964E+00
  rms(prec ) = 0.17217E+00
  weight for this iteration     100.00

 eigenvalues of (default mixing * dielectric matrix)
  average eigenvalue GAMMA=   1.4916
  3.1004  3.1004  1.0555  1.0555  0.7808  0.7808  0.5680

 Free energy of the ion-electron system (eV)
  ---------------------------------------------------
  alpha Z        PSCENC =       253.99581917
  Ewald energy   TEWEN  =     -9971.74512110
  -Hartree energ DENC   =     -4900.16288867
  -exchange      EXHF   =         0.00000000
  -V(xc)+E(xc)   XCENC  =       692.06517661
  PAW double counting   =     39955.88365264   -39781.31172586
  entropy T*S    EENTRO =         0.00000000
  eigenvalues    EBANDS =     -1978.98484148
  atomic energy  EATOM  =     15501.99929693
  Solvation  Ediel_sol  =         0.00000000
  ---------------------------------------------------
  free energy    TOTEN  =      -228.26063177 eV

  energy without entropy =     -228.26063177  energy(sigma->0) =     -228.26063177


--------------------------------------------------------------------------------------------------------




--------------------------------------- Iteration      1(  13)  ---------------------------------------


    POTLOK:  cpu time      0.4235: real time      0.4244
    SETDIJ:  cpu time     29.0244: real time     29.0271
     EDDAV:  cpu time     50.9422: real time     50.9493
 BZINTS: Fermi energy:    0.116011;  336.000000 electrons
         Band energy:-0.200142E+04;  BLOECHL correction:    0.000000
       DOS:  cpu time      0.0275: real time      0.0276
    CHARGE:  cpu time     26.4498: real time     26.4524
    MIXING:  cpu time      0.0070: real time      0.0070
    --------------------------------------------
      LOOP:  cpu time    106.8745: real time    106.8878

 eigenvalue-minimisations  :  9568
 total energy-change (2. order) :-0.1054262E+01  (-0.1337387E+00)
 number of electron     335.9999997 magnetization       0.8881814
 augmentation part      -46.9736011 magnetization       0.9142361

 Broyden mixing:
  rms(total) = 0.93068E-01    rms(broyden)= 0.93068E-01
  rms(prec ) = 0.99880E-01
  weight for this iteration     100.00

 eigenvalues of (default mixing * dielectric matrix)
  average eigenvalue GAMMA=   1.5515
  3.3220  3.3220  1.5837  1.2849  0.9271  0.6997  0.6997  0.5723

 Free energy of the ion-electron system (eV)
  ---------------------------------------------------
  alpha Z        PSCENC =       253.99581917
  Ewald energy   TEWEN  =     -9971.74512110
  -Hartree energ DENC   =     -4877.03326670
  -exchange      EXHF   =         0.00000000
  -V(xc)+E(xc)   XCENC  =       690.08201730
  PAW double counting   =     39135.57961857   -38960.76847239
  entropy T*S    EENTRO =         0.00000000
  eigenvalues    EBANDS =     -2001.42478522
  atomic energy  EATOM  =     15501.99929693
  Solvation  Ediel_sol  =         0.00000000
  ---------------------------------------------------
  free energy    TOTEN  =      -229.31489345 eV

  energy without entropy =     -229.31489345  energy(sigma->0) =     -229.31489345


--------------------------------------------------------------------------------------------------------




--------------------------------------- Iteration      1(  14)  ---------------------------------------


    POTLOK:  cpu time      0.4096: real time      0.4105
    SETDIJ:  cpu time     26.3120: real time     26.3143
     EDDAV:  cpu time     54.2348: real time     54.2485
 BZINTS: Fermi energy:    0.080518;  336.000000 electrons
         Band energy:-0.201190E+04;  BLOECHL correction:    0.000000
       DOS:  cpu time      0.0274: real time      0.0275
    CHARGE:  cpu time     25.3898: real time     25.3919
    MIXING:  cpu time      0.0119: real time      0.0119
    --------------------------------------------
      LOOP:  cpu time    106.3856: real time    106.4044

 eigenvalue-minimisations  :  9024
 total energy-change (2. order) :-0.6496075E-01  (-0.1627665E-01)
 number of electron     335.9999997 magnetization       0.4190821
 augmentation part      -47.0007198 magnetization       0.4260783

 Broyden mixing:
  rms(total) = 0.43674E-01    rms(broyden)= 0.43674E-01
  rms(prec ) = 0.46380E-01
  weight for this iteration     100.00

 eigenvalues of (default mixing * dielectric matrix)
  average eigenvalue GAMMA=   1.5784
  4.1287  2.5577  2.5577  1.0965  1.0965  0.7712  0.7712  0.5748  0.6516

 Free energy of the ion-electron system (eV)
  ---------------------------------------------------
  alpha Z        PSCENC =       253.99581917
  Ewald energy   TEWEN  =     -9971.74512110
  -Hartree energ DENC   =     -4865.66205315
  -exchange      EXHF   =         0.00000000
  -V(xc)+E(xc)   XCENC  =       689.16888127
  PAW double counting   =     39074.96363807   -38900.19753682
  entropy T*S    EENTRO =         0.00000000
  eigenvalues    EBANDS =     -2011.90277858
  atomic energy  EATOM  =     15501.99929693
  Solvation  Ediel_sol  =         0.00000000
  ---------------------------------------------------
  free energy    TOTEN  =      -229.37985420 eV

  energy without entropy =     -229.37985420  energy(sigma->0) =     -229.37985420


--------------------------------------------------------------------------------------------------------




--------------------------------------- Iteration      1(  15)  ---------------------------------------


    POTLOK:  cpu time      2.2523: real time      2.2538
    SETDIJ:  cpu time     20.3238: real time     20.3257
     EDDAV:  cpu time     50.0451: real time     50.0521
 BZINTS: Fermi energy:    0.078663;  336.000000 electrons
         Band energy:-0.201159E+04;  BLOECHL correction:    0.000000
       DOS:  cpu time      0.0274: real time      0.0275
    CHARGE:  cpu time     20.9011: real time     20.9032
    MIXING:  cpu time      0.0128: real time      0.0128
    --------------------------------------------
      LOOP:  cpu time     93.5626: real time     93.5752

 eigenvalue-minimisations  :  9600
 total energy-change (2. order) : 0.1304384E-02  (-0.2079120E-02)
 number of electron     335.9999997 magnetization       0.1728763
 augmentation part      -46.9945337 magnetization       0.1771905

 Broyden mixing:
  rms(total) = 0.20223E-01    rms(broyden)= 0.20223E-01
  rms(prec ) = 0.21798E-01
  weight for this iteration     100.00

 eigenvalues of (default mixing * dielectric matrix)
  average eigenvalue GAMMA=   1.5646
  4.5519  2.5275  2.5275  1.3348  0.9968  0.9968  0.7586  0.7586  0.6240  0.5693

 Free energy of the ion-electron system (eV)
  ---------------------------------------------------
  alpha Z        PSCENC =       253.99581917
  Ewald energy   TEWEN  =     -9971.74512110
  -Hartree energ DENC   =     -4865.85329488
  -exchange      EXHF   =         0.00000000
  -V(xc)+E(xc)   XCENC  =       689.13197770
  PAW double counting   =     39160.71212080   -38986.03325437
  entropy T*S    EENTRO =         0.00000000
  eigenvalues    EBANDS =     -2011.58609407
  atomic energy  EATOM  =     15501.99929693
  Solvation  Ediel_sol  =         0.00000000
  ---------------------------------------------------
  free energy    TOTEN  =      -229.37854982 eV

  energy without entropy =     -229.37854982  energy(sigma->0) =     -229.37854982


--------------------------------------------------------------------------------------------------------




--------------------------------------- Iteration      1(  16)  ---------------------------------------


    POTLOK:  cpu time      0.4084: real time      0.4093
    SETDIJ:  cpu time     28.5598: real time     28.5643
     EDDAV:  cpu time     46.4276: real time     46.4339
 BZINTS: Fermi energy:    0.076824;  336.000000 electrons
         Band energy:-0.201206E+04;  BLOECHL correction:    0.000000
       DOS:  cpu time      0.0292: real time      0.0292
    CHARGE:  cpu time     25.5859: real time     25.5885
    MIXING:  cpu time      0.0081: real time      0.0081
    --------------------------------------------
      LOOP:  cpu time    101.0191: real time    101.0334

 eigenvalue-minimisations  :  9120
 total energy-change (2. order) : 0.3084893E-02  (-0.5508975E-03)
 number of electron     335.9999997 magnetization       0.0700943
 augmentation part      -46.9934214 magnetization       0.0708973

 Broyden mixing:
  rms(total) = 0.12349E-01    rms(broyden)= 0.12349E-01
  rms(prec ) = 0.13361E-01
  weight for this iteration     100.00

 eigenvalues of (default mixing * dielectric matrix)
  average eigenvalue GAMMA=   1.5465
  4.7562  2.4276  2.4276  1.8416  0.9964  0.9964  0.9221  0.7282  0.7282  0.5809
  0.6065

 Free energy of the ion-electron system (eV)
  ---------------------------------------------------
  alpha Z        PSCENC =       253.99581917
  Ewald energy   TEWEN  =     -9971.74512110
  -Hartree energ DENC   =     -4865.28385894
  -exchange      EXHF   =         0.00000000
  -V(xc)+E(xc)   XCENC  =       689.06313409
  PAW double counting   =     39130.31915137   -38955.66396763
  entropy T*S    EENTRO =         0.00000000
  eigenvalues    EBANDS =     -2012.05991881
  atomic energy  EATOM  =     15501.99929693
  Solvation  Ediel_sol  =         0.00000000
  ---------------------------------------------------
  free energy    TOTEN  =      -229.37546493 eV

  energy without entropy =     -229.37546493  energy(sigma->0) =     -229.37546493


--------------------------------------------------------------------------------------------------------




--------------------------------------- Iteration      1(  17)  ---------------------------------------


    POTLOK:  cpu time      0.3988: real time      0.3996
    SETDIJ:  cpu time     26.4051: real time     26.4077
     EDDAV:  cpu time     43.6381: real time     43.6442
 BZINTS: Fermi energy:    0.078832;  336.000000 electrons
         Band energy:-0.201113E+04;  BLOECHL correction:    0.000000
       DOS:  cpu time      0.0274: real time      0.0274
    CHARGE:  cpu time     27.1223: real time     27.1249
    MIXING:  cpu time      0.0080: real time      0.0080
    --------------------------------------------
      LOOP:  cpu time     97.5996: real time     97.6118

 eigenvalue-minimisations  :  9472
 total energy-change (2. order) :-0.5015858E-03  (-0.1197521E-03)
 number of electron     335.9999997 magnetization       0.0179649
 augmentation part      -46.9883432 magnetization       0.0183694

 Broyden mixing:
  rms(total) = 0.49367E-02    rms(broyden)= 0.49367E-02
  rms(prec ) = 0.55354E-02
  weight for this iteration     100.00

 eigenvalues of (default mixing * dielectric matrix)
  average eigenvalue GAMMA=   1.5760
  4.9474  2.6015  2.6015  2.2025  1.1779  0.9959  0.9959  0.7615  0.7615  0.6819
  0.5878  0.5971

 Free energy of the ion-electron system (eV)
  ---------------------------------------------------
  alpha Z        PSCENC =       253.99581917
  Ewald energy   TEWEN  =     -9971.74512110
  -Hartree energ DENC   =     -4866.24878148
  -exchange      EXHF   =         0.00000000
  -V(xc)+E(xc)   XCENC  =       689.12325923
  PAW double counting   =     39171.32671656   -38996.69584178
  entropy T*S    EENTRO =         0.00000000
  eigenvalues    EBANDS =     -2011.13131404
  atomic energy  EATOM  =     15501.99929693
  Solvation  Ediel_sol  =         0.00000000
  ---------------------------------------------------
  free energy    TOTEN  =      -229.37596651 eV

  energy without entropy =     -229.37596651  energy(sigma->0) =     -229.37596651


--------------------------------------------------------------------------------------------------------




--------------------------------------- Iteration      1(  18)  ---------------------------------------


    POTLOK:  cpu time      0.3993: real time      0.4019
    SETDIJ:  cpu time     21.8988: real time     21.9009
     EDDAV:  cpu time     45.8430: real time     45.8499
 BZINTS: Fermi energy:    0.079843;  336.000000 electrons
         Band energy:-0.201061E+04;  BLOECHL correction:    0.000000
       DOS:  cpu time      0.0283: real time      0.0283
    CHARGE:  cpu time     20.9298: real time     20.9318
    MIXING:  cpu time      0.0097: real time      0.0098
    --------------------------------------------
      LOOP:  cpu time     89.1089: real time     89.1226

 eigenvalue-minimisations  :  9504
 total energy-change (2. order) :-0.1145716E-03  (-0.3964542E-04)
 number of electron     335.9999997 magnetization       0.0052899
 augmentation part      -46.9850074 magnetization       0.0058334

 Broyden mixing:
  rms(total) = 0.44659E-02    rms(broyden)= 0.44658E-02
  rms(prec ) = 0.47174E-02
  weight for this iteration     100.00

 eigenvalues of (default mixing * dielectric matrix)
  average eigenvalue GAMMA=   1.5444
  5.0013  2.6451  2.6451  2.2646  1.1298  1.1298  0.9909  0.9909  0.7249  0.7249
  0.5785  0.6447  0.6064

 Free energy of the ion-electron system (eV)
  ---------------------------------------------------
  alpha Z        PSCENC =       253.99581917
  Ewald energy   TEWEN  =     -9971.74512110
  -Hartree energ DENC   =     -4866.79315522
  -exchange      EXHF   =         0.00000000
  -V(xc)+E(xc)   XCENC  =       689.15865150
  PAW double counting   =     39200.14083550   -39025.52478467
  entropy T*S    EENTRO =         0.00000000
  eigenvalues    EBANDS =     -2010.60762319
  atomic energy  EATOM  =     15501.99929693
  Solvation  Ediel_sol  =         0.00000000
  ---------------------------------------------------
  free energy    TOTEN  =      -229.37608108 eV

  energy without entropy =     -229.37608108  energy(sigma->0) =     -229.37608108


--------------------------------------------------------------------------------------------------------




--------------------------------------- Iteration      1(  19)  ---------------------------------------


    POTLOK:  cpu time      2.2426: real time      2.2436
    SETDIJ:  cpu time     24.4495: real time     24.4515
     EDDAV:  cpu time     51.5229: real time     51.5303
 BZINTS: Fermi energy:    0.079212;  336.000000 electrons
         Band energy:-0.201087E+04;  BLOECHL correction:    0.000000
       DOS:  cpu time      0.0273: real time      0.0274
    CHARGE:  cpu time     26.8006: real time     26.8028
    MIXING:  cpu time      0.0125: real time      0.0125
    --------------------------------------------
      LOOP:  cpu time    105.0555: real time    105.0682

 eigenvalue-minimisations  :  9728
 total energy-change (2. order) :-0.5888720E-05  (-0.6219377E-05)
 number of electron     335.9999997 magnetization      -0.0004839
 augmentation part      -46.9858383 magnetization      -0.0002399

 Broyden mixing:
  rms(total) = 0.20310E-02    rms(broyden)= 0.20310E-02
  rms(prec ) = 0.22052E-02
  weight for this iteration     100.00

 eigenvalues of (default mixing * dielectric matrix)
  average eigenvalue GAMMA=   1.5456
  5.0447  2.7069  2.7069  2.1095  1.4094  1.4094  1.0324  1.0324  0.8587  0.7537
  0.7537  0.5800  0.6092  0.6310

 Free energy of the ion-electron system (eV)
  ---------------------------------------------------
  alpha Z        PSCENC =       253.99581917
  Ewald energy   TEWEN  =     -9971.74512110
  -Hartree energ DENC   =     -4866.51967402
  -exchange      EXHF   =         0.00000000
  -V(xc)+E(xc)   XCENC  =       689.14179916
  PAW double counting   =     39198.77008863   -39024.15090337
  entropy T*S    EENTRO =         0.00000000
  eigenvalues    EBANDS =     -2010.86739236
  atomic energy  EATOM  =     15501.99929693
  Solvation  Ediel_sol  =         0.00000000
  ---------------------------------------------------
  free energy    TOTEN  =      -229.37608697 eV

  energy without entropy =     -229.37608697  energy(sigma->0) =     -229.37608697


--------------------------------------------------------------------------------------------------------




--------------------------------------- Iteration      1(  20)  ---------------------------------------


    POTLOK:  cpu time      0.3959: real time      0.3997
    SETDIJ:  cpu time     25.0151: real time     25.0174
     EDDAV:  cpu time     50.5205: real time     50.5276
 BZINTS: Fermi energy:    0.078886;  336.000000 electrons
         Band energy:-0.201101E+04;  BLOECHL correction:    0.000000
       DOS:  cpu time      0.0273: real time      0.0274
    CHARGE:  cpu time     28.5567: real time     28.5594
    MIXING:  cpu time      0.0123: real time      0.0123
    --------------------------------------------
      LOOP:  cpu time    104.5277: real time    104.5438

 eigenvalue-minimisations  :  9184
 total energy-change (2. order) :-0.1047776E-04  (-0.3479226E-05)
 number of electron     335.9999997 magnetization      -0.0016121
 augmentation part      -46.9863690 magnetization      -0.0015332

 Broyden mixing:
  rms(total) = 0.95211E-03    rms(broyden)= 0.95199E-03
  rms(prec ) = 0.10110E-02
  weight for this iteration     100.00

 eigenvalues of (default mixing * dielectric matrix)
  average eigenvalue GAMMA=   1.5471
  5.0949  2.7078  2.7078  2.0996  2.0996  1.2306  1.2306  0.9900  0.9900  0.7800
  0.7328  0.7328  0.5780  0.6158  0.6158

 Free energy of the ion-electron system (eV)
  ---------------------------------------------------
  alpha Z        PSCENC =       253.99581917
  Ewald energy   TEWEN  =     -9971.74512110
  -Hartree energ DENC   =     -4866.37660520
  -exchange      EXHF   =         0.00000000
  -V(xc)+E(xc)   XCENC  =       689.13478495
  PAW double counting   =     39203.93555737   -39029.31444879
  entropy T*S    EENTRO =         0.00000000
  eigenvalues    EBANDS =     -2011.00538078
  atomic energy  EATOM  =     15501.99929693
  Solvation  Ediel_sol  =         0.00000000
  ---------------------------------------------------
  free energy    TOTEN  =      -229.37609745 eV

  energy without entropy =     -229.37609745  energy(sigma->0) =     -229.37609745


--------------------------------------------------------------------------------------------------------




--------------------------------------- Iteration      1(  21)  ---------------------------------------


    POTLOK:  cpu time      0.4115: real time      0.4128
    SETDIJ:  cpu time     20.8615: real time     20.8634
     EDDAV:  cpu time     47.1010: real time     47.1078
 BZINTS: Fermi energy:    0.078492;  336.000000 electrons
         Band energy:-0.201106E+04;  BLOECHL correction:    0.000000
       DOS:  cpu time      0.0288: real time      0.0289
    CHARGE:  cpu time     23.5274: real time     23.5295
    MIXING:  cpu time      0.0114: real time      0.0114
    --------------------------------------------
      LOOP:  cpu time     91.9417: real time     91.9539

 eigenvalue-minimisations  :  9280
 total energy-change (2. order) : 0.1185297E-05  (-0.8894219E-06)
 number of electron     335.9999997 magnetization      -0.0013363
 augmentation part      -46.9865636 magnetization      -0.0013400

 Broyden mixing:
  rms(total) = 0.42605E-03    rms(broyden)= 0.42578E-03
  rms(prec ) = 0.44807E-03
  weight for this iteration     100.00

 eigenvalues of (default mixing * dielectric matrix)
  average eigenvalue GAMMA=   1.5119
  5.0968  2.6680  2.6680  2.5714  1.6108  1.4035  1.1545  1.1545  0.9280  0.9280
  0.7391  0.7391  0.7251  0.5776  0.6125  0.6125

 Free energy of the ion-electron system (eV)
  ---------------------------------------------------
  alpha Z        PSCENC =       253.99581917
  Ewald energy   TEWEN  =     -9971.74512110
  -Hartree energ DENC   =     -4866.31758742
  -exchange      EXHF   =         0.00000000
  -V(xc)+E(xc)   XCENC  =       689.13117200
  PAW double counting   =     39203.36913838   -39028.74721487
  entropy T*S    EENTRO =         0.00000000
  eigenvalues    EBANDS =     -2011.06159936
  atomic energy  EATOM  =     15501.99929693
  Solvation  Ediel_sol  =         0.00000000
  ---------------------------------------------------
  free energy    TOTEN  =      -229.37609627 eV

  energy without entropy =     -229.37609627  energy(sigma->0) =     -229.37609627


--------------------------------------------------------------------------------------------------------




--------------------------------------- Iteration      1(  22)  ---------------------------------------


    POTLOK:  cpu time      0.4128: real time      0.4205
    SETDIJ:  cpu time     25.2600: real time     25.2626
     EDDAV:  cpu time     47.4161: real time     47.4239
 BZINTS: Fermi energy:    0.078427;  336.000000 electrons
         Band energy:-0.201108E+04;  BLOECHL correction:    0.000000
       DOS:  cpu time      0.0297: real time      0.0298
    CHARGE:  cpu time     26.8717: real time     26.8747
    MIXING:  cpu time      0.0168: real time      0.0168
    --------------------------------------------
      LOOP:  cpu time    100.0071: real time    100.0283

 eigenvalue-minimisations  :  9856
 total energy-change (2. order) : 0.4559697E-06  (-0.1414329E-06)
 number of electron     335.9999997 magnetization      -0.0004693
 augmentation part      -46.9866321 magnetization      -0.0004908

 Broyden mixing:
  rms(total) = 0.23163E-03    rms(broyden)= 0.23114E-03
  rms(prec ) = 0.24580E-03
  weight for this iteration     100.00

 eigenvalues of (default mixing * dielectric matrix)
  average eigenvalue GAMMA=   1.5005
  5.0911  2.6568  2.6568  2.6245  1.6721  1.4391  1.4391  1.0834  1.0834  0.9005
  0.9005  0.7423  0.7423  0.6732  0.5788  0.6126  0.6126

 Free energy of the ion-electron system (eV)
  ---------------------------------------------------
  alpha Z        PSCENC =       253.99581917
  Ewald energy   TEWEN  =     -9971.74512110
  -Hartree energ DENC   =     -4866.29606107
  -exchange      EXHF   =         0.00000000
  -V(xc)+E(xc)   XCENC  =       689.12959894
  PAW double counting   =     39201.95799408   -39027.33576538
  entropy T*S    EENTRO =         0.00000000
  eigenvalues    EBANDS =     -2011.08185738
  atomic energy  EATOM  =     15501.99929693
  Solvation  Ediel_sol  =         0.00000000
  ---------------------------------------------------
  free energy    TOTEN  =      -229.37609581 eV

  energy without entropy =     -229.37609581  energy(sigma->0) =     -229.37609581


--------------------------------------------------------------------------------------------------------




--------------------------------------- Iteration      1(  23)  ---------------------------------------


    POTLOK:  cpu time      0.4192: real time      0.4202
    SETDIJ:  cpu time     22.9448: real time     22.9471
     EDDAV:  cpu time     42.6344: real time     42.6415
 BZINTS: Fermi energy:    0.078483;  336.000000 electrons
         Band energy:-0.201108E+04;  BLOECHL correction:    0.000000
       DOS:  cpu time      0.0297: real time      0.0298
    CHARGE:  cpu time     21.9903: real time     21.9925
    MIXING:  cpu time      0.0100: real time      0.0100
    --------------------------------------------
      LOOP:  cpu time     88.0283: real time     88.0411

 eigenvalue-minimisations  :  9216
 total energy-change (2. order) :-0.2267043E-06  (-0.5737937E-07)
 number of electron     335.9999997 magnetization      -0.0002604
 augmentation part      -46.9866051 magnetization      -0.0002566

 Broyden mixing:
[...]

  length of vectors
    10.314108670 16.788494411 10.846477853     0.097707938  0.059564603  0.092912216


 FORCES acting on ions
    electron-ion (+dipol)            ewald-force                    non-local-force                 convergence-correction
 -----------------------------------------------------------------------------------------------
   0.986E+02 -.105E+03 -.125E+02   -.104E+03 0.113E+03 0.112E+02   0.495E+01 -.888E+01 0.132E+01   0.167E-05 -.204E-06 0.722E-06
   0.987E+02 -.105E+03 -.125E+02   -.104E+03 0.113E+03 0.112E+02   0.495E+01 -.888E+01 0.132E+01   0.168E-05 -.282E-06 0.745E-06
   -.123E+02 0.419E+02 -.127E+03   0.126E+02 -.471E+02 0.134E+03   -.245E+00 0.519E+01 -.705E+01   0.910E-07 -.479E-08 -.135E-05
   -.124E+02 0.420E+02 -.127E+03   0.126E+02 -.472E+02 0.134E+03   -.246E+00 0.519E+01 -.705E+01   0.112E-06 0.187E-07 -.130E-05
   -.211E+02 -.902E+02 0.981E+02   0.198E+02 0.989E+02 -.103E+03   0.134E+01 -.874E+01 0.530E+01   -.649E-07 -.177E-07 0.193E-05
   -.211E+02 -.902E+02 0.981E+02   0.198E+02 0.989E+02 -.103E+03   0.134E+01 -.874E+01 0.530E+01   -.442E-07 -.251E-07 0.191E-05
   -.108E+03 0.950E+02 0.637E+01   0.114E+03 -.101E+03 -.426E+01   -.534E+01 0.592E+01 -.212E+01   -.169E-05 -.162E-07 0.718E-06
   -.108E+03 0.950E+02 0.626E+01   0.114E+03 -.101E+03 -.414E+01   -.534E+01 0.592E+01 -.212E+01   -.167E-05 0.177E-07 0.685E-06
   0.136E+03 -.532E+02 -.181E+02   -.143E+03 0.587E+02 0.187E+02   0.683E+01 -.558E+01 -.618E+00   0.156E-05 0.447E-07 -.986E-06
   0.136E+03 -.540E+02 -.187E+02   -.143E+03 0.595E+02 0.193E+02   0.680E+01 -.552E+01 -.558E+00   0.156E-05 0.227E-07 -.992E-06
   -.136E+03 0.540E+02 0.188E+02   0.143E+03 -.595E+02 -.193E+02   -.680E+01 0.552E+01 0.558E+00   -.158E-05 -.607E-09 0.103E-05
   -.136E+03 0.540E+02 0.187E+02   0.143E+03 -.595E+02 -.193E+02   -.680E+01 0.552E+01 0.558E+00   -.157E-05 -.340E-07 0.102E-05
   0.108E+03 -.951E+02 -.629E+01   -.114E+03 0.101E+03 0.417E+01   0.534E+01 -.592E+01 0.212E+01   0.163E-05 0.156E-07 -.658E-06
   0.108E+03 -.950E+02 -.626E+01   -.114E+03 0.101E+03 0.414E+01   0.534E+01 -.592E+01 0.212E+01   0.170E-05 0.270E-07 -.649E-06
   -.128E+02 -.423E+02 0.127E+03   0.131E+02 0.476E+02 -.134E+03   -.252E+00 -.524E+01 0.704E+01   0.103E-06 0.294E-07 0.104E-05
   -.124E+02 -.420E+02 0.127E+03   0.126E+02 0.472E+02 -.134E+03   -.246E+00 -.519E+01 0.705E+01   0.120E-06 0.636E-07 0.106E-05
   0.211E+02 -.902E+02 0.981E+02   -.198E+02 0.989E+02 -.103E+03   -.134E+01 -.874E+01 0.530E+01   0.459E-07 -.459E-07 0.196E-05
   0.211E+02 -.902E+02 0.981E+02   -.198E+02 0.989E+02 -.103E+03   -.134E+01 -.874E+01 0.530E+01   0.855E-07 -.160E-07 0.191E-05
   -.986E+02 -.105E+03 -.125E+02   0.104E+03 0.114E+03 0.112E+02   -.495E+01 -.888E+01 0.132E+01   -.171E-05 -.274E-06 0.724E-06
   -.987E+02 -.105E+03 -.125E+02   0.104E+03 0.113E+03 0.112E+02   -.495E+01 -.888E+01 0.132E+01   -.165E-05 -.199E-06 0.724E-06
   -.136E+03 -.540E+02 -.187E+02   0.143E+03 0.595E+02 0.193E+02   -.680E+01 -.552E+01 -.558E+00   -.154E-05 -.276E-07 -.989E-06
   -.136E+03 -.540E+02 -.187E+02   0.143E+03 0.595E+02 0.193E+02   -.680E+01 -.552E+01 -.558E+00   -.160E-05 -.249E-07 -.976E-06
   0.124E+02 0.420E+02 -.127E+03   -.126E+02 -.472E+02 0.134E+03   0.246E+00 0.519E+01 -.705E+01   -.118E-06 -.510E-07 -.130E-05
   0.123E+02 0.420E+02 -.127E+03   -.126E+02 -.472E+02 0.134E+03   0.246E+00 0.519E+01 -.705E+01   -.730E-07 -.242E-07 -.128E-05
   -.108E+03 -.950E+02 -.626E+01   0.114E+03 0.101E+03 0.415E+01   -.534E+01 -.592E+01 0.212E+01   -.165E-05 0.111E-06 -.656E-06
   -.108E+03 -.950E+02 -.627E+01   0.114E+03 0.101E+03 0.416E+01   -.534E+01 -.592E+01 0.211E+01   -.163E-05 0.745E-07 -.655E-06
   0.986E+02 0.105E+03 0.125E+02   -.104E+03 -.113E+03 -.112E+02   0.495E+01 0.888E+01 -.132E+01   0.162E-05 0.177E-06 -.850E-06
   0.986E+02 0.105E+03 0.125E+02   -.104E+03 -.113E+03 -.112E+02   0.495E+01 0.888E+01 -.132E+01   0.169E-05 0.228E-06 -.817E-06
   -.987E+02 0.105E+03 0.125E+02   0.104E+03 -.113E+03 -.112E+02   -.495E+01 0.888E+01 -.132E+01   -.166E-05 0.285E-06 -.847E-06
   -.986E+02 0.105E+03 0.124E+02   0.104E+03 -.113E+03 -.111E+02   -.495E+01 0.888E+01 -.130E+01   -.164E-05 0.254E-06 -.839E-06
   0.734E+02 0.958E+02 0.623E+02   -.762E+02 -.105E+03 -.644E+02   0.271E+01 0.969E+01 0.219E+01   0.839E-06 0.452E-06 0.423E-06
   0.728E+02 0.961E+02 0.632E+02   -.755E+02 -.106E+03 -.653E+02   0.274E+01 0.971E+01 0.207E+01   0.838E-06 0.398E-06 0.473E-06
   0.218E+02 -.938E+02 -.888E+02   -.205E+02 0.100E+03 0.939E+02   -.133E+01 -.628E+01 -.509E+01   0.263E-06 0.743E-07 -.131E-05
   0.218E+02 -.938E+02 -.889E+02   -.205E+02 0.100E+03 0.940E+02   -.133E+01 -.628E+01 -.509E+01   0.277E-06 0.615E-07 -.137E-05
   -.211E+02 0.902E+02 -.980E+02   0.198E+02 -.989E+02 0.103E+03   0.134E+01 0.874E+01 -.530E+01   -.820E-07 -.184E-07 -.170E-05
   -.211E+02 0.902E+02 -.981E+02   0.198E+02 -.989E+02 0.103E+03   0.134E+01 0.874E+01 -.530E+01   -.848E-07 0.332E-07 -.173E-05
   -.218E+02 0.938E+02 0.890E+02   0.205E+02 -.100E+03 -.940E+02   0.133E+01 0.628E+01 0.509E+01   -.314E-06 -.508E-07 0.158E-05
   -.218E+02 0.938E+02 0.889E+02   0.205E+02 -.100E+03 -.940E+02   0.133E+01 0.628E+01 0.509E+01   -.298E-06 -.613E-07 0.153E-05
   0.212E+02 0.903E+02 -.978E+02   -.199E+02 -.990E+02 0.103E+03   -.135E+01 0.874E+01 -.535E+01   0.635E-07 0.817E-07 -.171E-05
   0.211E+02 0.902E+02 -.981E+02   -.198E+02 -.989E+02 0.103E+03   -.134E+01 0.874E+01 -.530E+01   0.582E-07 0.530E-07 -.175E-05
   0.728E+02 -.962E+02 -.632E+02   -.755E+02 0.106E+03 0.653E+02   0.274E+01 -.971E+01 -.207E+01   0.866E-06 -.444E-06 -.632E-06
   0.728E+02 -.962E+02 -.632E+02   -.755E+02 0.106E+03 0.653E+02   0.274E+01 -.971E+01 -.207E+01   0.881E-06 -.413E-06 -.612E-06
   0.136E+03 0.539E+02 0.187E+02   -.143E+03 -.595E+02 -.193E+02   0.680E+01 0.552E+01 0.558E+00   0.162E-05 0.451E-07 0.102E-05
   0.136E+03 0.539E+02 0.187E+02   -.143E+03 -.595E+02 -.193E+02   0.680E+01 0.552E+01 0.558E+00   0.157E-05 -.888E-08 0.102E-05
   0.108E+03 0.950E+02 0.630E+01   -.114E+03 -.101E+03 -.418E+01   0.534E+01 0.592E+01 -.212E+01   0.168E-05 -.693E-07 0.706E-06
   0.108E+03 0.950E+02 0.626E+01   -.114E+03 -.101E+03 -.414E+01   0.534E+01 0.592E+01 -.212E+01   0.168E-05 -.129E-06 0.711E-06
   -.727E+02 -.961E+02 -.632E+02   0.754E+02 0.106E+03 0.653E+02   -.274E+01 -.971E+01 -.207E+01   -.853E-06 -.364E-06 -.630E-06
   -.728E+02 -.961E+02 -.632E+02   0.755E+02 0.106E+03 0.653E+02   -.274E+01 -.971E+01 -.207E+01   -.861E-06 -.410E-06 -.599E-06
   -.218E+02 -.937E+02 -.888E+02   0.204E+02 0.100E+03 0.939E+02   0.134E+01 -.627E+01 -.508E+01   -.279E-06 0.115E-06 -.132E-05
   -.218E+02 -.938E+02 -.889E+02   0.205E+02 0.100E+03 0.940E+02   0.133E+01 -.628E+01 -.509E+01   -.261E-06 0.170E-06 -.134E-05
   0.218E+02 0.938E+02 0.889E+02   -.205E+02 -.100E+03 -.940E+02   -.133E+01 0.628E+01 0.509E+01   0.279E-06 -.171E-06 0.156E-05
   0.218E+02 0.938E+02 0.889E+02   -.205E+02 -.100E+03 -.940E+02   -.133E+01 0.628E+01 0.509E+01   0.334E-06 -.115E-06 0.155E-05
   -.728E+02 0.962E+02 0.632E+02   0.755E+02 -.106E+03 -.653E+02   -.274E+01 0.971E+01 0.207E+01   -.852E-06 0.372E-06 0.437E-06
   -.728E+02 0.961E+02 0.632E+02   0.755E+02 -.106E+03 -.653E+02   -.274E+01 0.971E+01 0.207E+01   -.864E-06 0.388E-06 0.449E-06
   0.124E+02 -.419E+02 0.127E+03   -.126E+02 0.471E+02 -.134E+03   0.246E+00 -.519E+01 0.705E+01   -.127E-06 -.421E-07 0.106E-05
   0.124E+02 -.420E+02 0.127E+03   -.126E+02 0.472E+02 -.134E+03   0.246E+00 -.519E+01 0.705E+01   -.119E-06 -.239E-07 0.110E-05
 -----------------------------------------------------------------------------------------------
   0.645E-02 0.118E+00 -.126E-01   0.149E-12 0.178E-12 0.284E-13   -.645E-02 -.118E+00 0.126E-01   -.288E-08 0.475E-07 -.277E-07


 POSITION                                       TOTAL-FORCE (eV/Angst)
 -----------------------------------------------------------------------------------
      7.84031      7.96182     -7.59135         0.002664     -0.001423      0.000714
     16.23455      7.96182     -7.59135         0.002518     -0.001220      0.000960
      3.16872      2.44282     -6.01943         0.002215     -0.000982     -0.002512
     11.56297      2.44282     -6.01943         0.002172     -0.000902     -0.002519
      1.76685      7.82725    -10.10485        -0.000080     -0.000032     -0.000516
     10.16110      7.82725    -10.10485        -0.000038     -0.000046     -0.000454
      5.05050      1.12562     -8.40433         0.001386     -0.000604     -0.000793
     13.44475      1.12562     -8.40433         0.001568     -0.000570     -0.000644
      5.13205      1.09979     -2.45651         0.023551     -0.048307     -0.049497
     13.52630      1.09979     -2.45651        -0.000131      0.000439     -0.000285
      3.26219      7.47505     -8.62356         0.000131     -0.000549      0.000191
     11.65644      7.47505     -8.62356         0.000081     -0.000418      0.000326
      3.34375      7.44923     -2.67574        -0.001309      0.000809      0.000552
     11.73799      7.44923     -2.67574        -0.001618      0.000665      0.000710
      7.36585      0.97835     -4.87422         0.011034      0.014577     -0.019449
     15.76010      0.97835     -4.87422         0.002136      0.000883      0.002488
      2.43027      2.67356     -9.91842         0.000240     -0.000094     -0.000424
     10.82452      2.67356     -9.91842        -0.000016      0.000017     -0.000536
      4.75106      2.80814     -7.40493        -0.002483     -0.001050      0.001142
     13.14531      2.80814     -7.40493        -0.002460     -0.001337      0.000876
      7.45932      6.25348     -2.64294         0.000189      0.000488     -0.000345
     15.85356      6.25348     -2.64294         0.000061      0.000448     -0.000292
      1.02840      7.59650     -6.20585        -0.002206     -0.000933     -0.002435
      9.42265      7.59650     -6.20585        -0.002193     -0.000771     -0.002362
      0.85338      2.29554     -2.48931         0.001494      0.000536      0.000642
      9.24762      2.29554     -2.48931        -0.000952     -0.001085     -0.001468
      3.64318      5.76671     -3.67515         0.002388      0.001104     -0.000747
     12.03743      5.76671     -3.67515         0.002482      0.001264     -0.000964
      0.55394      0.61303     -3.48872        -0.002372      0.001427     -0.000791
      8.94819      0.61303     -3.48872         0.002877     -0.006891      0.005967
      5.79350     -0.03303     -4.04189        -0.023776      0.048172      0.093497
     14.18775     -0.03143     -4.03202        -0.001239      0.001770      0.000162
      4.85766      7.53946     -1.03917        -0.003760      0.002131     -0.000544
     13.25190      7.53946     -1.03917        -0.003922      0.002066     -0.000279
      5.96398      5.90128     -1.16165        -0.000361     -0.000122      0.000606
     14.35822      5.90128     -1.16165        -0.000033     -0.000046      0.000435
      3.53659      1.03539    -10.04090         0.003788     -0.002104     -0.000065
     11.93084      1.03539    -10.04090         0.004024     -0.002105      0.000289
      6.62739      0.74760     -0.97522        -0.013026     -0.004507     -0.025160
     15.02164      0.74760     -0.97522         0.000061      0.000026      0.000545
      1.59638      3.45260     -6.86163        -0.001153     -0.001676     -0.000262
      9.99063      3.45260     -6.86163        -0.001208     -0.001752     -0.000250
      0.93493      2.32137     -8.43713        -0.000154     -0.000494      0.000270
      9.32918      2.32137     -8.43713        -0.000103     -0.000406      0.000327
      7.54087      6.27930     -8.59076        -0.001765     -0.000670     -0.000706
     15.93512      6.27930     -8.59076        -0.001619     -0.000691     -0.000669
      2.60074      8.60628     -7.04805         0.001076     -0.001710     -0.000304
     10.99499      8.60628     -7.04805         0.001280     -0.001770     -0.000313
      7.73371      2.38578     -0.85274         0.004248      0.004976     -0.000854
     16.12796      2.38578     -0.85274         0.004009      0.002012     -0.000343
      0.66053      6.18907    -10.22733        -0.003830     -0.001924      0.000349
      9.05478      6.18907    -10.22733        -0.003967     -0.001934      0.000317
      6.79787      5.12225     -4.21845         0.001195      0.001989      0.000152
     15.19211      5.12225     -4.21845         0.001236      0.001776      0.000280
      5.22552      6.13203     -5.06065        -0.002183      0.000672      0.002467
     13.61977      6.13203     -5.06065        -0.002146      0.000880      0.002518
 -----------------------------------------------------------------------------------
    total drift:                                0.000002     -0.000001     -0.000016


--------------------------------------------------------------------------------------------------------



  FREE ENERGIE OF THE ION-ELECTRON SYSTEM (eV)
  ---------------------------------------------------
  free  energy   TOTEN  =      -229.37609584 eV

  energy  without entropy=     -229.37609584  energy(sigma->0) =     -229.37609584



--------------------------------------------------------------------------------------------------------


    POTLOK:  cpu time     27.1648: real time     27.1805


--------------------------------------------------------------------------------------------------------


     LOOP+:  cpu time   3614.0965: real time   3614.6511
    4ORBIT:  cpu time      0.0000: real time      0.0000



 total charge

# of ion       s       p       d       tot
------------------------------------------
    1        1.376   2.247   0.000   3.623
    2        1.376   2.247   0.000   3.623
    3        1.376   2.258   0.000   3.635
    4        1.376   2.258   0.000   3.635
    5        1.376   2.247   0.000   3.622
    6        1.376   2.247   0.000   3.623
    7        1.375   2.262   0.000   3.638
    8        1.375   2.262   0.000   3.638
    9        1.377   2.255   0.000   3.632
   10        1.377   2.257   0.000   3.634
   11        1.377   2.257   0.000   3.634
   12        1.377   2.257   0.000   3.634
   13        1.375   2.262   0.000   3.638
   14        1.375   2.262   0.000   3.638
   15        1.376   2.259   0.000   3.635
   16        1.376   2.258   0.000   3.635
   17        1.376   2.247   0.000   3.623
   18        1.376   2.247   0.000   3.623
   19        1.376   2.247   0.000   3.623
   20        1.376   2.247   0.000   3.623
   21        1.377   2.257   0.000   3.634
   22        1.377   2.257   0.000   3.634
   23        1.376   2.258   0.000   3.635
   24        1.376   2.258   0.000   3.635
   25        1.375   2.262   0.000   3.638
   26        1.376   2.262   0.000   3.638
   27        1.376   2.247   0.000   3.623
   28        1.376   2.247   0.000   3.623
   29        1.376   2.247   0.000   3.623
   30        1.376   2.247   0.000   3.623
   31        1.376   2.253   0.000   3.628
   32        1.376   2.254   0.000   3.630
   33        1.375   2.263   0.000   3.638
   34        1.375   2.263   0.000   3.638
   35        1.376   2.247   0.000   3.623
   36        1.376   2.247   0.000   3.623
   37        1.375   2.263   0.000   3.638
   38        1.375   2.263   0.000   3.638
   39        1.376   2.246   0.000   3.622
   40        1.376   2.247   0.000   3.623
   41        1.376   2.254   0.000   3.630
   42        1.376   2.254   0.000   3.630
   43        1.377   2.257   0.000   3.634
   44        1.377   2.257   0.000   3.634
   45        1.375   2.262   0.000   3.638
   46        1.375   2.262   0.000   3.638
   47        1.376   2.254   0.000   3.630
   48        1.376   2.254   0.000   3.630
   49        1.375   2.263   0.000   3.638
   50        1.375   2.263   0.000   3.638
   51        1.375   2.263   0.000   3.638
   52        1.375   2.263   0.000   3.638
   53        1.376   2.254   0.000   3.630
   54        1.376   2.254   0.000   3.630
   55        1.376   2.258   0.000   3.635
   56        1.376   2.258   0.000   3.635
--------------------------------------------------
tot         77.049 126.308   0.000 203.358



 magnetization (x)

# of ion       s       p       d       tot
------------------------------------------
    1        0.000   0.000   0.000   0.000
    2        0.000   0.000   0.000   0.000
    3        0.000   0.000   0.000   0.000
    4        0.000   0.000   0.000   0.000
    5        0.000   0.000   0.000   0.000
    6        0.000   0.000   0.000   0.000
    7        0.000   0.000   0.000   0.000
    8        0.000   0.000   0.000   0.000
    9        0.000   0.000   0.000   0.000
   10        0.000   0.000   0.000   0.000
   11        0.000   0.000   0.000   0.000
   12        0.000   0.000   0.000   0.000
   13        0.000   0.000   0.000   0.000
   14        0.000   0.000   0.000   0.000
   15        0.000   0.000   0.000   0.000
   16        0.000   0.000   0.000   0.000
   17        0.000   0.000   0.000   0.000
   18        0.000   0.000   0.000   0.000
   19        0.000   0.000   0.000   0.000
   20        0.000   0.000   0.000   0.000
   21        0.000   0.000   0.000   0.000
   22        0.000   0.000   0.000   0.000
   23        0.000   0.000   0.000   0.000
   24        0.000   0.000   0.000   0.000
   25        0.000   0.000   0.000   0.000
   26        0.000   0.000   0.000   0.000
   27        0.000   0.000   0.000   0.000
   28        0.000   0.000   0.000   0.000
   29        0.000   0.000   0.000   0.000
   30        0.000   0.000   0.000   0.000
   31        0.000   0.000   0.000   0.000
   32        0.000   0.000   0.000   0.000
   33        0.000   0.000   0.000   0.000
   34        0.000   0.000   0.000   0.000
   35        0.000   0.000   0.000   0.000
   36        0.000   0.000   0.000   0.000
   37        0.000   0.000   0.000   0.000
   38        0.000   0.000   0.000   0.000
   39        0.000   0.000   0.000   0.000
   40        0.000   0.000   0.000   0.000
   41        0.000   0.000   0.000   0.000
   42        0.000   0.000   0.000   0.000
   43        0.000   0.000   0.000   0.000
   44        0.000   0.000   0.000   0.000
   45        0.000   0.000   0.000   0.000
   46        0.000   0.000   0.000   0.000
   47        0.000   0.000   0.000   0.000
   48        0.000   0.000   0.000   0.000
   49        0.000   0.000   0.000   0.000
   50        0.000   0.000   0.000   0.000
   51        0.000   0.000   0.000   0.000
   52        0.000   0.000   0.000   0.000
   53        0.000   0.000   0.000   0.000
   54        0.000   0.000   0.000   0.000
   55        0.000   0.000   0.000   0.000
   56        0.000   0.000   0.000   0.000
--------------------------------------------------
tot          0.000   0.000   0.000   0.000

 BZINTS: Fermi energy:    0.078414;  336.000000 electrons
         Band energy:-0.201109E+04;  BLOECHL correction:    0.000000

 total amount of memory used by VASP MPI-rank0   322725. kBytes
=======================================================================

   base      :      30000. kBytes
   nonl-proj :      70692. kBytes
   fftplans  :      34504. kBytes
   grid      :      83442. kBytes
   one-center:        344. kBytes
   wavefun   :     103743. kBytes

  
  
 General timing and accounting informations for this job:
 ========================================================
  
                  Total CPU time used (sec):     3662.768
                            User time (sec):     3660.742
                          System time (sec):        2.027
                         Elapsed time (sec):     3664.292
  
                   Maximum memory used (kb):      607104.
                   Average memory used (kb):          N/A
  
                          Minor page faults:      1155141
                          Major page faults:          116
                 Voluntary context switches:         7575
