  39  39   0   0
  0.2439952E+02  0.6834254E-09  0.1767185E-08  0.7880486E-09  0.0000000E+00
   1.0000000000000000E-004
  CAR 
 NEB_refined                             
      9.51048053    -23.85086771  301      1.06895830      1.00000000
    -23.851  0.0000E+00  0.0000E+00
    -23.740  0.0000E+00  0.0000E+00
    -23.628  0.0000E+00  0.0000E+00
    -23.517 -0.9968E-31 -0.1109E-31
    -23.406 -0.7456E-27 -0.8292E-28
    -23.295 -0.2997E-23 -0.3333E-24
    -23.184 -0.6480E-20 -0.7209E-21
    -23.072 -0.7537E-17 -0.8389E-18
    -22.961 -0.4563E-14 -0.5083E-15
    -22.850 -0.1522E-11 -0.1698E-12
    -22.739 -0.2715E-09 -0.3036E-10
    -22.628 -0.2580E-07 -0.2899E-08
    -22.516 -0.1297E-05 -0.1471E-06
    -22.405 -0.3399E-04 -0.3927E-05
    -22.294 -0.4508E-03 -0.5406E-04
    -22.183 -0.2793E-02 -0.3646E-03
    -22.072 -0.5635E-02 -0.9912E-03
    -21.960  0.1371E-01  0.5331E-03
    -21.849  0.7707E-01  0.9104E-02
    -21.738  0.1236E+00  0.2284E-01
    -21.627  0.1006E+00  0.3403E-01
    -21.516  0.1034E+00  0.4552E-01
    -21.404  0.2270E+00  0.7077E-01
    -21.293  0.4245E+00  0.1180E+00
    -21.182  0.5135E+00  0.1751E+00
    -21.071  0.3644E+00  0.2156E+00
    -20.960  0.1275E+00  0.2298E+00
    -20.848  0.2940E-02  0.2301E+00
    -20.737 -0.1361E-01  0.2286E+00
    -20.626 -0.4654E-02  0.2281E+00
    -20.515 -0.6858E-03  0.2280E+00
    -20.404 -0.5098E-04  0.2280E+00
    -20.292 -0.1986E-05  0.2280E+00
    -20.181 -0.4110E-07  0.2280E+00
    -20.070 -0.4549E-09  0.2280E+00
    -19.959 -0.2702E-11  0.2280E+00
    -19.848 -0.8634E-14  0.2280E+00
    -19.736 -0.7987E-17  0.2280E+00
    -19.625  0.0000E+00  0.2280E+00
    -19.514  0.0000E+00  0.2280E+00
    -19.403  0.0000E+00  0.2280E+00
    -19.291  0.0000E+00  0.2280E+00
    -19.180  0.0000E+00  0.2280E+00
    -19.069  0.0000E+00  0.2280E+00
    -18.958  0.0000E+00  0.2280E+00
    -18.847  0.0000E+00  0.2280E+00
    -18.735  0.0000E+00  0.2280E+00
    -18.624  0.0000E+00  0.2280E+00
    -18.513  0.0000E+00  0.2280E+00
    -18.402  0.0000E+00  0.2280E+00
    -18.291  0.0000E+00  0.2280E+00
    -18.179  0.0000E+00  0.2280E+00
    -18.068  0.0000E+00  0.2280E+00
    -17.957  0.0000E+00  0.2280E+00
    -17.846  0.0000E+00  0.2280E+00
    -17.735  0.0000E+00  0.2280E+00
    -17.623  0.0000E+00  0.2280E+00
    -17.512  0.0000E+00  0.2280E+00
    -17.401  0.0000E+00  0.2280E+00
    -17.290  0.0000E+00  0.2280E+00
    -17.179  0.0000E+00  0.2280E+00
    -17.067  0.0000E+00  0.2280E+00
    -16.956  0.0000E+00  0.2280E+00
    -16.845  0.0000E+00  0.2280E+00
    -16.734  0.0000E+00  0.2280E+00
    -16.623  0.0000E+00  0.2280E+00
    -16.511  0.0000E+00  0.2280E+00
    -16.400  0.0000E+00  0.2280E+00
    -16.289  0.0000E+00  0.2280E+00
    -16.178  0.0000E+00  0.2280E+00
    -16.067  0.0000E+00  0.2280E+00
    -15.955  0.0000E+00  0.2280E+00
    -15.844  0.0000E+00  0.2280E+00
    -15.733  0.0000E+00  0.2280E+00
    -15.622  0.0000E+00  0.2280E+00
    -15.511  0.0000E+00  0.2280E+00
    -15.399  0.0000E+00  0.2280E+00
    -15.288  0.0000E+00  0.2280E+00
    -15.177  0.0000E+00  0.2280E+00
    -15.066  0.0000E+00  0.2280E+00
    -14.955  0.0000E+00  0.2280E+00
    -14.843  0.0000E+00  0.2280E+00
    -14.732  0.0000E+00  0.2280E+00
    -14.621  0.0000E+00  0.2280E+00
    -14.510  0.0000E+00  0.2280E+00
    -14.398  0.0000E+00  0.2280E+00
    -14.287  0.0000E+00  0.2280E+00
    -14.176 -0.7670E-31  0.2280E+00
    -14.065 -0.5984E-27  0.2280E+00
    -13.954 -0.2488E-23  0.2280E+00
    -13.842 -0.5567E-20  0.2280E+00
    -13.731 -0.6700E-17  0.2280E+00
    -13.620 -0.4200E-14  0.2280E+00
    -13.509 -0.1448E-11  0.2280E+00
    -13.398 -0.2669E-09  0.2280E+00
    -13.286 -0.2620E-07  0.2280E+00
    -13.175 -0.1360E-05  0.2280E+00
    -13.064 -0.3688E-04  0.2280E+00
    -12.953 -0.5092E-03  0.2279E+00
    -12.842 -0.3346E-02  0.2276E+00
    -12.730 -0.7959E-02  0.2267E+00
    -12.619  0.1173E-01  0.2280E+00
    -12.508  0.9430E-01  0.2385E+00
    -12.397  0.1916E+00  0.2598E+00
    -12.286  0.2095E+00  0.2831E+00
    -12.174  0.1514E+00  0.2999E+00
    -12.063  0.6998E-01  0.3077E+00
    -11.952  0.1138E-01  0.3090E+00
    -11.841 -0.5279E-02  0.3084E+00
    -11.730 -0.2833E-02  0.3081E+00
    -11.618 -0.5113E-03  0.3080E+00
    -11.507 -0.4347E-04  0.3080E+00
    -11.396 -0.1875E-05  0.3080E+00
    -11.285 -0.4222E-07  0.3080E+00
    -11.174 -0.5029E-09  0.3080E+00
    -11.062 -0.4517E-10  0.3080E+00
    -10.951 -0.4234E-08  0.3080E+00
    -10.840 -0.2239E-06  0.3080E+00
    -10.729 -0.6134E-05  0.3080E+00
    -10.618 -0.8497E-04  0.3080E+00
    -10.506 -0.5621E-03  0.3079E+00
    -10.395 -0.1419E-02  0.3078E+00
    -10.284  0.1369E-02  0.3079E+00
    -10.173  0.1530E-01  0.3096E+00
    -10.062  0.3675E-01  0.3137E+00
     -9.950  0.4663E-01  0.3189E+00
     -9.839  0.3386E-01  0.3227E+00
     -9.728  0.1043E-01  0.3238E+00
     -9.617 -0.5358E-02  0.3232E+00
     -9.505  0.8146E-02  0.3241E+00
     -9.394  0.7367E-01  0.3323E+00
     -9.283  0.1426E+00  0.3482E+00
     -9.172  0.1314E+00  0.3628E+00
     -9.061  0.6770E-01  0.3703E+00
     -8.949  0.1904E-01  0.3724E+00
     -8.838 -0.4219E-03  0.3724E+00
     -8.727 -0.2570E-02  0.3721E+00
     -8.616 -0.8459E-03  0.3720E+00
     -8.505 -0.1198E-03  0.3720E+00
     -8.393 -0.8390E-05  0.3720E+00
     -8.282 -0.3027E-06  0.3720E+00
     -8.171 -0.5729E-08  0.3720E+00
     -8.060 -0.5738E-10  0.3720E+00
     -7.949 -0.3057E-12  0.3720E+00
     -7.837 -0.8706E-15  0.3720E+00
     -7.726  0.0000E+00  0.3720E+00
     -7.615  0.0000E+00  0.3720E+00
     -7.504  0.0000E+00  0.3720E+00
     -7.393  0.0000E+00  0.3720E+00
     -7.281  0.0000E+00  0.3720E+00
     -7.170  0.0000E+00  0.3720E+00
     -7.059  0.0000E+00  0.3720E+00
     -6.948  0.0000E+00  0.3720E+00
     -6.837  0.0000E+00  0.3720E+00
     -6.725  0.0000E+00  0.3720E+00
     -6.614  0.0000E+00  0.3720E+00
     -6.503  0.0000E+00  0.3720E+00
     -6.392  0.0000E+00  0.3720E+00
     -6.281  0.0000E+00  0.3720E+00
     -6.169  0.0000E+00  0.3720E+00
     -6.058  0.0000E+00  0.3720E+00
     -5.947  0.0000E+00  0.3720E+00
     -5.836  0.0000E+00  0.3720E+00
     -5.725  0.0000E+00  0.3720E+00
     -5.613  0.0000E+00  0.3720E+00
     -5.502  0.0000E+00  0.3720E+00
     -5.391  0.0000E+00  0.3720E+00
     -5.280  0.0000E+00  0.3720E+00
     -5.169  0.0000E+00  0.3720E+00
     -5.057  0.0000E+00  0.3720E+00
     -4.946 -0.7372E-31  0.3720E+00
     -4.835 -0.5262E-27  0.3720E+00
     -4.724 -0.2013E-23  0.3720E+00
     -4.612 -0.4126E-20  0.3720E+00
     -4.501 -0.4524E-17  0.3720E+00
     -4.390 -0.2564E-14  0.3720E+00
     -4.279 -0.7946E-12  0.3720E+00
     -4.168 -0.1305E-09  0.3720E+00
     -4.056 -0.1129E-07  0.3720E+00
     -3.945 -0.5091E-06  0.3720E+00
     -3.834 -0.1177E-04  0.3720E+00
     -3.723 -0.1347E-03  0.3720E+00
     -3.612 -0.6986E-03  0.3719E+00
     -3.500 -0.1071E-02  0.3718E+00
     -3.389  0.3276E-02  0.3722E+00
     -3.278  0.1660E-01  0.3740E+00
     -3.167  0.3525E-01  0.3779E+00
     -3.056  0.4642E-01  0.3831E+00
     -2.944  0.3494E-01  0.3870E+00
     -2.833  0.1165E-01  0.3883E+00
     -2.722 -0.4915E-03  0.3882E+00
     -2.611 -0.1419E-02  0.3880E+00
     -2.500 -0.3772E-03  0.3880E+00
     -2.388 -0.4339E-04  0.3880E+00
     -2.277 -0.2471E-05  0.3880E+00
     -2.166 -0.1445E-06  0.3880E+00
     -2.055 -0.2392E-05  0.3880E+00
     -1.944 -0.4014E-04  0.3880E+00
     -1.832 -0.3252E-03  0.3880E+00
     -1.721 -0.1106E-02  0.3878E+00
     -1.610 -0.4213E-03  0.3878E+00
     -1.499  0.6811E-02  0.3885E+00
     -1.388  0.2433E-01  0.3913E+00
     -1.276  0.5398E-01  0.3973E+00
     -1.165  0.8101E-01  0.4063E+00
     -1.054  0.8180E-01  0.4154E+00
     -0.943  0.5592E-01  0.4216E+00
     -0.832  0.2595E-01  0.4245E+00
     -0.720  0.2592E-01  0.4273E+00
     -0.609  0.4017E-01  0.4318E+00
     -0.498  0.2826E-01  0.4350E+00
     -0.387  0.6221E-02  0.4356E+00
     -0.276  0.1620E-01  0.4375E+00
     -0.164  0.6140E-01  0.4443E+00
     -0.053  0.1044E+00  0.4559E+00
      0.058  0.1241E+00  0.4697E+00
      0.169  0.1193E+00  0.4830E+00
      0.281  0.1057E+00  0.4947E+00
      0.392  0.1110E+00  0.5071E+00
      0.503  0.1134E+00  0.5197E+00
      0.614  0.8652E-01  0.5293E+00
      0.725  0.6401E-01  0.5364E+00
      0.837  0.7659E-01  0.5449E+00
      0.948  0.8912E-01  0.5548E+00
      1.059  0.6111E-01  0.5616E+00
      1.170  0.2191E-01  0.5641E+00
      1.281  0.2341E-02  0.5643E+00
      1.393 -0.1778E-02  0.5641E+00
      1.504 -0.9237E-03  0.5640E+00
      1.615 -0.1802E-03  0.5640E+00
      1.726 -0.1665E-04  0.5640E+00
      1.837 -0.7722E-06  0.5640E+00
      1.949 -0.1843E-07  0.5640E+00
      2.060 -0.2297E-09  0.5640E+00
      2.171 -0.2018E-10  0.5640E+00
      2.282 -0.2082E-08  0.5640E+00
      2.393 -0.1214E-06  0.5640E+00
      2.505 -0.3645E-05  0.5640E+00
      2.616 -0.5450E-04  0.5640E+00
      2.727 -0.3727E-03  0.5640E+00
      2.838 -0.8076E-03  0.5639E+00
      2.949  0.2041E-02  0.5641E+00
      3.061  0.1125E-01  0.5653E+00
      3.172  0.1607E-01  0.5671E+00
      3.283  0.8340E-02  0.5681E+00
      3.394  0.5560E-03  0.5681E+00
      3.505 -0.7818E-03  0.5680E+00
      3.617 -0.2922E-03  0.5680E+00
      3.728 -0.4899E-03  0.5679E+00
      3.839 -0.1550E-02  0.5678E+00
      3.950  0.4417E-03  0.5678E+00
      4.061  0.1495E-01  0.5695E+00
      4.173  0.3607E-01  0.5735E+00
      4.284  0.3835E-01  0.5778E+00
      4.395  0.1952E-01  0.5799E+00
      4.506  0.2909E-02  0.5803E+00
      4.617 -0.1441E-02  0.5801E+00
      4.729 -0.6956E-03  0.5800E+00
      4.840 -0.1193E-03  0.5800E+00
      4.951 -0.6617E-04  0.5800E+00
      5.062 -0.4463E-03  0.5799E+00
      5.174 -0.1454E-02  0.5798E+00
      5.285  0.1375E-03  0.5798E+00
      5.396  0.1308E-01  0.5813E+00
      5.507  0.3514E-01  0.5852E+00
      5.618  0.4408E-01  0.5901E+00
      5.730  0.3649E-01  0.5941E+00
      5.841  0.3886E-01  0.5984E+00
      5.952  0.5531E-01  0.6046E+00
      6.063  0.6141E-01  0.6114E+00
      6.174  0.4744E-01  0.6167E+00
      6.286  0.2380E-01  0.6193E+00
      6.397  0.6188E-02  0.6200E+00
      6.508  0.1067E-01  0.6212E+00
      6.619  0.3062E-01  0.6246E+00
      6.730  0.4220E-01  0.6293E+00
      6.842  0.4383E-01  0.6342E+00
      6.953  0.4301E-01  0.6390E+00
      7.064  0.4330E-01  0.6438E+00
      7.175  0.4982E-01  0.6493E+00
      7.286  0.5602E-01  0.6556E+00
      7.398  0.5851E-01  0.6621E+00
      7.509  0.5420E-01  0.6681E+00
      7.620  0.3206E-01  0.6717E+00
      7.731  0.6707E-02  0.6724E+00
      7.842 -0.2102E-02  0.6722E+00
      7.954 -0.1261E-02  0.6720E+00
      8.065 -0.2244E-03  0.6720E+00
      8.176 -0.1824E-04  0.6720E+00
      8.287 -0.7402E-06  0.6720E+00
      8.398 -0.1550E-07  0.6720E+00
      8.510 -0.1702E-09  0.6720E+00
      8.621 -0.9884E-12  0.6720E+00
      8.732 -0.3067E-14  0.6720E+00
      8.843  0.0000E+00  0.6720E+00
      8.954  0.0000E+00  0.6720E+00
      9.066  0.0000E+00  0.6720E+00
      9.177  0.0000E+00  0.6720E+00
      9.288  0.0000E+00  0.6720E+00
      9.399  0.0000E+00  0.6720E+00
      9.510  0.0000E+00  0.6720E+00
