 vasp.6.3.2 27Jun22 (build Jun 14 2024 17:29:11) complex                         
 POSCAR found type information on POSCAR NaInS 
 08/POSCAR found :  3 types and      39 ions
 -----------------------------------------------------------------------------
|                                                                             |
|           W    W    AA    RRRRR   N    N  II  N    N   GGGG   !!!           |
|           W    W   A  A   R    R  NN   N  II  NN   N  G    G  !!!           |
|           W    W  A    A  R    R  N N  N  II  N N  N  G       !!!           |
|           W WW W  AAAAAA  RRRRR   N  N N  II  N  N N  G  GGG   !            |
|           WW  WW  A    A  R   R   N   NN  II  N   NN  G    G                |
|           W    W  A    A  R    R  N    N  II  N    N   GGGG   !!!           |
|                                                                             |
|     The value NPAR = 9 specified in the INCAR file was overwritten,         |
|     because it was not compatible with the 3 processes available:           |
|     NPAR = 3                                                                |
|     was used instead, please check that this makes sense for your           |
|     machine.                                                                |
|                                                                             |
 -----------------------------------------------------------------------------

 LDA part: xc-table for Pade appr. of Perdew
 POSCAR found type information on POSCAR NaInS 
 00/POSCAR found :  3 types and      39 ions
 POSCAR found type information on POSCAR NaInS 
 10/POSCAR found :  3 types and      39 ions
 POSCAR, INCAR and KPOINTS ok, starting setup
 FFT: planning ... GRIDC
 FFT: planning ... GRID_SOFT
 FFT: planning ... GRID
 WAVECAR not read
 entering main loop
       N       E                     dE             d eps       ncg     rms          rms(c)
DAV:   1     0.287959744338E+04    0.28796E+04   -0.11459E+05   345   0.151E+03
DAV:   2     0.329235879281E+03   -0.25504E+04   -0.24638E+04   345   0.436E+02
DAV:   3    -0.109365872113E+03   -0.43860E+03   -0.43018E+03   387   0.194E+02
DAV:   4    -0.146859381407E+03   -0.37494E+02   -0.37120E+02   402   0.511E+01
DAV:   5    -0.148497064465E+03   -0.16377E+01   -0.16353E+01   483   0.114E+01    0.201E+01
RMM:   6    -0.139623899565E+03    0.88732E+01   -0.17418E+01   381   0.723E+00    0.123E+01
RMM:   7    -0.139472123615E+03    0.15178E+00   -0.14639E+01   405   0.519E+00    0.730E+00
RMM:   8    -0.139566797751E+03   -0.94674E-01   -0.12299E+00   395   0.306E+00    0.329E+00
RMM:   9    -0.139471887802E+03    0.94910E-01   -0.78639E-01   406   0.180E+00    0.210E+00
RMM:  10    -0.139354968215E+03    0.11692E+00   -0.15942E-01   426   0.114E+00    0.143E+00
RMM:  11    -0.139325820293E+03    0.29148E-01   -0.69952E-02   473   0.514E-01    0.115E+00
RMM:  12    -0.139325555895E+03    0.26440E-03   -0.11342E-02   518   0.244E-01    0.116E+00
RMM:  13    -0.139325220135E+03    0.33576E-03   -0.21010E-03   477   0.878E-02    0.128E+00
RMM:  14    -0.139333803123E+03   -0.85830E-02   -0.17469E-02   436   0.199E-01    0.542E-01
RMM:  15    -0.139331375198E+03    0.24279E-02   -0.36981E-03   426   0.116E-01    0.297E-01
RMM:  16    -0.139333081657E+03   -0.17065E-02   -0.16236E-03   381   0.831E-02    0.296E-01
RMM:  17    -0.139332216849E+03    0.86481E-03   -0.39338E-04   374   0.500E-02    0.200E-01
RMM:  18    -0.139331782993E+03    0.43386E-03   -0.47409E-04   345   0.365E-02    0.769E-02
RMM:  19    -0.139331746130E+03    0.36863E-04   -0.62894E-05   335   0.198E-02    0.497E-02
RMM:  20    -0.139331755323E+03   -0.91929E-05   -0.26631E-05   239   0.133E-02
   1 F= -.13933176E+03 E0= -.13934403E+03  d E =-.139332E+03
quench:  g(F)=  0.000E+00 g(S)=  0.000E+00 dE (1.order)= 0.000E+00
 bond charge predicted
       N       E                     dE             d eps       ncg     rms          rms(c)
DAV:   1    -0.139331740340E+03    0.57899E-05   -0.12112E-04   216   0.204E-02    0.187E-02
RMM:   2    -0.139331742497E+03   -0.21567E-05   -0.17823E-05   221   0.979E-03
   2 F= -.13933174E+03 E0= -.13934401E+03  d E =0.128261E-04
quench:  g(F)=  0.000E+00 g(S)=  0.000E+00 dE (1.order)= 0.000E+00
 bond charge predicted
       N       E                     dE             d eps       ncg     rms          rms(c)
DAV:   1    -0.139331744022E+03   -0.36821E-05   -0.37317E-05   249   0.106E-02    0.915E-03
RMM:   2    -0.139331751787E+03   -0.77648E-05   -0.55666E-06   192   0.500E-03
   3 F= -.13933175E+03 E0= -.13934402E+03  d E =-.929016E-05
quench:  g(F)=  0.000E+00 g(S)=  0.000E+00 dE (1.order)= 0.000E+00
 bond charge predicted
       N       E                     dE             d eps       ncg     rms          rms(c)
DAV:   1    -0.139331741509E+03    0.25132E-05   -0.79052E-05   231   0.130E-02    0.223E-03
RMM:   2    -0.139331741831E+03   -0.32192E-06   -0.37562E-06   170   0.413E-03
   4 F= -.13933174E+03 E0= -.13934401E+03  d E =0.995603E-05
quench:  g(F)=  0.000E+00 g(S)=  0.000E+00 dE (1.order)= 0.000E+00
 bond charge predicted
       N       E                     dE             d eps       ncg     rms          rms(c)
DAV:   1    -0.139331741833E+03   -0.32441E-06   -0.10560E-06   213   0.401E-03    0.201E-03
RMM:   2    -0.139331741849E+03   -0.15800E-07   -0.57429E-08    58   0.171E-03
   5 F= -.13933174E+03 E0= -.13934401E+03  d E =-.182845E-07
quench:  g(F)=  0.000E+00 g(S)=  0.000E+00 dE (1.order)= 0.000E+00
 bond charge predicted
       N       E                     dE             d eps       ncg     rms          rms(c)
DAV:   1    -0.139331741832E+03    0.14115E-08   -0.69058E-07   213   0.196E-03    0.169E-03
RMM:   2    -0.139331741847E+03   -0.15425E-07    0.22755-226    29   0.107E-03
   6 F= -.13933174E+03 E0= -.13934401E+03  d E =0.178625E-08
quench:  g(F)=  0.000E+00 g(S)=  0.000E+00 dE (1.order)= 0.000E+00
 bond charge predicted
       N       E                     dE             d eps       ncg     rms          rms(c)
DAV:   1    -0.139331741831E+03    0.91677E-09   -0.56035E-07   213   0.140E-03    0.114E-03
RMM:   2    -0.139331741853E+03   -0.21882E-07    0.43098-120    25   0.911E-04
   7 F= -.13933174E+03 E0= -.13934401E+03  d E =-.554064E-08
quench:  g(F)=  0.000E+00 g(S)=  0.000E+00 dE (1.order)= 0.000E+00
 bond charge predicted
       N       E                     dE             d eps       ncg     rms          rms(c)
DAV:   1    -0.139331741826E+03    0.48094E-08   -0.39656E-07   213   0.120E-03    0.768E-04
RMM:   2    -0.139331741827E+03   -0.55297E-09    0.11846-256    21   0.770E-04
   8 F= -.13933174E+03 E0= -.13934401E+03  d E =0.261389E-07
quench:  g(F)=  0.000E+00 g(S)=  0.000E+00 dE (1.order)= 0.000E+00
 bond charge predicted
       N       E                     dE             d eps       ncg     rms          rms(c)
DAV:   1    -0.139331741828E+03   -0.17062E-08   -0.15464E-07   213   0.843E-04    0.566E-04
RMM:   2    -0.139331741833E+03   -0.52714E-08    0.90372-257    19   0.672E-04
   9 F= -.13933174E+03 E0= -.13934401E+03  d E =-.642467E-08
quench:  g(F)=  0.000E+00 g(S)=  0.000E+00 dE (1.order)= 0.000E+00
 bond charge predicted
       N       E                     dE             d eps       ncg     rms          rms(c)
DAV:   1    -0.139331741825E+03    0.23574E-08   -0.98058E-08   186   0.766E-04    0.358E-04
RMM:   2    -0.139331741824E+03    0.14406E-08    0.00000E+00    14   0.413E-04
  10 F= -.13933174E+03 E0= -.13934401E+03  d E =0.906948E-08
quench:  g(F)=  0.000E+00 g(S)=  0.000E+00 dE (1.order)= 0.000E+00
 bond charge predicted
       N       E                     dE             d eps       ncg     rms          rms(c)
DAV:   1    -0.139331741823E+03    0.22919E-08   -0.31525E-08   186   0.430E-04    0.431E-04
RMM:   2    -0.139331741825E+03   -0.17499E-08    0.00000E+00    14   0.343E-04
  11 F= -.13933174E+03 E0= -.13934401E+03  d E =-.898581E-09
quench:  g(F)=  0.000E+00 g(S)=  0.000E+00 dE (1.order)= 0.000E+00
 bond charge predicted
       N       E                     dE             d eps       ncg     rms          rms(c)
DAV:   1    -0.139331741823E+03    0.31287E-09   -0.35564E-08   186   0.432E-04    0.237E-04
RMM:   2    -0.139331741822E+03    0.66939E-09    0.00000E+00    14   0.226E-04
  12 F= -.13933174E+03 E0= -.13934401E+03  d E =0.273212E-08
quench:  g(F)=  0.000E+00 g(S)=  0.000E+00 dE (1.order)= 0.000E+00
 bond charge predicted
       N       E                     dE             d eps       ncg     rms          rms(c)
DAV:   1    -0.139331741821E+03    0.13315E-08   -0.15050E-08   180   0.266E-04    0.180E-04
RMM:   2    -0.139331741820E+03    0.15934E-08    0.00000E+00    13   0.193E-04
  13 F= -.13933174E+03 E0= -.13934401E+03  d E =0.225555E-08
quench:  g(F)=  0.000E+00 g(S)=  0.000E+00 dE (1.order)= 0.000E+00
 bond charge predicted
       N       E                     dE             d eps       ncg     rms          rms(c)
DAV:   1    -0.139331741820E+03    0.19572E-08   -0.61932E-09   186   0.208E-04    0.152E-04
RMM:   2    -0.139331741819E+03    0.85493E-09    0.00000E+00    13   0.143E-04
  14 F= -.13933174E+03 E0= -.13934401E+03  d E =0.121872E-08
quench:  g(F)=  0.000E+00 g(S)=  0.000E+00 dE (1.order)= 0.000E+00
 bond charge predicted
       N       E                     dE             d eps       ncg     rms          rms(c)
DAV:   1    -0.139331741817E+03    0.23283E-08   -0.63955E-09   180   0.174E-04    0.943E-05
RMM:   2    -0.139331741817E+03   -0.23647E-09    0.00000E+00    10   0.115E-04
  15 F= -.13933174E+03 E0= -.13934401E+03  d E =0.123691E-08
quench:  g(F)=  0.000E+00 g(S)=  0.000E+00 dE (1.order)= 0.000E+00
 bond charge predicted
       N       E                     dE             d eps       ncg     rms          rms(c)
DAV:   1    -0.139331741817E+03   -0.17462E-09   -0.21979E-09   186   0.122E-04    0.103E-04
RMM:   2    -0.139331741817E+03    0.37107E-09    0.00000E+00    10   0.907E-05
  16 F= -.13933174E+03 E0= -.13934401E+03  d E =0.432919E-09
quench:  g(F)=  0.000E+00 g(S)=  0.000E+00 dE (1.order)= 0.000E+00
 bond charge predicted
       N       E                     dE             d eps       ncg     rms          rms(c)
DAV:   1    -0.139331741815E+03    0.18736E-08   -0.19752E-09   186   0.105E-04    0.620E-05
RMM:   2    -0.139331741817E+03   -0.10659E-08    0.00000E+00     8   0.686E-05
  17 F= -.13933174E+03 E0= -.13934401E+03  d E =0.436557E-09
quench:  g(F)=  0.000E+00 g(S)=  0.000E+00 dE (1.order)= 0.000E+00
 bond charge predicted
       N       E                     dE             d eps       ncg     rms          rms(c)
DAV:   1    -0.139331741816E+03   -0.90949E-09   -0.10256E-09   186   0.794E-05    0.452E-05
RMM:   2    -0.139331741816E+03    0.48385E-09    0.00000E+00     8   0.559E-05
  18 F= -.13933174E+03 E0= -.13934401E+03  d E =0.640284E-09
quench:  g(F)=  0.000E+00 g(S)=  0.000E+00 dE (1.order)= 0.000E+00
 bond charge predicted
       N       E                     dE             d eps       ncg     rms          rms(c)
DAV:   1    -0.139331741817E+03   -0.28740E-09   -0.52700E-10   186   0.583E-05    0.438E-05
RMM:   2    -0.139331741816E+03    0.50204E-09    0.00000E+00     7   0.480E-05
  19 F= -.13933174E+03 E0= -.13934401E+03  d E =-.269210E-09
quench:  g(F)=  0.000E+00 g(S)=  0.000E+00 dE (1.order)= 0.000E+00
 bond charge predicted
       N       E                     dE             d eps       ncg     rms          rms(c)
DAV:   1    -0.139331741816E+03    0.48749E-09   -0.46272E-10   186   0.575E-05    0.244E-05
RMM:   2    -0.139331741816E+03    0.28740E-09    0.00000E+00     6   0.313E-05
  20 F= -.13933174E+03 E0= -.13934401E+03  d E =0.272848E-09
quench:  g(F)=  0.000E+00 g(S)=  0.000E+00 dE (1.order)= 0.000E+00
 bond charge predicted
       N       E                     dE             d eps       ncg     rms          rms(c)
DAV:   1    -0.139331741815E+03    0.93860E-09   -0.18701E-10   186   0.332E-05    0.269E-05
RMM:   2    -0.139331741816E+03   -0.44747E-09    0.00000E+00     7   0.272E-05
  21 F= -.13933174E+03 E0= -.13934401E+03  d E =0.203727E-09
quench:  g(F)=  0.000E+00 g(S)=  0.000E+00 dE (1.order)= 0.000E+00
 bond charge predicted
       N       E                     dE             d eps       ncg     rms          rms(c)
DAV:   1    -0.139331741816E+03   -0.52023E-09   -0.13418E-10   186   0.314E-05    0.162E-05
RMM:   2    -0.139331741816E+03    0.14188E-09    0.00000E+00     4   0.189E-05
  22 F= -.13933174E+03 E0= -.13934401E+03  d E =0.691216E-10
quench:  g(F)=  0.000E+00 g(S)=  0.000E+00 dE (1.order)= 0.000E+00
 bond charge predicted
       N       E                     dE             d eps       ncg     rms          rms(c)
DAV:   1    -0.139331741815E+03    0.12151E-08   -0.11592E-10   186   0.222E-05    0.125E-05
RMM:   2    -0.139331741815E+03   -0.83674E-09    0.00000E+00     5   0.168E-05
  23 F= -.13933174E+03 E0= -.13934401E+03  d E =0.236469E-09
quench:  g(F)=  0.000E+00 g(S)=  0.000E+00 dE (1.order)= 0.000E+00
 bond charge predicted
       N       E                     dE             d eps       ncg     rms          rms(c)
DAV:   1    -0.139331741815E+03   -0.29831E-09   -0.17445E-10   186   0.177E-05    0.124E-05
RMM:   2    -0.139331741816E+03   -0.69849E-09    0.00000E+00     6   0.131E-05
  24 F= -.13933174E+03 E0= -.13934401E+03  d E =-.160071E-09
quench:  g(F)=  0.000E+00 g(S)=  0.000E+00 dE (1.order)= 0.000E+00
 bond charge predicted
       N       E                     dE             d eps       ncg     rms          rms(c)
DAV:   1    -0.139331741815E+03   -0.42564E-09   -0.83503E-12   186   0.164E-05    0.659E-06
RMM:   2    -0.139331741815E+03   -0.58208E-10    0.00000E+00     4   0.100E-05
  25 F= -.13933174E+03 E0= -.13934401E+03  d E =0.214641E-09
quench:  g(F)=  0.000E+00 g(S)=  0.000E+00 dE (1.order)= 0.000E+00
 bond charge predicted
       N       E                     dE             d eps       ncg     rms          rms(c)
DAV:   1    -0.139331741815E+03    0.54570E-09   -0.73320E-11   186   0.105E-05    0.607E-06
RMM:   2    -0.139331741815E+03   -0.72760E-09    0.00000E+00     4   0.765E-06
  26 F= -.13933174E+03 E0= -.13934401E+03  d E =-.123691E-09
quench:  g(F)=  0.000E+00 g(S)=  0.000E+00 dE (1.order)= 0.000E+00
 bond charge predicted
       N       E                     dE             d eps       ncg     rms          rms(c)
DAV:   1    -0.139331741815E+03   -0.32742E-10   -0.81485E-11   186   0.856E-06    0.456E-06
RMM:   2    -0.139331741815E+03   -0.69485E-09    0.00000E+00     4   0.611E-06
  27 F= -.13933174E+03 E0= -.13934401E+03  d E =0.000000E+00
quench:  g(F)=  0.000E+00 g(S)=  0.000E+00 dE (1.order)= 0.000E+00
 bond charge predicted
       N       E                     dE             d eps       ncg     rms          rms(c)
DAV:   1    -0.139331741816E+03   -0.82582E-09    0.36530E-11   186   0.673E-06    0.403E-06
RMM:   2    -0.139331741815E+03    0.26193E-09    0.00000E+00     4   0.491E-06
  28 F= -.13933174E+03 E0= -.13934401E+03  d E =0.130967E-09
quench:  g(F)=  0.000E+00 g(S)=  0.000E+00 dE (1.order)= 0.000E+00
 bond charge predicted
       N       E                     dE             d eps       ncg     rms          rms(c)
DAV:   1    -0.139331741816E+03   -0.45475E-09   -0.20867E-11   186   0.541E-06    0.284E-06
RMM:   2    -0.139331741815E+03    0.81855E-09    0.00000E+00     4   0.401E-06
  29 F= -.13933174E+03 E0= -.13934401E+03  d E =0.101863E-09
quench:  g(F)=  0.000E+00 g(S)=  0.000E+00 dE (1.order)= 0.000E+00
 bond charge predicted
       N       E                     dE             d eps       ncg     rms          rms(c)
DAV:   1    -0.139331741815E+03    0.73851E-09    0.37613E-12   186   0.448E-06    0.190E-06
RMM:   2    -0.139331741815E+03    0.18190E-10    0.00000E+00     4   0.302E-06
  30 F= -.13933174E+03 E0= -.13934401E+03  d E =-.618456E-10
quench:  g(F)=  0.000E+00 g(S)=  0.000E+00 dE (1.order)= 0.000E+00
 bond charge predicted
       N       E                     dE             d eps       ncg     rms          rms(c)
DAV:   1    -0.139331741816E+03   -0.20736E-09   -0.26154E-11   186   0.317E-06    0.203E-06
RMM:   2    -0.139331741815E+03    0.24011E-09    0.00000E+00     3   0.265E-06
  31 F= -.13933174E+03 E0= -.13934401E+03  d E =0.145519E-10
quench:  g(F)=  0.000E+00 g(S)=  0.000E+00 dE (1.order)= 0.000E+00
 bond charge predicted
       N       E                     dE             d eps       ncg     rms          rms(c)
DAV:   1    -0.139331741815E+03    0.69485E-09    0.31294E-11   186   0.298E-06    0.111E-06
RMM:   2    -0.139331741815E+03   -0.41837E-09    0.00000E+00     4   0.176E-06
  32 F= -.13933174E+03 E0= -.13934401E+03  d E =0.363798E-10
quench:  g(F)=  0.000E+00 g(S)=  0.000E+00 dE (1.order)= 0.000E+00
 bond charge predicted
       N       E                     dE             d eps       ncg     rms          rms(c)
DAV:   1    -0.139331741816E+03   -0.11059E-08    0.12805E-10   186   0.191E-06    0.114E-06
RMM:   2    -0.139331741815E+03    0.57480E-09    0.00000E+00     3   0.153E-06
  33 F= -.13933174E+03 E0= -.13934401E+03  d E =-.112777E-09
quench:  g(F)=  0.000E+00 g(S)=  0.000E+00 dE (1.order)= 0.000E+00
 bond charge predicted
       N       E                     dE             d eps       ncg     rms          rms(c)
DAV:   1    -0.139331741815E+03    0.95315E-09   -0.15612E-10   186   0.169E-06    0.725E-07
RMM:   2    -0.139331741815E+03   -0.42564E-09    0.00000E+00     3   0.112E-06
  34 F= -.13933174E+03 E0= -.13934401E+03  d E =-.472937E-10
quench:  g(F)=  0.000E+00 g(S)=  0.000E+00 dE (1.order)= 0.000E+00
 bond charge predicted
       N       E                     dE             d eps       ncg     rms          rms(c)
DAV:   1    -0.139331741815E+03    0.18190E-10    0.56578E-11   186   0.134E-06    0.399E-07
RMM:   2    -0.139331741815E+03   -0.28376E-09    0.00000E+00     3   0.967E-07
  35 F= -.13933174E+03 E0= -.13934401E+03  d E =0.160071E-09
quench:  g(F)=  0.000E+00 g(S)=  0.000E+00 dE (1.order)= 0.000E+00
 bond charge predicted
       N       E                     dE             d eps       ncg     rms          rms(c)
DAV:   1    -0.139331741815E+03    0.19281E-09   -0.57510E-11   186   0.986E-07    0.517E-07
RMM:   2    -0.139331741815E+03   -0.66939E-09    0.00000E+00     3   0.729E-07
  36 F= -.13933174E+03 E0= -.13934401E+03  d E =-.192813E-09
quench:  g(F)=  0.000E+00 g(S)=  0.000E+00 dE (1.order)= 0.000E+00
 bond charge predicted
       N       E                     dE             d eps       ncg     rms          rms(c)
DAV:   1    -0.139331741815E+03   -0.47658E-09    0.13929E-11   186   0.843E-07    0.290E-07
RMM:   2    -0.139331741815E+03    0.00000E+00    0.00000E+00     3   0.574E-07
  37 F= -.13933174E+03 E0= -.13934401E+03  d E =0.192813E-09
quench:  g(F)=  0.000E+00 g(S)=  0.000E+00 dE (1.order)= 0.000E+00
 bond charge predicted
       N       E                     dE             d eps       ncg     rms          rms(c)
DAV:   1    -0.139331741815E+03   -0.10914E-10    0.11515E-10   186   0.621E-07    0.208E-07
RMM:   2    -0.139331741815E+03   -0.12733E-09    0.00000E+00     3   0.455E-07
  38 F= -.13933174E+03 E0= -.13934401E+03  d E =-.138243E-09
quench:  g(F)=  0.000E+00 g(S)=  0.000E+00 dE (1.order)= 0.000E+00
 bond charge predicted
       N       E                     dE             d eps       ncg     rms          rms(c)
DAV:   1    -0.139331741815E+03    0.62937E-09    0.11403E-11   174   0.475E-07    0.254E-07
RMM:   2    -0.139331741815E+03   -0.68030E-09    0.00000E+00     2   0.387E-07
  39 F= -.13933174E+03 E0= -.13934401E+03  d E =0.763976E-10
quench:  g(F)=  0.000E+00 g(S)=  0.000E+00 dE (1.order)= 0.000E+00
 bond charge predicted
       N       E                     dE             d eps       ncg     rms          rms(c)
DAV:   1    -0.139331741816E+03   -0.14406E-08   -0.38352E-11   168   0.434E-07    0.144E-07
RMM:   2    -0.139331741815E+03    0.96770E-09    0.00000E+00     2   0.280E-07
  40 F= -.13933174E+03 E0= -.13934401E+03  d E =0.207365E-09
quench:  g(F)=  0.000E+00 g(S)=  0.000E+00 dE (1.order)= 0.000E+00
 bond charge predicted
       N       E                     dE             d eps       ncg     rms          rms(c)
DAV:   1    -0.139331741814E+03    0.16917E-08    0.33992E-11   168   0.314E-07    0.113E-07
RMM:   2    -0.139331741815E+03   -0.89494E-09    0.00000E+00     2   0.249E-07
  41 F= -.13933174E+03 E0= -.13934401E+03  d E =-.170985E-09
quench:  g(F)=  0.000E+00 g(S)=  0.000E+00 dE (1.order)= 0.000E+00
 bond charge predicted
       N       E                     dE             d eps       ncg     rms          rms(c)
DAV:   1    -0.139331741815E+03   -0.30195E-09   -0.58274E-11   168   0.260E-07    0.964E-08
RMM:   2    -0.139331741815E+03   -0.48749E-09    0.00000E+00     2   0.199E-07
  42 F= -.13933174E+03 E0= -.13934401E+03  d E =0.105501E-09
quench:  g(F)=  0.000E+00 g(S)=  0.000E+00 dE (1.order)= 0.000E+00
 bond charge predicted
       N       E                     dE             d eps       ncg     rms          rms(c)
DAV:   1    -0.139331741815E+03   -0.70941E-09    0.47975E-11   168   0.229E-07    0.536E-08
RMM:   2    -0.139331741815E+03    0.13097E-09    0.00000E+00     2   0.151E-07
  43 F= -.13933174E+03 E0= -.13934401E+03  d E =-.909495E-10
quench:  g(F)=  0.000E+00 g(S)=  0.000E+00 dE (1.order)= 0.000E+00
 bond charge predicted
       N       E                     dE             d eps       ncg     rms          rms(c)
DAV:   1    -0.139331741816E+03   -0.47658E-09    0.10067E-12   168   0.156E-07    0.708E-08
RMM:   2    -0.139331741815E+03    0.68394E-09    0.00000E+00     1   0.121E-07
  44 F= -.13933174E+03 E0= -.13934401E+03  d E =0.763976E-10
quench:  g(F)=  0.000E+00 g(S)=  0.000E+00 dE (1.order)= 0.000E+00
 bond charge predicted
       N       E                     dE             d eps       ncg     rms          rms(c)
DAV:   1    -0.139331741815E+03    0.48021E-09    0.29246E-11   168   0.134E-07    0.389E-08
RMM:   2    -0.139331741815E+03    0.16735E-09    0.00000E+00     2   0.958E-08
  45 F= -.13933174E+03 E0= -.13934401E+03  d E =-.363798E-10
quench:  g(F)=  0.000E+00 g(S)=  0.000E+00 dE (1.order)= 0.000E+00
 bond charge predicted
       N       E                     dE             d eps       ncg     rms          rms(c)
DAV:   1    -0.139331741815E+03    0.64756E-09   -0.76435E-11   168   0.103E-07    0.250E-08
RMM:   2    -0.139331741815E+03   -0.45839E-09    0.00000E+00     2   0.748E-08
  46 F= -.13933174E+03 E0= -.13934401E+03  d E =0.218279E-10
quench:  g(F)=  0.000E+00 g(S)=  0.000E+00 dE (1.order)= 0.000E+00
 bond charge predicted
       N       E                     dE             d eps       ncg     rms          rms(c)
DAV:   1    -0.139331741814E+03    0.78580E-09    0.22614E-11   168   0.776E-08    0.288E-08
RMM:   2    -0.139331741815E+03   -0.12878E-08    0.00000E+00     2   0.634E-08
  47 F= -.13933174E+03 E0= -.13934401E+03  d E =-.436557E-10
quench:  g(F)=  0.000E+00 g(S)=  0.000E+00 dE (1.order)= 0.000E+00
 bond charge predicted
       N       E                     dE             d eps       ncg     rms          rms(c)
DAV:   1    -0.139331741816E+03   -0.23283E-08    0.97650E-11   168   0.691E-08    0.171E-08
RMM:   2    -0.139331741815E+03    0.10150E-08    0.00000E+00     1   0.464E-08
  48 F= -.13933174E+03 E0= -.13934401E+03  d E =-.254659E-10
quench:  g(F)=  0.000E+00 g(S)=  0.000E+00 dE (1.order)= 0.000E+00
 bond charge predicted
       N       E                     dE             d eps       ncg     rms          rms(c)
DAV:   1    -0.139331741815E+03    0.15825E-08    0.84254E-11   168   0.503E-08    0.143E-08
RMM:   2    -0.139331741815E+03   -0.42928E-09    0.00000E+00     1   0.401E-08
  49 F= -.13933174E+03 E0= -.13934401E+03  d E =0.138243E-09
quench:  g(F)=  0.000E+00 g(S)=  0.000E+00 dE (1.order)= 0.000E+00
 bond charge predicted
       N       E                     dE             d eps       ncg     rms          rms(c)
DAV:   1    -0.139331741815E+03   -0.19645E-09    0.58741E-11   168   0.422E-08    0.121E-08
RMM:   2    -0.139331741815E+03   -0.22192E-09    0.00000E+00     1   0.321E-08
  50 F= -.13933174E+03 E0= -.13934401E+03  d E =0.109139E-10
quench:  g(F)=  0.000E+00 g(S)=  0.000E+00 dE (1.order)= 0.000E+00
 bond charge predicted
       N       E                     dE             d eps       ncg     rms          rms(c)
DAV:   1    -0.139331741815E+03    0.14552E-09    0.14250E-11   168   0.358E-08    0.758E-09
RMM:   2    -0.139331741815E+03   -0.41473E-09    0.00000E+00     1   0.254E-08
  51 F= -.13933174E+03 E0= -.13934401E+03  d E =-.472937E-10
quench:  g(F)=  0.000E+00 g(S)=  0.000E+00 dE (1.order)= 0.000E+00
 bond charge predicted
       N       E                     dE             d eps       ncg     rms          rms(c)
DAV:   1    -0.139331741816E+03   -0.96043E-09    0.63736E-11   168   0.265E-08    0.949E-09
RMM:   2    -0.139331741815E+03    0.41109E-09    0.00000E+00     1   0.206E-08
  52 F= -.13933174E+03 E0= -.13934401E+03  d E =-.134605E-09
quench:  g(F)=  0.000E+00 g(S)=  0.000E+00 dE (1.order)= 0.000E+00
 bond charge predicted
       N       E                     dE             d eps       ncg     rms          rms(c)
DAV:   1    -0.139331741816E+03   -0.72760E-10   -0.18687E-13   168   0.228E-08    0.562E-09
RMM:   2    -0.139331741815E+03    0.51296E-09    0.00000E+00     1   0.163E-08
  53 F= -.13933174E+03 E0= -.13934401E+03  d E =0.291038E-10
quench:  g(F)=  0.000E+00 g(S)=  0.000E+00 dE (1.order)= 0.000E+00
 bond charge predicted
       N       E                     dE             d eps       ncg     rms          rms(c)
DAV:   1    -0.139331741815E+03    0.43292E-09   -0.60015E-12   168   0.176E-08    0.377E-09
RMM:   2    -0.139331741815E+03    0.80036E-10    0.00000E+00     1   0.130E-08
  54 F= -.13933174E+03 E0= -.13934401E+03  d E =0.000000E+00
quench:  g(F)=  0.000E+00 g(S)=  0.000E+00 dE (1.order)= 0.000E+00
 bond charge predicted
       N       E                     dE             d eps       ncg     rms          rms(c)
DAV:   1    -0.139331741815E+03    0.83674E-10    0.19985E-11   168   0.136E-08    0.408E-09
RMM:   2    -0.139331741815E+03    0.50932E-10    0.00000E+00     1   0.110E-08
  55 F= -.13933174E+03 E0= -.13934401E+03  d E =0.545697E-10
quench:  g(F)=  0.000E+00 g(S)=  0.000E+00 dE (1.order)= 0.000E+00
 bond charge predicted
       N       E                     dE             d eps       ncg     rms          rms(c)
DAV:   1    -0.139331741816E+03   -0.58935E-09    0.41471E-11   168   0.119E-08    0.241E-09
RMM:   2    -0.139331741815E+03    0.57844E-09    0.00000E+00     1   0.826E-09
  56 F= -.13933174E+03 E0= -.13934401E+03  d E =-.618456E-10
quench:  g(F)=  0.000E+00 g(S)=  0.000E+00 dE (1.order)= 0.000E+00
 bond charge predicted
       N       E                     dE             d eps       ncg     rms          rms(c)
DAV:   1    -0.139331741815E+03    0.66939E-09    0.23996E-11   168   0.872E-09    0.213E-09
RMM:   2    -0.139331741815E+03   -0.10550E-09    0.00000E+00     1   0.711E-09
  57 F= -.13933174E+03 E0= -.13934401E+03  d E =-.145519E-10
quench:  g(F)=  0.000E+00 g(S)=  0.000E+00 dE (1.order)= 0.000E+00
 bond charge predicted
       N       E                     dE             d eps       ncg     rms          rms(c)
DAV:   1    -0.139331741815E+03   -0.16735E-09    0.10099E-11   168   0.749E-09    0.176E-09
RMM:   2    -0.139331741815E+03    0.36380E-10    0.00000E+00     1   0.561E-09
  58 F= -.13933174E+03 E0= -.13934401E+03  d E =-.254659E-10
quench:  g(F)=  0.000E+00 g(S)=  0.000E+00 dE (1.order)= 0.000E+00
 bond charge predicted
       N       E                     dE             d eps       ncg     rms          rms(c)
DAV:   1    -0.139331741814E+03    0.14297E-08    0.27234E-11   168   0.625E-09    0.117E-09
RMM:   2    -0.139331741815E+03   -0.14552E-08    0.00000E+00     1   0.453E-09
  59 F= -.13933174E+03 E0= -.13934401E+03  d E =-.618456E-10
quench:  g(F)=  0.000E+00 g(S)=  0.000E+00 dE (1.order)= 0.000E+00
 bond charge predicted
       N       E                     dE             d eps       ncg     rms          rms(c)
DAV:   1    -0.139331741815E+03   -0.76761E-09   -0.23951E-11   168   0.474E-09    0.130E-09
RMM:   2    -0.139331741815E+03   -0.56752E-09    0.00000E+00     1   0.371E-09
  60 F= -.13933174E+03 E0= -.13934401E+03  d E =0.120053E-09
quench:  g(F)=  0.000E+00 g(S)=  0.000E+00 dE (1.order)= 0.000E+00
 bond charge predicted
       N       E                     dE             d eps       ncg     rms          rms(c)
DAV:   1    -0.139331741815E+03   -0.38926E-09   -0.44285E-11   168   0.405E-09    0.819E-10
RMM:   2    -0.139331741815E+03   -0.15643E-09    0.00000E+00     1   0.292E-09
  61 F= -.13933174E+03 E0= -.13934401E+03  d E =0.218279E-10
quench:  g(F)=  0.000E+00 g(S)=  0.000E+00 dE (1.order)= 0.000E+00
 bond charge predicted
       N       E                     dE             d eps       ncg     rms          rms(c)
DAV:   1    -0.139331741816E+03   -0.76761E-09   -0.13230E-11   168   0.308E-09    0.733E-10
RMM:   2    -0.139331741815E+03    0.62937E-09    0.00000E+00     1   0.233E-09
  62 F= -.13933174E+03 E0= -.13934401E+03  d E =0.181899E-10
quench:  g(F)=  0.000E+00 g(S)=  0.000E+00 dE (1.order)= 0.000E+00
 bond charge predicted
       N       E                     dE             d eps       ncg     rms          rms(c)
DAV:   1    -0.139331741814E+03    0.15025E-08    0.11011E-11   168   0.251E-09    0.579E-10
RMM:   2    -0.139331741815E+03   -0.92041E-09    0.00000E+00     1   0.199E-09
  63 F= -.13933174E+03 E0= -.13934401E+03  d E =-.472937E-10
quench:  g(F)=  0.000E+00 g(S)=  0.000E+00 dE (1.order)= 0.000E+00
 bond charge predicted
       N       E                     dE             d eps       ncg     rms          rms(c)
DAV:   1    -0.139331741815E+03   -0.40382E-09    0.10063E-10   168   0.211E-09    0.479E-10
RMM:   2    -0.139331741815E+03   -0.43656E-09    0.00000E+00     1   0.156E-09
  64 F= -.13933174E+03 E0= -.13934401E+03  d E =0.800355E-10
quench:  g(F)=  0.000E+00 g(S)=  0.000E+00 dE (1.order)= 0.000E+00
 bond charge predicted
       N       E                     dE             d eps       ncg     rms          rms(c)
DAV:   1    -0.139331741815E+03   -0.37107E-09   -0.23245E-11   168   0.166E-09    0.391E-10
RMM:   2    -0.139331741815E+03   -0.10550E-09    0.00000E+00     1   0.130E-09
  65 F= -.13933174E+03 E0= -.13934401E+03  d E =-.400178E-10
quench:  g(F)=  0.000E+00 g(S)=  0.000E+00 dE (1.order)= 0.000E+00
 bond charge predicted
       N       E                     dE             d eps       ncg     rms          rms(c)
DAV:   1    -0.139331741815E+03    0.49840E-09    0.65619E-11   168   0.138E-09    0.420E-10
RMM:   2    -0.139331741815E+03   -0.56752E-09    0.00000E+00     1   0.106E-09
  66 F= -.13933174E+03 E0= -.13934401E+03  d E =0.363798E-10
quench:  g(F)=  0.000E+00 g(S)=  0.000E+00 dE (1.order)= 0.000E+00
 bond charge predicted
       N       E                     dE             d eps       ncg     rms          rms(c)
DAV:   1    -0.139331741815E+03   -0.46930E-09    0.38020E-13   168   0.114E-09    0.436E-10
RMM:   2    -0.139331741815E+03   -0.15643E-09    0.00000E+00     1   0.861E-10
  67 F= -.13933174E+03 E0= -.13934401E+03  d E =-.582077E-10
quench:  g(F)=  0.000E+00 g(S)=  0.000E+00 dE (1.order)= 0.000E+00
 bond charge predicted
       N       E                     dE             d eps       ncg     rms          rms(c)
DAV:   1    -0.139331741816E+03   -0.56389E-09    0.29434E-11   168   0.976E-10    0.274E-10
RMM:   2    -0.139331741815E+03    0.29831E-09    0.00000E+00     1   0.674E-10
  68 F= -.13933174E+03 E0= -.13934401E+03  d E =-.109139E-09
quench:  g(F)=  0.000E+00 g(S)=  0.000E+00 dE (1.order)= 0.000E+00
 bond charge predicted
       N       E                     dE             d eps       ncg     rms          rms(c)
DAV:   1    -0.139331741816E+03   -0.18190E-10   -0.58705E-11   168   0.782E-10    0.218E-10
RMM:   2    -0.139331741815E+03    0.30559E-09    0.00000E+00     1   0.597E-10
  69 F= -.13933174E+03 E0= -.13934401E+03  d E =-.109139E-10
quench:  g(F)=  0.000E+00 g(S)=  0.000E+00 dE (1.order)= 0.000E+00
 bond charge predicted
       N       E                     dE             d eps       ncg     rms          rms(c)
DAV:   1    -0.139331741815E+03    0.64756E-09    0.47337E-11   168   0.673E-10    0.221E-10
RMM:   2    -0.139331741815E+03   -0.29831E-09    0.00000E+00     1   0.466E-10
  70 F= -.13933174E+03 E0= -.13934401E+03  d E =0.436557E-10
quench:  g(F)=  0.000E+00 g(S)=  0.000E+00 dE (1.order)= 0.000E+00
 bond charge predicted
       N       E                     dE             d eps       ncg     rms          rms(c)
DAV:   1    -0.139331741814E+03    0.60390E-09   -0.39574E-12   168   0.511E-10    0.245E-10
RMM:   2    -0.139331741815E+03   -0.93496E-09    0.00000E+00     1   0.395E-10
  71 F= -.13933174E+03 E0= -.13934401E+03  d E =-.327418E-10
quench:  g(F)=  0.000E+00 g(S)=  0.000E+00 dE (1.order)= 0.000E+00
 bond charge predicted
       N       E                     dE             d eps       ncg     rms          rms(c)
DAV:   1    -0.139331741815E+03   -0.10768E-08   -0.52394E-11   168   0.456E-10    0.225E-10
RMM:   2    -0.139331741815E+03    0.18554E-09    0.00000E+00     1   0.330E-10
  72 F= -.13933174E+03 E0= -.13934401E+03  d E =0.436557E-10
quench:  g(F)=  0.000E+00 g(S)=  0.000E+00 dE (1.order)= 0.000E+00
 bond charge predicted
       N       E                     dE             d eps       ncg     rms          rms(c)
DAV:   1    -0.139331741816E+03   -0.47294E-10    0.18916E-11   168   0.361E-10    0.230E-10
RMM:   2    -0.139331741815E+03    0.33469E-09    0.00000E+00     1   0.289E-10
  73 F= -.13933174E+03 E0= -.13934401E+03  d E =0.101863E-09
quench:  g(F)=  0.000E+00 g(S)=  0.000E+00 dE (1.order)= 0.000E+00
 bond charge predicted
       N       E                     dE             d eps       ncg     rms          rms(c)
DAV:   1    -0.139331741816E+03    0.36380E-11    0.43193E-11   168   0.340E-10    0.229E-10
RMM:   2    -0.139331741815E+03    0.19281E-09    0.00000E+00     1   0.240E-10
  74 F= -.13933174E+03 E0= -.13934401E+03  d E =-.138243E-09
quench:  g(F)=  0.000E+00 g(S)=  0.000E+00 dE (1.order)= 0.000E+00
 bond charge predicted
       N       E                     dE             d eps       ncg     rms          rms(c)
DAV:   1    -0.139331741815E+03    0.89494E-09    0.46034E-11   168   0.315E-10    0.150E-10
RMM:   2    -0.139331741815E+03   -0.58208E-09    0.00000E+00     1   0.195E-10
  75 F= -.13933174E+03 E0= -.13934401E+03  d E =0.120053E-09
quench:  g(F)=  0.000E+00 g(S)=  0.000E+00 dE (1.order)= 0.000E+00
 bond charge predicted
       N       E                     dE             d eps       ncg     rms          rms(c)
DAV:   1    -0.139331741816E+03   -0.12478E-08    0.37256E-11   168   0.232E-10    0.234E-10
RMM:   2    -0.139331741815E+03    0.57116E-09    0.00000E+00     1   0.191E-10
  76 F= -.13933174E+03 E0= -.13934401E+03  d E =-.945874E-10
quench:  g(F)=  0.000E+00 g(S)=  0.000E+00 dE (1.order)= 0.000E+00
 bond charge predicted
       N       E                     dE             d eps       ncg     rms          rms(c)
DAV:   1    -0.139331741814E+03    0.16298E-08   -0.86578E-12   168   0.254E-10    0.304E-10
RMM:   2    -0.139331741815E+03   -0.97862E-09    0.00000E+00     1   0.174E-10
  77 F= -.13933174E+03 E0= -.13934401E+03  d E =0.800355E-10
quench:  g(F)=  0.000E+00 g(S)=  0.000E+00 dE (1.order)= 0.000E+00
 bond charge predicted
       N       E                     dE             d eps       ncg     rms          rms(c)
DAV:   1    -0.139331741814E+03   -0.72760E-11    0.42181E-11   168   0.223E-10    0.257E-10
RMM:   2    -0.139331741815E+03   -0.10878E-08    0.00000E+00     1   0.159E-10
  78 F= -.13933174E+03 E0= -.13934401E+03  d E =-.116415E-09
quench:  g(F)=  0.000E+00 g(S)=  0.000E+00 dE (1.order)= 0.000E+00
 bond charge predicted
       N       E                     dE             d eps       ncg     rms          rms(c)
DAV:   1    -0.139331741816E+03   -0.15243E-08    0.10457E-10   168   0.195E-10    0.166E-10
RMM:   2    -0.139331741815E+03    0.60027E-09    0.00000E+00     1   0.141E-10
  79 F= -.13933174E+03 E0= -.13934401E+03  d E =0.163709E-09
quench:  g(F)=  0.000E+00 g(S)=  0.000E+00 dE (1.order)= 0.000E+00
 bond charge predicted
       N       E                     dE             d eps       ncg     rms          rms(c)
DAV:   1    -0.139331741815E+03    0.54933E-09    0.22381E-11   168   0.165E-10    0.226E-10
RMM:   2    -0.139331741815E+03   -0.10186E-09    0.00000E+00     1   0.157E-10
  80 F= -.13933174E+03 E0= -.13934401E+03  d E =-.152795E-09
quench:  g(F)=  0.000E+00 g(S)=  0.000E+00 dE (1.order)= 0.000E+00
 bond charge predicted
       N       E                     dE             d eps       ncg     rms          rms(c)
DAV:   1    -0.139331741815E+03   -0.61846E-10    0.94103E-11   168   0.220E-10    0.194E-10
RMM:   2    -0.139331741815E+03    0.54570E-10    0.00000E+00     1   0.128E-10
  81 F= -.13933174E+03 E0= -.13934401E+03  d E =0.945874E-10
quench:  g(F)=  0.000E+00 g(S)=  0.000E+00 dE (1.order)= 0.000E+00
 bond charge predicted
       N       E                     dE             d eps       ncg     rms          rms(c)
DAV:   1    -0.139331741815E+03    0.30923E-09    0.38382E-11   168   0.198E-10    0.174E-10
RMM:   2    -0.139331741815E+03   -0.24738E-09    0.00000E+00     1   0.124E-10
  82 F= -.13933174E+03 E0= -.13934401E+03  d E =0.727596E-11
quench:  g(F)=  0.000E+00 g(S)=  0.000E+00 dE (1.order)= 0.000E+00
 bond charge predicted
       N       E                     dE             d eps       ncg     rms          rms(c)
DAV:   1    -0.139331741816E+03   -0.14588E-08    0.13302E-11   168   0.165E-10    0.216E-10
RMM:   2    -0.139331741815E+03    0.12296E-08    0.00000E+00     1   0.121E-10
  83 F= -.13933174E+03 E0= -.13934401E+03  d E =0.181899E-10
quench:  g(F)=  0.000E+00 g(S)=  0.000E+00 dE (1.order)= 0.000E+00
 bond charge predicted
       N       E                     dE             d eps       ncg     rms          rms(c)
DAV:   1    -0.139331741816E+03    0.22555E-09    0.83747E-14   168   0.157E-10    0.283E-10
RMM:   2    -0.139331741815E+03    0.98589E-09    0.00000E+00     1   0.129E-10
  84 F= -.13933174E+03 E0= -.13934401E+03  d E =-.181899E-10
quench:  g(F)=  0.000E+00 g(S)=  0.000E+00 dE (1.order)= 0.000E+00
 bond charge predicted
       N       E                     dE             d eps       ncg     rms          rms(c)
DAV:   1    -0.139331741816E+03    0.26193E-09   -0.18356E-11   168   0.261E-10    0.361E-10
RMM:   2    -0.139331741815E+03    0.75306E-09    0.00000E+00     1   0.132E-10
  85 F= -.13933174E+03 E0= -.13934401E+03  d E =0.291038E-10
quench:  g(F)=  0.000E+00 g(S)=  0.000E+00 dE (1.order)= 0.000E+00
 bond charge predicted
       N       E                     dE             d eps       ncg     rms          rms(c)
DAV:   1    -0.139331741815E+03    0.60027E-09   -0.14172E-11   168   0.201E-10    0.198E-10
RMM:   2    -0.139331741815E+03    0.80036E-10    0.00000E+00     1   0.108E-10
  86 F= -.13933174E+03 E0= -.13934401E+03  d E =-.727596E-10
quench:  g(F)=  0.000E+00 g(S)=  0.000E+00 dE (1.order)= 0.000E+00
 bond charge predicted
       N       E                     dE             d eps       ncg     rms          rms(c)
DAV:   1    -0.139331741815E+03   -0.11278E-09    0.45629E-11   168   0.190E-10    0.171E-10
RMM:   2    -0.139331741815E+03    0.19645E-09    0.00000E+00     1   0.124E-10
  87 F= -.13933174E+03 E0= -.13934401E+03  d E =0.363798E-11
quench:  g(F)=  0.000E+00 g(S)=  0.000E+00 dE (1.order)= 0.000E+00
 bond charge predicted
       N       E                     dE             d eps       ncg     rms          rms(c)
DAV:   1    -0.139331741815E+03    0.34561E-09    0.24529E-11   168   0.174E-10    0.154E-10
RMM:   2    -0.139331741815E+03   -0.19281E-09    0.00000E+00     1   0.110E-10
  88 F= -.13933174E+03 E0= -.13934401E+03  d E =-.436557E-10
quench:  g(F)=  0.000E+00 g(S)=  0.000E+00 dE (1.order)= 0.000E+00
 bond charge predicted
       N       E                     dE             d eps       ncg     rms          rms(c)
DAV:   1    -0.139331741815E+03    0.42564E-09    0.31186E-12   168   0.136E-10    0.180E-10
RMM:   2    -0.139331741815E+03   -0.65484E-09    0.00000E+00     1   0.103E-10
  89 F= -.13933174E+03 E0= -.13934401E+03  d E =-.363798E-10
quench:  g(F)=  0.000E+00 g(S)=  0.000E+00 dE (1.order)= 0.000E+00
 bond charge predicted
       N       E                     dE             d eps       ncg     rms          rms(c)
DAV:   1    -0.139331741816E+03   -0.14043E-08    0.66819E-11   168   0.128E-10    0.211E-10
RMM:   2    -0.139331741815E+03    0.75670E-09    0.00000E+00     1   0.119E-10
  90 F= -.13933174E+03 E0= -.13934401E+03  d E =0.727596E-11
quench:  g(F)=  0.000E+00 g(S)=  0.000E+00 dE (1.order)= 0.000E+00
 bond charge predicted
       N       E                     dE             d eps       ncg     rms          rms(c)
DAV:   1    -0.139331741815E+03    0.82946E-09    0.70990E-11   168   0.148E-10    0.198E-10
RMM:   2    -0.139331741815E+03   -0.76398E-10    0.00000E+00     1   0.888E-11
  91 F= -.13933174E+03 E0= -.13934401E+03  d E =-.363798E-11
quench:  g(F)=  0.000E+00 g(S)=  0.000E+00 dE (1.order)= 0.000E+00
 bond charge predicted
       N       E                     dE             d eps       ncg     rms          rms(c)
DAV:   1    -0.139331741816E+03   -0.11605E-08    0.66425E-11   168   0.164E-10    0.172E-10
RMM:   2    -0.139331741815E+03    0.12005E-08    0.00000E+00     1   0.985E-11
  92 F= -.13933174E+03 E0= -.13934401E+03  d E =0.116415E-09
quench:  g(F)=  0.000E+00 g(S)=  0.000E+00 dE (1.order)= 0.000E+00
 bond charge predicted
       N       E                     dE             d eps       ncg     rms          rms(c)
DAV:   1    -0.139331741815E+03    0.13933E-08    0.48237E-11   168   0.170E-10    0.236E-10
RMM:   2    -0.139331741815E+03   -0.15643E-09    0.00000E+00     1   0.131E-10
  93 F= -.13933174E+03 E0= -.13934401E+03  d E =0.363798E-10
quench:  g(F)=  0.000E+00 g(S)=  0.000E+00 dE (1.order)= 0.000E+00
 bond charge predicted
       N       E                     dE             d eps       ncg     rms          rms(c)
DAV:   1    -0.139331741816E+03   -0.77489E-09   -0.34582E-12   168   0.204E-10    0.311E-10
RMM:   2    -0.139331741815E+03    0.49840E-09    0.00000E+00     1   0.159E-10
  94 F= -.13933174E+03 E0= -.13934401E+03  d E =-.120053E-09
quench:  g(F)=  0.000E+00 g(S)=  0.000E+00 dE (1.order)= 0.000E+00
 bond charge predicted
       N       E                     dE             d eps       ncg     rms          rms(c)
DAV:   1    -0.139331741814E+03    0.18590E-08   -0.17086E-11   168   0.295E-10    0.228E-10
RMM:   2    -0.139331741815E+03   -0.13533E-08    0.00000E+00     1   0.124E-10
  95 F= -.13933174E+03 E0= -.13934401E+03  d E =0.727596E-11
quench:  g(F)=  0.000E+00 g(S)=  0.000E+00 dE (1.order)= 0.000E+00
 bond charge predicted
       N       E                     dE             d eps       ncg     rms          rms(c)
DAV:   1    -0.139331741816E+03   -0.15534E-08    0.45679E-11   168   0.188E-10    0.366E-10
RMM:   2    -0.139331741815E+03    0.24738E-09    0.00000E+00     1   0.140E-10
  96 F= -.13933174E+03 E0= -.13934401E+03  d E =0.472937E-10
quench:  g(F)=  0.000E+00 g(S)=  0.000E+00 dE (1.order)= 0.000E+00
 bond charge predicted
       N       E                     dE             d eps       ncg     rms          rms(c)
DAV:   1    -0.139331741815E+03    0.40745E-09    0.23679E-11   168   0.203E-10    0.163E-10
RMM:   2    -0.139331741815E+03   -0.12733E-09    0.00000E+00     1   0.961E-11
  97 F= -.13933174E+03 E0= -.13934401E+03  d E =0.327418E-10
quench:  g(F)=  0.000E+00 g(S)=  0.000E+00 dE (1.order)= 0.000E+00
 bond charge predicted
       N       E                     dE             d eps       ncg     rms          rms(c)
DAV:   1    -0.139331741815E+03    0.54206E-09    0.36196E-11   168   0.191E-10    0.202E-10
RMM:   2    -0.139331741815E+03   -0.74215E-09    0.00000E+00     1   0.114E-10
  98 F= -.13933174E+03 E0= -.13934401E+03  d E =-.727596E-10
quench:  g(F)=  0.000E+00 g(S)=  0.000E+00 dE (1.order)= 0.000E+00
 bond charge predicted
       N       E                     dE             d eps       ncg     rms          rms(c)
DAV:   1    -0.139331741815E+03   -0.65484E-09   -0.64101E-12   168   0.203E-10    0.148E-10
RMM:   2    -0.139331741815E+03   -0.11642E-09    0.00000E+00     1   0.893E-11
  99 F= -.13933174E+03 E0= -.13934401E+03  d E =-.291038E-10
quench:  g(F)=  0.000E+00 g(S)=  0.000E+00 dE (1.order)= 0.000E+00
 bond charge predicted
       N       E                     dE             d eps       ncg     rms          rms(c)
DAV:   1    -0.139331741815E+03   -0.10550E-09   -0.18327E-11   168   0.132E-10    0.247E-10
RMM:   2    -0.139331741815E+03   -0.10914E-10    0.00000E+00     1   0.119E-10
 100 F= -.13933174E+03 E0= -.13934401E+03  d E =0.000000E+00
quench:  g(F)=  0.000E+00 g(S)=  0.000E+00 dE (1.order)= 0.000E+00
 bond charge predicted
       N       E                     dE             d eps       ncg     rms          rms(c)
DAV:   1    -0.139331741816E+03   -0.31650E-09    0.32430E-11   168   0.185E-10    0.195E-10
RMM:   2    -0.139331741815E+03    0.30195E-09    0.00000E+00     1   0.946E-11
 101 F= -.13933174E+03 E0= -.13934401E+03  d E =-.363798E-11
quench:  g(F)=  0.000E+00 g(S)=  0.000E+00 dE (1.order)= 0.000E+00
 bond charge predicted
       N       E                     dE             d eps       ncg     rms          rms(c)
DAV:   1    -0.139331741815E+03    0.67666E-09    0.85221E-11   168   0.166E-10    0.211E-10
RMM:   2    -0.139331741815E+03   -0.25466E-09    0.00000E+00     1   0.111E-10
 102 F= -.13933174E+03 E0= -.13934401E+03  d E =0.120053E-09
quench:  g(F)=  0.000E+00 g(S)=  0.000E+00 dE (1.order)= 0.000E+00
 bond charge predicted
       N       E                     dE             d eps       ncg     rms          rms(c)
DAV:   1    -0.139331741815E+03   -0.19645E-09    0.35822E-11   168   0.194E-10    0.188E-10
RMM:   2    -0.139331741815E+03   -0.20373E-09    0.00000E+00     1   0.904E-11
 103 F= -.13933174E+03 E0= -.13934401E+03  d E =-.145519E-09
quench:  g(F)=  0.000E+00 g(S)=  0.000E+00 dE (1.order)= 0.000E+00
 bond charge predicted
       N       E                     dE             d eps       ncg     rms          rms(c)
DAV:   1    -0.139331741816E+03   -0.59299E-09    0.36401E-11   168   0.137E-10    0.272E-10
RMM:   2    -0.139331741815E+03    0.48749E-09    0.00000E+00     1   0.106E-10
 104 F= -.13933174E+03 E0= -.13934401E+03  d E =0.982254E-10
quench:  g(F)=  0.000E+00 g(S)=  0.000E+00 dE (1.order)= 0.000E+00
 bond charge predicted
       N       E                     dE             d eps       ncg     rms          rms(c)
DAV:   1    -0.139331741815E+03    0.11751E-08    0.57023E-13   168   0.173E-10    0.290E-10
RMM:   2    -0.139331741815E+03   -0.62937E-09    0.00000E+00     1   0.115E-10
 105 F= -.13933174E+03 E0= -.13934401E+03  d E =0.582077E-10
quench:  g(F)=  0.000E+00 g(S)=  0.000E+00 dE (1.order)= 0.000E+00
 bond charge predicted
       N       E                     dE             d eps       ncg     rms          rms(c)
DAV:   1    -0.139331741816E+03   -0.11314E-08   -0.47401E-12   168   0.204E-10    0.193E-10
RMM:   2    -0.139331741815E+03    0.49477E-09    0.00000E+00     1   0.979E-11
 106 F= -.13933174E+03 E0= -.13934401E+03  d E =-.727596E-11
quench:  g(F)=  0.000E+00 g(S)=  0.000E+00 dE (1.order)= 0.000E+00
 bond charge predicted
       N       E                     dE             d eps       ncg     rms          rms(c)
DAV:   1    -0.139331741815E+03    0.87675E-09   -0.15118E-11   168   0.180E-10    0.232E-10
RMM:   2    -0.139331741815E+03   -0.38926E-09    0.00000E+00     1   0.104E-10
 107 F= -.13933174E+03 E0= -.13934401E+03  d E =-.727596E-11
quench:  g(F)=  0.000E+00 g(S)=  0.000E+00 dE (1.order)= 0.000E+00
 bond charge predicted
       N       E                     dE             d eps       ncg     rms          rms(c)
DAV:   1    -0.139331741816E+03   -0.79672E-09   -0.39813E-11   168   0.129E-10    0.261E-10
RMM:   2    -0.139331741815E+03    0.47294E-09    0.00000E+00     1   0.101E-10
 108 F= -.13933174E+03 E0= -.13934401E+03  d E =0.654836E-10
quench:  g(F)=  0.000E+00 g(S)=  0.000E+00 dE (1.order)= 0.000E+00
 bond charge predicted
       N       E                     dE             d eps       ncg     rms          rms(c)
DAV:   1    -0.139331741815E+03    0.65847E-09    0.63048E-11   168   0.155E-10    0.248E-10
RMM:   2    -0.139331741815E+03   -0.28740E-09    0.00000E+00     1   0.108E-10
 109 F= -.13933174E+03 E0= -.13934401E+03  d E =-.101863E-09
quench:  g(F)=  0.000E+00 g(S)=  0.000E+00 dE (1.order)= 0.000E+00
 bond charge predicted
       N       E                     dE             d eps       ncg     rms          rms(c)
DAV:   1    -0.139331741815E+03   -0.25830E-09    0.42843E-11   168   0.188E-10    0.176E-10
RMM:   2    -0.139331741815E+03    0.25466E-10    0.00000E+00     1   0.103E-10
 110 F= -.13933174E+03 E0= -.13934401E+03  d E =0.545697E-10
quench:  g(F)=  0.000E+00 g(S)=  0.000E+00 dE (1.order)= 0.000E+00
 bond charge predicted
       N       E                     dE             d eps       ncg     rms          rms(c)
DAV:   1    -0.139331741815E+03    0.22555E-09    0.11430E-10   168   0.129E-10    0.218E-10
RMM:   2    -0.139331741815E+03   -0.24738E-09    0.00000E+00     1   0.970E-11
 111 F= -.13933174E+03 E0= -.13934401E+03  d E =-.472937E-10
quench:  g(F)=  0.000E+00 g(S)=  0.000E+00 dE (1.order)= 0.000E+00
 bond charge predicted
       N       E                     dE             d eps       ncg     rms          rms(c)
DAV:   1    -0.139331741816E+03   -0.66211E-09    0.35989E-11   168   0.165E-10    0.185E-10
RMM:   2    -0.139331741815E+03    0.42928E-09    0.00000E+00     1   0.964E-11
 112 F= -.13933174E+03 E0= -.13934401E+03  d E =0.145519E-10
quench:  g(F)=  0.000E+00 g(S)=  0.000E+00 dE (1.order)= 0.000E+00
 bond charge predicted
       N       E                     dE             d eps       ncg     rms          rms(c)
DAV:   1    -0.139331741815E+03    0.64392E-09    0.61038E-11   168   0.154E-10    0.152E-10
RMM:   2    -0.139331741815E+03   -0.25466E-09    0.00000E+00     1   0.916E-11
 113 F= -.13933174E+03 E0= -.13934401E+03  d E =-.400178E-10
quench:  g(F)=  0.000E+00 g(S)=  0.000E+00 dE (1.order)= 0.000E+00
 bond charge predicted
       N       E                     dE             d eps       ncg     rms          rms(c)
DAV:   1    -0.139331741815E+03    0.36380E-11   -0.85808E-12   168   0.160E-10    0.188E-10
RMM:   2    -0.139331741815E+03   -0.16007E-09    0.00000E+00     1   0.116E-10
 114 F= -.13933174E+03 E0= -.13934401E+03  d E =0.982254E-10
quench:  g(F)=  0.000E+00 g(S)=  0.000E+00 dE (1.order)= 0.000E+00
 bond charge predicted
       N       E                     dE             d eps       ncg     rms          rms(c)
DAV:   1    -0.139331741815E+03   -0.12005E-09   -0.36715E-11   168   0.168E-10    0.190E-10
RMM:   2    -0.139331741815E+03   -0.18190E-09    0.00000E+00     1   0.102E-10
 115 F= -.13933174E+03 E0= -.13934401E+03  d E =-.141881E-09
quench:  g(F)=  0.000E+00 g(S)=  0.000E+00 dE (1.order)= 0.000E+00
 bond charge predicted
       N       E                     dE             d eps       ncg     rms          rms(c)
DAV:   1    -0.139331741816E+03   -0.75670E-09    0.20225E-11   168   0.162E-10    0.273E-10
RMM:   2    -0.139331741815E+03    0.61118E-09    0.00000E+00     1   0.112E-10
 116 F= -.13933174E+03 E0= -.13934401E+03  d E =0.363798E-10
quench:  g(F)=  0.000E+00 g(S)=  0.000E+00 dE (1.order)= 0.000E+00
 bond charge predicted
       N       E                     dE             d eps       ncg     rms          rms(c)
DAV:   1    -0.139331741815E+03    0.12078E-08   -0.36951E-11   168   0.190E-10    0.245E-10
RMM:   2    -0.139331741815E+03   -0.60754E-09    0.00000E+00     1   0.125E-10
 117 F= -.13933174E+03 E0= -.13934401E+03  d E =-.109139E-10
quench:  g(F)=  0.000E+00 g(S)=  0.000E+00 dE (1.order)= 0.000E+00
 bond charge predicted
       N       E                     dE             d eps       ncg     rms          rms(c)
DAV:   1    -0.139331741815E+03   -0.18917E-09    0.11405E-10   168   0.155E-10    0.223E-10
RMM:   2    -0.139331741815E+03   -0.45475E-09    0.00000E+00     1   0.976E-11
 118 F= -.13933174E+03 E0= -.13934401E+03  d E =-.363798E-10
quench:  g(F)=  0.000E+00 g(S)=  0.000E+00 dE (1.order)= 0.000E+00
 bond charge predicted
       N       E                     dE             d eps       ncg     rms          rms(c)
DAV:   1    -0.139331741816E+03   -0.13897E-08    0.61466E-11   168   0.153E-10    0.206E-10
RMM:   2    -0.139331741815E+03    0.10004E-08    0.00000E+00     1   0.116E-10
 119 F= -.13933174E+03 E0= -.13934401E+03  d E =0.654836E-10
quench:  g(F)=  0.000E+00 g(S)=  0.000E+00 dE (1.order)= 0.000E+00
 bond charge predicted
       N       E                     dE             d eps       ncg     rms          rms(c)
DAV:   1    -0.139331741815E+03    0.88039E-09    0.23051E-11   168   0.190E-10    0.175E-10
RMM:   2    -0.139331741815E+03    0.83674E-10    0.00000E+00     1   0.102E-10
 120 F= -.13933174E+03 E0= -.13934401E+03  d E =-.363798E-10
quench:  g(F)=  0.000E+00 g(S)=  0.000E+00 dE (1.order)= 0.000E+00
 bond charge predicted
       N       E                     dE             d eps       ncg     rms          rms(c)
DAV:   1    -0.139331741816E+03   -0.52023E-09    0.30695E-11   168   0.158E-10    0.261E-10
RMM:   2    -0.139331741815E+03    0.58935E-09    0.00000E+00     1   0.108E-10
 121 F= -.13933174E+03 E0= -.13934401E+03  d E =-.145519E-10
quench:  g(F)=  0.000E+00 g(S)=  0.000E+00 dE (1.order)= 0.000E+00
 bond charge predicted
       N       E                     dE             d eps       ncg     rms          rms(c)
DAV:   1    -0.139331741814E+03    0.14261E-08   -0.17085E-11   168   0.193E-10    0.203E-10
RMM:   2    -0.139331741815E+03   -0.74215E-09    0.00000E+00     1   0.999E-11
 122 F= -.13933174E+03 E0= -.13934401E+03  d E =0.945874E-10
quench:  g(F)=  0.000E+00 g(S)=  0.000E+00 dE (1.order)= 0.000E+00
 bond charge predicted
       N       E                     dE             d eps       ncg     rms          rms(c)
DAV:   1    -0.139331741815E+03   -0.69485E-09    0.15122E-11   168   0.217E-10    0.293E-10
RMM:   2    -0.139331741815E+03   -0.18554E-09    0.00000E+00     1   0.128E-10
 123 F= -.13933174E+03 E0= -.13934401E+03  d E =-.138243E-09
quench:  g(F)=  0.000E+00 g(S)=  0.000E+00 dE (1.order)= 0.000E+00
 bond charge predicted
       N       E                     dE             d eps       ncg     rms          rms(c)
DAV:   1    -0.139331741816E+03   -0.49477E-09    0.36513E-12   168   0.258E-10    0.282E-10
RMM:   2    -0.139331741815E+03    0.37107E-09    0.00000E+00     0   0.112E-10
 124 F= -.13933174E+03 E0= -.13934401E+03  d E =0.618456E-10
quench:  g(F)=  0.000E+00 g(S)=  0.000E+00 dE (1.order)= 0.000E+00
 bond charge predicted
       N       E                     dE             d eps       ncg     rms          rms(c)
DAV:   1    -0.139331741815E+03    0.82946E-09   -0.42144E-12   168   0.159E-10    0.267E-10
RMM:   2    -0.139331741815E+03   -0.40382E-09    0.00000E+00     0   0.124E-10
 125 F= -.13933174E+03 E0= -.13934401E+03  d E =0.545697E-10
quench:  g(F)=  0.000E+00 g(S)=  0.000E+00 dE (1.order)= 0.000E+00
 bond charge predicted
       N       E                     dE             d eps       ncg     rms          rms(c)
DAV:   1    -0.139331741815E+03   -0.57844E-09    0.36415E-12   168   0.245E-10    0.271E-10
RMM:   2    -0.139331741815E+03    0.13824E-09    0.00000E+00     1   0.134E-10
 126 F= -.13933174E+03 E0= -.13934401E+03  d E =-.363798E-10
quench:  g(F)=  0.000E+00 g(S)=  0.000E+00 dE (1.order)= 0.000E+00
 bond charge predicted
       N       E                     dE             d eps       ncg     rms          rms(c)
DAV:   1    -0.139331741815E+03    0.69849E-09   -0.34173E-11   168   0.210E-10    0.183E-10
RMM:   2    -0.139331741815E+03   -0.53842E-09    0.00000E+00     1   0.103E-10
 127 F= -.13933174E+03 E0= -.13934401E+03  d E =0.218279E-10
quench:  g(F)=  0.000E+00 g(S)=  0.000E+00 dE (1.order)= 0.000E+00
 bond charge predicted
       N       E                     dE             d eps       ncg     rms          rms(c)
DAV:   1    -0.139331741815E+03   -0.67303E-09    0.73777E-12   168   0.179E-10    0.237E-10
RMM:   2    -0.139331741815E+03    0.50932E-10    0.00000E+00     1   0.112E-10
 128 F= -.13933174E+03 E0= -.13934401E+03  d E =-.836735E-10
quench:  g(F)=  0.000E+00 g(S)=  0.000E+00 dE (1.order)= 0.000E+00
 bond charge predicted
       N       E                     dE             d eps       ncg     rms          rms(c)
DAV:   1    -0.139331741815E+03    0.66575E-09    0.51596E-12   168   0.180E-10    0.171E-10
RMM:   2    -0.139331741815E+03   -0.60754E-09    0.00000E+00     0   0.105E-10
 129 F= -.13933174E+03 E0= -.13934401E+03  d E =0.727596E-11
quench:  g(F)=  0.000E+00 g(S)=  0.000E+00 dE (1.order)= 0.000E+00
 bond charge predicted
       N       E                     dE             d eps       ncg     rms          rms(c)
DAV:   1    -0.139331741816E+03   -0.15825E-08    0.54249E-11   168   0.154E-10    0.236E-10
RMM:   2    -0.139331741815E+03    0.10186E-08    0.00000E+00     0   0.116E-10
 130 F= -.13933174E+03 E0= -.13934401E+03  d E =0.436557E-10
quench:  g(F)=  0.000E+00 g(S)=  0.000E+00 dE (1.order)= 0.000E+00
 bond charge predicted
       N       E                     dE             d eps       ncg     rms          rms(c)
DAV:   1    -0.139331741814E+03    0.18917E-08    0.83442E-11   168   0.187E-10    0.233E-10
RMM:   2    -0.139331741815E+03   -0.87311E-09    0.00000E+00     0   0.107E-10
 131 F= -.13933174E+03 E0= -.13934401E+03  d E =0.000000E+00
quench:  g(F)=  0.000E+00 g(S)=  0.000E+00 dE (1.order)= 0.000E+00
 bond charge predicted
       N       E                     dE             d eps       ncg     rms          rms(c)
DAV:   1    -0.139331741816E+03   -0.15389E-08    0.66555E-11   168   0.185E-10    0.173E-10
RMM:   2    -0.139331741815E+03    0.67666E-09    0.00000E+00     0   0.936E-11
 132 F= -.13933174E+03 E0= -.13934401E+03  d E =0.109139E-10
quench:  g(F)=  0.000E+00 g(S)=  0.000E+00 dE (1.order)= 0.000E+00
 bond charge predicted
       N       E                     dE             d eps       ncg     rms          rms(c)
DAV:   1    -0.139331741815E+03    0.79672E-09    0.10610E-10   168   0.136E-10    0.182E-10
RMM:   2    -0.139331741815E+03   -0.13824E-09    0.00000E+00     0   0.944E-11
 133 F= -.13933174E+03 E0= -.13934401E+03  d E =-.181899E-10
quench:  g(F)=  0.000E+00 g(S)=  0.000E+00 dE (1.order)= 0.000E+00
 bond charge predicted
       N       E                     dE             d eps       ncg     rms          rms(c)
DAV:   1    -0.139331741815E+03   -0.29104E-09    0.74123E-11   168   0.951E-11    0.182E-10
RMM:   2    -0.139331741815E+03    0.12733E-09    0.00000E+00     0   0.874E-11
 134 F= -.13933174E+03 E0= -.13934401E+03  d E =-.254659E-10
quench:  g(F)=  0.000E+00 g(S)=  0.000E+00 dE (1.order)= 0.000E+00
 bond charge predicted
       N       E                     dE             d eps       ncg     rms          rms(c)
DAV:   1    -0.139331741816E+03   -0.35288E-09    0.29504E-11   168   0.168E-10    0.282E-10
RMM:   2    -0.139331741815E+03    0.45475E-09    0.00000E+00     0   0.112E-10
 135 F= -.13933174E+03 E0= -.13934401E+03  d E =-.254659E-10
quench:  g(F)=  0.000E+00 g(S)=  0.000E+00 dE (1.order)= 0.000E+00
 bond charge predicted
       N       E                     dE             d eps       ncg     rms          rms(c)
DAV:   1    -0.139331741816E+03   -0.45475E-09    0.24040E-11   168   0.164E-10    0.201E-10
RMM:   2    -0.139331741815E+03    0.94224E-09    0.00000E+00     0   0.935E-11
 136 F= -.13933174E+03 E0= -.13934401E+03  d E =0.327418E-10
quench:  g(F)=  0.000E+00 g(S)=  0.000E+00 dE (1.order)= 0.000E+00
 bond charge predicted
       N       E                     dE             d eps       ncg     rms          rms(c)
DAV:   1    -0.139331741815E+03    0.12697E-08    0.34300E-12   168   0.141E-10    0.166E-10
RMM:   2    -0.139331741815E+03   -0.36744E-09    0.00000E+00     0   0.883E-11
 137 F= -.13933174E+03 E0= -.13934401E+03  d E =-.400178E-10
quench:  g(F)=  0.000E+00 g(S)=  0.000E+00 dE (1.order)= 0.000E+00
 bond charge predicted
       N       E                     dE             d eps       ncg     rms          rms(c)
DAV:   1    -0.139331741816E+03   -0.69849E-09    0.71697E-11   168   0.140E-10    0.158E-10
RMM:   2    -0.139331741815E+03    0.34561E-09    0.00000E+00     0   0.977E-11
 138 F= -.13933174E+03 E0= -.13934401E+03  d E =0.145519E-10
quench:  g(F)=  0.000E+00 g(S)=  0.000E+00 dE (1.order)= 0.000E+00
 bond charge predicted
       N       E                     dE             d eps       ncg     rms          rms(c)
DAV:   1    -0.139331741815E+03    0.42928E-09    0.54125E-11   168   0.132E-10    0.111E-10
RMM:   2    -0.139331741815E+03   -0.76398E-10    0.00000E+00     0   0.878E-11
 139 F= -.13933174E+03 E0= -.13934401E+03  d E =0.727596E-11
quench:  g(F)=  0.000E+00 g(S)=  0.000E+00 dE (1.order)= 0.000E+00
 bond charge predicted
       N       E                     dE             d eps       ncg     rms          rms(c)
DAV:   1    -0.139331741816E+03   -0.37107E-09   -0.36230E-11   168   0.115E-10    0.226E-10
RMM:   2    -0.139331741815E+03    0.41473E-09    0.00000E+00     0   0.101E-10
 140 F= -.13933174E+03 E0= -.13934401E+03  d E =0.120053E-09
quench:  g(F)=  0.000E+00 g(S)=  0.000E+00 dE (1.order)= 0.000E+00
 bond charge predicted
       N       E                     dE             d eps       ncg     rms          rms(c)
DAV:   1    -0.139331741815E+03    0.15643E-09    0.26593E-11   168   0.152E-10    0.216E-10
RMM:   2    -0.139331741815E+03    0.11278E-09    0.00000E+00     0   0.104E-10
 141 F= -.13933174E+03 E0= -.13934401E+03  d E =-.145519E-09
quench:  g(F)=  0.000E+00 g(S)=  0.000E+00 dE (1.order)= 0.000E+00
 bond charge predicted
       N       E                     dE             d eps       ncg     rms          rms(c)
DAV:   1    -0.139331741815E+03    0.16371E-09   -0.15065E-11   168   0.182E-10    0.168E-10
RMM:   2    -0.139331741815E+03    0.36380E-10    0.00000E+00     0   0.996E-11
 142 F= -.13933174E+03 E0= -.13934401E+03  d E =0.873115E-10
quench:  g(F)=  0.000E+00 g(S)=  0.000E+00 dE (1.order)= 0.000E+00
 bond charge predicted
       N       E                     dE             d eps       ncg     rms          rms(c)
DAV:   1    -0.139331741815E+03    0.40018E-10    0.12121E-11   168   0.142E-10    0.172E-10
RMM:   2    -0.139331741815E+03    0.32742E-10    0.00000E+00     0   0.104E-10
 143 F= -.13933174E+03 E0= -.13934401E+03  d E =0.363798E-10
quench:  g(F)=  0.000E+00 g(S)=  0.000E+00 dE (1.order)= 0.000E+00
 bond charge predicted
       N       E                     dE             d eps       ncg     rms          rms(c)
DAV:   1    -0.139331741815E+03   -0.14552E-10    0.40913E-11   168   0.127E-10    0.241E-10
RMM:   2    -0.139331741815E+03    0.54570E-10    0.00000E+00     0   0.116E-10
 144 F= -.13933174E+03 E0= -.13934401E+03  d E =0.727596E-11
quench:  g(F)=  0.000E+00 g(S)=  0.000E+00 dE (1.order)= 0.000E+00
 bond charge predicted
       N       E                     dE             d eps       ncg     rms          rms(c)
DAV:   1    -0.139331741816E+03   -0.21464E-09    0.16074E-11   168   0.174E-10    0.212E-10
RMM:   2    -0.139331741815E+03    0.30923E-09    0.00000E+00     0   0.113E-10
 145 F= -.13933174E+03 E0= -.13934401E+03  d E =0.400178E-10
quench:  g(F)=  0.000E+00 g(S)=  0.000E+00 dE (1.order)= 0.000E+00
 bond charge predicted
       N       E                     dE             d eps       ncg     rms          rms(c)
DAV:   1    -0.139331741815E+03    0.18190E-09   -0.13687E-11   168   0.137E-10    0.272E-10
RMM:   2    -0.139331741815E+03    0.72760E-10    0.00000E+00     0   0.134E-10
 146 F= -.13933174E+03 E0= -.13934401E+03  d E =-.545697E-10
quench:  g(F)=  0.000E+00 g(S)=  0.000E+00 dE (1.order)= 0.000E+00
 bond charge predicted
       N       E                     dE             d eps       ncg     rms          rms(c)
DAV:   1    -0.139331741815E+03    0.37107E-09   -0.12372E-11   168   0.192E-10    0.157E-10
RMM:   2    -0.139331741815E+03   -0.28376E-09    0.00000E+00     0   0.103E-10
 147 F= -.13933174E+03 E0= -.13934401E+03  d E =0.145519E-10
quench:  g(F)=  0.000E+00 g(S)=  0.000E+00 dE (1.order)= 0.000E+00
 bond charge predicted
       N       E                     dE             d eps       ncg     rms          rms(c)
DAV:   1    -0.139331741815E+03    0.26193E-09    0.66295E-11   168   0.129E-10    0.181E-10
RMM:   2    -0.139331741815E+03   -0.67666E-09    0.00000E+00     0   0.877E-11
 148 F= -.13933174E+03 E0= -.13934401E+03  d E =-.130967E-09
quench:  g(F)=  0.000E+00 g(S)=  0.000E+00 dE (1.order)= 0.000E+00
 bond charge predicted
       N       E                     dE             d eps       ncg     rms          rms(c)
DAV:   1    -0.139331741815E+03   -0.13824E-09    0.59289E-11   168   0.146E-10    0.216E-10
RMM:   2    -0.139331741815E+03   -0.38926E-09    0.00000E+00     0   0.105E-10
 149 F= -.13933174E+03 E0= -.13934401E+03  d E =0.149157E-09
quench:  g(F)=  0.000E+00 g(S)=  0.000E+00 dE (1.order)= 0.000E+00
 bond charge predicted
       N       E                     dE             d eps       ncg     rms          rms(c)
DAV:   1    -0.139331741815E+03   -0.14552E-09    0.27720E-11   168   0.145E-10    0.193E-10
RMM:   2    -0.139331741815E+03   -0.22919E-09    0.00000E+00     0   0.123E-10
 150 F= -.13933174E+03 E0= -.13934401E+03  d E =0.145519E-10
quench:  g(F)=  0.000E+00 g(S)=  0.000E+00 dE (1.order)= 0.000E+00
 bond charge predicted
       N       E                     dE             d eps       ncg     rms          rms(c)
DAV:   1    -0.139331741815E+03   -0.21828E-09    0.48641E-11   168   0.166E-10    0.198E-10
RMM:   2    -0.139331741815E+03   -0.94587E-10    0.00000E+00     0   0.103E-10
 151 F= -.13933174E+03 E0= -.13934401E+03  d E =-.836735E-10
quench:  g(F)=  0.000E+00 g(S)=  0.000E+00 dE (1.order)= 0.000E+00
 bond charge predicted
       N       E                     dE             d eps       ncg     rms          rms(c)
DAV:   1    -0.139331741816E+03   -0.11532E-08    0.54986E-11   168   0.164E-10    0.249E-10
RMM:   2    -0.139331741815E+03    0.10223E-08    0.00000E+00     0   0.113E-10
 152 F= -.13933174E+03 E0= -.13934401E+03  d E =-.363798E-10
quench:  g(F)=  0.000E+00 g(S)=  0.000E+00 dE (1.order)= 0.000E+00
 bond charge predicted
       N       E                     dE             d eps       ncg     rms          rms(c)
DAV:   1    -0.139331741815E+03    0.10878E-08    0.61097E-12   168   0.220E-10    0.257E-10
RMM:   2    -0.139331741815E+03    0.54570E-10    0.00000E+00     0   0.114E-10
 153 F= -.13933174E+03 E0= -.13934401E+03  d E =0.120053E-09
quench:  g(F)=  0.000E+00 g(S)=  0.000E+00 dE (1.order)= 0.000E+00
 bond charge predicted
       N       E                     dE             d eps       ncg     rms          rms(c)
DAV:   1    -0.139331741815E+03   -0.25466E-10   -0.55847E-11   168   0.185E-10    0.329E-10
RMM:   2    -0.139331741815E+03    0.14552E-10    0.00000E+00     0   0.126E-10
 154 F= -.13933174E+03 E0= -.13934401E+03  d E =-.654836E-10
quench:  g(F)=  0.000E+00 g(S)=  0.000E+00 dE (1.order)= 0.000E+00
 bond charge predicted
       N       E                     dE             d eps       ncg     rms          rms(c)
DAV:   1    -0.139331741815E+03    0.35652E-09   -0.12579E-12   168   0.225E-10    0.228E-10
RMM:   2    -0.139331741815E+03   -0.33106E-09    0.00000E+00     0   0.113E-10
 155 F= -.13933174E+03 E0= -.13934401E+03  d E =0.109139E-10
quench:  g(F)=  0.000E+00 g(S)=  0.000E+00 dE (1.order)= 0.000E+00
 bond charge predicted
       N       E                     dE             d eps       ncg     rms          rms(c)
DAV:   1    -0.139331741815E+03   -0.72760E-11    0.62889E-11   168   0.236E-10    0.220E-10
RMM:   2    -0.139331741815E+03   -0.41109E-09    0.00000E+00     0   0.124E-10
 156 F= -.13933174E+03 E0= -.13934401E+03  d E =-.873115E-10
quench:  g(F)=  0.000E+00 g(S)=  0.000E+00 dE (1.order)= 0.000E+00
 bond charge predicted
       N       E                     dE             d eps       ncg     rms          rms(c)
DAV:   1    -0.139331741815E+03   -0.26921E-09    0.25064E-11   168   0.194E-10    0.189E-10
RMM:   2    -0.139331741815E+03   -0.10550E-09    0.00000E+00     0   0.115E-10
 157 F= -.13933174E+03 E0= -.13934401E+03  d E =0.363798E-10
quench:  g(F)=  0.000E+00 g(S)=  0.000E+00 dE (1.order)= 0.000E+00
 bond charge predicted
       N       E                     dE             d eps       ncg     rms          rms(c)
DAV:   1    -0.139331741816E+03   -0.60390E-09    0.56942E-12   168   0.154E-10    0.224E-10
RMM:   2    -0.139331741815E+03    0.46566E-09    0.00000E+00     0   0.121E-10
 158 F= -.13933174E+03 E0= -.13934401E+03  d E =-.327418E-10
quench:  g(F)=  0.000E+00 g(S)=  0.000E+00 dE (1.order)= 0.000E+00
 bond charge predicted
       N       E                     dE             d eps       ncg     rms          rms(c)
DAV:   1    -0.139331741815E+03    0.50204E-09    0.13874E-11   168   0.193E-10    0.254E-10
RMM:   2    -0.139331741815E+03    0.25466E-10    0.00000E+00     0   0.112E-10
 159 F= -.13933174E+03 E0= -.13934401E+03  d E =0.618456E-10
quench:  g(F)=  0.000E+00 g(S)=  0.000E+00 dE (1.order)= 0.000E+00
 bond charge predicted
       N       E                     dE             d eps       ncg     rms          rms(c)
DAV:   1    -0.139331741816E+03   -0.55297E-09    0.59482E-11   168   0.215E-10    0.188E-10
RMM:   2    -0.139331741815E+03    0.56389E-09    0.00000E+00     0   0.101E-10
 160 F= -.13933174E+03 E0= -.13934401E+03  d E =-.145519E-10
quench:  g(F)=  0.000E+00 g(S)=  0.000E+00 dE (1.order)= 0.000E+00
 bond charge predicted
       N       E                     dE             d eps       ncg     rms          rms(c)
DAV:   1    -0.139331741815E+03    0.96406E-09    0.77049E-11   168   0.142E-10    0.276E-10
RMM:   2    -0.139331741815E+03   -0.41837E-09    0.00000E+00     0   0.116E-10
 161 F= -.13933174E+03 E0= -.13934401E+03  d E =-.181899E-10
quench:  g(F)=  0.000E+00 g(S)=  0.000E+00 dE (1.order)= 0.000E+00
 bond charge predicted
       N       E                     dE             d eps       ncg     rms          rms(c)
DAV:   1    -0.139331741816E+03   -0.10441E-08    0.19027E-11   168   0.137E-10    0.194E-10
RMM:   2    -0.139331741815E+03    0.67666E-09    0.00000E+00     0   0.112E-10
 162 F= -.13933174E+03 E0= -.13934401E+03  d E =0.509317E-10
quench:  g(F)=  0.000E+00 g(S)=  0.000E+00 dE (1.order)= 0.000E+00
 bond charge predicted
       N       E                     dE             d eps       ncg     rms          rms(c)
DAV:   1    -0.139331741815E+03    0.10805E-08    0.75789E-12   168   0.152E-10    0.217E-10
RMM:   2    -0.139331741815E+03   -0.42201E-09    0.00000E+00     0   0.107E-10
 163 F= -.13933174E+03 E0= -.13934401E+03  d E =-.181899E-10
quench:  g(F)=  0.000E+00 g(S)=  0.000E+00 dE (1.order)= 0.000E+00
 bond charge predicted
       N       E                     dE             d eps       ncg     rms          rms(c)
DAV:   1    -0.139331741815E+03   -0.17826E-09   -0.50744E-11   168   0.171E-10    0.261E-10
RMM:   2    -0.139331741815E+03   -0.28376E-09    0.00000E+00     0   0.119E-10
 164 F= -.13933174E+03 E0= -.13934401E+03  d E =-.400178E-10
quench:  g(F)=  0.000E+00 g(S)=  0.000E+00 dE (1.order)= 0.000E+00
 bond charge predicted
       N       E                     dE             d eps       ncg     rms          rms(c)
DAV:   1    -0.139331741815E+03   -0.20736E-09    0.21608E-11   168   0.204E-10    0.179E-10
RMM:   2    -0.139331741815E+03   -0.83674E-10    0.00000E+00     0   0.105E-10
 165 F= -.13933174E+03 E0= -.13934401E+03  d E =-.727596E-11
quench:  g(F)=  0.000E+00 g(S)=  0.000E+00 dE (1.order)= 0.000E+00
 bond charge predicted
       N       E                     dE             d eps       ncg     rms          rms(c)
DAV:   1    -0.139331741815E+03    0.30923E-09   -0.68367E-12   168   0.160E-10    0.150E-10
RMM:   2    -0.139331741815E+03   -0.32014E-09    0.00000E+00     0   0.103E-10
 166 F= -.13933174E+03 E0= -.13934401E+03  d E =0.727596E-10
quench:  g(F)=  0.000E+00 g(S)=  0.000E+00 dE (1.order)= 0.000E+00
 bond charge predicted
       N       E                     dE             d eps       ncg     rms          rms(c)
DAV:   1    -0.139331741815E+03    0.69122E-10    0.69291E-11   168   0.105E-10    0.287E-10
RMM:   2    -0.139331741815E+03   -0.50204E-09    0.00000E+00     0   0.117E-10
 167 F= -.13933174E+03 E0= -.13934401E+03  d E =-.112777E-09
quench:  g(F)=  0.000E+00 g(S)=  0.000E+00 dE (1.order)= 0.000E+00
 bond charge predicted
       N       E                     dE             d eps       ncg     rms          rms(c)
DAV:   1    -0.139331741816E+03   -0.16298E-08    0.82652E-11   168   0.250E-10    0.167E-10
RMM:   2    -0.139331741815E+03    0.12224E-08    0.00000E+00     0   0.944E-11
 168 F= -.13933174E+03 E0= -.13934401E+03  d E =0.945874E-10
quench:  g(F)=  0.000E+00 g(S)=  0.000E+00 dE (1.order)= 0.000E+00
 bond charge predicted
       N       E                     dE             d eps       ncg     rms          rms(c)
DAV:   1    -0.139331741816E+03    0.98589E-09    0.51836E-12   168   0.149E-10    0.210E-10
RMM:   2    -0.139331741815E+03    0.13824E-09    0.00000E+00     0   0.103E-10
 169 F= -.13933174E+03 E0= -.13934401E+03  d E =-.982254E-10
quench:  g(F)=  0.000E+00 g(S)=  0.000E+00 dE (1.order)= 0.000E+00
 bond charge predicted
       N       E                     dE             d eps       ncg     rms          rms(c)
DAV:   1    -0.139331741815E+03    0.92041E-09    0.21121E-11   168   0.171E-10    0.278E-10
RMM:   2    -0.139331741815E+03   -0.74579E-09    0.00000E+00     0   0.133E-10
 170 F= -.13933174E+03 E0= -.13934401E+03  d E =0.363798E-10
quench:  g(F)=  0.000E+00 g(S)=  0.000E+00 dE (1.order)= 0.000E+00
 bond charge predicted
       N       E                     dE             d eps       ncg     rms          rms(c)
DAV:   1    -0.139331741816E+03   -0.10441E-08   -0.10523E-12   168   0.190E-10    0.153E-10
RMM:   2    -0.139331741815E+03    0.32378E-09    0.00000E+00     0   0.807E-11
 171 F= -.13933174E+03 E0= -.13934401E+03  d E =0.254659E-10
quench:  g(F)=  0.000E+00 g(S)=  0.000E+00 dE (1.order)= 0.000E+00
 bond charge predicted
       N       E                     dE             d eps       ncg     rms          rms(c)
DAV:   1    -0.139331741815E+03    0.90949E-09   -0.35035E-11   168   0.150E-10    0.233E-10
RMM:   2    -0.139331741815E+03   -0.58935E-09    0.00000E+00     0   0.101E-10
 172 F= -.13933174E+03 E0= -.13934401E+03  d E =-.363798E-11
quench:  g(F)=  0.000E+00 g(S)=  0.000E+00 dE (1.order)= 0.000E+00
 bond charge predicted
       N       E                     dE             d eps       ncg     rms          rms(c)
DAV:   1    -0.139331741816E+03   -0.10550E-08    0.65483E-11   168   0.168E-10    0.237E-10
RMM:   2    -0.139331741815E+03    0.50568E-09    0.00000E+00     0   0.109E-10
 173 F= -.13933174E+03 E0= -.13934401E+03  d E =0.400178E-10
quench:  g(F)=  0.000E+00 g(S)=  0.000E+00 dE (1.order)= 0.000E+00
 bond charge predicted
       N       E                     dE             d eps       ncg     rms          rms(c)
DAV:   1    -0.139331741816E+03    0.26557E-09    0.85982E-13   168   0.148E-10    0.165E-10
RMM:   2    -0.139331741815E+03    0.16735E-09    0.00000E+00     0   0.867E-11
 174 F= -.13933174E+03 E0= -.13934401E+03  d E =-.727596E-10
quench:  g(F)=  0.000E+00 g(S)=  0.000E+00 dE (1.order)= 0.000E+00
 bond charge predicted
       N       E                     dE             d eps       ncg     rms          rms(c)
DAV:   1    -0.139331741815E+03    0.34197E-09    0.30749E-12   168   0.109E-10    0.210E-10
RMM:   2    -0.139331741815E+03   -0.18554E-09    0.00000E+00     0   0.100E-10
 175 F= -.13933174E+03 E0= -.13934401E+03  d E =-.109139E-10
quench:  g(F)=  0.000E+00 g(S)=  0.000E+00 dE (1.order)= 0.000E+00
 bond charge predicted
       N       E                     dE             d eps       ncg     rms          rms(c)
DAV:   1    -0.139331741816E+03   -0.12260E-08    0.87450E-11   168   0.135E-10    0.235E-10
RMM:   2    -0.139331741815E+03    0.11751E-08    0.00000E+00     0   0.113E-10
 176 F= -.13933174E+03 E0= -.13934401E+03  d E =0.134605E-09
quench:  g(F)=  0.000E+00 g(S)=  0.000E+00 dE (1.order)= 0.000E+00
 bond charge predicted
       N       E                     dE             d eps       ncg     rms          rms(c)
DAV:   1    -0.139331741816E+03   -0.14552E-10    0.20540E-11   168   0.214E-10    0.273E-10
RMM:   2    -0.139331741815E+03    0.10441E-08    0.00000E+00     0   0.120E-10
 177 F= -.13933174E+03 E0= -.13934401E+03  d E =-.145519E-09
quench:  g(F)=  0.000E+00 g(S)=  0.000E+00 dE (1.order)= 0.000E+00
 bond charge predicted
       N       E                     dE             d eps       ncg     rms          rms(c)
DAV:   1    -0.139331741815E+03    0.12369E-08    0.54564E-11   168   0.168E-10    0.267E-10
RMM:   2    -0.139331741815E+03   -0.72760E-10    0.00000E+00     0   0.131E-10
 178 F= -.13933174E+03 E0= -.13934401E+03  d E =0.120053E-09
quench:  g(F)=  0.000E+00 g(S)=  0.000E+00 dE (1.order)= 0.000E+00
 bond charge predicted
       N       E                     dE             d eps       ncg     rms          rms(c)
DAV:   1    -0.139331741815E+03    0.37471E-09    0.11705E-11   168   0.159E-10    0.220E-10
RMM:   2    -0.139331741815E+03   -0.52023E-09    0.00000E+00     0   0.109E-10
 179 F= -.13933174E+03 E0= -.13934401E+03  d E =-.727596E-10
quench:  g(F)=  0.000E+00 g(S)=  0.000E+00 dE (1.order)= 0.000E+00
 bond charge predicted
       N       E                     dE             d eps       ncg     rms          rms(c)
DAV:   1    -0.139331741815E+03    0.14916E-09    0.13072E-11   168   0.156E-10    0.227E-10
RMM:   2    -0.139331741815E+03   -0.69122E-09    0.00000E+00     0   0.114E-10
 180 F= -.13933174E+03 E0= -.13934401E+03  d E =-.218279E-10
quench:  g(F)=  0.000E+00 g(S)=  0.000E+00 dE (1.order)= 0.000E+00
 bond charge predicted
       N       E                     dE             d eps       ncg     rms          rms(c)
DAV:   1    -0.139331741815E+03   -0.49477E-09    0.59557E-13   168   0.162E-10    0.167E-10
RMM:   2    -0.139331741815E+03   -0.90949E-10    0.00000E+00     0   0.860E-11
 181 F= -.13933174E+03 E0= -.13934401E+03  d E =0.105501E-09
quench:  g(F)=  0.000E+00 g(S)=  0.000E+00 dE (1.order)= 0.000E+00
 bond charge predicted
       N       E                     dE             d eps       ncg     rms          rms(c)
DAV:   1    -0.139331741816E+03   -0.63301E-09    0.28168E-11   168   0.116E-10    0.225E-10
RMM:   2    -0.139331741815E+03    0.49113E-09    0.00000E+00     0   0.961E-11
 182 F= -.13933174E+03 E0= -.13934401E+03  d E =-.509317E-10
quench:  g(F)=  0.000E+00 g(S)=  0.000E+00 dE (1.order)= 0.000E+00
 bond charge predicted
       N       E                     dE             d eps       ncg     rms          rms(c)
DAV:   1    -0.139331741815E+03    0.31287E-09    0.99853E-11   168   0.111E-10    0.234E-10
RMM:   2    -0.139331741815E+03    0.22192E-09    0.00000E+00     0   0.108E-10
 183 F= -.13933174E+03 E0= -.13934401E+03  d E =0.436557E-10
quench:  g(F)=  0.000E+00 g(S)=  0.000E+00 dE (1.order)= 0.000E+00
 bond charge predicted
       N       E                     dE             d eps       ncg     rms          rms(c)
DAV:   1    -0.139331741815E+03    0.17826E-09    0.76649E-11   168   0.198E-10    0.188E-10
RMM:   2    -0.139331741815E+03   -0.47294E-10    0.00000E+00     0   0.101E-10
 184 F= -.13933174E+03 E0= -.13934401E+03  d E =-.909495E-10
quench:  g(F)=  0.000E+00 g(S)=  0.000E+00 dE (1.order)= 0.000E+00
[...]
 bond charge predicted
       N       E                     dE             d eps       ncg     rms          rms(c)
DAV:   1    -0.139331741816E+03   -0.11532E-08    0.48483E-12   168   0.152E-10    0.261E-10
RMM:   2    -0.139331741815E+03    0.17462E-09    0.00000E+00     0   0.110E-10
 453 F= -.13933174E+03 E0= -.13934401E+03  d E =-.145519E-09
quench:  g(F)=  0.000E+00 g(S)=  0.000E+00 dE (1.order)= 0.000E+00
 bond charge predicted
       N       E                     dE             d eps       ncg     rms          rms(c)
DAV:   1    -0.139331741815E+03    0.72760E-10   -0.13107E-12   168   0.208E-10    0.189E-10
RMM:   2    -0.139331741815E+03    0.26193E-09    0.00000E+00     0   0.115E-10
 454 F= -.13933174E+03 E0= -.13934401E+03  d E =0.160071E-09
quench:  g(F)=  0.000E+00 g(S)=  0.000E+00 dE (1.order)= 0.000E+00
 bond charge predicted
       N       E                     dE             d eps       ncg     rms          rms(c)
DAV:   1    -0.139331741815E+03    0.94951E-09    0.60857E-11   168   0.152E-10    0.162E-10
RMM:   2    -0.139331741815E+03   -0.82218E-09    0.00000E+00     0   0.953E-11
 455 F= -.13933174E+03 E0= -.13934401E+03  d E =-.134605E-09
quench:  g(F)=  0.000E+00 g(S)=  0.000E+00 dE (1.order)= 0.000E+00
 bond charge predicted
       N       E                     dE             d eps       ncg     rms          rms(c)
DAV:   1    -0.139331741815E+03   -0.90586E-09    0.31392E-11   168   0.175E-10    0.208E-10
RMM:   2    -0.139331741815E+03    0.87311E-10    0.00000E+00     0   0.115E-10
 456 F= -.13933174E+03 E0= -.13934401E+03  d E =0.363798E-11
quench:  g(F)=  0.000E+00 g(S)=  0.000E+00 dE (1.order)= 0.000E+00
 bond charge predicted
       N       E                     dE             d eps       ncg     rms          rms(c)
DAV:   1    -0.139331741815E+03    0.33106E-09    0.96713E-11   168   0.168E-10    0.186E-10
RMM:   2    -0.139331741815E+03   -0.15643E-09    0.00000E+00     0   0.902E-11
 457 F= -.13933174E+03 E0= -.13934401E+03  d E =0.873115E-10
quench:  g(F)=  0.000E+00 g(S)=  0.000E+00 dE (1.order)= 0.000E+00
 bond charge predicted
       N       E                     dE             d eps       ncg     rms          rms(c)
DAV:   1    -0.139331741815E+03    0.24011E-09    0.16754E-11   168   0.151E-10    0.180E-10
RMM:   2    -0.139331741815E+03   -0.48385E-09    0.00000E+00     0   0.117E-10
 458 F= -.13933174E+03 E0= -.13934401E+03  d E =-.873115E-10
quench:  g(F)=  0.000E+00 g(S)=  0.000E+00 dE (1.order)= 0.000E+00
 bond charge predicted
       N       E                     dE             d eps       ncg     rms          rms(c)
DAV:   1    -0.139331741815E+03   -0.18190E-09    0.63665E-11   168   0.165E-10    0.172E-10
RMM:   2    -0.139331741815E+03   -0.27649E-09    0.00000E+00     0   0.101E-10
 459 F= -.13933174E+03 E0= -.13934401E+03  d E =0.254659E-10
quench:  g(F)=  0.000E+00 g(S)=  0.000E+00 dE (1.order)= 0.000E+00
 bond charge predicted
       N       E                     dE             d eps       ncg     rms          rms(c)
DAV:   1    -0.139331741815E+03    0.98225E-10    0.56263E-11   168   0.123E-10    0.230E-10
RMM:   2    -0.139331741815E+03   -0.40018E-09    0.00000E+00     0   0.991E-11
 460 F= -.13933174E+03 E0= -.13934401E+03  d E =-.254659E-10
quench:  g(F)=  0.000E+00 g(S)=  0.000E+00 dE (1.order)= 0.000E+00
 bond charge predicted
       N       E                     dE             d eps       ncg     rms          rms(c)
DAV:   1    -0.139331741815E+03    0.15643E-09    0.50445E-11   168   0.151E-10    0.294E-10
RMM:   2    -0.139331741815E+03   -0.58208E-09    0.00000E+00     0   0.125E-10
 461 F= -.13933174E+03 E0= -.13934401E+03  d E =-.254659E-10
quench:  g(F)=  0.000E+00 g(S)=  0.000E+00 dE (1.order)= 0.000E+00
 bond charge predicted
       N       E                     dE             d eps       ncg     rms          rms(c)
DAV:   1    -0.139331741815E+03   -0.64392E-09   -0.53439E-11   168   0.144E-10    0.214E-10
RMM:   2    -0.139331741815E+03    0.22192E-09    0.00000E+00     0   0.109E-10
 462 F= -.13933174E+03 E0= -.13934401E+03  d E =0.160071E-09
quench:  g(F)=  0.000E+00 g(S)=  0.000E+00 dE (1.order)= 0.000E+00
 bond charge predicted
       N       E                     dE             d eps       ncg     rms          rms(c)
DAV:   1    -0.139331741814E+03    0.10441E-08    0.24802E-11   168   0.176E-10    0.143E-10
RMM:   2    -0.139331741815E+03   -0.96043E-09    0.00000E+00     0   0.107E-10
 463 F= -.13933174E+03 E0= -.13934401E+03  d E =-.138243E-09
quench:  g(F)=  0.000E+00 g(S)=  0.000E+00 dE (1.order)= 0.000E+00
 bond charge predicted
       N       E                     dE             d eps       ncg     rms          rms(c)
DAV:   1    -0.139331741815E+03   -0.57844E-09    0.57025E-11   168   0.128E-10    0.249E-10
RMM:   2    -0.139331741815E+03   -0.37471E-09    0.00000E+00     0   0.109E-10
 464 F= -.13933174E+03 E0= -.13934401E+03  d E =0.727596E-11
quench:  g(F)=  0.000E+00 g(S)=  0.000E+00 dE (1.order)= 0.000E+00
 bond charge predicted
       N       E                     dE             d eps       ncg     rms          rms(c)
DAV:   1    -0.139331741815E+03    0.34197E-09    0.43963E-11   168   0.223E-10    0.147E-10
RMM:   2    -0.139331741815E+03   -0.68394E-09    0.00000E+00     0   0.104E-10
 465 F= -.13933174E+03 E0= -.13934401E+03  d E =0.327418E-10
quench:  g(F)=  0.000E+00 g(S)=  0.000E+00 dE (1.order)= 0.000E+00
 bond charge predicted
       N       E                     dE             d eps       ncg     rms          rms(c)
DAV:   1    -0.139331741814E+03    0.57480E-09    0.69873E-11   168   0.134E-10    0.164E-10
RMM:   2    -0.139331741815E+03   -0.12587E-08    0.00000E+00     0   0.791E-11
 466 F= -.13933174E+03 E0= -.13934401E+03  d E =0.000000E+00
quench:  g(F)=  0.000E+00 g(S)=  0.000E+00 dE (1.order)= 0.000E+00
 bond charge predicted
       N       E                     dE             d eps       ncg     rms          rms(c)
DAV:   1    -0.139331741815E+03   -0.11642E-08    0.37275E-11   168   0.135E-10    0.187E-10
RMM:   2    -0.139331741815E+03   -0.10914E-09    0.00000E+00     0   0.926E-11
 467 F= -.13933174E+03 E0= -.13934401E+03  d E =-.145519E-10
quench:  g(F)=  0.000E+00 g(S)=  0.000E+00 dE (1.order)= 0.000E+00
 bond charge predicted
       N       E                     dE             d eps       ncg     rms          rms(c)
DAV:   1    -0.139331741815E+03    0.67303E-09    0.50800E-11   168   0.207E-10    0.277E-10
RMM:   2    -0.139331741815E+03   -0.70941E-09    0.00000E+00     0   0.140E-10
 468 F= -.13933174E+03 E0= -.13934401E+03  d E =0.727596E-10
quench:  g(F)=  0.000E+00 g(S)=  0.000E+00 dE (1.order)= 0.000E+00
 bond charge predicted
       N       E                     dE             d eps       ncg     rms          rms(c)
DAV:   1    -0.139331741815E+03   -0.72032E-09    0.26124E-11   168   0.197E-10    0.221E-10
RMM:   2    -0.139331741815E+03    0.29104E-10    0.00000E+00     0   0.108E-10
 469 F= -.13933174E+03 E0= -.13934401E+03  d E =0.181899E-10
quench:  g(F)=  0.000E+00 g(S)=  0.000E+00 dE (1.order)= 0.000E+00
 bond charge predicted
       N       E                     dE             d eps       ncg     rms          rms(c)
DAV:   1    -0.139331741816E+03   -0.85493E-09    0.50638E-11   168   0.174E-10    0.236E-10
RMM:   2    -0.139331741815E+03    0.86584E-09    0.00000E+00     0   0.114E-10
 470 F= -.13933174E+03 E0= -.13934401E+03  d E =-.181899E-10
quench:  g(F)=  0.000E+00 g(S)=  0.000E+00 dE (1.order)= 0.000E+00
 bond charge predicted
       N       E                     dE             d eps       ncg     rms          rms(c)
DAV:   1    -0.139331741816E+03    0.51659E-09    0.39270E-11   168   0.214E-10    0.176E-10
RMM:   2    -0.139331741815E+03    0.28740E-09    0.00000E+00     0   0.999E-11
 471 F= -.13933174E+03 E0= -.13934401E+03  d E =-.618456E-10
quench:  g(F)=  0.000E+00 g(S)=  0.000E+00 dE (1.order)= 0.000E+00
 bond charge predicted
       N       E                     dE             d eps       ncg     rms          rms(c)
DAV:   1    -0.139331741816E+03    0.14552E-10    0.75285E-11   168   0.164E-10    0.208E-10
RMM:   2    -0.139331741815E+03    0.28012E-09    0.00000E+00     0   0.883E-11
 472 F= -.13933174E+03 E0= -.13934401E+03  d E =0.727596E-11
quench:  g(F)=  0.000E+00 g(S)=  0.000E+00 dE (1.order)= 0.000E+00
 bond charge predicted
       N       E                     dE             d eps       ncg     rms          rms(c)
DAV:   1    -0.139331741814E+03    0.19209E-08    0.10581E-10   168   0.130E-10    0.180E-10
RMM:   2    -0.139331741815E+03   -0.15425E-08    0.00000E+00     0   0.881E-11
 473 F= -.13933174E+03 E0= -.13934401E+03  d E =0.982254E-10
quench:  g(F)=  0.000E+00 g(S)=  0.000E+00 dE (1.order)= 0.000E+00
 bond charge predicted
       N       E                     dE             d eps       ncg     rms          rms(c)
DAV:   1    -0.139331741816E+03   -0.18845E-08    0.26784E-11   168   0.153E-10    0.203E-10
RMM:   2    -0.139331741815E+03    0.21828E-09    0.00000E+00     0   0.972E-11
 474 F= -.13933174E+03 E0= -.13934401E+03  d E =-.123691E-09
quench:  g(F)=  0.000E+00 g(S)=  0.000E+00 dE (1.order)= 0.000E+00
 bond charge predicted
       N       E                     dE             d eps       ncg     rms          rms(c)
DAV:   1    -0.139331741816E+03   -0.36744E-09    0.91167E-11   168   0.175E-10    0.181E-10
RMM:   2    -0.139331741815E+03    0.65484E-09    0.00000E+00     0   0.945E-11
 475 F= -.13933174E+03 E0= -.13934401E+03  d E =0.691216E-10
quench:  g(F)=  0.000E+00 g(S)=  0.000E+00 dE (1.order)= 0.000E+00
 bond charge predicted
       N       E                     dE             d eps       ncg     rms          rms(c)
DAV:   1    -0.139331741815E+03    0.56025E-09   -0.10394E-11   168   0.157E-10    0.150E-10
RMM:   2    -0.139331741815E+03    0.83674E-10    0.00000E+00     0   0.856E-11
 476 F= -.13933174E+03 E0= -.13934401E+03  d E =-.109139E-10
quench:  g(F)=  0.000E+00 g(S)=  0.000E+00 dE (1.order)= 0.000E+00
 bond charge predicted
       N       E                     dE             d eps       ncg     rms          rms(c)
DAV:   1    -0.139331741815E+03    0.79308E-09    0.44716E-11   168   0.132E-10    0.160E-10
RMM:   2    -0.139331741815E+03   -0.69849E-09    0.00000E+00     0   0.113E-10
 477 F= -.13933174E+03 E0= -.13934401E+03  d E =0.109139E-10
quench:  g(F)=  0.000E+00 g(S)=  0.000E+00 dE (1.order)= 0.000E+00
 bond charge predicted
       N       E                     dE             d eps       ncg     rms          rms(c)
DAV:   1    -0.139331741815E+03   -0.53842E-09    0.73796E-12   168   0.137E-10    0.201E-10
RMM:   2    -0.139331741815E+03   -0.16735E-09    0.00000E+00     0   0.932E-11
 478 F= -.13933174E+03 E0= -.13934401E+03  d E =-.727596E-11
quench:  g(F)=  0.000E+00 g(S)=  0.000E+00 dE (1.order)= 0.000E+00
 bond charge predicted
       N       E                     dE             d eps       ncg     rms          rms(c)
DAV:   1    -0.139331741816E+03   -0.77125E-09    0.12865E-10   168   0.129E-10    0.187E-10
RMM:   2    -0.139331741815E+03    0.61118E-09    0.00000E+00     0   0.927E-11
 479 F= -.13933174E+03 E0= -.13934401E+03  d E =0.727596E-11
quench:  g(F)=  0.000E+00 g(S)=  0.000E+00 dE (1.order)= 0.000E+00
 bond charge predicted
       N       E                     dE             d eps       ncg     rms          rms(c)
DAV:   1    -0.139331741815E+03    0.13351E-08    0.13388E-10   168   0.151E-10    0.137E-10
RMM:   2    -0.139331741815E+03   -0.79672E-09    0.00000E+00     0   0.761E-11
 480 F= -.13933174E+03 E0= -.13934401E+03  d E =-.727596E-10
quench:  g(F)=  0.000E+00 g(S)=  0.000E+00 dE (1.order)= 0.000E+00
 bond charge predicted
       N       E                     dE             d eps       ncg     rms          rms(c)
DAV:   1    -0.139331741815E+03   -0.82946E-09    0.17831E-11   168   0.118E-10    0.233E-10
RMM:   2    -0.139331741815E+03    0.14188E-09    0.00000E+00     0   0.118E-10
 481 F= -.13933174E+03 E0= -.13934401E+03  d E =0.109139E-09
quench:  g(F)=  0.000E+00 g(S)=  0.000E+00 dE (1.order)= 0.000E+00
 bond charge predicted
       N       E                     dE             d eps       ncg     rms          rms(c)
DAV:   1    -0.139331741815E+03    0.62937E-09   -0.12111E-12   168   0.172E-10    0.168E-10
RMM:   2    -0.139331741815E+03   -0.54570E-09    0.00000E+00     0   0.900E-11
 482 F= -.13933174E+03 E0= -.13934401E+03  d E =-.582077E-10
quench:  g(F)=  0.000E+00 g(S)=  0.000E+00 dE (1.order)= 0.000E+00
 bond charge predicted
       N       E                     dE             d eps       ncg     rms          rms(c)
DAV:   1    -0.139331741816E+03   -0.10514E-08    0.57120E-11   168   0.133E-10    0.158E-10
RMM:   2    -0.139331741815E+03    0.49477E-09    0.00000E+00     0   0.884E-11
 483 F= -.13933174E+03 E0= -.13934401E+03  d E =-.109139E-10
quench:  g(F)=  0.000E+00 g(S)=  0.000E+00 dE (1.order)= 0.000E+00
 bond charge predicted
       N       E                     dE             d eps       ncg     rms          rms(c)
DAV:   1    -0.139331741816E+03    0.50932E-10    0.81993E-11   168   0.159E-10    0.114E-10
RMM:   2    -0.139331741815E+03    0.57480E-09    0.00000E+00     0   0.771E-11
 484 F= -.13933174E+03 E0= -.13934401E+03  d E =0.130967E-09
quench:  g(F)=  0.000E+00 g(S)=  0.000E+00 dE (1.order)= 0.000E+00
 bond charge predicted
       N       E                     dE             d eps       ncg     rms          rms(c)
DAV:   1    -0.139331741815E+03    0.64756E-09    0.51136E-11   168   0.124E-10    0.273E-10
RMM:   2    -0.139331741815E+03   -0.24738E-09    0.00000E+00     0   0.100E-10
 485 F= -.13933174E+03 E0= -.13934401E+03  d E =-.174623E-09
quench:  g(F)=  0.000E+00 g(S)=  0.000E+00 dE (1.order)= 0.000E+00
 bond charge predicted
       N       E                     dE             d eps       ncg     rms          rms(c)
DAV:   1    -0.139331741816E+03   -0.76398E-09    0.88661E-12   168   0.168E-10    0.184E-10
RMM:   2    -0.139331741815E+03    0.44747E-09    0.00000E+00     0   0.108E-10
 486 F= -.13933174E+03 E0= -.13934401E+03  d E =-.691216E-10
quench:  g(F)=  0.000E+00 g(S)=  0.000E+00 dE (1.order)= 0.000E+00
 bond charge predicted
       N       E                     dE             d eps       ncg     rms          rms(c)
DAV:   1    -0.139331741816E+03    0.10914E-10    0.85808E-11   168   0.176E-10    0.360E-10
RMM:   2    -0.139331741815E+03    0.52387E-09    0.00000E+00     0   0.165E-10
 487 F= -.13933174E+03 E0= -.13934401E+03  d E =0.873115E-10
quench:  g(F)=  0.000E+00 g(S)=  0.000E+00 dE (1.order)= 0.000E+00
 bond charge predicted
       N       E                     dE             d eps       ncg     rms          rms(c)
DAV:   1    -0.139331741816E+03   -0.26921E-09    0.38588E-11   168   0.322E-10    0.183E-10
RMM:   2    -0.139331741815E+03    0.90586E-09    0.00000E+00     0   0.115E-10
 488 F= -.13933174E+03 E0= -.13934401E+03  d E =0.112777E-09
quench:  g(F)=  0.000E+00 g(S)=  0.000E+00 dE (1.order)= 0.000E+00
 bond charge predicted
       N       E                     dE             d eps       ncg     rms          rms(c)
DAV:   1    -0.139331741815E+03    0.13133E-08    0.90680E-11   168   0.172E-10    0.223E-10
RMM:   2    -0.139331741815E+03   -0.51296E-09    0.00000E+00     0   0.119E-10
 489 F= -.13933174E+03 E0= -.13934401E+03  d E =-.105501E-09
quench:  g(F)=  0.000E+00 g(S)=  0.000E+00 dE (1.order)= 0.000E+00
 bond charge predicted
       N       E                     dE             d eps       ncg     rms          rms(c)
DAV:   1    -0.139331741815E+03   -0.36744E-09   -0.13304E-11   168   0.179E-10    0.191E-10
RMM:   2    -0.139331741815E+03   -0.10914E-09    0.00000E+00     0   0.979E-11
 490 F= -.13933174E+03 E0= -.13934401E+03  d E =0.363798E-10
quench:  g(F)=  0.000E+00 g(S)=  0.000E+00 dE (1.order)= 0.000E+00
 bond charge predicted
       N       E                     dE             d eps       ncg     rms          rms(c)
DAV:   1    -0.139331741816E+03   -0.82946E-09    0.14998E-11   168   0.170E-10    0.300E-10
RMM:   2    -0.139331741815E+03    0.77489E-09    0.00000E+00     0   0.113E-10
 491 F= -.13933174E+03 E0= -.13934401E+03  d E =0.545697E-10
quench:  g(F)=  0.000E+00 g(S)=  0.000E+00 dE (1.order)= 0.000E+00
 bond charge predicted
       N       E                     dE             d eps       ncg     rms          rms(c)
DAV:   1    -0.139331741815E+03    0.99681E-09    0.60679E-11   168   0.158E-10    0.183E-10
RMM:   2    -0.139331741815E+03   -0.18190E-09    0.00000E+00     0   0.117E-10
 492 F= -.13933174E+03 E0= -.13934401E+03  d E =0.400178E-10
quench:  g(F)=  0.000E+00 g(S)=  0.000E+00 dE (1.order)= 0.000E+00
 bond charge predicted
       N       E                     dE             d eps       ncg     rms          rms(c)
DAV:   1    -0.139331741815E+03   -0.36380E-11    0.98596E-11   168   0.135E-10    0.203E-10
RMM:   2    -0.139331741815E+03   -0.24738E-09    0.00000E+00     0   0.997E-11
 493 F= -.13933174E+03 E0= -.13934401E+03  d E =-.691216E-10
quench:  g(F)=  0.000E+00 g(S)=  0.000E+00 dE (1.order)= 0.000E+00
 bond charge predicted
       N       E                     dE             d eps       ncg     rms          rms(c)
DAV:   1    -0.139331741816E+03   -0.56389E-09    0.98160E-11   168   0.173E-10    0.190E-10
RMM:   2    -0.139331741815E+03    0.34197E-09    0.00000E+00     0   0.960E-11
 494 F= -.13933174E+03 E0= -.13934401E+03  d E =0.254659E-10
quench:  g(F)=  0.000E+00 g(S)=  0.000E+00 dE (1.order)= 0.000E+00
 bond charge predicted
       N       E                     dE             d eps       ncg     rms          rms(c)
DAV:   1    -0.139331741815E+03    0.24374E-09    0.23959E-12   168   0.161E-10    0.195E-10
RMM:   2    -0.139331741815E+03   -0.29104E-10    0.00000E+00     0   0.120E-10
 495 F= -.13933174E+03 E0= -.13934401E+03  d E =-.127329E-09
quench:  g(F)=  0.000E+00 g(S)=  0.000E+00 dE (1.order)= 0.000E+00
 bond charge predicted
       N       E                     dE             d eps       ncg     rms          rms(c)
DAV:   1    -0.139331741814E+03    0.11423E-08    0.56618E-11   168   0.219E-10    0.266E-10
RMM:   2    -0.139331741815E+03   -0.10841E-08    0.00000E+00     0   0.123E-10
 496 F= -.13933174E+03 E0= -.13934401E+03  d E =0.873115E-10
quench:  g(F)=  0.000E+00 g(S)=  0.000E+00 dE (1.order)= 0.000E+00
 bond charge predicted
       N       E                     dE             d eps       ncg     rms          rms(c)
DAV:   1    -0.139331741814E+03    0.29104E-10   -0.21874E-11   168   0.175E-10    0.386E-10
RMM:   2    -0.139331741815E+03   -0.12187E-08    0.00000E+00     0   0.147E-10
 497 F= -.13933174E+03 E0= -.13934401E+03  d E =-.105501E-09
quench:  g(F)=  0.000E+00 g(S)=  0.000E+00 dE (1.order)= 0.000E+00
 bond charge predicted
       N       E                     dE             d eps       ncg     rms          rms(c)
DAV:   1    -0.139331741816E+03   -0.15280E-08    0.67798E-11   168   0.267E-10    0.347E-10
RMM:   2    -0.139331741815E+03    0.35652E-09    0.00000E+00     0   0.148E-10
 498 F= -.13933174E+03 E0= -.13934401E+03  d E =0.472937E-10
quench:  g(F)=  0.000E+00 g(S)=  0.000E+00 dE (1.order)= 0.000E+00
 bond charge predicted
       N       E                     dE             d eps       ncg     rms          rms(c)
DAV:   1    -0.139331741815E+03    0.44020E-09    0.38763E-11   168   0.243E-10    0.243E-10
RMM:   2    -0.139331741815E+03   -0.72760E-11    0.00000E+00     0   0.140E-10
 499 F= -.13933174E+03 E0= -.13934401E+03  d E =0.763976E-10
quench:  g(F)=  0.000E+00 g(S)=  0.000E+00 dE (1.order)= 0.000E+00
 bond charge predicted
       N       E                     dE             d eps       ncg     rms          rms(c)
DAV:   1    -0.139331741815E+03    0.24738E-09    0.90736E-12   168   0.229E-10    0.299E-10
RMM:   2    -0.139331741815E+03   -0.22919E-09    0.00000E+00     0   0.134E-10
 500 F= -.13933174E+03 E0= -.13934401E+03  d E =0.254659E-10
quench:  g(F)=  0.000E+00 g(S)=  0.000E+00 dE (1.order)= 0.000E+00
