   3   3   0   0
  0.2665126E+02  0.7059920E-09  0.4156787E-09  0.3370188E-09  0.1500000E-16
   1.0000000000000000E-004
  CAR 
 unknown system                          
     13.20818904    -23.96172367  301      1.98357629      1.00000000
    -23.962  0.0000E+00  0.0000E+00
    -23.838  0.0000E+00  0.0000E+00
    -23.714  0.0000E+00  0.0000E+00
    -23.590  0.0000E+00  0.0000E+00
    -23.466  0.0000E+00  0.0000E+00
    -23.342  0.0000E+00  0.0000E+00
    -23.218  0.0000E+00  0.0000E+00
    -23.094  0.0000E+00  0.0000E+00
    -22.971  0.0000E+00  0.0000E+00
    -22.847  0.0000E+00  0.0000E+00
    -22.723  0.0000E+00  0.0000E+00
    -22.599  0.0000E+00  0.0000E+00
    -22.475  0.2042E-09  0.2530E-10
    -22.351  0.8606E-03  0.1066E-03
    -22.227  0.1927E+00  0.2398E-01
    -22.103  0.4327E+00  0.7759E-01
    -21.979  0.3716E-01  0.8219E-01
    -21.855  0.8164E-06  0.8219E-01
    -21.732  0.0000E+00  0.8219E-01
    -21.608  0.0000E+00  0.8219E-01
    -21.484  0.0000E+00  0.8219E-01
    -21.360  0.0000E+00  0.8219E-01
    -21.236  0.0000E+00  0.8219E-01
    -21.112  0.0000E+00  0.8219E-01
    -20.988  0.0000E+00  0.8219E-01
    -20.864  0.0000E+00  0.8219E-01
    -20.740  0.0000E+00  0.8219E-01
    -20.616  0.0000E+00  0.8219E-01
    -20.493  0.0000E+00  0.8219E-01
    -20.369  0.0000E+00  0.8219E-01
    -20.245  0.0000E+00  0.8219E-01
    -20.121  0.0000E+00  0.8219E-01
    -19.997  0.0000E+00  0.8219E-01
    -19.873  0.0000E+00  0.8219E-01
    -19.749  0.0000E+00  0.8219E-01
    -19.625  0.0000E+00  0.8219E-01
    -19.501  0.0000E+00  0.8219E-01
    -19.377  0.0000E+00  0.8219E-01
    -19.254  0.0000E+00  0.8219E-01
    -19.130  0.0000E+00  0.8219E-01
    -19.006  0.0000E+00  0.8219E-01
    -18.882  0.0000E+00  0.8219E-01
    -18.758  0.0000E+00  0.8219E-01
    -18.634  0.0000E+00  0.8219E-01
    -18.510  0.0000E+00  0.8219E-01
    -18.386  0.0000E+00  0.8219E-01
    -18.262  0.0000E+00  0.8219E-01
    -18.138  0.0000E+00  0.8219E-01
    -18.015  0.0000E+00  0.8219E-01
    -17.891  0.0000E+00  0.8219E-01
    -17.767  0.0000E+00  0.8219E-01
    -17.643  0.0000E+00  0.8219E-01
    -17.519  0.0000E+00  0.8219E-01
    -17.395  0.0000E+00  0.8219E-01
    -17.271  0.0000E+00  0.8219E-01
    -17.147  0.0000E+00  0.8219E-01
    -17.023  0.0000E+00  0.8219E-01
    -16.899  0.0000E+00  0.8219E-01
    -16.776  0.0000E+00  0.8219E-01
    -16.652  0.0000E+00  0.8219E-01
    -16.528  0.0000E+00  0.8219E-01
    -16.404  0.0000E+00  0.8219E-01
    -16.280  0.0000E+00  0.8219E-01
    -16.156  0.0000E+00  0.8219E-01
    -16.032  0.0000E+00  0.8219E-01
    -15.908  0.0000E+00  0.8219E-01
    -15.784  0.0000E+00  0.8219E-01
    -15.660  0.0000E+00  0.8219E-01
    -15.537  0.0000E+00  0.8219E-01
    -15.413  0.0000E+00  0.8219E-01
    -15.289  0.0000E+00  0.8219E-01
    -15.165  0.0000E+00  0.8219E-01
    -15.041  0.0000E+00  0.8219E-01
    -14.917  0.0000E+00  0.8219E-01
    -14.793  0.0000E+00  0.8219E-01
    -14.669  0.0000E+00  0.8219E-01
    -14.545  0.0000E+00  0.8219E-01
    -14.421  0.0000E+00  0.8219E-01
    -14.298  0.0000E+00  0.8219E-01
    -14.174  0.0000E+00  0.8219E-01
    -14.050  0.0000E+00  0.8219E-01
    -13.926  0.0000E+00  0.8219E-01
    -13.802  0.0000E+00  0.8219E-01
    -13.678  0.0000E+00  0.8219E-01
    -13.554  0.0000E+00  0.8219E-01
    -13.430  0.0000E+00  0.8219E-01
    -13.306  0.0000E+00  0.8219E-01
    -13.182  0.0000E+00  0.8219E-01
    -13.059  0.0000E+00  0.8219E-01
    -12.935  0.0000E+00  0.8219E-01
    -12.811  0.0000E+00  0.8219E-01
    -12.687  0.1195E-15  0.8219E-01
    -12.563  0.8205E-07  0.8219E-01
    -12.439  0.1034E-02  0.8232E-01
    -12.315  0.2943E-01  0.8597E-01
    -12.191  0.5102E-01  0.9229E-01
    -12.067  0.4117E-01  0.9739E-01
    -11.943  0.3236E-01  0.1014E+00
    -11.820  0.5354E-01  0.1080E+00
    -11.696  0.1254E-01  0.1096E+00
    -11.572  0.4081E-04  0.1096E+00
    -11.448  0.1267E-10  0.1096E+00
    -11.324  0.0000E+00  0.1096E+00
    -11.200  0.0000E+00  0.1096E+00
    -11.076  0.0000E+00  0.1096E+00
    -10.952  0.0000E+00  0.1096E+00
    -10.828  0.0000E+00  0.1096E+00
    -10.704  0.0000E+00  0.1096E+00
    -10.581  0.0000E+00  0.1096E+00
    -10.457  0.0000E+00  0.1096E+00
    -10.333  0.0000E+00  0.1096E+00
    -10.209  0.0000E+00  0.1096E+00
    -10.085  0.0000E+00  0.1096E+00
     -9.961  0.0000E+00  0.1096E+00
     -9.837  0.0000E+00  0.1096E+00
     -9.713  0.0000E+00  0.1096E+00
     -9.589  0.0000E+00  0.1096E+00
     -9.465  0.0000E+00  0.1096E+00
     -9.342  0.0000E+00  0.1096E+00
     -9.218  0.0000E+00  0.1096E+00
     -9.094  0.0000E+00  0.1096E+00
     -8.970  0.0000E+00  0.1096E+00
     -8.846  0.0000E+00  0.1096E+00
     -8.722  0.0000E+00  0.1096E+00
     -8.598  0.0000E+00  0.1096E+00
     -8.474  0.0000E+00  0.1096E+00
     -8.350  0.0000E+00  0.1096E+00
     -8.226  0.0000E+00  0.1096E+00
     -8.103  0.0000E+00  0.1096E+00
     -7.979  0.0000E+00  0.1096E+00
     -7.855  0.0000E+00  0.1096E+00
     -7.731  0.0000E+00  0.1096E+00
     -7.607  0.9431E-09  0.1096E+00
     -7.483  0.2174E-03  0.1096E+00
     -7.359  0.6196E-02  0.1104E+00
     -7.235  0.1222E-01  0.1119E+00
     -7.111  0.1327E-01  0.1135E+00
     -6.987  0.2985E-01  0.1172E+00
     -6.864  0.2106E-01  0.1198E+00
     -6.740  0.3146E-01  0.1237E+00
     -6.616  0.2386E-01  0.1267E+00
     -6.492  0.2966E-01  0.1304E+00
     -6.368  0.2170E-01  0.1331E+00
     -6.244  0.1785E-01  0.1353E+00
     -6.120  0.1089E-01  0.1366E+00
     -5.996  0.2887E-02  0.1370E+00
     -5.872  0.9897E-05  0.1370E+00
     -5.748  0.7213E-12  0.1370E+00
     -5.625  0.0000E+00  0.1370E+00
     -5.501  0.0000E+00  0.1370E+00
     -5.377  0.0000E+00  0.1370E+00
     -5.253  0.0000E+00  0.1370E+00
     -5.129  0.0000E+00  0.1370E+00
     -5.005  0.0000E+00  0.1370E+00
     -4.881  0.0000E+00  0.1370E+00
     -4.757  0.0000E+00  0.1370E+00
     -4.633  0.0000E+00  0.1370E+00
     -4.509  0.0000E+00  0.1370E+00
     -4.386  0.0000E+00  0.1370E+00
     -4.262  0.0000E+00  0.1370E+00
     -4.138  0.0000E+00  0.1370E+00
     -4.014  0.0000E+00  0.1370E+00
     -3.890  0.0000E+00  0.1370E+00
     -3.766  0.0000E+00  0.1370E+00
     -3.642  0.0000E+00  0.1370E+00
     -3.518  0.2541E-14  0.1370E+00
     -3.394  0.4155E-06  0.1370E+00
     -3.270  0.8201E-03  0.1371E+00
     -3.147  0.3373E-02  0.1375E+00
     -3.023  0.2273E-02  0.1378E+00
     -2.899  0.1200E-01  0.1393E+00
     -2.775  0.1594E-01  0.1412E+00
     -2.651  0.1508E-01  0.1431E+00
     -2.527  0.3162E-01  0.1470E+00
     -2.403  0.3063E-01  0.1508E+00
     -2.279  0.2347E-01  0.1537E+00
     -2.155  0.3711E-01  0.1583E+00
     -2.031  0.4906E-01  0.1644E+00
     -1.908  0.4303E-01  0.1697E+00
     -1.784  0.3400E-01  0.1740E+00
     -1.660  0.2454E-01  0.1770E+00
     -1.536  0.3569E-01  0.1814E+00
     -1.412  0.2401E-01  0.1844E+00
     -1.288  0.3755E-01  0.1890E+00
     -1.164  0.3148E-01  0.1929E+00
     -1.040  0.3728E-01  0.1976E+00
     -0.916  0.3956E-01  0.2025E+00
     -0.792  0.2567E-01  0.2056E+00
     -0.669  0.1252E-01  0.2072E+00
     -0.545  0.8559E-02  0.2083E+00
     -0.421  0.5122E-02  0.2089E+00
     -0.297  0.6610E-04  0.2089E+00
     -0.173  0.2066E-06  0.2089E+00
     -0.049  0.1747E-02  0.2091E+00
      0.075  0.2839E-01  0.2126E+00
      0.199  0.2626E-01  0.2159E+00
      0.323  0.8172E-02  0.2169E+00
      0.447  0.1467E-02  0.2171E+00
      0.570  0.3628E-02  0.2175E+00
      0.694  0.3246E-01  0.2216E+00
      0.818  0.3283E-01  0.2256E+00
      0.942  0.1633E-01  0.2276E+00
      1.066  0.1903E-01  0.2300E+00
      1.190  0.2420E-01  0.2330E+00
      1.314  0.1619E-01  0.2350E+00
      1.438  0.1332E-01  0.2367E+00
      1.562  0.1549E-01  0.2386E+00
      1.686  0.2294E-01  0.2414E+00
      1.809  0.1383E-01  0.2431E+00
      1.933  0.1934E-01  0.2455E+00
      2.057  0.2029E-01  0.2480E+00
      2.181  0.2396E-01  0.2510E+00
      2.305  0.2330E-01  0.2539E+00
      2.429  0.1956E-01  0.2563E+00
      2.553  0.2786E-01  0.2598E+00
      2.677  0.1273E-01  0.2614E+00
      2.801  0.8257E-02  0.2624E+00
      2.925  0.5191E-02  0.2630E+00
      3.048  0.4399E-02  0.2636E+00
      3.172  0.1102E-02  0.2637E+00
      3.296  0.8372E-02  0.2647E+00
      3.420  0.4258E-02  0.2653E+00
      3.544  0.1000E-01  0.2665E+00
      3.668  0.1996E-01  0.2690E+00
      3.792  0.1637E-01  0.2710E+00
      3.916  0.8557E-02  0.2721E+00
      4.040  0.1716E-02  0.2723E+00
      4.164  0.1089E-01  0.2736E+00
      4.287  0.1031E-01  0.2749E+00
      4.411  0.1442E-01  0.2767E+00
      4.535  0.1880E-01  0.2790E+00
      4.659  0.1447E-01  0.2808E+00
      4.783  0.7933E-02  0.2818E+00
      4.907  0.2067E-02  0.2821E+00
      5.031  0.1781E-01  0.2843E+00
      5.155  0.2677E-01  0.2876E+00
      5.279  0.2538E-01  0.2907E+00
      5.403  0.2409E-01  0.2937E+00
      5.526  0.3903E-01  0.2985E+00
      5.650  0.1996E-01  0.3010E+00
      5.774  0.1316E-01  0.3026E+00
      5.898  0.7013E-02  0.3035E+00
      6.022  0.5769E-02  0.3042E+00
      6.146  0.1586E-01  0.3062E+00
      6.270  0.2501E-01  0.3093E+00
      6.394  0.3734E-02  0.3098E+00
      6.518  0.1926E-01  0.3121E+00
      6.642  0.4274E-01  0.3174E+00
      6.765  0.1930E-01  0.3198E+00
      6.889  0.3044E-01  0.3236E+00
      7.013  0.1787E-01  0.3258E+00
      7.137  0.1877E-01  0.3281E+00
      7.261  0.2337E-01  0.3310E+00
      7.385  0.4346E-02  0.3316E+00
      7.509  0.2909E-01  0.3352E+00
      7.633  0.2493E-01  0.3383E+00
      7.757  0.3349E-01  0.3424E+00
      7.881  0.1809E-01  0.3447E+00
      8.004  0.2636E-01  0.3479E+00
      8.128  0.3386E-01  0.3521E+00
      8.252  0.2123E-01  0.3547E+00
      8.376  0.2135E-01  0.3574E+00
      8.500  0.2198E-01  0.3601E+00
      8.624  0.3525E-01  0.3645E+00
      8.748  0.2818E-01  0.3680E+00
      8.872  0.2660E-01  0.3713E+00
      8.996  0.1807E-01  0.3735E+00
      9.119  0.1583E-01  0.3755E+00
      9.243  0.2580E-01  0.3787E+00
      9.367  0.2703E-01  0.3820E+00
      9.491  0.5750E-01  0.3891E+00
      9.615  0.3336E-01  0.3933E+00
      9.739  0.4724E-01  0.3991E+00
      9.863  0.3320E-01  0.4032E+00
      9.987  0.6540E-01  0.4113E+00
     10.111  0.3815E-01  0.4161E+00
     10.235  0.1817E-01  0.4183E+00
     10.358  0.2001E-01  0.4208E+00
     10.482  0.1472E-01  0.4226E+00
     10.606  0.1164E-01  0.4241E+00
     10.730  0.2174E-01  0.4268E+00
     10.854  0.4090E-01  0.4318E+00
     10.978  0.1700E-01  0.4339E+00
     11.102  0.7490E-02  0.4349E+00
     11.226  0.1369E-01  0.4366E+00
     11.350  0.7327E-02  0.4375E+00
     11.474  0.1655E-02  0.4377E+00
     11.597  0.5441E-02  0.4383E+00
     11.721  0.7906E-04  0.4384E+00
     11.845  0.3004E-10  0.4384E+00
     11.969  0.0000E+00  0.4384E+00
     12.093  0.0000E+00  0.4384E+00
     12.217  0.0000E+00  0.4384E+00
     12.341  0.0000E+00  0.4384E+00
     12.465  0.0000E+00  0.4384E+00
     12.589  0.0000E+00  0.4384E+00
     12.713  0.0000E+00  0.4384E+00
     12.836  0.0000E+00  0.4384E+00
     12.960  0.0000E+00  0.4384E+00
     13.084  0.0000E+00  0.4384E+00
     13.208  0.0000E+00  0.4384E+00
