   3   3   0   0
  0.2665126E+02  0.7059920E-09  0.4156787E-09  0.3370188E-09  0.1500000E-16
   1.0000000000000000E-004
  CAR 
 unknown system                          
     26.20768267    -24.58070628  301      1.98355412      1.00000000
    -24.581  0.0000E+00  0.0000E+00
    -24.411  0.0000E+00  0.0000E+00
    -24.242  0.0000E+00  0.0000E+00
    -24.073  0.0000E+00  0.0000E+00
    -23.904  0.0000E+00  0.0000E+00
    -23.734  0.0000E+00  0.0000E+00
    -23.565  0.0000E+00  0.0000E+00
    -23.396  0.0000E+00  0.0000E+00
    -23.226  0.0000E+00  0.0000E+00
    -23.057  0.0000E+00  0.0000E+00
    -22.888  0.0000E+00  0.0000E+00
    -22.718  0.0000E+00  0.0000E+00
    -22.549  0.5964E-16  0.1010E-16
    -22.380  0.4901E-04  0.8297E-05
    -22.211  0.1880E+00  0.3184E-01
    -22.041  0.2969E+00  0.8211E-01
    -21.872  0.5110E-03  0.8219E-01
    -21.703  0.0000E+00  0.8219E-01
    -21.533  0.0000E+00  0.8219E-01
    -21.364  0.0000E+00  0.8219E-01
    -21.195  0.0000E+00  0.8219E-01
    -21.026  0.0000E+00  0.8219E-01
    -20.856  0.0000E+00  0.8219E-01
    -20.687  0.0000E+00  0.8219E-01
    -20.518  0.0000E+00  0.8219E-01
    -20.348  0.0000E+00  0.8219E-01
    -20.179  0.0000E+00  0.8219E-01
    -20.010  0.0000E+00  0.8219E-01
    -19.840  0.0000E+00  0.8219E-01
    -19.671  0.0000E+00  0.8219E-01
    -19.502  0.0000E+00  0.8219E-01
    -19.333  0.0000E+00  0.8219E-01
    -19.163  0.0000E+00  0.8219E-01
    -18.994  0.0000E+00  0.8219E-01
    -18.825  0.0000E+00  0.8219E-01
    -18.655  0.0000E+00  0.8219E-01
    -18.486  0.0000E+00  0.8219E-01
    -18.317  0.0000E+00  0.8219E-01
    -18.148  0.0000E+00  0.8219E-01
    -17.978  0.0000E+00  0.8219E-01
    -17.809  0.0000E+00  0.8219E-01
    -17.640  0.0000E+00  0.8219E-01
    -17.470  0.0000E+00  0.8219E-01
    -17.301  0.0000E+00  0.8219E-01
    -17.132  0.0000E+00  0.8219E-01
    -16.962  0.0000E+00  0.8219E-01
    -16.793  0.0000E+00  0.8219E-01
    -16.624  0.0000E+00  0.8219E-01
    -16.455  0.0000E+00  0.8219E-01
    -16.285  0.0000E+00  0.8219E-01
    -16.116  0.0000E+00  0.8219E-01
    -15.947  0.0000E+00  0.8219E-01
    -15.777  0.0000E+00  0.8219E-01
    -15.608  0.0000E+00  0.8219E-01
    -15.439  0.0000E+00  0.8219E-01
    -15.270  0.0000E+00  0.8219E-01
    -15.100  0.0000E+00  0.8219E-01
    -14.931  0.0000E+00  0.8219E-01
    -14.762  0.0000E+00  0.8219E-01
    -14.592  0.0000E+00  0.8219E-01
    -14.423  0.0000E+00  0.8219E-01
    -14.254  0.0000E+00  0.8219E-01
    -14.084  0.0000E+00  0.8219E-01
    -13.915  0.0000E+00  0.8219E-01
    -13.746  0.0000E+00  0.8219E-01
    -13.577  0.0000E+00  0.8219E-01
    -13.407  0.0000E+00  0.8219E-01
    -13.238  0.0000E+00  0.8219E-01
    -13.069  0.0000E+00  0.8219E-01
    -12.899  0.0000E+00  0.8219E-01
    -12.730  0.0000E+00  0.8219E-01
    -12.561  0.7709E-07  0.8219E-01
    -12.391  0.4291E-02  0.8292E-01
    -12.222  0.4853E-01  0.9113E-01
    -12.053  0.4047E-01  0.9798E-01
    -11.884  0.4025E-01  0.1048E+00
    -11.714  0.2818E-01  0.1096E+00
    -11.545  0.1176E-03  0.1096E+00
    -11.376  0.8156E-13  0.1096E+00
    -11.206  0.0000E+00  0.1096E+00
    -11.037  0.0000E+00  0.1096E+00
    -10.868  0.0000E+00  0.1096E+00
    -10.699  0.0000E+00  0.1096E+00
    -10.529  0.0000E+00  0.1096E+00
    -10.360  0.0000E+00  0.1096E+00
    -10.191  0.0000E+00  0.1096E+00
    -10.021  0.0000E+00  0.1096E+00
     -9.852  0.0000E+00  0.1096E+00
     -9.683  0.0000E+00  0.1096E+00
     -9.513  0.0000E+00  0.1096E+00
     -9.344  0.0000E+00  0.1096E+00
     -9.175  0.0000E+00  0.1096E+00
     -9.006  0.0000E+00  0.1096E+00
     -8.836  0.0000E+00  0.1096E+00
     -8.667  0.0000E+00  0.1096E+00
     -8.498  0.0000E+00  0.1096E+00
     -8.328  0.0000E+00  0.1096E+00
     -8.159  0.0000E+00  0.1096E+00
     -7.990  0.0000E+00  0.1096E+00
     -7.821  0.0000E+00  0.1096E+00
     -7.651  0.4959E-12  0.1096E+00
     -7.482  0.1693E-03  0.1096E+00
     -7.313  0.7968E-02  0.1110E+00
     -7.143  0.1160E-01  0.1129E+00
     -6.974  0.2756E-01  0.1176E+00
     -6.805  0.2528E-01  0.1219E+00
     -6.635  0.2696E-01  0.1264E+00
     -6.466  0.2615E-01  0.1309E+00
     -6.297  0.1970E-01  0.1342E+00
     -6.128  0.1405E-01  0.1366E+00
     -5.958  0.2393E-02  0.1370E+00
     -5.789  0.1634E-06  0.1370E+00
     -5.620  0.0000E+00  0.1370E+00
     -5.450  0.0000E+00  0.1370E+00
     -5.281  0.0000E+00  0.1370E+00
     -5.112  0.0000E+00  0.1370E+00
     -4.943  0.0000E+00  0.1370E+00
     -4.773  0.0000E+00  0.1370E+00
     -4.604  0.0000E+00  0.1370E+00
     -4.435  0.0000E+00  0.1370E+00
     -4.265  0.0000E+00  0.1370E+00
     -4.096  0.0000E+00  0.1370E+00
     -3.927  0.0000E+00  0.1370E+00
     -3.757  0.0000E+00  0.1370E+00
     -3.588  0.0000E+00  0.1370E+00
     -3.419  0.1848E-07  0.1370E+00
     -3.250  0.9081E-03  0.1371E+00
     -3.080  0.2599E-02  0.1376E+00
     -2.911  0.9021E-02  0.1391E+00
     -2.742  0.1612E-01  0.1418E+00
     -2.572  0.2231E-01  0.1456E+00
     -2.403  0.3082E-01  0.1508E+00
     -2.234  0.2510E-01  0.1551E+00
     -2.065  0.4677E-01  0.1630E+00
     -1.895  0.4150E-01  0.1700E+00
     -1.726  0.3302E-01  0.1756E+00
     -1.557  0.2960E-01  0.1806E+00
     -1.387  0.2516E-01  0.1849E+00
     -1.218  0.3752E-01  0.1912E+00
     -1.049  0.3572E-01  0.1973E+00
     -0.879  0.3690E-01  0.2035E+00
     -0.710  0.2081E-01  0.2071E+00
     -0.541  0.7341E-02  0.2083E+00
     -0.372  0.3583E-02  0.2089E+00
     -0.202  0.6809E-06  0.2089E+00
     -0.033  0.2356E-02  0.2093E+00
      0.136  0.3290E-01  0.2149E+00
      0.306  0.1129E-01  0.2168E+00
      0.475  0.1791E-02  0.2171E+00
      0.644  0.1364E-01  0.2194E+00
      0.813  0.3616E-01  0.2255E+00
      0.983  0.1577E-01  0.2282E+00
      1.152  0.1997E-01  0.2316E+00
      1.321  0.2063E-01  0.2351E+00
      1.491  0.1603E-01  0.2378E+00
      1.660  0.1882E-01  0.2410E+00
      1.829  0.1473E-01  0.2435E+00
      1.999  0.2034E-01  0.2469E+00
      2.168  0.2123E-01  0.2505E+00
      2.337  0.2547E-01  0.2548E+00
      2.506  0.1865E-01  0.2580E+00
      2.676  0.1999E-01  0.2613E+00
      2.845  0.7916E-02  0.2627E+00
      3.014  0.4775E-02  0.2635E+00
      3.184  0.1261E-02  0.2637E+00
      3.353  0.8731E-02  0.2652E+00
      3.522  0.5190E-02  0.2661E+00
      3.691  0.1877E-01  0.2692E+00
      3.861  0.1610E-01  0.2720E+00
      4.030  0.1458E-02  0.2722E+00
      4.199  0.1011E-01  0.2739E+00
      4.369  0.1258E-01  0.2761E+00
      4.538  0.1768E-01  0.2790E+00
      4.707  0.1331E-01  0.2813E+00
      4.877  0.3951E-02  0.2820E+00
      5.046  0.1598E-01  0.2847E+00
      5.215  0.2603E-01  0.2891E+00
      5.384  0.2315E-01  0.2930E+00
      5.554  0.3795E-01  0.2994E+00
      5.723  0.1444E-01  0.3019E+00
      5.892  0.9606E-02  0.3035E+00
      6.062  0.5445E-02  0.3044E+00
      6.231  0.2484E-01  0.3086E+00
      6.400  0.6734E-02  0.3098E+00
      6.570  0.2882E-01  0.3146E+00
      6.739  0.2652E-01  0.3191E+00
      6.908  0.2937E-01  0.3241E+00
      7.077  0.1290E-01  0.3263E+00
      7.247  0.2786E-01  0.3310E+00
      7.416  0.7405E-02  0.3323E+00
      7.585  0.2980E-01  0.3373E+00
      7.755  0.2980E-01  0.3423E+00
      7.924  0.2140E-01  0.3460E+00
      8.093  0.3029E-01  0.3511E+00
      8.262  0.2355E-01  0.3551E+00
      8.432  0.2256E-01  0.3589E+00
      8.601  0.2739E-01  0.3635E+00
      8.770  0.2875E-01  0.3684E+00
      8.940  0.2503E-01  0.3726E+00
      9.109  0.1563E-01  0.3753E+00
      9.278  0.2590E-01  0.3797E+00
      9.448  0.4311E-01  0.3870E+00
      9.617  0.3765E-01  0.3934E+00
      9.786  0.4578E-01  0.4011E+00
      9.955  0.4627E-01  0.4089E+00
     10.125  0.4397E-01  0.4164E+00
     10.294  0.2205E-01  0.4201E+00
     10.463  0.2576E-01  0.4245E+00
     10.633  0.1411E-01  0.4269E+00
     10.802  0.3857E-01  0.4334E+00
     10.971  0.3305E-01  0.4390E+00
     11.140  0.3027E-01  0.4441E+00
     11.310  0.6350E-01  0.4549E+00
     11.479  0.2182E-01  0.4585E+00
     11.648  0.1778E-01  0.4616E+00
     11.818  0.3203E-01  0.4670E+00
     11.987  0.4361E-01  0.4744E+00
     12.156  0.3746E-01  0.4807E+00
     12.326  0.2657E-01  0.4852E+00
     12.495  0.5057E-01  0.4938E+00
     12.664  0.3222E-01  0.4992E+00
     12.833  0.2606E-01  0.5036E+00
     13.003  0.3132E-01  0.5089E+00
     13.172  0.3383E-01  0.5147E+00
     13.341  0.2584E-01  0.5190E+00
     13.511  0.5267E-01  0.5280E+00
     13.680  0.4311E-01  0.5353E+00
     13.849  0.3296E-01  0.5408E+00
     14.018  0.3345E-01  0.5465E+00
     14.188  0.2639E-01  0.5510E+00
     14.357  0.3529E-01  0.5569E+00
     14.526  0.3603E-01  0.5630E+00
     14.696  0.3725E-01  0.5693E+00
     14.865  0.1059E-01  0.5711E+00
     15.034  0.3879E-01  0.5777E+00
     15.204  0.3257E-01  0.5832E+00
     15.373  0.1991E-01  0.5866E+00
     15.542  0.3710E-01  0.5929E+00
     15.711  0.1779E-01  0.5959E+00
     15.881  0.2764E-01  0.6006E+00
     16.050  0.4302E-01  0.6078E+00
     16.219  0.3147E-01  0.6132E+00
     16.389  0.4492E-01  0.6208E+00
     16.558  0.4140E-01  0.6278E+00
     16.727  0.4312E-01  0.6351E+00
     16.896  0.3290E-01  0.6407E+00
     17.066  0.2888E-01  0.6455E+00
     17.235  0.6085E-01  0.6558E+00
     17.404  0.5467E-01  0.6651E+00
     17.574  0.3069E-01  0.6703E+00
     17.743  0.1715E-01  0.6732E+00
     17.912  0.2984E-01  0.6783E+00
     18.082  0.3098E-01  0.6835E+00
     18.251  0.3721E-01  0.6898E+00
     18.420  0.5113E-01  0.6985E+00
     18.589  0.4252E-01  0.7057E+00
     18.759  0.4614E-01  0.7135E+00
     18.928  0.2923E-01  0.7184E+00
     19.097  0.3325E-01  0.7240E+00
     19.267  0.5302E-01  0.7330E+00
     19.436  0.3624E-01  0.7392E+00
     19.605  0.3429E-01  0.7450E+00
     19.774  0.1839E-01  0.7481E+00
     19.944  0.5053E-01  0.7566E+00
     20.113  0.4459E-01  0.7642E+00
     20.282  0.3903E-01  0.7708E+00
     20.452  0.4148E-01  0.7778E+00
     20.621  0.4868E-01  0.7860E+00
     20.790  0.3157E-01  0.7914E+00
     20.960  0.3094E-01  0.7966E+00
     21.129  0.3653E-01  0.8028E+00
     21.298  0.2940E-01  0.8078E+00
     21.467  0.4400E-01  0.8152E+00
     21.637  0.4634E-01  0.8231E+00
     21.806  0.3568E-01  0.8291E+00
     21.975  0.4980E-01  0.8376E+00
     22.145  0.5180E-01  0.8463E+00
     22.314  0.2495E-01  0.8505E+00
     22.483  0.2725E-01  0.8552E+00
     22.652  0.1890E-01  0.8584E+00
     22.822  0.1889E-01  0.8616E+00
     22.991  0.1990E-01  0.8649E+00
     23.160  0.1765E-01  0.8679E+00
     23.330  0.1864E-01  0.8711E+00
     23.499  0.1969E-01  0.8744E+00
     23.668  0.7205E-02  0.8756E+00
     23.838  0.2442E-02  0.8760E+00
     24.007  0.3976E-02  0.8767E+00
     24.176  0.2633E-05  0.8767E+00
     24.345  0.0000E+00  0.8767E+00
     24.515  0.0000E+00  0.8767E+00
     24.684  0.0000E+00  0.8767E+00
     24.853  0.0000E+00  0.8767E+00
     25.023  0.0000E+00  0.8767E+00
     25.192  0.0000E+00  0.8767E+00
     25.361  0.0000E+00  0.8767E+00
     25.531  0.0000E+00  0.8767E+00
     25.700  0.0000E+00  0.8767E+00
     25.869  0.0000E+00  0.8767E+00
     26.038  0.0000E+00  0.8767E+00
     26.208  0.0000E+00  0.8767E+00
