       N       E                     dE             d eps       ncg     rms          rms(c)
DAV:   1     0.238436261362E+02    0.23844E+02   -0.85095E+03  3200   0.427E+02
DAV:   2    -0.110956732860E+02   -0.34939E+02   -0.34898E+02  4704   0.561E+01
DAV:   3    -0.114243808454E+02   -0.32871E+00   -0.32869E+00  3328   0.733E+00
DAV:   4    -0.114255000147E+02   -0.11192E-02   -0.11192E-02  6208   0.470E-01
DAV:   5    -0.114255001115E+02   -0.96814E-07   -0.96790E-07  3328   0.348E-03    0.870E+00
DAV:   6    -0.111749917323E+02    0.25051E+00   -0.97110E-01  4736   0.171E+00    0.550E+00
DAV:   7    -0.111402531001E+02    0.34739E-01   -0.24101E-01  5056   0.102E+00    0.154E+00
DAV:   8    -0.111403934622E+02   -0.14036E-03   -0.27910E-02  5248   0.387E-01    0.322E-01
DAV:   9    -0.111410170141E+02   -0.62355E-03   -0.44640E-03  3968   0.163E-01    0.115E-01
DAV:  10    -0.111413410151E+02   -0.32400E-03   -0.44641E-04  5056   0.598E-02    0.598E-02
DAV:  11    -0.111415256328E+02   -0.18462E-03   -0.19999E-04  3744   0.383E-02    0.206E-02
DAV:  12    -0.111415506321E+02   -0.24999E-04   -0.50716E-05  5184   0.201E-02    0.107E-02
DAV:  13    -0.111415523162E+02   -0.16841E-05   -0.19991E-06  3936   0.375E-03    0.237E-03
DAV:  14    -0.111415523489E+02   -0.32619E-07   -0.32915E-07  5440   0.135E-03
   1 F= -.11141552E+02 E0= -.11140554E+02  d E =-.199666E-02
 Found     9 degrees of freedom:
 Adding 6 more for cell shape distortion
       N       E                     dE             d eps       ncg     rms          rms(c)
DAV:   1    -0.111992043841E+02   -0.57652E-01   -0.38472E+00  4288   0.893E+00    0.226E+00
DAV:   2    -0.111329375358E+02    0.66267E-01   -0.19409E-01  4544   0.160E+00    0.116E+00
DAV:   3    -0.111115813258E+02    0.21356E-01   -0.44594E-02  5024   0.733E-01    0.411E-01
DAV:   4    -0.111083532868E+02    0.32280E-02   -0.67472E-03  5056   0.260E-01    0.163E-01
DAV:   5    -0.111081210841E+02    0.23220E-03   -0.38144E-04  4256   0.977E-02    0.931E-02
DAV:   6    -0.111080637585E+02    0.57326E-04   -0.81013E-05  5184   0.434E-02    0.140E-02
DAV:   7    -0.111080654946E+02   -0.17361E-05   -0.44762E-06  4576   0.897E-03    0.730E-03
DAV:   8    -0.111080668489E+02   -0.13543E-05   -0.11594E-06  4832   0.348E-03    0.154E-03
DAV:   9    -0.111080670014E+02   -0.15246E-06   -0.11683E-07  3296   0.146E-03
   2 F= -.11108067E+02 E0= -.11107219E+02  d E =-.169520E-02
       N       E                     dE             d eps       ncg     rms          rms(c)
DAV:   1    -0.111552993960E+02   -0.47233E-01   -0.92998E-01  4864   0.422E+00    0.114E+00
DAV:   2    -0.111391206228E+02    0.16179E-01   -0.43915E-02  4224   0.776E-01    0.577E-01
DAV:   3    -0.111339851993E+02    0.51354E-02   -0.10388E-02  5184   0.380E-01    0.194E-01
DAV:   4    -0.111332924139E+02    0.69279E-03   -0.13000E-03  5056   0.125E-01    0.875E-02
DAV:   5    -0.111332397147E+02    0.52699E-04   -0.10019E-04  4256   0.516E-02    0.418E-02
DAV:   6    -0.111332365593E+02    0.31554E-05   -0.11472E-05  5216   0.166E-02    0.727E-03
DAV:   7    -0.111332364663E+02    0.93001E-07   -0.11896E-06  4224   0.495E-03
   3 F= -.11133236E+02 E0= -.11132320E+02  d E =-.183229E-02
       N       E                     dE             d eps       ncg     rms          rms(c)
DAV:   1    -0.112210158668E+02   -0.87779E-01   -0.38277E+00  4896   0.853E+00    0.236E+00
DAV:   2    -0.111550619780E+02    0.65954E-01   -0.16858E-01  3936   0.157E+00    0.120E+00
DAV:   3    -0.111336065780E+02    0.21455E-01   -0.39325E-02  5280   0.768E-01    0.366E-01
DAV:   4    -0.111312502399E+02    0.23563E-02   -0.34095E-03  4704   0.214E-01    0.179E-01
DAV:   5    -0.111310138807E+02    0.23636E-03   -0.42782E-04  4896   0.108E-01    0.683E-02
DAV:   6    -0.111310060254E+02    0.78553E-05   -0.25975E-05  4704   0.247E-02    0.155E-02
DAV:   7    -0.111310064530E+02   -0.42754E-06   -0.41665E-06  4992   0.944E-03
   4 F= -.11131006E+02 E0= -.11129952E+02  d E =-.210804E-02
       N       E                     dE             d eps       ncg     rms          rms(c)
DAV:   1    -0.111227291017E+02    0.82769E-02   -0.10014E+00  4736   0.446E+00    0.121E+00
DAV:   2    -0.111055413457E+02    0.17188E-01   -0.42566E-02  4064   0.808E-01    0.617E-01
DAV:   3    -0.110998903467E+02    0.56510E-02   -0.99704E-03  5472   0.404E-01    0.180E-01
DAV:   4    -0.110993345562E+02    0.55579E-03   -0.69895E-04  4512   0.102E-01    0.880E-02
DAV:   5    -0.110992777000E+02    0.56856E-04   -0.11499E-04  5024   0.552E-02    0.299E-02
DAV:   6    -0.110992777390E+02   -0.38940E-07   -0.56140E-06  4576   0.113E-02
   5 F= -.11099278E+02 E0= -.11098246E+02  d E =-.206317E-02
       N       E                     dE             d eps       ncg     rms          rms(c)
DAV:   1    -0.114296592671E+02   -0.33038E+00   -0.99157E+00  3424   0.163E+01    0.366E+00
DAV:   2    -0.112077572877E+02    0.22190E+00   -0.59469E-01  5056   0.283E+00    0.189E+00
DAV:   3    -0.111431568980E+02    0.64600E-01   -0.14917E-01  4672   0.140E+00    0.546E-01
DAV:   4    -0.111371315355E+02    0.60254E-02   -0.10435E-02  5152   0.299E-01    0.318E-01
DAV:   5    -0.111362063198E+02    0.92522E-03   -0.96736E-04  4320   0.137E-01    0.167E-01
DAV:   6    -0.111359735665E+02    0.23275E-03   -0.13634E-04  4960   0.435E-02    0.303E-02
DAV:   7    -0.111359768056E+02   -0.32391E-05   -0.70075E-06  4896   0.916E-03    0.139E-02
DAV:   8    -0.111359792405E+02   -0.24349E-05   -0.33262E-06  4384   0.468E-03    0.420E-03
DAV:   9    -0.111359795854E+02   -0.34497E-06   -0.17639E-07  4128   0.112E-03
   6 F= -.11135980E+02 E0= -.11135115E+02  d E =-.172998E-02
       N       E                     dE             d eps       ncg     rms          rms(c)
DAV:   1    -0.111677136962E+02   -0.31734E-01   -0.10078E+00  3840   0.421E+00    0.965E-01
DAV:   2    -0.111478535105E+02    0.19860E-01   -0.46070E-02  4864   0.785E-01    0.548E-01
DAV:   3    -0.111418036227E+02    0.60499E-02   -0.14797E-02  5024   0.417E-01    0.163E-01
DAV:   4    -0.111414566043E+02    0.34702E-03   -0.56743E-04  4160   0.771E-02    0.115E-01
DAV:   5    -0.111413904291E+02    0.66175E-04   -0.92186E-05  4896   0.362E-02    0.564E-02
DAV:   6    -0.111413826957E+02    0.77334E-05   -0.21972E-05  4576   0.202E-02    0.986E-03
DAV:   7    -0.111413840158E+02   -0.13201E-05   -0.16150E-06  4544   0.442E-03    0.373E-03
DAV:   8    -0.111413843120E+02   -0.29619E-06   -0.49339E-07  3872   0.208E-03
   7 F= -.11141384E+02 E0= -.11140484E+02  d E =-.180004E-02
       N       E                     dE             d eps       ncg     rms          rms(c)
DAV:   1    -0.112438021018E+02   -0.10242E+00   -0.41763E+00  3680   0.853E+00    0.197E+00
DAV:   2    -0.111628076514E+02    0.80994E-01   -0.19017E-01  4992   0.161E+00    0.113E+00
DAV:   3    -0.111374484905E+02    0.25359E-01   -0.59586E-02  4768   0.842E-01    0.334E-01
DAV:   4    -0.111359201466E+02    0.15283E-02   -0.23568E-03  4384   0.158E-01    0.241E-01
DAV:   5    -0.111356210407E+02    0.29911E-03   -0.37412E-04  4864   0.722E-02    0.118E-01
DAV:   6    -0.111355762046E+02    0.44836E-04   -0.10134E-04  4448   0.411E-02    0.203E-02
DAV:   7    -0.111355808600E+02   -0.46553E-05   -0.61674E-06  4448   0.893E-03    0.802E-03
DAV:   8    -0.111355822028E+02   -0.13428E-05   -0.20992E-06  4192   0.440E-03    0.361E-03
DAV:   9    -0.111355820481E+02    0.15472E-06   -0.91278E-08  4032   0.861E-04
   8 F= -.11135582E+02 E0= -.11134373E+02  d E =-.241757E-02
       N       E                     dE             d eps       ncg     rms          rms(c)
DAV:   1    -0.111512388205E+02   -0.15657E-01   -0.10992E+00  3872   0.447E+00    0.101E+00
DAV:   2    -0.111299260940E+02    0.21313E-01   -0.48460E-02  4704   0.821E-01    0.578E-01
DAV:   3    -0.111230976397E+02    0.68285E-02   -0.16160E-02  4736   0.444E-01    0.170E-01
DAV:   4    -0.111227126111E+02    0.38503E-03   -0.58936E-04  4256   0.812E-02    0.124E-01
DAV:   5    -0.111226341546E+02    0.78457E-04   -0.10512E-04  5024   0.385E-02    0.586E-02
DAV:   6    -0.111226260413E+02    0.81133E-05   -0.24903E-05  4448   0.202E-02    0.104E-02
DAV:   7    -0.111226274403E+02   -0.13990E-05   -0.16261E-06  4576   0.446E-03    0.386E-03
DAV:   8    -0.111226276620E+02   -0.22170E-06   -0.48551E-07  4192   0.220E-03
   9 F= -.11122628E+02 E0= -.11121363E+02  d E =-.253008E-02
       N       E                     dE             d eps       ncg     rms          rms(c)
DAV:   1    -0.114703329642E+02   -0.34771E+00   -0.10662E+01  3424   0.162E+01    0.341E+00
DAV:   2    -0.112069224462E+02    0.26341E+00   -0.61601E-01  5056   0.293E+00    0.177E+00
DAV:   3    -0.111345791926E+02    0.72343E-01   -0.19228E-01  4576   0.160E+00    0.541E-01
DAV:   4    -0.111299669485E+02    0.46122E-02   -0.70308E-03  4288   0.263E-01    0.420E-01
DAV:   5    -0.111288713827E+02    0.10956E-02   -0.80853E-04  5152   0.107E-01    0.244E-01
DAV:   6    -0.111284663767E+02    0.40501E-03   -0.28517E-04  4224   0.722E-02    0.274E-02
DAV:   7    -0.111284737718E+02   -0.73950E-05   -0.14527E-05  4864   0.137E-02    0.136E-02
DAV:   8    -0.111284782717E+02   -0.45000E-05   -0.70126E-06  3712   0.719E-03    0.888E-03
DAV:   9    -0.111284783670E+02   -0.95251E-07   -0.40581E-07  4960   0.170E-03
  10 F= -.11128478E+02 E0= -.11126947E+02  d E =-.306180E-02
       N       E                     dE             d eps       ncg     rms          rms(c)
DAV:   1    -0.111660661687E+02   -0.37588E-01   -0.11200E+00  3584   0.422E+00    0.979E-01
DAV:   2    -0.111443396627E+02    0.21727E-01   -0.44810E-02  4992   0.822E-01    0.568E-01
DAV:   3    -0.111370636356E+02    0.72760E-02   -0.14678E-02  4608   0.426E-01    0.173E-01
DAV:   4    -0.111364705914E+02    0.59304E-03   -0.93717E-04  4864   0.912E-02    0.126E-01
DAV:   5    -0.111364056384E+02    0.64953E-04   -0.74651E-05  4864   0.303E-02    0.724E-02
DAV:   6    -0.111363894154E+02    0.16223E-04   -0.50090E-05  5024   0.239E-02    0.805E-03
DAV:   7    -0.111363906696E+02   -0.12542E-05   -0.17337E-06  4224   0.425E-03    0.316E-03
DAV:   8    -0.111363908375E+02   -0.16795E-06   -0.37862E-07  4800   0.194E-03
  11 F= -.11136391E+02 E0= -.11135055E+02  d E =-.267234E-02
       N       E                     dE             d eps       ncg     rms          rms(c)
DAV:   1    -0.112638580280E+02   -0.12747E+00   -0.46335E+00  3840   0.852E+00    0.200E+00
DAV:   2    -0.111758454429E+02    0.88013E-01   -0.17645E-01  4832   0.166E+00    0.116E+00
DAV:   3    -0.111459569718E+02    0.29888E-01   -0.61736E-02  4512   0.882E-01    0.347E-01
DAV:   4    -0.111438326656E+02    0.21243E-02   -0.34474E-03  4832   0.172E-01    0.268E-01
DAV:   5    -0.111435672108E+02    0.26545E-03   -0.28770E-04  4864   0.616E-02    0.155E-01
DAV:   6    -0.111434791465E+02    0.88064E-04   -0.18942E-04  4896   0.475E-02    0.158E-02
DAV:   7    -0.111434825430E+02   -0.33966E-05   -0.56281E-06  4032   0.836E-03    0.669E-03
DAV:   8    -0.111434833592E+02   -0.81613E-06   -0.13009E-06  4480   0.369E-03
  12 F= -.11143483E+02 E0= -.11142627E+02  d E =-.171329E-02
       N       E                     dE             d eps       ncg     rms          rms(c)
DAV:   1    -0.111725227435E+02   -0.29040E-01   -0.12142E+00  3808   0.442E+00    0.102E+00
DAV:   2    -0.111494193266E+02    0.23103E-01   -0.46109E-02  5152   0.856E-01    0.597E-01
DAV:   3    -0.111417943458E+02    0.76250E-02   -0.15432E-02  4576   0.444E-01    0.176E-01
DAV:   4    -0.111412819914E+02    0.51235E-03   -0.82200E-04  4736   0.858E-02    0.134E-01
DAV:   5    -0.111412133104E+02    0.68681E-04   -0.68028E-05  4928   0.297E-02    0.770E-02
DAV:   6    -0.111411916733E+02    0.21637E-04   -0.45181E-05  4704   0.234E-02    0.806E-03
DAV:   7    -0.111411923459E+02   -0.67266E-06   -0.12531E-06  4384   0.382E-03
  13 F= -.11141192E+02 E0= -.11140393E+02  d E =-.159878E-02
       N       E                     dE             d eps       ncg     rms          rms(c)
DAV:   1    -0.113147393819E+02   -0.17355E+00   -0.69602E+00  4576   0.105E+01    0.248E+00
DAV:   2    -0.111804282960E+02    0.13431E+00   -0.26617E-01  4448   0.191E+00    0.127E+00
DAV:   3    -0.111379368302E+02    0.42491E-01   -0.94899E-02  5152   0.103E+00    0.432E-01
DAV:   4    -0.111350420152E+02    0.28948E-02   -0.39263E-03  4384   0.219E-01    0.312E-01
DAV:   5    -0.111345065060E+02    0.53551E-03   -0.69949E-04  5504   0.917E-02    0.907E-02
DAV:   6    -0.111344944580E+02    0.12048E-04   -0.10171E-04  3840   0.331E-02    0.220E-02
DAV:   7    -0.111345036302E+02   -0.91722E-05   -0.14403E-05  4032   0.109E-02    0.110E-02
DAV:   8    -0.111345057468E+02   -0.21166E-05   -0.22644E-06  4544   0.522E-03    0.314E-03
DAV:   9    -0.111345064096E+02   -0.66276E-06   -0.66727E-07  3936   0.210E-03
  14 F= -.11134506E+02 E0= -.11133517E+02  d E =-.197912E-02
       N       E                     dE             d eps       ncg     rms          rms(c)
DAV:   1    -0.111480836675E+02   -0.13578E-01   -0.42809E-01  5120   0.224E+00    0.634E-01
DAV:   2    -0.111426934670E+02    0.53902E-02   -0.10705E-02  3936   0.289E-01    0.311E-01
DAV:   3    -0.111407317164E+02    0.19618E-02   -0.34828E-03  5696   0.153E-01    0.113E-01
DAV:   4    -0.111405587560E+02    0.17296E-03   -0.35436E-04  4544   0.596E-02    0.451E-02
DAV:   5    -0.111405533029E+02    0.54531E-05   -0.38855E-05  4576   0.194E-02    0.203E-02
DAV:   6    -0.111405557409E+02   -0.24380E-05   -0.55178E-06  4224   0.716E-03    0.500E-03
DAV:   7    -0.111405567662E+02   -0.10253E-05   -0.86374E-07  4032   0.292E-03    0.168E-03
DAV:   8    -0.111405569021E+02   -0.13585E-06   -0.23075E-07  4128   0.122E-03
  15 F= -.11140557E+02 E0= -.11139587E+02  d E =-.193894E-02
       N       E                     dE             d eps       ncg     rms          rms(c)
DAV:   1    -0.111677136033E+02   -0.27157E-01   -0.17180E+00  5280   0.450E+00    0.126E+00
DAV:   2    -0.111462085297E+02    0.21505E-01   -0.43030E-02  3968   0.569E-01    0.624E-01
DAV:   3    -0.111383215241E+02    0.78870E-02   -0.14012E-02  5696   0.293E-01    0.231E-01
DAV:   4    -0.111375640393E+02    0.75748E-03   -0.16739E-03  4544   0.118E-01    0.884E-02
DAV:   5    -0.111375386675E+02    0.25372E-04   -0.17647E-04  4960   0.402E-02    0.426E-02
DAV:   6    -0.111375481806E+02   -0.95131E-05   -0.22977E-05  3808   0.145E-02    0.106E-02
DAV:   7    -0.111375523014E+02   -0.41208E-05   -0.36572E-06  4576   0.605E-03    0.352E-03
DAV:   8    -0.111375529981E+02   -0.69674E-06   -0.10544E-06  3744   0.256E-03
  16 F= -.11137553E+02 E0= -.11136461E+02  d E =-.218356E-02
       N       E                     dE             d eps       ncg     rms          rms(c)
DAV:   1    -0.111362726023E+02    0.12797E-02   -0.43091E-01  5440   0.225E+00    0.631E-01
DAV:   2    -0.111308684511E+02    0.54042E-02   -0.10776E-02  3936   0.284E-01    0.312E-01
DAV:   3    -0.111288711373E+02    0.19973E-02   -0.35531E-03  5632   0.154E-01    0.117E-01
DAV:   4    -0.111286680624E+02    0.20307E-03   -0.46934E-04  4512   0.631E-02    0.437E-02
DAV:   5    -0.111286622047E+02    0.58577E-05   -0.49082E-05  4960   0.211E-02    0.218E-02
DAV:   6    -0.111286650670E+02   -0.28623E-05   -0.59599E-06  3808   0.739E-03    0.543E-03
DAV:   7    -0.111286661939E+02   -0.11269E-05   -0.96109E-07  4704   0.308E-03    0.181E-03
DAV:   8    -0.111286663637E+02   -0.16973E-06   -0.29208E-07  3936   0.134E-03
  17 F= -.11128666E+02 E0= -.11127506E+02  d E =-.232085E-02
       N       E                     dE             d eps       ncg     rms          rms(c)
DAV:   1    -0.111873715183E+02   -0.58705E-01   -0.32406E+00  8064   0.620E+00    0.164E+00
DAV:   2    -0.111552892831E+02    0.32082E-01   -0.56676E-02  5696   0.743E-01    0.844E-01
DAV:   3    -0.111427123080E+02    0.12577E-01   -0.21329E-02  8768   0.478E-01    0.272E-01
DAV:   4    -0.111418908894E+02    0.82142E-03   -0.19463E-03  6112   0.180E-01    0.102E-01
DAV:   5    -0.111418704229E+02    0.20467E-04   -0.24701E-04  7776   0.546E-02    0.466E-02
DAV:   6    -0.111418819483E+02   -0.11525E-04   -0.33968E-05  5792   0.188E-02    0.114E-02
DAV:   7    -0.111418869431E+02   -0.49948E-05   -0.46189E-06  7616   0.687E-03    0.386E-03
DAV:   8    -0.111418879888E+02   -0.10456E-05   -0.12479E-06  5568   0.302E-03    0.950E-04
DAV:   9    -0.111418880698E+02   -0.81023E-07   -0.12259E-07  7872   0.957E-04
  18 F= -.11141888E+02 E0= -.11140909E+02  d E =-.195848E-02
       N       E                     dE             d eps       ncg     rms          rms(c)
DAV:   1    -0.111450225034E+02   -0.31345E-02   -0.12216E+00  7584   0.350E+00    0.492E-01
DAV:   2    -0.111427874980E+02    0.22350E-02   -0.70076E-03  5792   0.309E-01    0.287E-01
DAV:   3    -0.111416465560E+02    0.11409E-02   -0.20861E-03  8832   0.178E-01    0.483E-02
DAV:   4    -0.111416418700E+02    0.46860E-05   -0.60975E-05  5248   0.345E-02    0.159E-02
DAV:   5    -0.111416437485E+02   -0.18785E-05   -0.74046E-06  8480   0.962E-03    0.329E-03
DAV:   6    -0.111416440816E+02   -0.33302E-06   -0.31637E-07  5248   0.182E-03
  19 F= -.11141644E+02 E0= -.11140651E+02  d E =-.198653E-02
       N       E                     dE             d eps       ncg     rms          rms(c)
DAV:   1    -0.111569137614E+02   -0.15270E-01   -0.10231E+00  7744   0.301E+00    0.979E-01
DAV:   2    -0.111462788791E+02    0.10635E-01   -0.93839E-03  6112   0.348E-01    0.575E-01
DAV:   3    -0.111416591360E+02    0.46197E-02   -0.83965E-03  8576   0.339E-01    0.925E-02
DAV:   4    -0.111416383533E+02    0.20783E-04   -0.38412E-04  5888   0.734E-02    0.154E-02
DAV:   5    -0.111416423581E+02   -0.40048E-05   -0.11641E-05  8416   0.139E-02    0.704E-03
DAV:   6    -0.111416438281E+02   -0.14700E-05   -0.12261E-06  6432   0.320E-03    0.250E-03
DAV:   7    -0.111416442015E+02   -0.37341E-06   -0.29434E-07  7072   0.149E-03
  20 F= -.11141644E+02 E0= -.11140651E+02  d E =-.198655E-02
       N       E                     dE             d eps       ncg     rms          rms(c)
DAV:   1    -0.111453089076E+02   -0.36651E-02   -0.12994E+00  7648   0.347E+00    0.489E-01
DAV:   2    -0.111430554473E+02    0.22535E-02   -0.61285E-03  5696   0.293E-01    0.288E-01
DAV:   3    -0.111418926171E+02    0.11628E-02   -0.22608E-03  8736   0.184E-01    0.464E-02
DAV:   4    -0.111418862267E+02    0.63903E-05   -0.99611E-05  5440   0.353E-02    0.113E-02
DAV:   5    -0.111418875843E+02   -0.13576E-05   -0.28131E-06  8704   0.840E-03    0.365E-03
DAV:   6    -0.111418880077E+02   -0.42342E-06   -0.35156E-07  5536   0.188E-03
  21 F= -.11141888E+02 E0= -.11140909E+02  d E =-.195855E-02
       N       E                     dE             d eps       ncg     rms          rms(c)
DAV:   1    -0.111720941827E+02   -0.30207E-01   -0.28840E+00  7616   0.586E+00    0.139E+00
DAV:   2    -0.111503071679E+02    0.21787E-01   -0.23561E-02  5568   0.549E-01    0.816E-01
DAV:   3    -0.111407967474E+02    0.95104E-02   -0.17945E-02  8960   0.462E-01    0.137E-01
DAV:   4    -0.111407495196E+02    0.47228E-04   -0.70449E-04  5248   0.100E-01    0.256E-02
DAV:   5    -0.111407597134E+02   -0.10194E-04   -0.27120E-05  8864   0.212E-02    0.974E-03
DAV:   6    -0.111407623938E+02   -0.26804E-05   -0.21134E-06  5824   0.430E-03    0.466E-03
DAV:   7    -0.111407636271E+02   -0.12333E-05   -0.10019E-06  8160   0.286E-03    0.769E-04
DAV:   8    -0.111407636725E+02   -0.45373E-07   -0.55690E-08  3648   0.725E-04
  22 F= -.11140764E+02 E0= -.11139711E+02  d E =-.210451E-02
       N       E                     dE             d eps       ncg     rms          rms(c)
DAV:   1    -0.111440800277E+02   -0.33164E-02   -0.11162E+00  7520   0.338E+00    0.471E-01
DAV:   2    -0.111423779416E+02    0.17021E-02   -0.67235E-03  5376   0.318E-01    0.280E-01
DAV:   3    -0.111413798164E+02    0.99813E-03   -0.15993E-03  8864   0.183E-01    0.389E-02
DAV:   4    -0.111413747622E+02    0.50542E-05   -0.64978E-05  5216   0.334E-02    0.150E-02
DAV:   5    -0.111413760141E+02   -0.12520E-05   -0.87217E-06  8480   0.982E-03    0.349E-03
DAV:   6    -0.111413762914E+02   -0.27726E-06   -0.35685E-07  4832   0.192E-03
  23 F= -.11141376E+02 E0= -.11140363E+02  d E =-.202601E-02
       N       E                     dE             d eps       ncg     rms          rms(c)
DAV:   1    -0.111539768731E+02   -0.12601E-01   -0.90758E-01  7776   0.288E+00    0.938E-01
DAV:   2    -0.111454394626E+02    0.85374E-02   -0.83320E-03  5824   0.347E-01    0.561E-01
DAV:   3    -0.111413965566E+02    0.40429E-02   -0.63785E-03  8608   0.343E-01    0.736E-02
DAV:   4    -0.111413698336E+02    0.26723E-04   -0.36793E-04  5280   0.671E-02    0.188E-02
DAV:   5    -0.111413748652E+02   -0.50316E-05   -0.12660E-05  8928   0.156E-02    0.738E-03
DAV:   6    -0.111413761638E+02   -0.12985E-05   -0.12421E-06  6016   0.310E-03    0.200E-03
DAV:   7    -0.111413763673E+02   -0.20350E-06   -0.19810E-07  5152   0.120E-03
  24 F= -.11141376E+02 E0= -.11140363E+02  d E =-.202596E-02
       N       E                     dE             d eps       ncg     rms          rms(c)
DAV:   1    -0.111434652415E+02   -0.20891E-02   -0.11722E+00  7584   0.334E+00    0.468E-01
DAV:   2    -0.111417855747E+02    0.16797E-02   -0.63697E-03  5408   0.308E-01    0.281E-01
DAV:   3    -0.111407696920E+02    0.10159E-02   -0.17407E-03  8896   0.191E-01    0.373E-02
DAV:   4    -0.111407619595E+02    0.77325E-05   -0.79397E-05  5248   0.326E-02    0.156E-02
DAV:   5    -0.111407632790E+02   -0.13195E-05   -0.76798E-06  8576   0.107E-02    0.367E-03
DAV:   6    -0.111407635678E+02   -0.28879E-06   -0.34464E-07  4768   0.202E-03
  25 F= -.11140764E+02 E0= -.11139711E+02  d E =-.210443E-02
       N       E                     dE             d eps       ncg     rms          rms(c)
DAV:   1    -0.111467443128E+02   -0.59810E-02   -0.48756E+00  3264   0.667E+00    0.901E-01
DAV:   2    -0.111444471453E+02    0.22972E-02   -0.56181E-02  5408   0.891E-01    0.554E-01
DAV:   3    -0.111399465403E+02    0.45006E-02   -0.57914E-03  4352   0.342E-01    0.427E-02
DAV:   4    -0.111399703432E+02   -0.23803E-04   -0.46743E-04  5152   0.793E-02    0.149E-02
DAV:   5    -0.111399849329E+02   -0.14590E-04   -0.17863E-05  4352   0.140E-02    0.700E-03
DAV:   6    -0.111399944010E+02   -0.94681E-05   -0.56574E-06  5408   0.598E-03    0.172E-03
DAV:   7    -0.111399959459E+02   -0.15449E-05   -0.37462E-07  3520   0.195E-03    0.668E-04
DAV:   8    -0.111399962245E+02   -0.27860E-06   -0.38379E-08  3360   0.634E-04
  26 F= -.11139996E+02 E0= -.11138991E+02  d E =-.201044E-02
       N       E                     dE             d eps       ncg     rms          rms(c)
DAV:   1    -0.111406594960E+02   -0.66355E-03   -0.88262E-01  3200   0.243E+00    0.288E-02
DAV:   2    -0.111410778904E+02   -0.41839E-03   -0.45542E-03  3872   0.192E-01    0.146E-02
DAV:   3    -0.111410810973E+02   -0.32069E-05   -0.42678E-05  5408   0.224E-02    0.942E-03
DAV:   4    -0.111410822038E+02   -0.11065E-05   -0.18462E-06  4096   0.395E-03    0.137E-03
DAV:   5    -0.111410823308E+02   -0.12695E-06   -0.13416E-07  4672   0.108E-03
  27 F= -.11141082E+02 E0= -.11140081E+02  d E =-.200348E-02
       N       E                     dE             d eps       ncg     rms          rms(c)
DAV:   1    -0.111397217858E+02    0.13604E-02   -0.35506E+00  3200   0.492E+00    0.579E-02
DAV:   2    -0.111414002616E+02   -0.16785E-02   -0.18327E-02  3744   0.386E-01    0.294E-02
DAV:   3    -0.111414128100E+02   -0.12548E-04   -0.17233E-04  5504   0.451E-02    0.187E-02
DAV:   4    -0.111414175707E+02   -0.47607E-05   -0.78572E-06  3968   0.812E-03    0.268E-03
DAV:   5    -0.111414180893E+02   -0.51864E-06   -0.55400E-07  5472   0.216E-03
  28 F= -.11141418E+02 E0= -.11140423E+02  d E =-.198999E-02
       N       E                     dE             d eps       ncg     rms          rms(c)
DAV:   1    -0.111402765127E+02    0.11411E-02   -0.88284E-01  3200   0.242E+00    0.291E-02
DAV:   2    -0.111406926469E+02   -0.41613E-03   -0.45370E-03  4000   0.191E-01    0.146E-02
DAV:   3    -0.111406956553E+02   -0.30084E-05   -0.40330E-05  5248   0.212E-02    0.913E-03
DAV:   4    -0.111406970621E+02   -0.14068E-05   -0.20927E-06  4192   0.417E-03    0.137E-03
DAV:   5    -0.111406972104E+02   -0.14828E-06   -0.14281E-07  4704   0.109E-03
  29 F= -.11140697E+02 E0= -.11139705E+02  d E =-.198348E-02
       N       E                     dE             d eps       ncg     rms          rms(c)
DAV:   1    -0.111371590154E+02    0.35380E-02   -0.71482E+00  3200   0.706E+00    0.589E-02
DAV:   2    -0.111404353241E+02   -0.32763E-02   -0.32427E-02  3648   0.502E-01    0.268E-02
DAV:   3    -0.111404608364E+02   -0.25512E-04   -0.25112E-04  5696   0.514E-02    0.141E-02
DAV:   4    -0.111404644744E+02   -0.36380E-05   -0.78362E-06  3552   0.747E-03    0.515E-03
DAV:   5    -0.111404659042E+02   -0.14298E-05   -0.15192E-06  5600   0.356E-03    0.183E-03
DAV:   6    -0.111404661494E+02   -0.24519E-06   -0.21467E-07  3648   0.125E-03
  30 F= -.11140466E+02 E0= -.11139471E+02  d E =-.199065E-02
       N       E                     dE             d eps       ncg     rms          rms(c)
DAV:   1    -0.111409405749E+02   -0.47467E-03   -0.88206E-01  3200   0.242E+00    0.217E-02
DAV:   2    -0.111413505630E+02   -0.40999E-03   -0.41526E-03  3584   0.178E-01    0.108E-02
DAV:   3    -0.111413535667E+02   -0.30037E-05   -0.33115E-05  5760   0.192E-02    0.641E-03
DAV:   4    -0.111413541044E+02   -0.53769E-06   -0.12624E-06  3744   0.298E-03
  31 F= -.11141354E+02 E0= -.11140357E+02  d E =-.199358E-02
       N       E                     dE             d eps       ncg     rms          rms(c)
DAV:   1    -0.111394178132E+02    0.19358E-02   -0.35484E+00  3200   0.492E+00    0.436E-02
DAV:   2    -0.111410478869E+02   -0.16301E-02   -0.16577E-02  3680   0.357E-01    0.219E-02
DAV:   3    -0.111410599525E+02   -0.12066E-04   -0.12863E-04  5696   0.380E-02    0.131E-02
DAV:   4    -0.111410626775E+02   -0.27250E-05   -0.53421E-06  3776   0.618E-03    0.388E-03
DAV:   5    -0.111410635146E+02   -0.83709E-06   -0.80674E-07  5536   0.269E-03
  32 F= -.11141064E+02 E0= -.11140063E+02  d E =-.200065E-02
       N       E                     dE             d eps       ncg     rms          rms(c)
DAV:   1    -0.111394623677E+02    0.16003E-02   -0.88218E-01  3200   0.243E+00    0.220E-02
DAV:   2    -0.111398665072E+02   -0.40414E-03   -0.41057E-03  3648   0.177E-01    0.110E-02
DAV:   3    -0.111398696139E+02   -0.31067E-05   -0.32483E-05  5696   0.192E-02    0.660E-03
DAV:   4    -0.111398703395E+02   -0.72559E-06   -0.13270E-06  3808   0.307E-03
  33 F= -.11139870E+02 E0= -.11138868E+02  d E =-.200491E-02
       N       E                     dE             d eps       ncg     rms          rms(c)
DAV:   1    -0.111389473226E+02    0.92229E-03   -0.71478E+00  4736   0.695E+00    0.518E-02
DAV:   2    -0.111419580837E+02   -0.30108E-02   -0.30097E-02  6080   0.502E-01    0.236E-02
DAV:   3    -0.111419744554E+02   -0.16372E-04   -0.18029E-04  7936   0.431E-02    0.132E-02
DAV:   4    -0.111419768915E+02   -0.24361E-05   -0.71351E-06  6272   0.755E-03    0.398E-03
DAV:   5    -0.111419777150E+02   -0.82351E-06   -0.87615E-07  7680   0.296E-03
  34 F= -.11141978E+02 E0= -.11140979E+02  d E =-.199770E-02
       N       E                     dE             d eps       ncg     rms          rms(c)
DAV:   1    -0.111405782647E+02    0.13986E-02   -0.32727E+00  4736   0.378E+00    0.114E-02
DAV:   2    -0.111416647797E+02   -0.10865E-02   -0.10762E-02  5760   0.233E-01    0.567E-03
DAV:   3    -0.111416702227E+02   -0.54430E-05   -0.54239E-05  8064   0.171E-02    0.146E-03
DAV:   4    -0.111416703066E+02   -0.83920E-07   -0.15852E-07  5920   0.130E-03
  35 F= -.11141670E+02 E0= -.11140672E+02  d E =-.199706E-02
       N       E                     dE             d eps       ncg     rms          rms(c)
DAV:   1    -0.111408209001E+02    0.84932E-03   -0.23656E+00  5312   0.300E+00    0.223E-02
DAV:   2    -0.111416644601E+02   -0.84356E-03   -0.79685E-03  5632   0.188E-01    0.116E-02
DAV:   3    -0.111416698266E+02   -0.53665E-05   -0.51456E-05  7520   0.174E-02    0.302E-03
DAV:   4    -0.111416702006E+02   -0.37400E-06   -0.52571E-07  6272   0.234E-03
  36 F= -.11141670E+02 E0= -.11140672E+02  d E =-.199707E-02
       N       E                     dE             d eps       ncg     rms          rms(c)
DAV:   1    -0.111408694946E+02    0.80033E-03   -0.32735E+00  4736   0.378E+00    0.131E-02
DAV:   2    -0.111419716491E+02   -0.11022E-02   -0.10916E-02  5952   0.234E-01    0.647E-03
DAV:   3    -0.111419776797E+02   -0.60306E-05   -0.59152E-05  7904   0.171E-02    0.314E-03
DAV:   4    -0.111419778645E+02   -0.18481E-06   -0.40221E-07  6144   0.190E-03
  37 F= -.11141978E+02 E0= -.11140979E+02  d E =-.199776E-02
       N       E                     dE             d eps       ncg     rms          rms(c)
DAV:   1    -0.111294580523E+02    0.12520E-01   -0.40878E+00  3200   0.549E+00    0.627E-01
DAV:   2    -0.111324934738E+02   -0.30354E-02   -0.42286E-02  5472   0.774E-01    0.233E-01
DAV:   3    -0.111323831263E+02    0.11035E-03   -0.70333E-04  3968   0.641E-02    0.118E-01
DAV:   4    -0.111323732062E+02    0.99201E-05   -0.10298E-04  5312   0.234E-02    0.466E-02
DAV:   5    -0.111323729595E+02    0.24673E-06   -0.15348E-05  4320   0.869E-03    0.929E-03
DAV:   6    -0.111323729395E+02    0.19998E-07   -0.26997E-06  5056   0.338E-03
  38 F= -.11132373E+02 E0= -.11131338E+02  d E =-.207023E-02
       N       E                     dE             d eps       ncg     rms          rms(c)
DAV:   1    -0.111392843615E+02   -0.69114E-02   -0.13903E-01  3200   0.694E-01    0.291E-01
DAV:   2    -0.111392640796E+02    0.20282E-04   -0.27324E-03  5184   0.149E-01    0.120E-01
DAV:   3    -0.111392422931E+02    0.21786E-04   -0.15774E-04  4000   0.267E-02    0.577E-02
DAV:   4    -0.111392419632E+02    0.32992E-06   -0.20564E-05  5408   0.102E-02    0.222E-02
DAV:   5    -0.111392419990E+02   -0.35760E-07   -0.40432E-06  4480   0.410E-03
  39 F= -.11139242E+02 E0= -.11138225E+02  d E =-.203385E-02
       N       E                     dE             d eps       ncg     rms          rms(c)
DAV:   1    -0.111394865835E+02   -0.24462E-03   -0.56119E-01  3200   0.139E+00    0.609E-01
DAV:   2    -0.111393312568E+02    0.15533E-03   -0.11018E-02  5216   0.300E-01    0.250E-01
DAV:   3    -0.111392287722E+02    0.10248E-03   -0.62984E-04  3968   0.545E-02    0.117E-01
DAV:   4    -0.111392272344E+02    0.15378E-05   -0.70776E-05  5408   0.200E-02    0.438E-02
DAV:   5    -0.111392273886E+02   -0.15416E-06   -0.17200E-05  4192   0.817E-03    0.703E-03
DAV:   6    -0.111392264207E+02    0.96788E-06   -0.19820E-06  5088   0.325E-03
  40 F= -.11139226E+02 E0= -.11138246E+02  d E =-.195999E-02
       N       E                     dE             d eps       ncg     rms          rms(c)
DAV:   1    -0.111321721113E+02    0.70553E-02   -0.14166E-01  3200   0.705E-01    0.310E-01
DAV:   2    -0.111321198024E+02    0.52309E-04   -0.28403E-03  5248   0.152E-01    0.130E-01
DAV:   3    -0.111320932095E+02    0.26593E-04   -0.16605E-04  3904   0.281E-02    0.594E-02
DAV:   4    -0.111320933256E+02   -0.11615E-06   -0.17697E-05  5536   0.102E-02    0.220E-02
DAV:   5    -0.111320933500E+02   -0.24313E-07   -0.45999E-06  4128   0.414E-03
  41 F= -.11132093E+02 E0= -.11131132E+02  d E =-.192279E-02
       N       E                     dE             d eps       ncg     rms          rms(c)
DAV:   1    -0.111375079622E+02   -0.54146E-02   -0.10494E+00  3200   0.185E+00    0.363E-01
DAV:   2    -0.111384378442E+02   -0.92988E-03   -0.12914E-02  5024   0.349E-01    0.142E-01
DAV:   3    -0.111384217623E+02    0.16082E-04   -0.25854E-04  4288   0.374E-02    0.709E-02
DAV:   4    -0.111384273472E+02   -0.55849E-05   -0.35717E-05  5024   0.152E-02    0.252E-02
DAV:   5    -0.111384283121E+02   -0.96486E-06   -0.49127E-06  4224   0.527E-03
  42 F= -.11138428E+02 E0= -.11137454E+02  d E =-.194844E-02
       N       E                     dE             d eps       ncg     rms          rms(c)
DAV:   1    -0.111406934688E+02   -0.22661E-02   -0.13240E-01  3200   0.664E-01    0.171E-01
DAV:   2    -0.111407827216E+02   -0.89253E-04   -0.18160E-03  5184   0.130E-01    0.690E-02
DAV:   3    -0.111407751801E+02    0.75415E-05   -0.54165E-05  4096   0.164E-02    0.339E-02
DAV:   4    -0.111407750533E+02    0.12677E-06   -0.71351E-06  5248   0.644E-03
  43 F= -.11140775E+02 E0= -.11139787E+02  d E =-.197533E-02
       N       E                     dE             d eps       ncg     rms          rms(c)
DAV:   1    -0.111402857462E+02    0.48943E-03   -0.53007E-01  3200   0.133E+00    0.335E-01
DAV:   2    -0.111406570403E+02   -0.37129E-03   -0.73232E-03  5248   0.260E-01    0.137E-01
DAV:   3    -0.111406328036E+02    0.24237E-04   -0.22309E-04  3968   0.329E-02    0.680E-02
DAV:   4    -0.111406336002E+02   -0.79653E-06   -0.32493E-05  5376   0.134E-02    0.254E-02
DAV:   5    -0.111406341427E+02   -0.54254E-06   -0.46098E-06  4032   0.487E-03
  44 F= -.11140634E+02 E0= -.11139628E+02  d E =-.201269E-02
       N       E                     dE             d eps       ncg     rms          rms(c)
DAV:   1    -0.111379685717E+02    0.26650E-02   -0.13239E-01  3200   0.665E-01    0.168E-01
DAV:   2    -0.111380606369E+02   -0.92065E-04   -0.18280E-03  5280   0.130E-01    0.679E-02
DAV:   3    -0.111380540893E+02    0.65476E-05   -0.55763E-05  4096   0.164E-02    0.339E-02
DAV:   4    -0.111380541293E+02   -0.40053E-07   -0.83157E-06  5216   0.671E-03
  45 F= -.11138054E+02 E0= -.11137042E+02  d E =-.202327E-02
       N       E                     dE             d eps       ncg     rms          rms(c)
DAV:   1    -0.111403140179E+02   -0.22599E-02   -0.99853E-01  4736   0.185E+00    0.362E-01
DAV:   2    -0.111412886755E+02   -0.97466E-03   -0.13010E-02  8256   0.361E-01    0.142E-01
DAV:   3    -0.111412758879E+02    0.12788E-04   -0.21864E-04  5600   0.343E-02    0.691E-02
DAV:   4    -0.111412835819E+02   -0.76940E-05   -0.31990E-05  8480   0.146E-02    0.237E-02
DAV:   5    -0.111412841346E+02   -0.55262E-06   -0.49418E-06  5504   0.497E-03
  46 F= -.11141284E+02 E0= -.11140283E+02  d E =-.200257E-02
       N       E                     dE             d eps       ncg     rms          rms(c)
DAV:   1    -0.111410281017E+02    0.25548E-03   -0.42555E-01  4736   0.101E+00    0.516E-02
DAV:   2    -0.111415070953E+02   -0.47899E-03   -0.47848E-03  7360   0.191E-01    0.346E-02
DAV:   3    -0.111415100935E+02   -0.29981E-05   -0.10648E-05  6592   0.845E-03    0.147E-02
DAV:   4    -0.111415110806E+02   -0.98719E-06   -0.10831E-06  7424   0.323E-03
  47 F= -.11141511E+02 E0= -.11140512E+02  d E =-.199825E-02
       N       E                     dE             d eps       ncg     rms          rms(c)
DAV:   1    -0.111411481393E+02    0.36195E-03   -0.31604E-01  5152   0.826E-01    0.108E-01
DAV:   2    -0.111414958949E+02   -0.34776E-03   -0.34146E-03  6592   0.155E-01    0.640E-02
DAV:   3    -0.111415096780E+02   -0.13783E-04   -0.49497E-05  6944   0.176E-02    0.117E-02
DAV:   4    -0.111415109327E+02   -0.12547E-05   -0.24946E-06  7104   0.515E-03    0.379E-03
DAV:   5    -0.111415110520E+02   -0.11927E-06   -0.90845E-07  5792   0.212E-03
  48 F= -.11141511E+02 E0= -.11140512E+02  d E =-.199822E-02
       N       E                     dE             d eps       ncg     rms          rms(c)
DAV:   1    -0.111408039384E+02    0.70699E-03   -0.42922E-01  4736   0.102E+00    0.603E-02
DAV:   2    -0.111412796975E+02   -0.47576E-03   -0.47433E-03  7328   0.190E-01    0.320E-02
DAV:   3    -0.111412822615E+02   -0.25640E-05   -0.15481E-05  6624   0.940E-03    0.155E-02
DAV:   4    -0.111412838535E+02   -0.15920E-05   -0.26261E-06  7328   0.440E-03    0.224E-03
DAV:   5    -0.111412838853E+02   -0.31838E-07   -0.30595E-07  5824   0.138E-03
  49 F= -.11141284E+02 E0= -.11140283E+02  d E =-.200245E-02
       N       E                     dE             d eps       ncg     rms          rms(c)
DAV:   1    -0.111306050424E+02    0.10679E-01   -0.16202E+00  3200   0.248E+00    0.622E-01
DAV:   2    -0.111329270058E+02   -0.23220E-02   -0.55529E-02  5696   0.693E-01    0.256E-01
DAV:   3    -0.111327536796E+02    0.17333E-03   -0.14300E-03  3712   0.870E-02    0.165E-01
DAV:   4    -0.111327367455E+02    0.16934E-04   -0.23939E-04  5504   0.385E-02    0.440E-02
DAV:   5    -0.111327310420E+02    0.57035E-05   -0.40748E-05  4000   0.131E-02    0.149E-02
DAV:   6    -0.111327311902E+02   -0.14821E-06   -0.19218E-06  5344   0.422E-03
  50 F= -.11132731E+02 E0= -.11131776E+02  d E =-.190946E-02
       N       E                     dE             d eps       ncg     rms          rms(c)
DAV:   1    -0.111396978200E+02   -0.69668E-02   -0.29139E-01  3200   0.105E+00    0.287E-01
DAV:   2    -0.111395735927E+02    0.12423E-03   -0.72090E-03  5120   0.220E-01    0.135E-01
DAV:   3    -0.111395303736E+02    0.43219E-04   -0.31182E-04  3936   0.403E-02    0.869E-02
DAV:   4    -0.111395214172E+02    0.89564E-05   -0.58047E-05  5216   0.187E-02    0.158E-02
DAV:   5    -0.111395204632E+02    0.95401E-06   -0.91700E-06  4416   0.624E-03
  51 F= -.11139520E+02 E0= -.11138544E+02  d E =-.195280E-02
       N       E                     dE             d eps       ncg     rms          rms(c)
DAV:   1    -0.111398091343E+02   -0.28772E-03   -0.11602E+00  3200   0.209E+00    0.549E-01
DAV:   2    -0.111393715168E+02    0.43762E-03   -0.29128E-02  5056   0.438E-01    0.261E-01
DAV:   3    -0.111392124586E+02    0.15906E-03   -0.13510E-03  4160   0.812E-02    0.172E-01
DAV:   4    -0.111391811870E+02    0.31272E-04   -0.25117E-04  5088   0.384E-02    0.318E-02
DAV:   5    -0.111391773298E+02    0.38572E-05   -0.35655E-05  4640   0.126E-02    0.155E-02
DAV:   6    -0.111391778211E+02   -0.49127E-06   -0.13629E-06  4544   0.377E-03
  52 F= -.11139178E+02 E0= -.11138158E+02  d E =-.203998E-02
       N       E                     dE             d eps       ncg     rms          rms(c)
DAV:   1    -0.111326567737E+02    0.65206E-02   -0.28873E-01  3264   0.104E+00    0.262E-01
DAV:   2    -0.111325566537E+02    0.10012E-03   -0.72709E-03  5184   0.217E-01    0.128E-01
DAV:   3    -0.111325153289E+02    0.41325E-04   -0.35198E-04  4000   0.402E-02    0.857E-02
DAV:   4    -0.111325066183E+02    0.87105E-05   -0.67064E-05  5248   0.198E-02    0.161E-02
DAV:   5    -0.111325058135E+02    0.80480E-06   -0.87229E-06  4480   0.631E-03
  53 F= -.11132506E+02 E0= -.11131465E+02  d E =-.208262E-02
       N       E                     dE             d eps       ncg     rms          rms(c)
DAV:   1    -0.111359351237E+02   -0.34285E-02   -0.21844E+00  3200   0.279E+00    0.302E-01
DAV:   2    -0.111379439223E+02   -0.20088E-02   -0.29272E-02  5120   0.510E-01    0.147E-01
DAV:   3    -0.111378717575E+02    0.72165E-04   -0.57974E-04  4096   0.545E-02    0.918E-02
DAV:   4    -0.111378683024E+02    0.34551E-05   -0.12404E-04  5312   0.271E-02    0.216E-02
DAV:   5    -0.111378674395E+02    0.86289E-06   -0.11247E-05  4064   0.825E-03    0.889E-03
DAV:   6    -0.111378678376E+02   -0.39812E-06   -0.17312E-06  5344   0.359E-03
  54 F= -.11137868E+02 E0= -.11136853E+02  d E =-.203022E-02
       N       E                     dE             d eps       ncg     rms          rms(c)
DAV:   1    -0.111404202525E+02   -0.25528E-02   -0.27649E-01  3200   0.101E+00    0.149E-01
DAV:   2    -0.111406018249E+02   -0.18157E-03   -0.43277E-03  5184   0.191E-01    0.732E-02
DAV:   3    -0.111405887135E+02    0.13111E-04   -0.11657E-04  4032   0.247E-02    0.473E-02
DAV:   4    -0.111405879605E+02    0.75302E-06   -0.24414E-05  5376   0.121E-02    0.950E-03
DAV:   5    -0.111405875534E+02    0.40715E-06   -0.27720E-06  3968   0.374E-03
  55 F= -.11140588E+02 E0= -.11139579E+02  d E =-.201639E-02
       N       E                     dE             d eps       ncg     rms          rms(c)
DAV:   1    -0.111402170435E+02    0.37092E-03   -0.11064E+00  3200   0.201E+00    0.304E-01
DAV:   2    -0.111409523789E+02   -0.73534E-03   -0.17094E-02  5216   0.380E-01    0.147E-01
DAV:   3    -0.111408981237E+02    0.54255E-04   -0.44896E-04  4096   0.490E-02    0.943E-02
DAV:   4    -0.111408943160E+02    0.38077E-05   -0.92317E-05  5248   0.236E-02    0.188E-02
DAV:   5    -0.111408929712E+02    0.13448E-05   -0.11162E-05  4224   0.747E-03    0.867E-03
DAV:   6    -0.111408932599E+02   -0.28871E-06   -0.86651E-07  4832   0.278E-03
  56 F= -.11140893E+02 E0= -.11139907E+02  d E =-.197196E-02
       N       E                     dE             d eps       ncg     rms          rms(c)
DAV:   1    -0.111383894462E+02    0.25035E-02   -0.27663E-01  3200   0.100E+00    0.154E-01
DAV:   2    -0.111385769348E+02   -0.18749E-03   -0.42288E-03  5184   0.189E-01    0.737E-02
DAV:   3    -0.111385646205E+02    0.12314E-04   -0.10718E-04  4000   0.243E-02    0.462E-02
DAV:   4    -0.111385644013E+02    0.21911E-06   -0.21537E-05  5504   0.115E-02    0.942E-03
DAV:   5    -0.111385640534E+02    0.34792E-06   -0.27744E-06  3968   0.368E-03
  57 F= -.11138564E+02 E0= -.11137593E+02  d E =-.194161E-02
       N       E                     dE             d eps       ncg     rms          rms(c)
DAV:   1    -0.111396597573E+02   -0.10954E-02   -0.21584E+00  4736   0.285E+00    0.331E-01
DAV:   2    -0.111414964903E+02   -0.18367E-02   -0.28868E-02  8192   0.525E-01    0.163E-01
DAV:   3    -0.111414272062E+02    0.69284E-04   -0.48450E-04  5568   0.528E-02    0.988E-02
DAV:   4    -0.111414211117E+02    0.60946E-05   -0.10615E-04  8576   0.253E-02    0.203E-02
DAV:   5    -0.111414200567E+02    0.10550E-05   -0.12564E-05  5536   0.817E-03    0.804E-03
DAV:   6    -0.111414203665E+02   -0.30982E-06   -0.10754E-06  8192   0.310E-03
  58 F= -.11141420E+02 E0= -.11140419E+02  d E =-.200201E-02
       N       E                     dE             d eps       ncg     rms          rms(c)
DAV:   1    -0.111404312863E+02    0.98877E-03   -0.93782E-01  4736   0.156E+00    0.525E-02
DAV:   2    -0.111415810720E+02   -0.11498E-02   -0.11625E-02  7328   0.296E-01    0.378E-02
DAV:   3    -0.111415804122E+02    0.65976E-06   -0.22567E-05  6560   0.116E-02    0.178E-02
DAV:   4    -0.111415805499E+02   -0.13767E-06   -0.34169E-06  7456   0.473E-03
  59 F= -.11141581E+02 E0= -.11140582E+02  d E =-.199808E-02
       N       E                     dE             d eps       ncg     rms          rms(c)
DAV:   1    -0.111407677666E+02    0.81265E-03   -0.70462E-01  5504   0.127E+00    0.111E-01
DAV:   2    -0.111415881522E+02   -0.82039E-03   -0.86354E-03  6720   0.238E-01    0.699E-02
DAV:   3    -0.111415783969E+02    0.97554E-05   -0.95700E-05  7072   0.226E-02    0.244E-02
DAV:   4    -0.111415805839E+02   -0.21870E-05   -0.65956E-06  7392   0.775E-03    0.572E-03
DAV:   5    -0.111415805064E+02    0.77478E-07   -0.21267E-06  6368   0.313E-03
  60 F= -.11141581E+02 E0= -.11140581E+02  d E =-.199817E-02
       N       E                     dE             d eps       ncg     rms          rms(c)
DAV:   1    -0.111402926662E+02    0.12879E-02   -0.94594E-01  4736   0.157E+00    0.643E-02
DAV:   2    -0.111414237934E+02   -0.11311E-02   -0.11459E-02  7360   0.294E-01    0.351E-02
DAV:   3    -0.111414199884E+02    0.38050E-05   -0.33634E-05  6432   0.135E-02    0.206E-02
DAV:   4    -0.111414205249E+02   -0.53651E-06   -0.11143E-05  7648   0.760E-03    0.411E-03
DAV:   5    -0.111414204965E+02    0.28452E-07   -0.87500E-07  5760   0.254E-03
  61 F= -.11141420E+02 E0= -.11140419E+02  d E =-.200217E-02
