  39  39   0   0
  0.2439952E+02  0.6834254E-09  0.1767185E-08  0.7880486E-09  0.0000000E+00
   1.0000000000000000E-004
  CAR 
 NEB_refined                             
      9.51291053    -23.81054627  301      1.06890149      1.00000000
    -23.811  0.0000E+00  0.0000E+00
    -23.699  0.0000E+00  0.0000E+00
    -23.588  0.0000E+00  0.0000E+00
    -23.477 -0.8876E-31 -0.9859E-32
    -23.366 -0.6534E-27 -0.7258E-28
    -23.255 -0.2587E-23 -0.2874E-24
    -23.144 -0.5506E-20 -0.6118E-21
    -23.033 -0.6296E-17 -0.6999E-18
    -22.922 -0.3742E-14 -0.4164E-15
    -22.811 -0.1223E-11 -0.1362E-12
    -22.700 -0.2132E-09 -0.2381E-10
    -22.589 -0.1977E-07 -0.2219E-08
    -22.478 -0.9687E-06 -0.1098E-06
    -22.367 -0.2483E-04 -0.2868E-05
    -22.255 -0.3258E-03 -0.3905E-04
    -22.144 -0.2070E-02 -0.2690E-03
    -22.033 -0.5067E-02 -0.8317E-03
    -21.922  0.5273E-02 -0.2460E-03
    -21.811  0.5514E-01  0.5879E-02
    -21.700  0.1249E+00  0.1975E-01
    -21.589  0.1479E+00  0.3618E-01
    -21.478  0.1555E+00  0.5345E-01
    -21.367  0.2724E+00  0.8371E-01
    -21.256  0.4586E+00  0.1347E+00
    -21.145  0.4936E+00  0.1895E+00
    -21.034  0.2998E+00  0.2228E+00
    -20.923  0.7478E-01  0.2311E+00
    -20.811 -0.1302E-01  0.2296E+00
    -20.700 -0.1183E-01  0.2283E+00
    -20.589 -0.2601E-02  0.2280E+00
    -20.478 -0.2612E-03  0.2280E+00
    -20.367 -0.1328E-04  0.2280E+00
    -20.256 -0.3534E-06  0.2280E+00
    -20.145 -0.5002E-08  0.2280E+00
    -20.034 -0.3793E-10  0.2280E+00
    -19.923 -0.1547E-12  0.2280E+00
    -19.812 -0.3438E-15  0.2280E+00
    -19.701  0.0000E+00  0.2280E+00
    -19.590  0.0000E+00  0.2280E+00
    -19.478  0.0000E+00  0.2280E+00
    -19.367  0.0000E+00  0.2280E+00
    -19.256  0.0000E+00  0.2280E+00
    -19.145  0.0000E+00  0.2280E+00
    -19.034  0.0000E+00  0.2280E+00
    -18.923  0.0000E+00  0.2280E+00
    -18.812  0.0000E+00  0.2280E+00
    -18.701  0.0000E+00  0.2280E+00
    -18.590  0.0000E+00  0.2280E+00
    -18.479  0.0000E+00  0.2280E+00
    -18.368  0.0000E+00  0.2280E+00
    -18.257  0.0000E+00  0.2280E+00
    -18.146  0.0000E+00  0.2280E+00
    -18.034  0.0000E+00  0.2280E+00
    -17.923  0.0000E+00  0.2280E+00
    -17.812  0.0000E+00  0.2280E+00
    -17.701  0.0000E+00  0.2280E+00
    -17.590  0.0000E+00  0.2280E+00
    -17.479  0.0000E+00  0.2280E+00
    -17.368  0.0000E+00  0.2280E+00
    -17.257  0.0000E+00  0.2280E+00
    -17.146  0.0000E+00  0.2280E+00
    -17.035  0.0000E+00  0.2280E+00
    -16.924  0.0000E+00  0.2280E+00
    -16.813  0.0000E+00  0.2280E+00
    -16.702  0.0000E+00  0.2280E+00
    -16.590  0.0000E+00  0.2280E+00
    -16.479  0.0000E+00  0.2280E+00
    -16.368  0.0000E+00  0.2280E+00
    -16.257  0.0000E+00  0.2280E+00
    -16.146  0.0000E+00  0.2280E+00
    -16.035  0.0000E+00  0.2280E+00
    -15.924  0.0000E+00  0.2280E+00
    -15.813  0.0000E+00  0.2280E+00
    -15.702  0.0000E+00  0.2280E+00
    -15.591  0.0000E+00  0.2280E+00
    -15.480  0.0000E+00  0.2280E+00
    -15.369  0.0000E+00  0.2280E+00
    -15.258  0.0000E+00  0.2280E+00
    -15.146  0.0000E+00  0.2280E+00
    -15.035  0.0000E+00  0.2280E+00
    -14.924  0.0000E+00  0.2280E+00
    -14.813  0.0000E+00  0.2280E+00
    -14.702  0.0000E+00  0.2280E+00
    -14.591  0.0000E+00  0.2280E+00
    -14.480  0.0000E+00  0.2280E+00
    -14.369  0.0000E+00  0.2280E+00
    -14.258  0.0000E+00  0.2280E+00
    -14.147 -0.9626E-30  0.2280E+00
    -14.036 -0.6085E-26  0.2280E+00
    -13.925 -0.2066E-22  0.2280E+00
    -13.814 -0.3780E-19  0.2280E+00
    -13.702 -0.3727E-16  0.2280E+00
    -13.591 -0.1915E-13  0.2280E+00
    -13.480 -0.5439E-11  0.2280E+00
    -13.369 -0.8295E-09  0.2280E+00
    -13.258 -0.6776E-07  0.2280E+00
    -13.147 -0.2949E-05  0.2280E+00
    -13.036 -0.6752E-04  0.2280E+00
    -12.925 -0.7901E-03  0.2279E+00
    -12.814 -0.4341E-02  0.2274E+00
    -12.703 -0.7385E-02  0.2266E+00
    -12.592  0.2265E-01  0.2291E+00
    -12.481  0.1147E+00  0.2419E+00
    -12.369  0.2001E+00  0.2641E+00
    -12.258  0.2003E+00  0.2863E+00
    -12.147  0.1374E+00  0.3016E+00
    -12.036  0.5846E-01  0.3081E+00
    -11.925  0.6901E-02  0.3089E+00
    -11.814 -0.5113E-02  0.3083E+00
    -11.703 -0.2316E-02  0.3080E+00
    -11.592 -0.3932E-03  0.3080E+00
    -11.481 -0.3239E-04  0.3080E+00
    -11.370 -0.1373E-05  0.3080E+00
    -11.259 -0.3056E-07  0.3080E+00
    -11.148 -0.3613E-09  0.3080E+00
    -11.037 -0.1363E-09  0.3080E+00
    -10.925 -0.1154E-07  0.3080E+00
    -10.814 -0.5211E-06  0.3080E+00
    -10.703 -0.1216E-04  0.3080E+00
    -10.592 -0.1427E-03  0.3080E+00
    -10.481 -0.7823E-03  0.3079E+00
    -10.370 -0.1416E-02  0.3077E+00
    -10.259  0.3439E-02  0.3081E+00
    -10.148  0.2053E-01  0.3104E+00
    -10.037  0.4144E-01  0.3150E+00
     -9.926  0.4544E-01  0.3201E+00
     -9.815  0.2810E-01  0.3232E+00
     -9.704  0.5459E-02  0.3238E+00
     -9.593 -0.5824E-02  0.3231E+00
     -9.481  0.1744E-01  0.3251E+00
     -9.370  0.8985E-01  0.3350E+00
     -9.259  0.1471E+00  0.3514E+00
     -9.148  0.1207E+00  0.3648E+00
     -9.037  0.5589E-01  0.3710E+00
     -8.926  0.1325E-01  0.3725E+00
     -8.815 -0.1392E-02  0.3723E+00
     -8.704 -0.2175E-02  0.3721E+00
     -8.593 -0.6411E-03  0.3720E+00
     -8.482 -0.8535E-04  0.3720E+00
     -8.371 -0.5686E-05  0.3720E+00
     -8.260 -0.1958E-06  0.3720E+00
     -8.149 -0.3537E-08  0.3720E+00
     -8.037 -0.3379E-10  0.3720E+00
     -7.926 -0.1715E-12  0.3720E+00
     -7.815 -0.4638E-15  0.3720E+00
     -7.704  0.0000E+00  0.3720E+00
     -7.593  0.0000E+00  0.3720E+00
     -7.482  0.0000E+00  0.3720E+00
     -7.371  0.0000E+00  0.3720E+00
     -7.260  0.0000E+00  0.3720E+00
     -7.149  0.0000E+00  0.3720E+00
     -7.038  0.0000E+00  0.3720E+00
     -6.927  0.0000E+00  0.3720E+00
     -6.816  0.0000E+00  0.3720E+00
     -6.705  0.0000E+00  0.3720E+00
     -6.593  0.0000E+00  0.3720E+00
     -6.482  0.0000E+00  0.3720E+00
     -6.371  0.0000E+00  0.3720E+00
     -6.260  0.0000E+00  0.3720E+00
     -6.149  0.0000E+00  0.3720E+00
     -6.038  0.0000E+00  0.3720E+00
     -5.927  0.0000E+00  0.3720E+00
     -5.816  0.0000E+00  0.3720E+00
     -5.705  0.0000E+00  0.3720E+00
     -5.594  0.0000E+00  0.3720E+00
     -5.483  0.0000E+00  0.3720E+00
     -5.372  0.0000E+00  0.3720E+00
     -5.260  0.0000E+00  0.3720E+00
     -5.149  0.0000E+00  0.3720E+00
     -5.038  0.0000E+00  0.3720E+00
     -4.927 -0.3584E-30  0.3720E+00
     -4.816 -0.2275E-26  0.3720E+00
     -4.705 -0.7749E-23  0.3720E+00
     -4.594 -0.1416E-19  0.3720E+00
     -4.483 -0.1385E-16  0.3720E+00
     -4.372 -0.7007E-14  0.3720E+00
     -4.261 -0.1941E-11  0.3720E+00
     -4.150 -0.2851E-09  0.3720E+00
     -4.039 -0.2206E-07  0.3720E+00
     -3.928 -0.8895E-06  0.3720E+00
     -3.816 -0.1833E-04  0.3720E+00
     -3.705 -0.1857E-03  0.3720E+00
     -3.594 -0.8310E-03  0.3719E+00
     -3.483 -0.8680E-03  0.3718E+00
     -3.372  0.4776E-02  0.3723E+00
     -3.261  0.1948E-01  0.3745E+00
     -3.150  0.3778E-01  0.3787E+00
     -3.039  0.4528E-01  0.3837E+00
     -2.928  0.3113E-01  0.3872E+00
     -2.817  0.9689E-02  0.3882E+00
     -2.706 -0.5580E-03  0.3882E+00
     -2.595 -0.1251E-02  0.3880E+00
     -2.484 -0.3329E-03  0.3880E+00
     -2.372 -0.3851E-04  0.3880E+00
     -2.261 -0.2200E-05  0.3880E+00
     -2.150 -0.1641E-06  0.3880E+00
     -2.039 -0.3118E-05  0.3880E+00
     -1.928 -0.4935E-04  0.3880E+00
     -1.817 -0.3764E-03  0.3880E+00
     -1.706 -0.1190E-02  0.3878E+00
     -1.595 -0.2023E-03  0.3878E+00
     -1.484  0.7986E-02  0.3887E+00
     -1.373  0.2679E-01  0.3917E+00
     -1.262  0.5694E-01  0.3980E+00
     -1.151  0.8428E-01  0.4073E+00
     -1.040  0.8284E-01  0.4165E+00
     -0.928  0.5067E-01  0.4222E+00
     -0.817  0.2245E-01  0.4247E+00
     -0.706  0.2904E-01  0.4279E+00
     -0.595  0.4175E-01  0.4325E+00
     -0.484  0.2490E-01  0.4353E+00
     -0.373  0.4791E-02  0.4358E+00
     -0.262  0.1935E-01  0.4380E+00
     -0.151  0.6266E-01  0.4449E+00
     -0.040  0.1025E+00  0.4563E+00
      0.071  0.1259E+00  0.4703E+00
      0.182  0.1261E+00  0.4843E+00
      0.293  0.1097E+00  0.4965E+00
      0.404  0.1071E+00  0.5084E+00
      0.516  0.1076E+00  0.5204E+00
      0.627  0.8565E-01  0.5299E+00
      0.738  0.6944E-01  0.5376E+00
      0.849  0.8184E-01  0.5467E+00
      0.960  0.8526E-01  0.5561E+00
      1.071  0.5329E-01  0.5621E+00
      1.182  0.1820E-01  0.5641E+00
      1.293  0.1787E-02  0.5643E+00
      1.404 -0.1630E-02  0.5641E+00
      1.515 -0.8113E-03  0.5640E+00
      1.626 -0.1523E-03  0.5640E+00
      1.737 -0.1352E-04  0.5640E+00
      1.849 -0.6010E-06  0.5640E+00
      1.960 -0.1377E-07  0.5640E+00
      2.071 -0.1649E-09  0.5640E+00
      2.182 -0.8912E-11  0.5640E+00
      2.293 -0.9735E-09  0.5640E+00
      2.404 -0.6321E-07  0.5640E+00
      2.515 -0.2124E-05  0.5640E+00
      2.626 -0.3586E-04  0.5640E+00
      2.737 -0.2838E-03  0.5640E+00
      2.848 -0.8095E-03  0.5639E+00
      2.959  0.1036E-02  0.5640E+00
      3.070  0.9429E-02  0.5650E+00
      3.181  0.1621E-01  0.5668E+00
      3.293  0.1021E-01  0.5680E+00
      3.404  0.1435E-02  0.5681E+00
      3.515 -0.8202E-03  0.5680E+00
      3.626 -0.3615E-03  0.5680E+00
      3.737 -0.4276E-03  0.5680E+00
      3.848 -0.1508E-02  0.5678E+00
      3.959 -0.3097E-03  0.5678E+00
      4.070  0.1314E-01  0.5692E+00
      4.181  0.3492E-01  0.5731E+00
      4.292  0.3895E-01  0.5774E+00
      4.403  0.2129E-01  0.5798E+00
      4.514  0.4204E-02  0.5802E+00
      4.625 -0.1242E-02  0.5801E+00
      4.737 -0.8018E-03  0.5800E+00
      4.848 -0.1587E-03  0.5800E+00
      4.959 -0.7731E-04  0.5800E+00
      5.070 -0.4917E-03  0.5799E+00
      5.181 -0.1562E-02  0.5798E+00
      5.292  0.3968E-03  0.5798E+00
      5.403  0.1464E-01  0.5814E+00
      5.514  0.3698E-01  0.5855E+00
      5.625  0.4359E-01  0.5904E+00
      5.736  0.3370E-01  0.5941E+00
      5.847  0.3689E-01  0.5982E+00
      5.958  0.5766E-01  0.6046E+00
      6.069  0.6455E-01  0.6118E+00
      6.181  0.4721E-01  0.6170E+00
      6.292  0.2180E-01  0.6195E+00
      6.403  0.6021E-02  0.6201E+00
      6.514  0.1463E-01  0.6218E+00
      6.625  0.3368E-01  0.6255E+00
      6.736  0.3900E-01  0.6298E+00
      6.847  0.4059E-01  0.6343E+00
      6.958  0.4698E-01  0.6396E+00
      7.069  0.4711E-01  0.6448E+00
      7.180  0.4436E-01  0.6497E+00
      7.291  0.4810E-01  0.6551E+00
      7.402  0.5891E-01  0.6616E+00
      7.514  0.5852E-01  0.6681E+00
      7.625  0.3292E-01  0.6718E+00
      7.736  0.5934E-02  0.6724E+00
      7.847 -0.2338E-02  0.6722E+00
      7.958 -0.1239E-02  0.6720E+00
      8.069 -0.2112E-03  0.6720E+00
      8.180 -0.1673E-04  0.6720E+00
      8.291 -0.6672E-06  0.6720E+00
      8.402 -0.1381E-07  0.6720E+00
      8.513 -0.1505E-09  0.6720E+00
      8.624 -0.8702E-12  0.6720E+00
      8.735 -0.2687E-14  0.6720E+00
      8.846  0.0000E+00  0.6720E+00
      8.958  0.0000E+00  0.6720E+00
      9.069  0.0000E+00  0.6720E+00
      9.180  0.0000E+00  0.6720E+00
      9.291  0.0000E+00  0.6720E+00
      9.402  0.0000E+00  0.6720E+00
      9.513  0.0000E+00  0.6720E+00
