 vasp.6.3.2 27Jun22 (build Jun 14 2024 17:29:11) complex                         
 POSCAR found type information on POSCAR NaInS 
 03/POSCAR found :  3 types and      39 ions
 -----------------------------------------------------------------------------
|                                                                             |
|           W    W    AA    RRRRR   N    N  II  N    N   GGGG   !!!           |
|           W    W   A  A   R    R  NN   N  II  NN   N  G    G  !!!           |
|           W    W  A    A  R    R  N N  N  II  N N  N  G       !!!           |
|           W WW W  AAAAAA  RRRRR   N  N N  II  N  N N  G  GGG   !            |
|           WW  WW  A    A  R   R   N   NN  II  N   NN  G    G                |
|           W    W  A    A  R    R  N    N  II  N    N   GGGG   !!!           |
|                                                                             |
|     The value NPAR = 9 specified in the INCAR file was overwritten,         |
|     because it was not compatible with the 3 processes available:           |
|     NPAR = 3                                                                |
|     was used instead, please check that this makes sense for your           |
|     machine.                                                                |
|                                                                             |
 -----------------------------------------------------------------------------

 LDA part: xc-table for Pade appr. of Perdew
 POSCAR found type information on POSCAR NaInS 
 00/POSCAR found :  3 types and      39 ions
 POSCAR found type information on POSCAR NaInS 
 10/POSCAR found :  3 types and      39 ions
 POSCAR, INCAR and KPOINTS ok, starting setup
 FFT: planning ... GRIDC
 FFT: planning ... GRID_SOFT
 FFT: planning ... GRID
 WAVECAR not read
 entering main loop
       N       E                     dE             d eps       ncg     rms          rms(c)
DAV:   1     0.289212699071E+04    0.28921E+04   -0.11470E+05   336   0.150E+03
DAV:   2     0.319960418449E+03   -0.25722E+04   -0.24921E+04   354   0.438E+02
DAV:   3    -0.114154266087E+03   -0.43411E+03   -0.42677E+03   396   0.194E+02
DAV:   4    -0.147306763608E+03   -0.33152E+02   -0.32860E+02   411   0.495E+01
DAV:   5    -0.148529667782E+03   -0.12229E+01   -0.12217E+01   501   0.104E+01    0.192E+01
RMM:   6    -0.139554256465E+03    0.89754E+01   -0.18147E+01   382   0.739E+00    0.120E+01
RMM:   7    -0.139353216303E+03    0.20104E+00   -0.14282E+01   396   0.517E+00    0.725E+00
RMM:   8    -0.139442723436E+03   -0.89507E-01   -0.13990E+00   370   0.336E+00    0.195E+00
RMM:   9    -0.139320327214E+03    0.12240E+00   -0.36402E-01   414   0.161E+00    0.147E+00
RMM:  10    -0.139279245701E+03    0.41082E-01   -0.13062E-01   455   0.824E-01    0.941E-01
RMM:  11    -0.139274753386E+03    0.44923E-02   -0.24761E-02   512   0.364E-01    0.866E-01
RMM:  12    -0.139275050459E+03   -0.29707E-03   -0.37307E-03   516   0.138E-01    0.940E-01
RMM:  13    -0.139281100402E+03   -0.60499E-02   -0.22616E-02   429   0.223E-01    0.732E-01
RMM:  14    -0.139280858092E+03    0.24231E-03   -0.25268E-03   362   0.121E-01    0.631E-01
RMM:  15    -0.139281426859E+03   -0.56877E-03   -0.29452E-03   405   0.113E-01    0.545E-01
RMM:  16    -0.139281538613E+03   -0.11175E-03   -0.36568E-04   372   0.486E-02    0.512E-01
RMM:  17    -0.139281761211E+03   -0.22260E-03   -0.15771E-04   290   0.318E-02    0.455E-01
RMM:  18    -0.139281641437E+03    0.11977E-03   -0.11897E-04   310   0.234E-02    0.405E-01
RMM:  19    -0.139281602799E+03    0.38638E-04   -0.60154E-05   311   0.150E-02    0.382E-01
RMM:  20    -0.139281591974E+03    0.10825E-04   -0.81053E-06   196   0.908E-03    0.372E-01
RMM:  21    -0.139281587047E+03    0.49275E-05   -0.42683E-06   195   0.778E-03
   1 F= -.13928159E+03 E0= -.13929537E+03  d E =-.139282E+03
quench:  g(F)=  0.000E+00 g(S)=  0.000E+00 dE (1.order)= 0.000E+00
 bond charge predicted
       N       E                     dE             d eps       ncg     rms          rms(c)
DAV:   1    -0.139281570969E+03    0.21005E-04   -0.43959E-06   201   0.115E-02    0.341E-01
RMM:   2    -0.139281424341E+03    0.14663E-03   -0.38796E-04   322   0.352E-02    0.201E-01
RMM:   3    -0.139281531479E+03   -0.10714E-03   -0.35253E-04   309   0.288E-02    0.691E-02
RMM:   4    -0.139281442265E+03    0.89214E-04   -0.10096E-04   331   0.219E-02    0.388E-02
RMM:   5    -0.139281420398E+03    0.21867E-04   -0.24529E-05   277   0.114E-02    0.167E-02
RMM:   6    -0.139281423545E+03   -0.31470E-05   -0.22090E-05   221   0.796E-03
   2 F= -.13928142E+03 E0= -.13929518E+03  d E =0.163502E-03
quench:  g(F)=  0.000E+00 g(S)=  0.000E+00 dE (1.order)= 0.000E+00
 bond charge predicted
       N       E                     dE             d eps       ncg     rms          rms(c)
DAV:   1    -0.139281421464E+03   -0.10658E-05   -0.22705E-05   213   0.812E-03    0.466E-03
RMM:   2    -0.139281421258E+03    0.20617E-06   -0.11049E-06   132   0.298E-03
   3 F= -.13928142E+03 E0= -.13929518E+03  d E =0.228742E-05
quench:  g(F)=  0.000E+00 g(S)=  0.000E+00 dE (1.order)= 0.000E+00
 bond charge predicted
       N       E                     dE             d eps       ncg     rms          rms(c)
DAV:   1    -0.139281420465E+03    0.99887E-06   -0.80881E-06   222   0.454E-03    0.185E-03
RMM:   2    -0.139281420332E+03    0.13340E-06   -0.34334E-07    94   0.176E-03
   4 F= -.13928142E+03 E0= -.13929518E+03  d E =0.926098E-06
quench:  g(F)=  0.000E+00 g(S)=  0.000E+00 dE (1.order)= 0.000E+00
 bond charge predicted
       N       E                     dE             d eps       ncg     rms          rms(c)
DAV:   1    -0.139281420259E+03    0.20591E-06   -0.10835E-06   213   0.213E-03    0.974E-04
RMM:   2    -0.139281420262E+03   -0.30850E-08   -0.48217E-08    43   0.115E-03
   5 F= -.13928142E+03 E0= -.13929518E+03  d E =0.694199E-07
quench:  g(F)=  0.000E+00 g(S)=  0.000E+00 dE (1.order)= 0.000E+00
 bond charge predicted
       N       E                     dE             d eps       ncg     rms          rms(c)
DAV:   1    -0.139281420238E+03    0.20886E-07   -0.35941E-07   213   0.132E-03    0.649E-04
RMM:   2    -0.139281420249E+03   -0.10714E-07    0.85366-122    27   0.818E-04
   6 F= -.13928142E+03 E0= -.13929518E+03  d E =0.132568E-07
quench:  g(F)=  0.000E+00 g(S)=  0.000E+00 dE (1.order)= 0.000E+00
 bond charge predicted
       N       E                     dE             d eps       ncg     rms          rms(c)
DAV:   1    -0.139281420252E+03   -0.13519E-07   -0.12031E-07   213   0.870E-04    0.518E-04
RMM:   2    -0.139281420263E+03   -0.11041E-07    0.57162-111    18   0.575E-04
   7 F= -.13928142E+03 E0= -.13929518E+03  d E =-.138461E-07
quench:  g(F)=  0.000E+00 g(S)=  0.000E+00 dE (1.order)= 0.000E+00
 bond charge predicted
       N       E                     dE             d eps       ncg     rms          rms(c)
DAV:   1    -0.139281420259E+03   -0.72250E-08   -0.91636E-08   204   0.671E-04    0.290E-04
RMM:   2    -0.139281420263E+03   -0.42819E-08    0.84764-268    15   0.418E-04
   8 F= -.13928142E+03 E0= -.13929518E+03  d E =-.465661E-09
quench:  g(F)=  0.000E+00 g(S)=  0.000E+00 dE (1.order)= 0.000E+00
 bond charge predicted
       N       E                     dE             d eps       ncg     rms          rms(c)
DAV:   1    -0.139281420263E+03   -0.45184E-08   -0.33304E-08   186   0.434E-04    0.281E-04
RMM:   2    -0.139281420266E+03   -0.24447E-08    0.00000E+00    14   0.330E-04
   9 F= -.13928142E+03 E0= -.13929518E+03  d E =-.268119E-08
quench:  g(F)=  0.000E+00 g(S)=  0.000E+00 dE (1.order)= 0.000E+00
 bond charge predicted
       N       E                     dE             d eps       ncg     rms          rms(c)
DAV:   1    -0.139281420265E+03   -0.18190E-08   -0.19205E-08   186   0.369E-04    0.156E-04
RMM:   2    -0.139281420267E+03   -0.19063E-08    0.00000E+00    13   0.206E-04
  10 F= -.13928142E+03 E0= -.13929518E+03  d E =-.128057E-08
quench:  g(F)=  0.000E+00 g(S)=  0.000E+00 dE (1.order)= 0.000E+00
 bond charge predicted
       N       E                     dE             d eps       ncg     rms          rms(c)
DAV:   1    -0.139281420265E+03   -0.28012E-09   -0.10341E-08   186   0.234E-04    0.101E-04
RMM:   2    -0.139281420267E+03   -0.17717E-08    0.00000E+00    13   0.169E-04
  11 F= -.13928142E+03 E0= -.13929518E+03  d E =-.145519E-09
quench:  g(F)=  0.000E+00 g(S)=  0.000E+00 dE (1.order)= 0.000E+00
 bond charge predicted
       N       E                     dE             d eps       ncg     rms          rms(c)
DAV:   1    -0.139281420268E+03   -0.20300E-08   -0.32059E-09   186   0.173E-04    0.115E-04
RMM:   2    -0.139281420268E+03   -0.46566E-09    0.00000E+00    12   0.125E-04
  12 F= -.13928142E+03 E0= -.13929518E+03  d E =-.723958E-09
quench:  g(F)=  0.000E+00 g(S)=  0.000E+00 dE (1.order)= 0.000E+00
 bond charge predicted
       N       E                     dE             d eps       ncg     rms          rms(c)
DAV:   1    -0.139281420269E+03   -0.13788E-08   -0.35089E-09   186   0.151E-04    0.589E-05
RMM:   2    -0.139281420268E+03    0.53842E-09    0.00000E+00    12   0.867E-05
  13 F= -.13928142E+03 E0= -.13929518E+03  d E =-.374712E-09
quench:  g(F)=  0.000E+00 g(S)=  0.000E+00 dE (1.order)= 0.000E+00
 bond charge predicted
       N       E                     dE             d eps       ncg     rms          rms(c)
DAV:   1    -0.139281420269E+03    0.10914E-09   -0.13399E-09   186   0.931E-05    0.565E-05
RMM:   2    -0.139281420268E+03    0.35288E-09    0.00000E+00    11   0.730E-05
  14 F= -.13928142E+03 E0= -.13929518E+03  d E =-.763976E-10
quench:  g(F)=  0.000E+00 g(S)=  0.000E+00 dE (1.order)= 0.000E+00
 bond charge predicted
       N       E                     dE             d eps       ncg     rms          rms(c)
DAV:   1    -0.139281420267E+03    0.15680E-08   -0.63648E-10   186   0.798E-05    0.387E-05
RMM:   2    -0.139281420268E+03   -0.12769E-08    0.00000E+00     9   0.510E-05
  15 F= -.13928142E+03 E0= -.13929518E+03  d E =-.618456E-10
quench:  g(F)=  0.000E+00 g(S)=  0.000E+00 dE (1.order)= 0.000E+00
 bond charge predicted
       N       E                     dE             d eps       ncg     rms          rms(c)
DAV:   1    -0.139281420268E+03   -0.79308E-09   -0.75748E-10   186   0.626E-05    0.209E-05
RMM:   2    -0.139281420268E+03   -0.35288E-09    0.00000E+00    10   0.431E-05
  16 F= -.13928142E+03 E0= -.13929518E+03  d E =0.130967E-09
quench:  g(F)=  0.000E+00 g(S)=  0.000E+00 dE (1.order)= 0.000E+00
 bond charge predicted
       N       E                     dE             d eps       ncg     rms          rms(c)
DAV:   1    -0.139281420269E+03   -0.63301E-09   -0.17948E-10   180   0.436E-05    0.261E-05
RMM:   2    -0.139281420269E+03    0.11278E-09    0.00000E+00     9   0.329E-05
  17 F= -.13928142E+03 E0= -.13929518E+03  d E =-.167347E-09
quench:  g(F)=  0.000E+00 g(S)=  0.000E+00 dE (1.order)= 0.000E+00
 bond charge predicted
       N       E                     dE             d eps       ncg     rms          rms(c)
DAV:   1    -0.139281420269E+03   -0.38926E-09   -0.19744E-10   186   0.390E-05    0.142E-05
RMM:   2    -0.139281420268E+03    0.62209E-09    0.00000E+00     9   0.240E-05
  18 F= -.13928142E+03 E0= -.13929518E+03  d E =0.120053E-09
quench:  g(F)=  0.000E+00 g(S)=  0.000E+00 dE (1.order)= 0.000E+00
 bond charge predicted
       N       E                     dE             d eps       ncg     rms          rms(c)
DAV:   1    -0.139281420269E+03   -0.32378E-09   -0.18251E-10   180   0.261E-05    0.123E-05
RMM:   2    -0.139281420269E+03    0.79308E-09    0.00000E+00     6   0.200E-05
  19 F= -.13928142E+03 E0= -.13929518E+03  d E =-.152795E-09
quench:  g(F)=  0.000E+00 g(S)=  0.000E+00 dE (1.order)= 0.000E+00
 bond charge predicted
       N       E                     dE             d eps       ncg     rms          rms(c)
DAV:   1    -0.139281420267E+03    0.19681E-08   -0.15929E-10   186   0.215E-05    0.101E-05
RMM:   2    -0.139281420268E+03   -0.10477E-08    0.00000E+00     6   0.155E-05
  20 F= -.13928142E+03 E0= -.13929518E+03  d E =0.127329E-09
quench:  g(F)=  0.000E+00 g(S)=  0.000E+00 dE (1.order)= 0.000E+00
 bond charge predicted
       N       E                     dE             d eps       ncg     rms          rms(c)
DAV:   1    -0.139281420268E+03   -0.95315E-09   -0.80236E-11   180   0.180E-05    0.618E-06
RMM:   2    -0.139281420269E+03   -0.32014E-09    0.00000E+00     6   0.121E-05
  21 F= -.13928142E+03 E0= -.13929518E+03  d E =-.225555E-09
quench:  g(F)=  0.000E+00 g(S)=  0.000E+00 dE (1.order)= 0.000E+00
 bond charge predicted
       N       E                     dE             d eps       ncg     rms          rms(c)
DAV:   1    -0.139281420268E+03    0.75306E-09    0.87495E-11   186   0.126E-05    0.790E-06
RMM:   2    -0.139281420268E+03   -0.86948E-09    0.00000E+00     5   0.101E-05
  22 F= -.13928142E+03 E0= -.13929518E+03  d E =0.203727E-09
quench:  g(F)=  0.000E+00 g(S)=  0.000E+00 dE (1.order)= 0.000E+00
 bond charge predicted
       N       E                     dE             d eps       ncg     rms          rms(c)
DAV:   1    -0.139281420269E+03   -0.11387E-08   -0.70806E-11   186   0.117E-05    0.450E-06
RMM:   2    -0.139281420269E+03    0.15280E-09    0.00000E+00     5   0.720E-06
  23 F= -.13928142E+03 E0= -.13929518E+03  d E =-.116415E-09
quench:  g(F)=  0.000E+00 g(S)=  0.000E+00 dE (1.order)= 0.000E+00
 bond charge predicted
       N       E                     dE             d eps       ncg     rms          rms(c)
DAV:   1    -0.139281420268E+03    0.66211E-09   -0.13236E-10   186   0.837E-06    0.282E-06
RMM:   2    -0.139281420268E+03   -0.40745E-09    0.00000E+00     4   0.602E-06
  24 F= -.13928142E+03 E0= -.13929518E+03  d E =0.101863E-09
quench:  g(F)=  0.000E+00 g(S)=  0.000E+00 dE (1.order)= 0.000E+00
 bond charge predicted
       N       E                     dE             d eps       ncg     rms          rms(c)
DAV:   1    -0.139281420269E+03   -0.69122E-09    0.46105E-11   186   0.630E-06    0.331E-06
RMM:   2    -0.139281420269E+03    0.17826E-09    0.00000E+00     5   0.477E-06
  25 F= -.13928142E+03 E0= -.13929518E+03  d E =-.105501E-09
quench:  g(F)=  0.000E+00 g(S)=  0.000E+00 dE (1.order)= 0.000E+00
 bond charge predicted
       N       E                     dE             d eps       ncg     rms          rms(c)
DAV:   1    -0.139281420269E+03    0.22555E-09    0.46680E-11   186   0.554E-06    0.195E-06
RMM:   2    -0.139281420268E+03    0.17099E-09    0.00000E+00     4   0.362E-06
  26 F= -.13928142E+03 E0= -.13929518E+03  d E =0.218279E-09
quench:  g(F)=  0.000E+00 g(S)=  0.000E+00 dE (1.order)= 0.000E+00
 bond charge predicted
       N       E                     dE             d eps       ncg     rms          rms(c)
DAV:   1    -0.139281420269E+03   -0.36380E-11   -0.40964E-11   186   0.399E-06    0.161E-06
RMM:   2    -0.139281420269E+03   -0.14552E-10    0.00000E+00     5   0.299E-06
  27 F= -.13928142E+03 E0= -.13929518E+03  d E =-.189175E-09
quench:  g(F)=  0.000E+00 g(S)=  0.000E+00 dE (1.order)= 0.000E+00
 bond charge predicted
       N       E                     dE             d eps       ncg     rms          rms(c)
DAV:   1    -0.139281420268E+03    0.47294E-10    0.95000E-11   186   0.322E-06    0.171E-06
RMM:   2    -0.139281420269E+03   -0.10186E-09    0.00000E+00     4   0.245E-06
  28 F= -.13928142E+03 E0= -.13929518E+03  d E =-.400178E-10
quench:  g(F)=  0.000E+00 g(S)=  0.000E+00 dE (1.order)= 0.000E+00
 bond charge predicted
       N       E                     dE             d eps       ncg     rms          rms(c)
DAV:   1    -0.139281420269E+03   -0.22919E-09    0.97865E-12   186   0.285E-06    0.101E-06
RMM:   2    -0.139281420269E+03    0.13461E-09    0.00000E+00     5   0.189E-06
  29 F= -.13928142E+03 E0= -.13929518E+03  d E =0.727596E-11
quench:  g(F)=  0.000E+00 g(S)=  0.000E+00 dE (1.order)= 0.000E+00
 bond charge predicted
       N       E                     dE             d eps       ncg     rms          rms(c)
DAV:   1    -0.139281420268E+03    0.50932E-09    0.37633E-11   186   0.204E-06    0.857E-07
RMM:   2    -0.139281420269E+03   -0.39290E-09    0.00000E+00     4   0.156E-06
  30 F= -.13928142E+03 E0= -.13929518E+03  d E =-.181899E-10
quench:  g(F)=  0.000E+00 g(S)=  0.000E+00 dE (1.order)= 0.000E+00
 bond charge predicted
       N       E                     dE             d eps       ncg     rms          rms(c)
DAV:   1    -0.139281420269E+03   -0.52751E-09    0.10395E-10   186   0.168E-06    0.793E-07
RMM:   2    -0.139281420268E+03    0.25830E-09    0.00000E+00     4   0.125E-06
  31 F= -.13928142E+03 E0= -.13929518E+03  d E =0.123691E-09
quench:  g(F)=  0.000E+00 g(S)=  0.000E+00 dE (1.order)= 0.000E+00
 bond charge predicted
       N       E                     dE             d eps       ncg     rms          rms(c)
DAV:   1    -0.139281420268E+03    0.93132E-09   -0.64170E-11   186   0.142E-06    0.485E-07
RMM:   2    -0.139281420268E+03   -0.68394E-09    0.00000E+00     4   0.977E-07
  32 F= -.13928142E+03 E0= -.13929518E+03  d E =-.109139E-10
quench:  g(F)=  0.000E+00 g(S)=  0.000E+00 dE (1.order)= 0.000E+00
 bond charge predicted
       N       E                     dE             d eps       ncg     rms          rms(c)
DAV:   1    -0.139281420268E+03   -0.57480E-09    0.49180E-12   174   0.104E-06    0.526E-07
RMM:   2    -0.139281420268E+03   -0.72760E-11    0.00000E+00     2   0.819E-07
  33 F= -.13928142E+03 E0= -.13929518E+03  d E =0.101863E-09
quench:  g(F)=  0.000E+00 g(S)=  0.000E+00 dE (1.order)= 0.000E+00
 bond charge predicted
       N       E                     dE             d eps       ncg     rms          rms(c)
DAV:   1    -0.139281420268E+03    0.52387E-09    0.23824E-11   168   0.898E-07    0.337E-07
RMM:   2    -0.139281420268E+03   -0.51296E-09    0.00000E+00     2   0.610E-07
  34 F= -.13928142E+03 E0= -.13929518E+03  d E =0.181899E-10
quench:  g(F)=  0.000E+00 g(S)=  0.000E+00 dE (1.order)= 0.000E+00
 bond charge predicted
       N       E                     dE             d eps       ncg     rms          rms(c)
DAV:   1    -0.139281420268E+03    0.12733E-09   -0.57746E-12   168   0.710E-07    0.213E-07
RMM:   2    -0.139281420269E+03   -0.93860E-09    0.00000E+00     2   0.512E-07
  35 F= -.13928142E+03 E0= -.13929518E+03  d E =-.298314E-09
quench:  g(F)=  0.000E+00 g(S)=  0.000E+00 dE (1.order)= 0.000E+00
 bond charge predicted
       N       E                     dE             d eps       ncg     rms          rms(c)
DAV:   1    -0.139281420268E+03   -0.53478E-09    0.54798E-11   168   0.526E-07    0.255E-07
RMM:   2    -0.139281420269E+03   -0.42564E-09    0.00000E+00     2   0.404E-07
  36 F= -.13928142E+03 E0= -.13929518E+03  d E =-.218279E-10
quench:  g(F)=  0.000E+00 g(S)=  0.000E+00 dE (1.order)= 0.000E+00
 bond charge predicted
       N       E                     dE             d eps       ncg     rms          rms(c)
DAV:   1    -0.139281420269E+03   -0.42564E-09    0.25612E-11   168   0.469E-07    0.148E-07
RMM:   2    -0.139281420269E+03    0.54570E-10    0.00000E+00     2   0.310E-07
  37 F= -.13928142E+03 E0= -.13929518E+03  d E =0.545697E-10
quench:  g(F)=  0.000E+00 g(S)=  0.000E+00 dE (1.order)= 0.000E+00
 bond charge predicted
       N       E                     dE             d eps       ncg     rms          rms(c)
DAV:   1    -0.139281420269E+03   -0.53114E-09   -0.40987E-11   168   0.334E-07    0.112E-07
RMM:   2    -0.139281420269E+03    0.59299E-09    0.00000E+00     2   0.253E-07
  38 F= -.13928142E+03 E0= -.13929518E+03  d E =0.727596E-11
quench:  g(F)=  0.000E+00 g(S)=  0.000E+00 dE (1.order)= 0.000E+00
 bond charge predicted
       N       E                     dE             d eps       ncg     rms          rms(c)
DAV:   1    -0.139281420269E+03    0.47658E-09    0.18173E-10   168   0.269E-07    0.100E-07
RMM:   2    -0.139281420269E+03    0.17826E-09    0.00000E+00     2   0.206E-07
  39 F= -.13928142E+03 E0= -.13929518E+03  d E =0.618456E-10
quench:  g(F)=  0.000E+00 g(S)=  0.000E+00 dE (1.order)= 0.000E+00
 bond charge predicted
       N       E                     dE             d eps       ncg     rms          rms(c)
DAV:   1    -0.139281420269E+03   -0.31650E-09    0.10177E-10   168   0.224E-07    0.711E-08
RMM:   2    -0.139281420268E+03    0.64392E-09    0.00000E+00     2   0.161E-07
  40 F= -.13928142E+03 E0= -.13929518E+03  d E =0.149157E-09
quench:  g(F)=  0.000E+00 g(S)=  0.000E+00 dE (1.order)= 0.000E+00
 bond charge predicted
       N       E                     dE             d eps       ncg     rms          rms(c)
DAV:   1    -0.139281420268E+03    0.62937E-09   -0.62974E-11   168   0.174E-07    0.717E-08
RMM:   2    -0.139281420268E+03    0.36380E-11    0.00000E+00     2   0.137E-07
  41 F= -.13928142E+03 E0= -.13929518E+03  d E =-.109139E-10
quench:  g(F)=  0.000E+00 g(S)=  0.000E+00 dE (1.order)= 0.000E+00
 bond charge predicted
       N       E                     dE             d eps       ncg     rms          rms(c)
DAV:   1    -0.139281420269E+03   -0.39654E-09    0.12707E-12   168   0.148E-07    0.514E-08
RMM:   2    -0.139281420269E+03    0.28012E-09    0.00000E+00     2   0.105E-07
  42 F= -.13928142E+03 E0= -.13929518E+03  d E =-.120053E-09
quench:  g(F)=  0.000E+00 g(S)=  0.000E+00 dE (1.order)= 0.000E+00
 bond charge predicted
       N       E                     dE             d eps       ncg     rms          rms(c)
DAV:   1    -0.139281420269E+03    0.15643E-09   -0.35865E-11   168   0.119E-07    0.379E-08
RMM:   2    -0.139281420269E+03    0.10914E-09    0.00000E+00     2   0.862E-08
  43 F= -.13928142E+03 E0= -.13929518E+03  d E =-.145519E-10
quench:  g(F)=  0.000E+00 g(S)=  0.000E+00 dE (1.order)= 0.000E+00
 bond charge predicted
       N       E                     dE             d eps       ncg     rms          rms(c)
DAV:   1    -0.139281420268E+03    0.32742E-09   -0.54700E-11   168   0.899E-08    0.450E-08
RMM:   2    -0.139281420269E+03   -0.28012E-09    0.00000E+00     2   0.719E-08
  44 F= -.13928142E+03 E0= -.13929518E+03  d E =-.618456E-10
quench:  g(F)=  0.000E+00 g(S)=  0.000E+00 dE (1.order)= 0.000E+00
 bond charge predicted
       N       E                     dE             d eps       ncg     rms          rms(c)
DAV:   1    -0.139281420268E+03    0.79672E-09    0.33090E-11   168   0.833E-08    0.258E-08
RMM:   2    -0.139281420268E+03   -0.91677E-09    0.00000E+00     2   0.536E-08
  45 F= -.13928142E+03 E0= -.13929518E+03  d E =0.160071E-09
quench:  g(F)=  0.000E+00 g(S)=  0.000E+00 dE (1.order)= 0.000E+00
 bond charge predicted
       N       E                     dE             d eps       ncg     rms          rms(c)
DAV:   1    -0.139281420269E+03   -0.15825E-08   -0.36574E-11   168   0.586E-08    0.188E-08
RMM:   2    -0.139281420269E+03    0.52023E-09    0.00000E+00     2   0.441E-08
  46 F= -.13928142E+03 E0= -.13929518E+03  d E =-.145519E-09
quench:  g(F)=  0.000E+00 g(S)=  0.000E+00 dE (1.order)= 0.000E+00
 bond charge predicted
       N       E                     dE             d eps       ncg     rms          rms(c)
DAV:   1    -0.139281420270E+03   -0.74579E-09   -0.23956E-11   168   0.469E-08    0.180E-08
RMM:   2    -0.139281420269E+03    0.12078E-08    0.00000E+00     2   0.358E-08
  47 F= -.13928142E+03 E0= -.13929518E+03  d E =-.582077E-10
quench:  g(F)=  0.000E+00 g(S)=  0.000E+00 dE (1.order)= 0.000E+00
 bond charge predicted
       N       E                     dE             d eps       ncg     rms          rms(c)
DAV:   1    -0.139281420269E+03    0.40018E-09    0.77574E-11   168   0.395E-08    0.118E-08
RMM:   2    -0.139281420269E+03    0.84401E-09    0.00000E+00     2   0.279E-08
  48 F= -.13928142E+03 E0= -.13929518E+03  d E =0.363798E-10
quench:  g(F)=  0.000E+00 g(S)=  0.000E+00 dE (1.order)= 0.000E+00
 bond charge predicted
       N       E                     dE             d eps       ncg     rms          rms(c)
DAV:   1    -0.139281420268E+03    0.10768E-08    0.45306E-11   168   0.300E-08    0.106E-08
RMM:   2    -0.139281420269E+03   -0.16735E-09    0.00000E+00     2   0.232E-08
  49 F= -.13928142E+03 E0= -.13929518E+03  d E =0.654836E-10
quench:  g(F)=  0.000E+00 g(S)=  0.000E+00 dE (1.order)= 0.000E+00
 bond charge predicted
       N       E                     dE             d eps       ncg     rms          rms(c)
DAV:   1    -0.139281420269E+03   -0.96770E-09    0.13651E-11   168   0.249E-08    0.897E-09
RMM:   2    -0.139281420269E+03    0.68030E-09    0.00000E+00     2   0.187E-08
  50 F= -.13928142E+03 E0= -.13929518E+03  d E =-.120053E-09
quench:  g(F)=  0.000E+00 g(S)=  0.000E+00 dE (1.order)= 0.000E+00
 bond charge predicted
       N       E                     dE             d eps       ncg     rms          rms(c)
DAV:   1    -0.139281420268E+03    0.12005E-08    0.69790E-11   168   0.210E-08    0.614E-09
RMM:   2    -0.139281420269E+03   -0.38199E-09    0.00000E+00     2   0.147E-08
  51 F= -.13928142E+03 E0= -.13929518E+03  d E =0.138243E-09
quench:  g(F)=  0.000E+00 g(S)=  0.000E+00 dE (1.order)= 0.000E+00
 bond charge predicted
       N       E                     dE             d eps       ncg     rms          rms(c)
DAV:   1    -0.139281420269E+03   -0.11678E-08    0.53230E-11   168   0.155E-08    0.713E-09
RMM:   2    -0.139281420269E+03    0.67303E-09    0.00000E+00     2   0.125E-08
  52 F= -.13928142E+03 E0= -.13929518E+03  d E =-.112777E-09
quench:  g(F)=  0.000E+00 g(S)=  0.000E+00 dE (1.order)= 0.000E+00
 bond charge predicted
       N       E                     dE             d eps       ncg     rms          rms(c)
DAV:   1    -0.139281420268E+03    0.12078E-08    0.48332E-12   168   0.139E-08    0.450E-09
RMM:   2    -0.139281420269E+03   -0.59299E-09    0.00000E+00     2   0.943E-09
  53 F= -.13928142E+03 E0= -.13929518E+03  d E =-.582077E-10
quench:  g(F)=  0.000E+00 g(S)=  0.000E+00 dE (1.order)= 0.000E+00
 bond charge predicted
       N       E                     dE             d eps       ncg     rms          rms(c)
DAV:   1    -0.139281420268E+03    0.47294E-10   -0.42487E-11   168   0.105E-08    0.306E-09
RMM:   2    -0.139281420269E+03   -0.50204E-09    0.00000E+00     2   0.792E-09
  54 F= -.13928142E+03 E0= -.13929518E+03  d E =0.138243E-09
quench:  g(F)=  0.000E+00 g(S)=  0.000E+00 dE (1.order)= 0.000E+00
 bond charge predicted
       N       E                     dE             d eps       ncg     rms          rms(c)
DAV:   1    -0.139281420269E+03   -0.84401E-09    0.66008E-11   168   0.828E-09    0.306E-09
RMM:   2    -0.139281420269E+03    0.32378E-09    0.00000E+00     2   0.651E-09
  55 F= -.13928142E+03 E0= -.13929518E+03  d E =-.181899E-10
quench:  g(F)=  0.000E+00 g(S)=  0.000E+00 dE (1.order)= 0.000E+00
 bond charge predicted
       N       E                     dE             d eps       ncg     rms          rms(c)
DAV:   1    -0.139281420270E+03   -0.14224E-08   -0.18001E-11   168   0.727E-09    0.197E-09
RMM:   2    -0.139281420269E+03    0.17062E-08    0.00000E+00     2   0.494E-09
  56 F= -.13928142E+03 E0= -.13929518E+03  d E =-.400178E-10
quench:  g(F)=  0.000E+00 g(S)=  0.000E+00 dE (1.order)= 0.000E+00
 bond charge predicted
       N       E                     dE             d eps       ncg     rms          rms(c)
DAV:   1    -0.139281420268E+03    0.22483E-08    0.64760E-11   168   0.526E-09    0.204E-09
RMM:   2    -0.139281420269E+03   -0.56389E-09    0.00000E+00     2   0.410E-09
  57 F= -.13928142E+03 E0= -.13929518E+03  d E =-.218279E-10
quench:  g(F)=  0.000E+00 g(S)=  0.000E+00 dE (1.order)= 0.000E+00
 bond charge predicted
       N       E                     dE             d eps       ncg     rms          rms(c)
DAV:   1    -0.139281420268E+03   -0.23647E-09   -0.21801E-11   168   0.447E-09    0.146E-09
RMM:   2    -0.139281420268E+03   -0.16735E-09    0.00000E+00     2   0.326E-09
  58 F= -.13928142E+03 E0= -.13929518E+03  d E =0.160071E-09
quench:  g(F)=  0.000E+00 g(S)=  0.000E+00 dE (1.order)= 0.000E+00
 bond charge predicted
       N       E                     dE             d eps       ncg     rms          rms(c)
DAV:   1    -0.139281420268E+03    0.18190E-09   -0.66290E-11   168   0.371E-09    0.989E-10
RMM:   2    -0.139281420269E+03   -0.43656E-09    0.00000E+00     2   0.270E-09
  59 F= -.13928142E+03 E0= -.13929518E+03  d E =-.873115E-10
quench:  g(F)=  0.000E+00 g(S)=  0.000E+00 dE (1.order)= 0.000E+00
 bond charge predicted
       N       E                     dE             d eps       ncg     rms          rms(c)
DAV:   1    -0.139281420268E+03   -0.32742E-10   -0.51426E-12   168   0.279E-09    0.127E-09
RMM:   2    -0.139281420269E+03   -0.35652E-09    0.00000E+00     2   0.224E-09
  60 F= -.13928142E+03 E0= -.13929518E+03  d E =0.472937E-10
quench:  g(F)=  0.000E+00 g(S)=  0.000E+00 dE (1.order)= 0.000E+00
 bond charge predicted
       N       E                     dE             d eps       ncg     rms          rms(c)
DAV:   1    -0.139281420269E+03   -0.38199E-09    0.99299E-12   168   0.254E-09    0.808E-10
RMM:   2    -0.139281420269E+03   -0.18190E-09    0.00000E+00     2   0.172E-09
  61 F= -.13928142E+03 E0= -.13929518E+03  d E =-.207365E-09
quench:  g(F)=  0.000E+00 g(S)=  0.000E+00 dE (1.order)= 0.000E+00
 bond charge predicted
       N       E                     dE             d eps       ncg     rms          rms(c)
DAV:   1    -0.139281420268E+03    0.19645E-09   -0.61481E-11   168   0.195E-09    0.543E-10
RMM:   2    -0.139281420269E+03   -0.28376E-09    0.00000E+00     2   0.142E-09
  62 F= -.13928142E+03 E0= -.13929518E+03  d E =0.945874E-10
quench:  g(F)=  0.000E+00 g(S)=  0.000E+00 dE (1.order)= 0.000E+00
 bond charge predicted
       N       E                     dE             d eps       ncg     rms          rms(c)
DAV:   1    -0.139281420269E+03   -0.20373E-09    0.68134E-11   168   0.153E-09    0.612E-10
RMM:   2    -0.139281420269E+03   -0.13097E-09    0.00000E+00     2   0.122E-09
  63 F= -.13928142E+03 E0= -.13929518E+03  d E =-.509317E-10
quench:  g(F)=  0.000E+00 g(S)=  0.000E+00 dE (1.order)= 0.000E+00
 bond charge predicted
       N       E                     dE             d eps       ncg     rms          rms(c)
DAV:   1    -0.139281420268E+03    0.98225E-10    0.67017E-11   168   0.144E-09    0.329E-10
RMM:   2    -0.139281420269E+03   -0.10550E-09    0.00000E+00     2   0.933E-10
  64 F= -.13928142E+03 E0= -.13929518E+03  d E =0.123691E-09
quench:  g(F)=  0.000E+00 g(S)=  0.000E+00 dE (1.order)= 0.000E+00
 bond charge predicted
       N       E                     dE             d eps       ncg     rms          rms(c)
DAV:   1    -0.139281420269E+03   -0.26557E-09   -0.24690E-11   168   0.963E-10    0.383E-10
RMM:   2    -0.139281420269E+03    0.16735E-09    0.00000E+00     2   0.769E-10
  65 F= -.13928142E+03 E0= -.13929518E+03  d E =0.727596E-11
quench:  g(F)=  0.000E+00 g(S)=  0.000E+00 dE (1.order)= 0.000E+00
 bond charge predicted
       N       E                     dE             d eps       ncg     rms          rms(c)
DAV:   1    -0.139281420269E+03   -0.25466E-10    0.15703E-11   168   0.845E-10    0.320E-10
RMM:   2    -0.139281420269E+03    0.14188E-09    0.00000E+00     2   0.623E-10
  66 F= -.13928142E+03 E0= -.13929518E+03  d E =-.509317E-10
quench:  g(F)=  0.000E+00 g(S)=  0.000E+00 dE (1.order)= 0.000E+00
 bond charge predicted
       N       E                     dE             d eps       ncg     rms          rms(c)
DAV:   1    -0.139281420268E+03    0.30195E-09    0.36101E-11   168   0.712E-10    0.420E-10
RMM:   2    -0.139281420269E+03   -0.18190E-09    0.00000E+00     2   0.529E-10
  67 F= -.13928142E+03 E0= -.13929518E+03  d E =-.218279E-10
quench:  g(F)=  0.000E+00 g(S)=  0.000E+00 dE (1.order)= 0.000E+00
 bond charge predicted
       N       E                     dE             d eps       ncg     rms          rms(c)
DAV:   1    -0.139281420268E+03    0.70577E-09    0.79660E-11   168   0.648E-10    0.268E-10
RMM:   2    -0.139281420268E+03   -0.73487E-09    0.00000E+00     2   0.441E-10
  68 F= -.13928142E+03 E0= -.13929518E+03  d E =0.152795E-09
quench:  g(F)=  0.000E+00 g(S)=  0.000E+00 dE (1.order)= 0.000E+00
 bond charge predicted
       N       E                     dE             d eps       ncg     rms          rms(c)
DAV:   1    -0.139281420267E+03    0.43292E-09   -0.61968E-11   168   0.493E-10    0.284E-10
RMM:   2    -0.139281420269E+03   -0.13097E-08    0.00000E+00     2   0.385E-10
  69 F= -.13928142E+03 E0= -.13929518E+03  d E =-.141881E-09
quench:  g(F)=  0.000E+00 g(S)=  0.000E+00 dE (1.order)= 0.000E+00
 bond charge predicted
       N       E                     dE             d eps       ncg     rms          rms(c)
DAV:   1    -0.139281420269E+03   -0.16771E-08    0.81688E-11   168   0.429E-10    0.298E-10
RMM:   2    -0.139281420269E+03    0.35652E-09    0.00000E+00     2   0.328E-10
  70 F= -.13928142E+03 E0= -.13929518E+03  d E =-.109139E-10
quench:  g(F)=  0.000E+00 g(S)=  0.000E+00 dE (1.order)= 0.000E+00
 bond charge predicted
       N       E                     dE             d eps       ncg     rms          rms(c)
DAV:   1    -0.139281420269E+03    0.42201E-09    0.25354E-11   168   0.411E-10    0.187E-10
RMM:   2    -0.139281420269E+03    0.00000E+00    0.00000E+00     2   0.285E-10
  71 F= -.13928142E+03 E0= -.13929518E+03  d E =0.654836E-10
quench:  g(F)=  0.000E+00 g(S)=  0.000E+00 dE (1.order)= 0.000E+00
 bond charge predicted
       N       E                     dE             d eps       ncg     rms          rms(c)
DAV:   1    -0.139281420269E+03   -0.33469E-09    0.63900E-11   168   0.293E-10    0.298E-10
RMM:   2    -0.139281420269E+03    0.30195E-09    0.00000E+00     2   0.249E-10
  72 F= -.13928142E+03 E0= -.13929518E+03  d E =-.327418E-10
quench:  g(F)=  0.000E+00 g(S)=  0.000E+00 dE (1.order)= 0.000E+00
 bond charge predicted
       N       E                     dE             d eps       ncg     rms          rms(c)
DAV:   1    -0.139281420268E+03    0.99681E-09   -0.19662E-11   168   0.334E-10    0.218E-10
RMM:   2    -0.139281420269E+03   -0.66575E-09    0.00000E+00     2   0.220E-10
  73 F= -.13928142E+03 E0= -.13929518E+03  d E =0.291038E-10
quench:  g(F)=  0.000E+00 g(S)=  0.000E+00 dE (1.order)= 0.000E+00
 bond charge predicted
       N       E                     dE             d eps       ncg     rms          rms(c)
DAV:   1    -0.139281420269E+03   -0.78217E-09   -0.26024E-11   168   0.272E-10    0.258E-10
RMM:   2    -0.139281420269E+03    0.98225E-10    0.00000E+00     2   0.190E-10
  74 F= -.13928142E+03 E0= -.13929518E+03  d E =-.181899E-10
quench:  g(F)=  0.000E+00 g(S)=  0.000E+00 dE (1.order)= 0.000E+00
 bond charge predicted
       N       E                     dE             d eps       ncg     rms          rms(c)
DAV:   1    -0.139281420269E+03   -0.10550E-09   -0.25955E-11   168   0.257E-10    0.234E-10
RMM:   2    -0.139281420269E+03    0.16735E-09    0.00000E+00     2   0.173E-10
  75 F= -.13928142E+03 E0= -.13929518E+03  d E =-.363798E-10
quench:  g(F)=  0.000E+00 g(S)=  0.000E+00 dE (1.order)= 0.000E+00
 bond charge predicted
       N       E                     dE             d eps       ncg     rms          rms(c)
DAV:   1    -0.139281420268E+03    0.42564E-09   -0.22060E-11   168   0.256E-10    0.136E-10
RMM:   2    -0.139281420269E+03   -0.17826E-09    0.00000E+00     2   0.154E-10
  76 F= -.13928142E+03 E0= -.13929518E+03  d E =0.800355E-10
quench:  g(F)=  0.000E+00 g(S)=  0.000E+00 dE (1.order)= 0.000E+00
 bond charge predicted
       N       E                     dE             d eps       ncg     rms          rms(c)
DAV:   1    -0.139281420267E+03    0.92768E-09    0.30264E-11   168   0.206E-10    0.230E-10
RMM:   2    -0.139281420269E+03   -0.11751E-08    0.00000E+00     2   0.146E-10
  77 F= -.13928142E+03 E0= -.13929518E+03  d E =-.691216E-10
quench:  g(F)=  0.000E+00 g(S)=  0.000E+00 dE (1.order)= 0.000E+00
 bond charge predicted
       N       E                     dE             d eps       ncg     rms          rms(c)
DAV:   1    -0.139281420270E+03   -0.22228E-08    0.94590E-11   168   0.160E-10    0.166E-10
RMM:   2    -0.139281420269E+03    0.98589E-09    0.00000E+00     2   0.132E-10
  78 F= -.13928142E+03 E0= -.13929518E+03  d E =-.618456E-10
quench:  g(F)=  0.000E+00 g(S)=  0.000E+00 dE (1.order)= 0.000E+00
 bond charge predicted
       N       E                     dE             d eps       ncg     rms          rms(c)
DAV:   1    -0.139281420269E+03    0.11350E-08    0.19806E-11   168   0.195E-10    0.271E-10
RMM:   2    -0.139281420269E+03   -0.50932E-10    0.00000E+00     2   0.137E-10
  79 F= -.13928142E+03 E0= -.13929518E+03  d E =0.982254E-10
quench:  g(F)=  0.000E+00 g(S)=  0.000E+00 dE (1.order)= 0.000E+00
 bond charge predicted
       N       E                     dE             d eps       ncg     rms          rms(c)
DAV:   1    -0.139281420269E+03   -0.38926E-09    0.72189E-11   168   0.209E-10    0.221E-10
RMM:   2    -0.139281420269E+03    0.26193E-09    0.00000E+00     2   0.130E-10
  80 F= -.13928142E+03 E0= -.13929518E+03  d E =-.763976E-10
quench:  g(F)=  0.000E+00 g(S)=  0.000E+00 dE (1.order)= 0.000E+00
 bond charge predicted
       N       E                     dE             d eps       ncg     rms          rms(c)
DAV:   1    -0.139281420268E+03    0.85856E-09    0.52977E-11   168   0.222E-10    0.232E-10
RMM:   2    -0.139281420269E+03   -0.52751E-09    0.00000E+00     2   0.133E-10
  81 F= -.13928142E+03 E0= -.13929518E+03  d E =0.691216E-10
quench:  g(F)=  0.000E+00 g(S)=  0.000E+00 dE (1.order)= 0.000E+00
 bond charge predicted
       N       E                     dE             d eps       ncg     rms          rms(c)
DAV:   1    -0.139281420268E+03   -0.23647E-09    0.52430E-11   168   0.228E-10    0.270E-10
RMM:   2    -0.139281420269E+03   -0.32742E-09    0.00000E+00     2   0.126E-10
  82 F= -.13928142E+03 E0= -.13929518E+03  d E =-.363798E-10
quench:  g(F)=  0.000E+00 g(S)=  0.000E+00 dE (1.order)= 0.000E+00
 bond charge predicted
       N       E                     dE             d eps       ncg     rms          rms(c)
DAV:   1    -0.139281420269E+03   -0.36016E-09    0.46834E-11   168   0.160E-10    0.205E-10
RMM:   2    -0.139281420269E+03   -0.36380E-11    0.00000E+00     2   0.122E-10
  83 F= -.13928142E+03 E0= -.13929518E+03  d E =-.363798E-10
quench:  g(F)=  0.000E+00 g(S)=  0.000E+00 dE (1.order)= 0.000E+00
 bond charge predicted
       N       E                     dE             d eps       ncg     rms          rms(c)
DAV:   1    -0.139281420269E+03   -0.12733E-09    0.95136E-11   168   0.140E-10    0.239E-10
RMM:   2    -0.139281420269E+03    0.12005E-09    0.00000E+00     2   0.113E-10
  84 F= -.13928142E+03 E0= -.13929518E+03  d E =-.363798E-11
quench:  g(F)=  0.000E+00 g(S)=  0.000E+00 dE (1.order)= 0.000E+00
 bond charge predicted
       N       E                     dE             d eps       ncg     rms          rms(c)
DAV:   1    -0.139281420268E+03    0.79672E-09    0.66525E-12   168   0.202E-10    0.187E-10
RMM:   2    -0.139281420269E+03   -0.64756E-09    0.00000E+00     2   0.112E-10
  85 F= -.13928142E+03 E0= -.13929518E+03  d E =0.291038E-10
quench:  g(F)=  0.000E+00 g(S)=  0.000E+00 dE (1.order)= 0.000E+00
 bond charge predicted
       N       E                     dE             d eps       ncg     rms          rms(c)
DAV:   1    -0.139281420270E+03   -0.17099E-08    0.80114E-11   168   0.168E-10    0.189E-10
RMM:   2    -0.139281420269E+03    0.10805E-08    0.00000E+00     2   0.114E-10
  86 F= -.13928142E+03 E0= -.13929518E+03  d E =0.181899E-10
quench:  g(F)=  0.000E+00 g(S)=  0.000E+00 dE (1.order)= 0.000E+00
 bond charge predicted
       N       E                     dE             d eps       ncg     rms          rms(c)
DAV:   1    -0.139281420269E+03    0.11059E-08    0.47285E-11   168   0.199E-10    0.281E-10
RMM:   2    -0.139281420269E+03    0.10914E-10    0.00000E+00     2   0.127E-10
  87 F= -.13928142E+03 E0= -.13929518E+03  d E =0.363798E-10
quench:  g(F)=  0.000E+00 g(S)=  0.000E+00 dE (1.order)= 0.000E+00
 bond charge predicted
       N       E                     dE             d eps       ncg     rms          rms(c)
DAV:   1    -0.139281420269E+03   -0.58208E-09   -0.94137E-12   168   0.201E-10    0.209E-10
RMM:   2    -0.139281420269E+03    0.45839E-09    0.00000E+00     2   0.108E-10
  88 F= -.13928142E+03 E0= -.13929518E+03  d E =-.134605E-09
quench:  g(F)=  0.000E+00 g(S)=  0.000E+00 dE (1.order)= 0.000E+00
 bond charge predicted
       N       E                     dE             d eps       ncg     rms          rms(c)
DAV:   1    -0.139281420269E+03    0.30923E-09    0.51254E-11   168   0.239E-10    0.126E-10
RMM:   2    -0.139281420269E+03    0.16735E-09    0.00000E+00     2   0.121E-10
  89 F= -.13928142E+03 E0= -.13929518E+03  d E =0.181899E-10
quench:  g(F)=  0.000E+00 g(S)=  0.000E+00 dE (1.order)= 0.000E+00
 bond charge predicted
       N       E                     dE             d eps       ncg     rms          rms(c)
DAV:   1    -0.139281420269E+03   -0.20009E-09    0.39809E-11   168   0.154E-10    0.227E-10
RMM:   2    -0.139281420269E+03    0.40382E-09    0.00000E+00     2   0.125E-10
  90 F= -.13928142E+03 E0= -.13929518E+03  d E =0.363798E-10
quench:  g(F)=  0.000E+00 g(S)=  0.000E+00 dE (1.order)= 0.000E+00
 bond charge predicted
       N       E                     dE             d eps       ncg     rms          rms(c)
DAV:   1    -0.139281420269E+03    0.40382E-09   -0.49146E-11   168   0.224E-10    0.137E-10
RMM:   2    -0.139281420269E+03    0.98225E-10    0.00000E+00     2   0.107E-10
  91 F= -.13928142E+03 E0= -.13929518E+03  d E =0.982254E-10
quench:  g(F)=  0.000E+00 g(S)=  0.000E+00 dE (1.order)= 0.000E+00
 bond charge predicted
       N       E                     dE             d eps       ncg     rms          rms(c)
DAV:   1    -0.139281420268E+03    0.76034E-09   -0.10341E-12   168   0.139E-10    0.203E-10
RMM:   2    -0.139281420269E+03   -0.69485E-09    0.00000E+00     2   0.101E-10
  92 F= -.13928142E+03 E0= -.13929518E+03  d E =-.327418E-10
quench:  g(F)=  0.000E+00 g(S)=  0.000E+00 dE (1.order)= 0.000E+00
 bond charge predicted
       N       E                     dE             d eps       ncg     rms          rms(c)
DAV:   1    -0.139281420269E+03   -0.91677E-09    0.36491E-11   168   0.155E-10    0.165E-10
RMM:   2    -0.139281420269E+03    0.20736E-09    0.00000E+00     2   0.910E-11
  93 F= -.13928142E+03 E0= -.13929518E+03  d E =-.145519E-10
quench:  g(F)=  0.000E+00 g(S)=  0.000E+00 dE (1.order)= 0.000E+00
 bond charge predicted
       N       E                     dE             d eps       ncg     rms          rms(c)
DAV:   1    -0.139281420269E+03   -0.10914E-09    0.37846E-11   168   0.103E-10    0.212E-10
RMM:   2    -0.139281420269E+03    0.27649E-09    0.00000E+00     2   0.884E-11
  94 F= -.13928142E+03 E0= -.13929518E+03  d E =-.400178E-10
quench:  g(F)=  0.000E+00 g(S)=  0.000E+00 dE (1.order)= 0.000E+00
 bond charge predicted
       N       E                     dE             d eps       ncg     rms          rms(c)
DAV:   1    -0.139281420269E+03   -0.42201E-09    0.99045E-11   168   0.944E-11    0.200E-10
RMM:   2    -0.139281420269E+03    0.80036E-09    0.00000E+00     2   0.109E-10
  95 F= -.13928142E+03 E0= -.13929518E+03  d E =0.101863E-09
quench:  g(F)=  0.000E+00 g(S)=  0.000E+00 dE (1.order)= 0.000E+00
 bond charge predicted
       N       E                     dE             d eps       ncg     rms          rms(c)
DAV:   1    -0.139281420269E+03    0.39654E-09    0.22802E-11   168   0.159E-10    0.239E-10
RMM:   2    -0.139281420269E+03    0.28012E-09    0.00000E+00     2   0.114E-10
  96 F= -.13928142E+03 E0= -.13929518E+03  d E =-.123691E-09
quench:  g(F)=  0.000E+00 g(S)=  0.000E+00 dE (1.order)= 0.000E+00
 bond charge predicted
       N       E                     dE             d eps       ncg     rms          rms(c)
DAV:   1    -0.139281420269E+03    0.30923E-09   -0.56200E-11   168   0.214E-10    0.157E-10
RMM:   2    -0.139281420269E+03    0.58208E-10    0.00000E+00     2   0.117E-10
  97 F= -.13928142E+03 E0= -.13929518E+03  d E =0.873115E-10
quench:  g(F)=  0.000E+00 g(S)=  0.000E+00 dE (1.order)= 0.000E+00
 bond charge predicted
       N       E                     dE             d eps       ncg     rms          rms(c)
DAV:   1    -0.139281420269E+03   -0.53114E-09    0.51152E-12   168   0.164E-10    0.209E-10
RMM:   2    -0.139281420269E+03    0.58935E-09    0.00000E+00     2   0.133E-10
  98 F= -.13928142E+03 E0= -.13929518E+03  d E =0.000000E+00
quench:  g(F)=  0.000E+00 g(S)=  0.000E+00 dE (1.order)= 0.000E+00
 bond charge predicted
       N       E                     dE             d eps       ncg     rms          rms(c)
DAV:   1    -0.139281420268E+03    0.70213E-09   -0.35902E-11   168   0.185E-10    0.190E-10
RMM:   2    -0.139281420269E+03   -0.10550E-09    0.00000E+00     2   0.110E-10
  99 F= -.13928142E+03 E0= -.13929518E+03  d E =0.727596E-11
quench:  g(F)=  0.000E+00 g(S)=  0.000E+00 dE (1.order)= 0.000E+00
 bond charge predicted
       N       E                     dE             d eps       ncg     rms          rms(c)
DAV:   1    -0.139281420269E+03   -0.10223E-08    0.99706E-11   168   0.174E-10    0.221E-10
RMM:   2    -0.139281420269E+03    0.97134E-09    0.00000E+00     2   0.793E-11
 100 F= -.13928142E+03 E0= -.13929518E+03  d E =0.545697E-10
quench:  g(F)=  0.000E+00 g(S)=  0.000E+00 dE (1.order)= 0.000E+00
 bond charge predicted
       N       E                     dE             d eps       ncg     rms          rms(c)
DAV:   1    -0.139281420268E+03    0.14625E-08   -0.89892E-12   168   0.141E-10    0.172E-10
RMM:   2    -0.139281420269E+03   -0.58208E-09    0.00000E+00     2   0.882E-11
 101 F= -.13928142E+03 E0= -.13929518E+03  d E =-.909495E-10
quench:  g(F)=  0.000E+00 g(S)=  0.000E+00 dE (1.order)= 0.000E+00
 bond charge predicted
       N       E                     dE             d eps       ncg     rms          rms(c)
DAV:   1    -0.139281420268E+03   -0.43292E-09    0.58607E-11   168   0.166E-10    0.131E-10
RMM:   2    -0.139281420269E+03   -0.17826E-09    0.00000E+00     2   0.950E-11
 102 F= -.13928142E+03 E0= -.13929518E+03  d E =-.291038E-10
quench:  g(F)=  0.000E+00 g(S)=  0.000E+00 dE (1.order)= 0.000E+00
 bond charge predicted
       N       E                     dE             d eps       ncg     rms          rms(c)
DAV:   1    -0.139281420269E+03   -0.15280E-09    0.72284E-11   168   0.124E-10    0.237E-10
RMM:   2    -0.139281420269E+03    0.54570E-10    0.00000E+00     2   0.111E-10
 103 F= -.13928142E+03 E0= -.13929518E+03  d E =0.800355E-10
quench:  g(F)=  0.000E+00 g(S)=  0.000E+00 dE (1.order)= 0.000E+00
 bond charge predicted
       N       E                     dE             d eps       ncg     rms          rms(c)
DAV:   1    -0.139281420269E+03   -0.59663E-09   -0.26972E-11   168   0.186E-10    0.162E-10
RMM:   2    -0.139281420269E+03    0.60027E-09    0.00000E+00     2   0.903E-11
 104 F= -.13928142E+03 E0= -.13929518E+03  d E =-.509317E-10
quench:  g(F)=  0.000E+00 g(S)=  0.000E+00 dE (1.order)= 0.000E+00
 bond charge predicted
       N       E                     dE             d eps       ncg     rms          rms(c)
DAV:   1    -0.139281420269E+03    0.10914E-09    0.42324E-11   168   0.136E-10    0.177E-10
RMM:   2    -0.139281420269E+03    0.57480E-09    0.00000E+00     2   0.899E-11
 105 F= -.13928142E+03 E0= -.13929518E+03  d E =0.836735E-10
quench:  g(F)=  0.000E+00 g(S)=  0.000E+00 dE (1.order)= 0.000E+00
 bond charge predicted
       N       E                     dE             d eps       ncg     rms          rms(c)
DAV:   1    -0.139281420268E+03    0.13024E-08    0.10634E-10   168   0.123E-10    0.237E-10
RMM:   2    -0.139281420269E+03   -0.76761E-09    0.00000E+00     2   0.106E-10
 106 F= -.13928142E+03 E0= -.13929518E+03  d E =-.400178E-10
quench:  g(F)=  0.000E+00 g(S)=  0.000E+00 dE (1.order)= 0.000E+00
 bond charge predicted
       N       E                     dE             d eps       ncg     rms          rms(c)
DAV:   1    -0.139281420268E+03   -0.58208E-10    0.57210E-11   168   0.166E-10    0.156E-10
RMM:   2    -0.139281420269E+03   -0.81127E-09    0.00000E+00     2   0.872E-11
 107 F= -.13928142E+03 E0= -.13929518E+03  d E =-.101863E-09
quench:  g(F)=  0.000E+00 g(S)=  0.000E+00 dE (1.order)= 0.000E+00
 bond charge predicted
       N       E                     dE             d eps       ncg     rms          rms(c)
DAV:   1    -0.139281420268E+03    0.35288E-09    0.35352E-11   168   0.198E-10    0.152E-10
RMM:   2    -0.139281420269E+03   -0.10587E-08    0.00000E+00     2   0.931E-11
 108 F= -.13928142E+03 E0= -.13929518E+03  d E =0.105501E-09
quench:  g(F)=  0.000E+00 g(S)=  0.000E+00 dE (1.order)= 0.000E+00
 bond charge predicted
       N       E                     dE             d eps       ncg     rms          rms(c)
DAV:   1    -0.139281420269E+03   -0.15643E-08    0.82203E-11   168   0.139E-10    0.266E-10
RMM:   2    -0.139281420269E+03    0.42201E-09    0.00000E+00     2   0.119E-10
 109 F= -.13928142E+03 E0= -.13929518E+03  d E =-.836735E-10
quench:  g(F)=  0.000E+00 g(S)=  0.000E+00 dE (1.order)= 0.000E+00
 bond charge predicted
       N       E                     dE             d eps       ncg     rms          rms(c)
DAV:   1    -0.139281420268E+03    0.89494E-09    0.65912E-11   168   0.217E-10    0.167E-10
RMM:   2    -0.139281420269E+03   -0.42928E-09    0.00000E+00     2   0.116E-10
 110 F= -.13928142E+03 E0= -.13929518E+03  d E =0.436557E-10
quench:  g(F)=  0.000E+00 g(S)=  0.000E+00 dE (1.order)= 0.000E+00
 bond charge predicted
       N       E                     dE             d eps       ncg     rms          rms(c)
DAV:   1    -0.139281420269E+03   -0.49113E-09    0.32694E-11   168   0.188E-10    0.164E-10
RMM:   2    -0.139281420269E+03   -0.58208E-10    0.00000E+00     2   0.111E-10
 111 F= -.13928142E+03 E0= -.13929518E+03  d E =-.120053E-09
quench:  g(F)=  0.000E+00 g(S)=  0.000E+00 dE (1.order)= 0.000E+00
 bond charge predicted
       N       E                     dE             d eps       ncg     rms          rms(c)
DAV:   1    -0.139281420269E+03   -0.40382E-09    0.43531E-11   168   0.142E-10    0.173E-10
RMM:   2    -0.139281420269E+03    0.42928E-09    0.00000E+00     2   0.115E-10
 112 F= -.13928142E+03 E0= -.13929518E+03  d E =0.836735E-10
quench:  g(F)=  0.000E+00 g(S)=  0.000E+00 dE (1.order)= 0.000E+00
 bond charge predicted
       N       E                     dE             d eps       ncg     rms          rms(c)
DAV:   1    -0.139281420269E+03    0.19645E-09    0.63571E-11   168   0.160E-10    0.146E-10
RMM:   2    -0.139281420269E+03    0.17826E-09    0.00000E+00     1   0.916E-11
 113 F= -.13928142E+03 E0= -.13929518E+03  d E =-.545697E-10
quench:  g(F)=  0.000E+00 g(S)=  0.000E+00 dE (1.order)= 0.000E+00
 bond charge predicted
       N       E                     dE             d eps       ncg     rms          rms(c)
DAV:   1    -0.139281420268E+03    0.42564E-09    0.25283E-11   168   0.138E-10    0.182E-10
RMM:   2    -0.139281420269E+03   -0.16371E-09    0.00000E+00     2   0.917E-11
 114 F= -.13928142E+03 E0= -.13929518E+03  d E =0.836735E-10
quench:  g(F)=  0.000E+00 g(S)=  0.000E+00 dE (1.order)= 0.000E+00
 bond charge predicted
       N       E                     dE             d eps       ncg     rms          rms(c)
DAV:   1    -0.139281420269E+03   -0.10914E-09    0.18292E-11   168   0.176E-10    0.181E-10
RMM:   2    -0.139281420269E+03   -0.12369E-09    0.00000E+00     1   0.985E-11
 115 F= -.13928142E+03 E0= -.13929518E+03  d E =-.691216E-10
quench:  g(F)=  0.000E+00 g(S)=  0.000E+00 dE (1.order)= 0.000E+00
 bond charge predicted
       N       E                     dE             d eps       ncg     rms          rms(c)
DAV:   1    -0.139281420268E+03    0.31650E-09   -0.20229E-11   168   0.176E-10    0.203E-10
RMM:   2    -0.139281420269E+03   -0.41473E-09    0.00000E+00     2   0.101E-10
 116 F= -.13928142E+03 E0= -.13929518E+03  d E =0.254659E-10
quench:  g(F)=  0.000E+00 g(S)=  0.000E+00 dE (1.order)= 0.000E+00
 bond charge predicted
       N       E                     dE             d eps       ncg     rms          rms(c)
DAV:   1    -0.139281420269E+03   -0.96043E-09    0.21453E-11   168   0.163E-10    0.204E-10
RMM:   2    -0.139281420269E+03    0.51296E-09    0.00000E+00     1   0.112E-10
 117 F= -.13928142E+03 E0= -.13929518E+03  d E =-.327418E-10
quench:  g(F)=  0.000E+00 g(S)=  0.000E+00 dE (1.order)= 0.000E+00
 bond charge predicted
       N       E                     dE             d eps       ncg     rms          rms(c)
DAV:   1    -0.139281420268E+03    0.76761E-09    0.44634E-11   168   0.225E-10    0.172E-10
RMM:   2    -0.139281420269E+03   -0.21828E-09    0.00000E+00     1   0.107E-10
 118 F= -.13928142E+03 E0= -.13929518E+03  d E =0.363798E-10
quench:  g(F)=  0.000E+00 g(S)=  0.000E+00 dE (1.order)= 0.000E+00
 bond charge predicted
       N       E                     dE             d eps       ncg     rms          rms(c)
DAV:   1    -0.139281420268E+03    0.43292E-09    0.41281E-11   168   0.136E-10    0.166E-10
RMM:   2    -0.139281420269E+03   -0.62209E-09    0.00000E+00     1   0.991E-11
 119 F= -.13928142E+03 E0= -.13929518E+03  d E =0.291038E-10
quench:  g(F)=  0.000E+00 g(S)=  0.000E+00 dE (1.order)= 0.000E+00
 bond charge predicted
       N       E                     dE             d eps       ncg     rms          rms(c)
DAV:   1    -0.139281420269E+03   -0.56025E-09    0.18727E-11   168   0.135E-10    0.169E-10
RMM:   2    -0.139281420269E+03    0.14552E-10    0.00000E+00     1   0.102E-10
 120 F= -.13928142E+03 E0= -.13929518E+03  d E =0.763976E-10
quench:  g(F)=  0.000E+00 g(S)=  0.000E+00 dE (1.order)= 0.000E+00
 bond charge predicted
       N       E                     dE             d eps       ncg     rms          rms(c)
DAV:   1    -0.139281420269E+03   -0.63301E-09    0.42331E-11   168   0.146E-10    0.258E-10
RMM:   2    -0.139281420269E+03    0.58571E-09    0.00000E+00     1   0.997E-11
 121 F= -.13928142E+03 E0= -.13929518E+03  d E =-.618456E-10
quench:  g(F)=  0.000E+00 g(S)=  0.000E+00 dE (1.order)= 0.000E+00
 bond charge predicted
       N       E                     dE             d eps       ncg     rms          rms(c)
DAV:   1    -0.139281420270E+03   -0.31287E-09    0.17367E-12   168   0.179E-10    0.194E-10
RMM:   2    -0.139281420269E+03    0.96770E-09    0.00000E+00     1   0.968E-11
 122 F= -.13928142E+03 E0= -.13929518E+03  d E =0.691216E-10
quench:  g(F)=  0.000E+00 g(S)=  0.000E+00 dE (1.order)= 0.000E+00
 bond charge predicted
       N       E                     dE             d eps       ncg     rms          rms(c)
DAV:   1    -0.139281420269E+03    0.91677E-09    0.88380E-11   168   0.209E-10    0.139E-10
RMM:   2    -0.139281420269E+03   -0.12005E-09    0.00000E+00     1   0.108E-10
 123 F= -.13928142E+03 E0= -.13929518E+03  d E =-.170985E-09
quench:  g(F)=  0.000E+00 g(S)=  0.000E+00 dE (1.order)= 0.000E+00
 bond charge predicted
       N       E                     dE             d eps       ncg     rms          rms(c)
DAV:   1    -0.139281420269E+03   -0.83674E-10    0.49388E-11   168   0.135E-10    0.249E-10
RMM:   2    -0.139281420269E+03    0.43656E-10    0.00000E+00     1   0.119E-10
 124 F= -.13928142E+03 E0= -.13929518E+03  d E =0.800355E-10
quench:  g(F)=  0.000E+00 g(S)=  0.000E+00 dE (1.order)= 0.000E+00
 bond charge predicted
       N       E                     dE             d eps       ncg     rms          rms(c)
DAV:   1    -0.139281420268E+03    0.23647E-09   -0.15150E-11   168   0.195E-10    0.212E-10
RMM:   2    -0.139281420269E+03   -0.14916E-09    0.00000E+00     1   0.111E-10
 125 F= -.13928142E+03 E0= -.13929518E+03  d E =0.436557E-10
quench:  g(F)=  0.000E+00 g(S)=  0.000E+00 dE (1.order)= 0.000E+00
 bond charge predicted
       N       E                     dE             d eps       ncg     rms          rms(c)
DAV:   1    -0.139281420269E+03   -0.74942E-09    0.19341E-11   168   0.241E-10    0.141E-10
RMM:   2    -0.139281420269E+03    0.54206E-09    0.00000E+00     1   0.850E-11
 126 F= -.13928142E+03 E0= -.13929518E+03  d E =-.582077E-10
quench:  g(F)=  0.000E+00 g(S)=  0.000E+00 dE (1.order)= 0.000E+00
 bond charge predicted
       N       E                     dE             d eps       ncg     rms          rms(c)
DAV:   1    -0.139281420268E+03    0.86220E-09   -0.55291E-12   168   0.142E-10    0.194E-10
RMM:   2    -0.139281420269E+03   -0.20373E-09    0.00000E+00     1   0.827E-11
 127 F= -.13928142E+03 E0= -.13929518E+03  d E =0.116415E-09
quench:  g(F)=  0.000E+00 g(S)=  0.000E+00 dE (1.order)= 0.000E+00
 bond charge predicted
       N       E                     dE             d eps       ncg     rms          rms(c)
DAV:   1    -0.139281420269E+03   -0.24374E-09    0.93226E-11   168   0.157E-10    0.171E-10
RMM:   2    -0.139281420269E+03   -0.13461E-09    0.00000E+00     1   0.112E-10
 128 F= -.13928142E+03 E0= -.13929518E+03  d E =-.174623E-09
quench:  g(F)=  0.000E+00 g(S)=  0.000E+00 dE (1.order)= 0.000E+00
 bond charge predicted
       N       E                     dE             d eps       ncg     rms          rms(c)
DAV:   1    -0.139281420268E+03    0.67666E-09    0.59702E-11   168   0.162E-10    0.215E-10
RMM:   2    -0.139281420269E+03   -0.65847E-09    0.00000E+00     1   0.102E-10
 129 F= -.13928142E+03 E0= -.13929518E+03  d E =0.152795E-09
quench:  g(F)=  0.000E+00 g(S)=  0.000E+00 dE (1.order)= 0.000E+00
 bond charge predicted
       N       E                     dE             d eps       ncg     rms          rms(c)
DAV:   1    -0.139281420269E+03   -0.69849E-09    0.33077E-11   168   0.168E-10    0.257E-10
RMM:   2    -0.139281420269E+03   -0.18190E-10    0.00000E+00     1   0.123E-10
 130 F= -.13928142E+03 E0= -.13929518E+03  d E =-.582077E-10
quench:  g(F)=  0.000E+00 g(S)=  0.000E+00 dE (1.order)= 0.000E+00
 bond charge predicted
       N       E                     dE             d eps       ncg     rms          rms(c)
DAV:   1    -0.139281420269E+03   -0.21464E-09    0.67298E-11   168   0.281E-10    0.200E-10
RMM:   2    -0.139281420269E+03    0.23283E-09    0.00000E+00     1   0.999E-11
 131 F= -.13928142E+03 E0= -.13929518E+03  d E =0.363798E-10
quench:  g(F)=  0.000E+00 g(S)=  0.000E+00 dE (1.order)= 0.000E+00
 bond charge predicted
       N       E                     dE             d eps       ncg     rms          rms(c)
DAV:   1    -0.139281420269E+03   -0.24738E-09    0.53268E-11   168   0.139E-10    0.176E-10
RMM:   2    -0.139281420269E+03    0.42564E-09    0.00000E+00     1   0.890E-11
 132 F= -.13928142E+03 E0= -.13929518E+03  d E =-.545697E-10
quench:  g(F)=  0.000E+00 g(S)=  0.000E+00 dE (1.order)= 0.000E+00
 bond charge predicted
       N       E                     dE             d eps       ncg     rms          rms(c)
DAV:   1    -0.139281420270E+03   -0.69485E-09    0.14145E-10   168   0.208E-10    0.114E-10
RMM:   2    -0.139281420269E+03    0.11460E-08    0.00000E+00     0   0.101E-10
 133 F= -.13928142E+03 E0= -.13929518E+03  d E =0.254659E-10
quench:  g(F)=  0.000E+00 g(S)=  0.000E+00 dE (1.order)= 0.000E+00
 bond charge predicted
       N       E                     dE             d eps       ncg     rms          rms(c)
DAV:   1    -0.139281420269E+03    0.71304E-09    0.75151E-11   168   0.125E-10    0.180E-10
RMM:   2    -0.139281420269E+03    0.32742E-09    0.00000E+00     0   0.931E-11
 134 F= -.13928142E+03 E0= -.13929518E+03  d E =-.105501E-09
quench:  g(F)=  0.000E+00 g(S)=  0.000E+00 dE (1.order)= 0.000E+00
 bond charge predicted
       N       E                     dE             d eps       ncg     rms          rms(c)
DAV:   1    -0.139281420270E+03   -0.51659E-09    0.37722E-11   168   0.106E-10    0.339E-10
RMM:   2    -0.139281420269E+03    0.98225E-09    0.00000E+00     1   0.128E-10
 135 F= -.13928142E+03 E0= -.13929518E+03  d E =0.138243E-09
quench:  g(F)=  0.000E+00 g(S)=  0.000E+00 dE (1.order)= 0.000E+00
 bond charge predicted
       N       E                     dE             d eps       ncg     rms          rms(c)
DAV:   1    -0.139281420269E+03    0.76034E-09    0.44827E-11   168   0.261E-10    0.310E-10
RMM:   2    -0.139281420269E+03    0.15280E-09    0.00000E+00     1   0.135E-10
 136 F= -.13928142E+03 E0= -.13929518E+03  d E =-.691216E-10
quench:  g(F)=  0.000E+00 g(S)=  0.000E+00 dE (1.order)= 0.000E+00
 bond charge predicted
       N       E                     dE             d eps       ncg     rms          rms(c)
DAV:   1    -0.139281420268E+03    0.50568E-09    0.89768E-11   168   0.139E-10    0.160E-10
RMM:   2    -0.139281420269E+03   -0.43656E-09    0.00000E+00     0   0.909E-11
 137 F= -.13928142E+03 E0= -.13929518E+03  d E =-.836735E-10
quench:  g(F)=  0.000E+00 g(S)=  0.000E+00 dE (1.order)= 0.000E+00
 bond charge predicted
       N       E                     dE             d eps       ncg     rms          rms(c)
DAV:   1    -0.139281420269E+03   -0.76034E-09    0.96133E-11   168   0.130E-10    0.238E-10
RMM:   2    -0.139281420269E+03    0.46566E-09    0.00000E+00     0   0.126E-10
 138 F= -.13928142E+03 E0= -.13929518E+03  d E =0.141881E-09
quench:  g(F)=  0.000E+00 g(S)=  0.000E+00 dE (1.order)= 0.000E+00
 bond charge predicted
       N       E                     dE             d eps       ncg     rms          rms(c)
DAV:   1    -0.139281420268E+03    0.10623E-08    0.47080E-11   168   0.244E-10    0.163E-10
RMM:   2    -0.139281420269E+03   -0.61482E-09    0.00000E+00     0   0.108E-10
 139 F= -.13928142E+03 E0= -.13929518E+03  d E =-.181899E-10
quench:  g(F)=  0.000E+00 g(S)=  0.000E+00 dE (1.order)= 0.000E+00
 bond charge predicted
       N       E                     dE             d eps       ncg     rms          rms(c)
DAV:   1    -0.139281420269E+03   -0.11678E-08    0.38533E-11   168   0.160E-10    0.140E-10
RMM:   2    -0.139281420269E+03    0.60754E-09    0.00000E+00     0   0.102E-10
 140 F= -.13928142E+03 E0= -.13929518E+03  d E =0.545697E-10
quench:  g(F)=  0.000E+00 g(S)=  0.000E+00 dE (1.order)= 0.000E+00
 bond charge predicted
       N       E                     dE             d eps       ncg     rms          rms(c)
DAV:   1    -0.139281420268E+03    0.93132E-09    0.73126E-11   168   0.145E-10    0.242E-10
RMM:   2    -0.139281420269E+03   -0.36016E-09    0.00000E+00     0   0.109E-10
 141 F= -.13928142E+03 E0= -.13929518E+03  d E =-.363798E-10
quench:  g(F)=  0.000E+00 g(S)=  0.000E+00 dE (1.order)= 0.000E+00
 bond charge predicted
       N       E                     dE             d eps       ncg     rms          rms(c)
DAV:   1    -0.139281420269E+03   -0.37107E-09    0.26134E-11   168   0.193E-10    0.217E-10
RMM:   2    -0.139281420269E+03   -0.54570E-10    0.00000E+00     0   0.104E-10
 142 F= -.13928142E+03 E0= -.13929518E+03  d E =-.654836E-10
quench:  g(F)=  0.000E+00 g(S)=  0.000E+00 dE (1.order)= 0.000E+00
 bond charge predicted
       N       E                     dE             d eps       ncg     rms          rms(c)
DAV:   1    -0.139281420269E+03   -0.28012E-09   -0.37679E-11   168   0.178E-10    0.248E-10
RMM:   2    -0.139281420269E+03    0.34561E-09    0.00000E+00     0   0.106E-10
 143 F= -.13928142E+03 E0= -.13929518E+03  d E =0.120053E-09
quench:  g(F)=  0.000E+00 g(S)=  0.000E+00 dE (1.order)= 0.000E+00
 bond charge predicted
       N       E                     dE             d eps       ncg     rms          rms(c)
DAV:   1    -0.139281420269E+03    0.21464E-09    0.25039E-12   168   0.172E-10    0.254E-10
RMM:   2    -0.139281420269E+03   -0.32742E-10    0.00000E+00     0   0.130E-10
 144 F= -.13928142E+03 E0= -.13929518E+03  d E =-.163709E-09
quench:  g(F)=  0.000E+00 g(S)=  0.000E+00 dE (1.order)= 0.000E+00
 bond charge predicted
       N       E                     dE             d eps       ncg     rms          rms(c)
DAV:   1    -0.139281420269E+03   -0.65120E-09    0.60514E-11   168   0.245E-10    0.273E-10
RMM:   2    -0.139281420269E+03    0.69849E-09    0.00000E+00     0   0.129E-10
 145 F= -.13928142E+03 E0= -.13929518E+03  d E =0.800355E-10
quench:  g(F)=  0.000E+00 g(S)=  0.000E+00 dE (1.order)= 0.000E+00
 bond charge predicted
       N       E                     dE             d eps       ncg     rms          rms(c)
DAV:   1    -0.139281420268E+03    0.15425E-08    0.10362E-11   168   0.233E-10    0.288E-10
RMM:   2    -0.139281420269E+03   -0.89130E-09    0.00000E+00     0   0.135E-10
 146 F= -.13928142E+03 E0= -.13929518E+03  d E =-.472937E-10
quench:  g(F)=  0.000E+00 g(S)=  0.000E+00 dE (1.order)= 0.000E+00
 bond charge predicted
       N       E                     dE             d eps       ncg     rms          rms(c)
DAV:   1    -0.139281420268E+03   -0.67303E-09    0.35688E-14   168   0.258E-10    0.157E-10
RMM:   2    -0.139281420269E+03   -0.13461E-09    0.00000E+00     0   0.114E-10
 147 F= -.13928142E+03 E0= -.13929518E+03  d E =0.836735E-10
quench:  g(F)=  0.000E+00 g(S)=  0.000E+00 dE (1.order)= 0.000E+00
 bond charge predicted
       N       E                     dE             d eps       ncg     rms          rms(c)
DAV:   1    -0.139281420269E+03   -0.54570E-09    0.13096E-11   168   0.219E-10    0.179E-10
RMM:   2    -0.139281420269E+03    0.31650E-09    0.00000E+00     0   0.112E-10
 148 F= -.13928142E+03 E0= -.13929518E+03  d E =-.945874E-10
quench:  g(F)=  0.000E+00 g(S)=  0.000E+00 dE (1.order)= 0.000E+00
 bond charge predicted
       N       E                     dE             d eps       ncg     rms          rms(c)
DAV:   1    -0.139281420269E+03   -0.23283E-09    0.59759E-11   168   0.132E-10    0.191E-10
RMM:   2    -0.139281420269E+03    0.54570E-09    0.00000E+00     0   0.126E-10
 149 F= -.13928142E+03 E0= -.13929518E+03  d E =-.363798E-11
quench:  g(F)=  0.000E+00 g(S)=  0.000E+00 dE (1.order)= 0.000E+00
 bond charge predicted
       N       E                     dE             d eps       ncg     rms          rms(c)
DAV:   1    -0.139281420269E+03    0.47294E-09    0.28087E-11   168   0.172E-10    0.194E-10
RMM:   2    -0.139281420269E+03    0.50932E-10    0.00000E+00     0   0.900E-11
 150 F= -.13928142E+03 E0= -.13929518E+03  d E =-.218279E-10
quench:  g(F)=  0.000E+00 g(S)=  0.000E+00 dE (1.order)= 0.000E+00
 bond charge predicted
       N       E                     dE             d eps       ncg     rms          rms(c)
DAV:   1    -0.139281420269E+03   -0.24011E-09    0.60670E-11   168   0.107E-10    0.238E-10
RMM:   2    -0.139281420269E+03    0.41109E-09    0.00000E+00     0   0.107E-10
 151 F= -.13928142E+03 E0= -.13929518E+03  d E =0.120053E-09
quench:  g(F)=  0.000E+00 g(S)=  0.000E+00 dE (1.order)= 0.000E+00
 bond charge predicted
       N       E                     dE             d eps       ncg     rms          rms(c)
DAV:   1    -0.139281420269E+03   -0.24738E-09    0.11595E-11   168   0.240E-10    0.235E-10
RMM:   2    -0.139281420269E+03    0.59663E-09    0.00000E+00     0   0.116E-10
 152 F= -.13928142E+03 E0= -.13929518E+03  d E =-.618456E-10
quench:  g(F)=  0.000E+00 g(S)=  0.000E+00 dE (1.order)= 0.000E+00
 bond charge predicted
       N       E                     dE             d eps       ncg     rms          rms(c)
DAV:   1    -0.139281420268E+03    0.77125E-09    0.28408E-11   168   0.191E-10    0.258E-10
RMM:   2    -0.139281420269E+03   -0.21464E-09    0.00000E+00     0   0.114E-10
 153 F= -.13928142E+03 E0= -.13929518E+03  d E =-.400178E-10
quench:  g(F)=  0.000E+00 g(S)=  0.000E+00 dE (1.order)= 0.000E+00
 bond charge predicted
       N       E                     dE             d eps       ncg     rms          rms(c)
DAV:   1    -0.139281420268E+03    0.19645E-09    0.78722E-11   168   0.246E-10    0.166E-10
RMM:   2    -0.139281420269E+03   -0.37107E-09    0.00000E+00     0   0.117E-10
 154 F= -.13928142E+03 E0= -.13929518E+03  d E =0.400178E-10
quench:  g(F)=  0.000E+00 g(S)=  0.000E+00 dE (1.order)= 0.000E+00
 bond charge predicted
       N       E                     dE             d eps       ncg     rms          rms(c)
DAV:   1    -0.139281420267E+03    0.86948E-09   -0.16757E-11   168   0.190E-10    0.209E-10
RMM:   2    -0.139281420269E+03   -0.11460E-08    0.00000E+00     0   0.107E-10
 155 F= -.13928142E+03 E0= -.13929518E+03  d E =0.945874E-10
quench:  g(F)=  0.000E+00 g(S)=  0.000E+00 dE (1.order)= 0.000E+00
 bond charge predicted
       N       E                     dE             d eps       ncg     rms          rms(c)
DAV:   1    -0.139281420269E+03   -0.16698E-08    0.50373E-11   168   0.177E-10    0.247E-10
RMM:   2    -0.139281420269E+03    0.43656E-09    0.00000E+00     0   0.141E-10
 156 F= -.13928142E+03 E0= -.13929518E+03  d E =-.873115E-10
quench:  g(F)=  0.000E+00 g(S)=  0.000E+00 dE (1.order)= 0.000E+00
 bond charge predicted
       N       E                     dE             d eps       ncg     rms          rms(c)
DAV:   1    -0.139281420268E+03    0.82946E-09    0.46573E-13   168   0.206E-10    0.182E-10
RMM:   2    -0.139281420269E+03   -0.38926E-09    0.00000E+00     0   0.117E-10
 157 F= -.13928142E+03 E0= -.13929518E+03  d E =0.363798E-11
quench:  g(F)=  0.000E+00 g(S)=  0.000E+00 dE (1.order)= 0.000E+00
 bond charge predicted
       N       E                     dE             d eps       ncg     rms          rms(c)
DAV:   1    -0.139281420268E+03   -0.20736E-09    0.10003E-10   168   0.172E-10    0.224E-10
RMM:   2    -0.139281420269E+03   -0.17462E-09    0.00000E+00     0   0.117E-10
 158 F= -.13928142E+03 E0= -.13929518E+03  d E =0.727596E-11
quench:  g(F)=  0.000E+00 g(S)=  0.000E+00 dE (1.order)= 0.000E+00
 bond charge predicted
       N       E                     dE             d eps       ncg     rms          rms(c)
DAV:   1    -0.139281420270E+03   -0.11751E-08    0.70117E-11   168   0.206E-10    0.190E-10
RMM:   2    -0.139281420269E+03    0.10332E-08    0.00000E+00     0   0.940E-11
 159 F= -.13928142E+03 E0= -.13929518E+03  d E =0.327418E-10
quench:  g(F)=  0.000E+00 g(S)=  0.000E+00 dE (1.order)= 0.000E+00
 bond charge predicted
       N       E                     dE             d eps       ncg     rms          rms(c)
DAV:   1    -0.139281420269E+03    0.10259E-08    0.45286E-12   168   0.177E-10    0.159E-10
RMM:   2    -0.139281420269E+03    0.25466E-10    0.00000E+00     0   0.925E-11
 160 F= -.13928142E+03 E0= -.13929518E+03  d E =0.181899E-10
quench:  g(F)=  0.000E+00 g(S)=  0.000E+00 dE (1.order)= 0.000E+00
 bond charge predicted
       N       E                     dE             d eps       ncg     rms          rms(c)
DAV:   1    -0.139281420268E+03    0.22555E-09    0.40770E-11   168   0.114E-10    0.167E-10
RMM:   2    -0.139281420269E+03   -0.24738E-09    0.00000E+00     0   0.964E-11
 161 F= -.13928142E+03 E0= -.13929518E+03  d E =-.472937E-10
quench:  g(F)=  0.000E+00 g(S)=  0.000E+00 dE (1.order)= 0.000E+00
 bond charge predicted
       N       E                     dE             d eps       ncg     rms          rms(c)
DAV:   1    -0.139281420268E+03    0.29831E-09    0.38975E-11   168   0.133E-10    0.214E-10
RMM:   2    -0.139281420269E+03   -0.57116E-09    0.00000E+00     0   0.927E-11
 162 F= -.13928142E+03 E0= -.13929518E+03  d E =-.254659E-10
quench:  g(F)=  0.000E+00 g(S)=  0.000E+00 dE (1.order)= 0.000E+00
 bond charge predicted
       N       E                     dE             d eps       ncg     rms          rms(c)
DAV:   1    -0.139281420268E+03   -0.15280E-09    0.42212E-11   168   0.196E-10    0.169E-10
RMM:   2    -0.139281420269E+03   -0.30559E-09    0.00000E+00     0   0.795E-11
 163 F= -.13928142E+03 E0= -.13929518E+03  d E =0.112777E-09
quench:  g(F)=  0.000E+00 g(S)=  0.000E+00 dE (1.order)= 0.000E+00
 bond charge predicted
       N       E                     dE             d eps       ncg     rms          rms(c)
DAV:   1    -0.139281420269E+03   -0.11278E-08    0.29726E-11   168   0.118E-10    0.225E-10
RMM:   2    -0.139281420269E+03    0.84401E-09    0.00000E+00     0   0.130E-10
 164 F= -.13928142E+03 E0= -.13929518E+03  d E =0.218279E-10
quench:  g(F)=  0.000E+00 g(S)=  0.000E+00 dE (1.order)= 0.000E+00
 bond charge predicted
       N       E                     dE             d eps       ncg     rms          rms(c)
DAV:   1    -0.139281420268E+03    0.12224E-08   -0.16392E-11   168   0.127E-10    0.229E-10
RMM:   2    -0.139281420269E+03   -0.52751E-09    0.00000E+00     0   0.851E-11
 165 F= -.13928142E+03 E0= -.13929518E+03  d E =-.149157E-09
quench:  g(F)=  0.000E+00 g(S)=  0.000E+00 dE (1.order)= 0.000E+00
 bond charge predicted
       N       E                     dE             d eps       ncg     rms          rms(c)
DAV:   1    -0.139281420268E+03   -0.23647E-09    0.50751E-11   168   0.154E-10    0.190E-10
RMM:   2    -0.139281420269E+03   -0.26921E-09    0.00000E+00     0   0.107E-10
 166 F= -.13928142E+03 E0= -.13929518E+03  d E =0.218279E-10
quench:  g(F)=  0.000E+00 g(S)=  0.000E+00 dE (1.order)= 0.000E+00
 bond charge predicted
       N       E                     dE             d eps       ncg     rms          rms(c)
DAV:   1    -0.139281420269E+03   -0.54206E-09    0.75627E-11   168   0.147E-10    0.163E-10
RMM:   2    -0.139281420269E+03    0.22555E-09    0.00000E+00     0   0.102E-10
 167 F= -.13928142E+03 E0= -.13929518E+03  d E =-.472937E-10
quench:  g(F)=  0.000E+00 g(S)=  0.000E+00 dE (1.order)= 0.000E+00
 bond charge predicted
       N       E                     dE             d eps       ncg     rms          rms(c)
DAV:   1    -0.139281420268E+03    0.62573E-09    0.74745E-11   168   0.154E-10    0.262E-10
RMM:   2    -0.139281420269E+03   -0.42928E-09    0.00000E+00     0   0.110E-10
 168 F= -.13928142E+03 E0= -.13929518E+03  d E =-.291038E-10
quench:  g(F)=  0.000E+00 g(S)=  0.000E+00 dE (1.order)= 0.000E+00
 bond charge predicted
       N       E                     dE             d eps       ncg     rms          rms(c)
DAV:   1    -0.139281420269E+03   -0.89130E-09    0.39790E-11   168   0.191E-10    0.194E-10
RMM:   2    -0.139281420269E+03    0.62937E-09    0.00000E+00     0   0.102E-10
 169 F= -.13928142E+03 E0= -.13929518E+03  d E =0.167347E-09
quench:  g(F)=  0.000E+00 g(S)=  0.000E+00 dE (1.order)= 0.000E+00
 bond charge predicted
       N       E                     dE             d eps       ncg     rms          rms(c)
DAV:   1    -0.139281420268E+03    0.10441E-08   -0.16473E-11   168   0.208E-10    0.195E-10
RMM:   2    -0.139281420269E+03   -0.57844E-09    0.00000E+00     0   0.108E-10
 170 F= -.13928142E+03 E0= -.13929518E+03  d E =-.163709E-09
quench:  g(F)=  0.000E+00 g(S)=  0.000E+00 dE (1.order)= 0.000E+00
 bond charge predicted
       N       E                     dE             d eps       ncg     rms          rms(c)
DAV:   1    -0.139281420269E+03   -0.63665E-09    0.13513E-10   168   0.150E-10    0.211E-10
RMM:   2    -0.139281420269E+03    0.13097E-09    0.00000E+00     0   0.124E-10
 171 F= -.13928142E+03 E0= -.13929518E+03  d E =0.727596E-10
quench:  g(F)=  0.000E+00 g(S)=  0.000E+00 dE (1.order)= 0.000E+00
 bond charge predicted
       N       E                     dE             d eps       ncg     rms          rms(c)
DAV:   1    -0.139281420268E+03    0.72032E-09    0.62656E-11   168   0.177E-10    0.154E-10
RMM:   2    -0.139281420269E+03   -0.52023E-09    0.00000E+00     0   0.106E-10
 172 F= -.13928142E+03 E0= -.13929518E+03  d E =0.691216E-10
quench:  g(F)=  0.000E+00 g(S)=  0.000E+00 dE (1.order)= 0.000E+00
 bond charge predicted
       N       E                     dE             d eps       ncg     rms          rms(c)
DAV:   1    -0.139281420268E+03   -0.41473E-09   -0.40784E-12   168   0.179E-10    0.135E-10
RMM:   2    -0.139281420269E+03   -0.15280E-09    0.00000E+00     0   0.123E-10
 173 F= -.13928142E+03 E0= -.13929518E+03  d E =-.472937E-10
quench:  g(F)=  0.000E+00 g(S)=  0.000E+00 dE (1.order)= 0.000E+00
 bond charge predicted
       N       E                     dE             d eps       ncg     rms          rms(c)
DAV:   1    -0.139281420268E+03    0.35652E-09    0.30005E-11   168   0.111E-10    0.210E-10
RMM:   2    -0.139281420269E+03   -0.51296E-09    0.00000E+00     0   0.889E-11
 174 F= -.13928142E+03 E0= -.13929518E+03  d E =-.363798E-11
quench:  g(F)=  0.000E+00 g(S)=  0.000E+00 dE (1.order)= 0.000E+00
 bond charge predicted
       N       E                     dE             d eps       ncg     rms          rms(c)
DAV:   1    -0.139281420269E+03   -0.87675E-09    0.30485E-11   168   0.128E-10    0.246E-10
RMM:   2    -0.139281420269E+03    0.34561E-09    0.00000E+00     0   0.102E-10
 175 F= -.13928142E+03 E0= -.13929518E+03  d E =-.181899E-10
quench:  g(F)=  0.000E+00 g(S)=  0.000E+00 dE (1.order)= 0.000E+00
 bond charge predicted
       N       E                     dE             d eps       ncg     rms          rms(c)
DAV:   1    -0.139281420269E+03    0.21828E-10    0.54372E-11   168   0.163E-10    0.155E-10
RMM:   2    -0.139281420269E+03    0.38926E-09    0.00000E+00     0   0.873E-11
 176 F= -.13928142E+03 E0= -.13929518E+03  d E =0.654836E-10
quench:  g(F)=  0.000E+00 g(S)=  0.000E+00 dE (1.order)= 0.000E+00
 bond charge predicted
       N       E                     dE             d eps       ncg     rms          rms(c)
DAV:   1    -0.139281420269E+03    0.38563E-09    0.22754E-11   168   0.173E-10    0.187E-10
RMM:   2    -0.139281420269E+03   -0.11278E-09    0.00000E+00     0   0.113E-10
 177 F= -.13928142E+03 E0= -.13929518E+03  d E =-.116415E-09
quench:  g(F)=  0.000E+00 g(S)=  0.000E+00 dE (1.order)= 0.000E+00
 bond charge predicted
       N       E                     dE             d eps       ncg     rms          rms(c)
DAV:   1    -0.139281420268E+03    0.10186E-09    0.12991E-11   168   0.173E-10    0.207E-10
RMM:   2    -0.139281420269E+03   -0.87311E-10    0.00000E+00     0   0.102E-10
 178 F= -.13928142E+03 E0= -.13929518E+03  d E =0.127329E-09
quench:  g(F)=  0.000E+00 g(S)=  0.000E+00 dE (1.order)= 0.000E+00
 bond charge predicted
       N       E                     dE             d eps       ncg     rms          rms(c)
DAV:   1    -0.139281420269E+03   -0.47294E-09    0.22094E-11   168   0.161E-10    0.291E-10
RMM:   2    -0.139281420269E+03    0.29831E-09    0.00000E+00     0   0.119E-10
 179 F= -.13928142E+03 E0= -.13929518E+03  d E =-.873115E-10
quench:  g(F)=  0.000E+00 g(S)=  0.000E+00 dE (1.order)= 0.000E+00
 bond charge predicted
       N       E                     dE             d eps       ncg     rms          rms(c)
DAV:   1    -0.139281420269E+03    0.13097E-09    0.50904E-11   168   0.133E-10    0.174E-10
RMM:   2    -0.139281420269E+03    0.16735E-09    0.00000E+00     0   0.968E-11
 180 F= -.13928142E+03 E0= -.13929518E+03  d E =0.000000E+00
quench:  g(F)=  0.000E+00 g(S)=  0.000E+00 dE (1.order)= 0.000E+00
 bond charge predicted
       N       E                     dE             d eps       ncg     rms          rms(c)
DAV:   1    -0.139281420268E+03    0.91313E-09    0.10564E-10   168   0.115E-10    0.166E-10
RMM:   2    -0.139281420269E+03   -0.76761E-09    0.00000E+00     0   0.101E-10
 181 F= -.13928142E+03 E0= -.13929518E+03  d E =-.218279E-10
quench:  g(F)=  0.000E+00 g(S)=  0.000E+00 dE (1.order)= 0.000E+00
 bond charge predicted
       N       E                     dE             d eps       ncg     rms          rms(c)
DAV:   1    -0.139281420268E+03    0.83674E-10    0.24984E-11   168   0.196E-10    0.186E-10
RMM:   2    -0.139281420269E+03   -0.72032E-09    0.00000E+00     0   0.106E-10
 182 F= -.13928142E+03 E0= -.13929518E+03  d E =0.130967E-09
quench:  g(F)=  0.000E+00 g(S)=  0.000E+00 dE (1.order)= 0.000E+00
 bond charge predicted
       N       E                     dE             d eps       ncg     rms          rms(c)
DAV:   1    -0.139281420269E+03   -0.93496E-09   -0.63434E-11   168   0.199E-10    0.234E-10
RMM:   2    -0.139281420269E+03    0.15643E-09    0.00000E+00     0   0.108E-10
 183 F= -.13928142E+03 E0= -.13929518E+03  d E =-.582077E-10
[...]
 bond charge predicted
       N       E                     dE             d eps       ncg     rms          rms(c)
DAV:   1    -0.139281420269E+03   -0.11423E-08    0.56684E-11   168   0.212E-10    0.174E-10
RMM:   2    -0.139281420269E+03    0.74579E-09    0.00000E+00     0   0.900E-11
 453 F= -.13928142E+03 E0= -.13929518E+03  d E =0.000000E+00
quench:  g(F)=  0.000E+00 g(S)=  0.000E+00 dE (1.order)= 0.000E+00
 bond charge predicted
       N       E                     dE             d eps       ncg     rms          rms(c)
DAV:   1    -0.139281420269E+03    0.36016E-09    0.36310E-11   168   0.143E-10    0.305E-10
RMM:   2    -0.139281420269E+03    0.43292E-09    0.00000E+00     0   0.103E-10
 454 F= -.13928142E+03 E0= -.13929518E+03  d E =0.472937E-10
quench:  g(F)=  0.000E+00 g(S)=  0.000E+00 dE (1.order)= 0.000E+00
 bond charge predicted
       N       E                     dE             d eps       ncg     rms          rms(c)
DAV:   1    -0.139281420269E+03   -0.25466E-10   -0.39101E-11   168   0.229E-10    0.185E-10
RMM:   2    -0.139281420269E+03    0.38563E-09    0.00000E+00     0   0.107E-10
 455 F= -.13928142E+03 E0= -.13929518E+03  d E =-.727596E-10
quench:  g(F)=  0.000E+00 g(S)=  0.000E+00 dE (1.order)= 0.000E+00
 bond charge predicted
       N       E                     dE             d eps       ncg     rms          rms(c)
DAV:   1    -0.139281420268E+03    0.53114E-09    0.84562E-11   168   0.235E-10    0.956E-11
RMM:   2    -0.139281420269E+03   -0.90949E-10    0.00000E+00     0   0.111E-10
 456 F= -.13928142E+03 E0= -.13929518E+03  d E =0.545697E-10
quench:  g(F)=  0.000E+00 g(S)=  0.000E+00 dE (1.order)= 0.000E+00
 bond charge predicted
       N       E                     dE             d eps       ncg     rms          rms(c)
DAV:   1    -0.139281420269E+03   -0.23647E-09   -0.28888E-11   168   0.111E-10    0.213E-10
RMM:   2    -0.139281420269E+03    0.47294E-10    0.00000E+00     0   0.959E-11
 457 F= -.13928142E+03 E0= -.13929518E+03  d E =-.982254E-10
quench:  g(F)=  0.000E+00 g(S)=  0.000E+00 dE (1.order)= 0.000E+00
 bond charge predicted
       N       E                     dE             d eps       ncg     rms          rms(c)
DAV:   1    -0.139281420268E+03    0.29468E-09    0.64098E-11   168   0.163E-10    0.214E-10
RMM:   2    -0.139281420269E+03   -0.16371E-09    0.00000E+00     0   0.113E-10
 458 F= -.13928142E+03 E0= -.13929518E+03  d E =0.836735E-10
quench:  g(F)=  0.000E+00 g(S)=  0.000E+00 dE (1.order)= 0.000E+00
 bond charge predicted
       N       E                     dE             d eps       ncg     rms          rms(c)
DAV:   1    -0.139281420269E+03   -0.10295E-08    0.87720E-11   168   0.202E-10    0.285E-10
RMM:   2    -0.139281420269E+03    0.83310E-09    0.00000E+00     0   0.101E-10
 459 F= -.13928142E+03 E0= -.13929518E+03  d E =-.327418E-10
quench:  g(F)=  0.000E+00 g(S)=  0.000E+00 dE (1.order)= 0.000E+00
 bond charge predicted
       N       E                     dE             d eps       ncg     rms          rms(c)
DAV:   1    -0.139281420268E+03    0.10841E-08    0.37425E-12   168   0.165E-10    0.204E-10
RMM:   2    -0.139281420269E+03   -0.30923E-09    0.00000E+00     0   0.886E-11
 460 F= -.13928142E+03 E0= -.13929518E+03  d E =-.582077E-10
quench:  g(F)=  0.000E+00 g(S)=  0.000E+00 dE (1.order)= 0.000E+00
 bond charge predicted
       N       E                     dE             d eps       ncg     rms          rms(c)
DAV:   1    -0.139281420268E+03    0.46930E-09    0.11728E-10   168   0.146E-10    0.161E-10
RMM:   2    -0.139281420269E+03   -0.74579E-09    0.00000E+00     0   0.880E-11
 461 F= -.13928142E+03 E0= -.13929518E+03  d E =0.327418E-10
quench:  g(F)=  0.000E+00 g(S)=  0.000E+00 dE (1.order)= 0.000E+00
 bond charge predicted
       N       E                     dE             d eps       ncg     rms          rms(c)
DAV:   1    -0.139281420268E+03   -0.25830E-09    0.40293E-11   168   0.153E-10    0.240E-10
RMM:   2    -0.139281420269E+03   -0.54570E-09    0.00000E+00     0   0.965E-11
 462 F= -.13928142E+03 E0= -.13929518E+03  d E =-.582077E-10
quench:  g(F)=  0.000E+00 g(S)=  0.000E+00 dE (1.order)= 0.000E+00
 bond charge predicted
       N       E                     dE             d eps       ncg     rms          rms(c)
DAV:   1    -0.139281420269E+03   -0.61846E-09   -0.31933E-11   168   0.167E-10    0.199E-10
RMM:   2    -0.139281420269E+03    0.76398E-10    0.00000E+00     0   0.918E-11
 463 F= -.13928142E+03 E0= -.13929518E+03  d E =0.363798E-11
quench:  g(F)=  0.000E+00 g(S)=  0.000E+00 dE (1.order)= 0.000E+00
 bond charge predicted
       N       E                     dE             d eps       ncg     rms          rms(c)
DAV:   1    -0.139281420269E+03   -0.43656E-09    0.67416E-11   168   0.149E-10    0.200E-10
RMM:   2    -0.139281420269E+03    0.69122E-09    0.00000E+00     0   0.120E-10
 464 F= -.13928142E+03 E0= -.13929518E+03  d E =0.178261E-09
quench:  g(F)=  0.000E+00 g(S)=  0.000E+00 dE (1.order)= 0.000E+00
 bond charge predicted
       N       E                     dE             d eps       ncg     rms          rms(c)
DAV:   1    -0.139281420269E+03    0.25102E-09   -0.17679E-12   168   0.179E-10    0.187E-10
RMM:   2    -0.139281420269E+03    0.29104E-09    0.00000E+00     0   0.126E-10
 465 F= -.13928142E+03 E0= -.13929518E+03  d E =-.149157E-09
quench:  g(F)=  0.000E+00 g(S)=  0.000E+00 dE (1.order)= 0.000E+00
 bond charge predicted
       N       E                     dE             d eps       ncg     rms          rms(c)
DAV:   1    -0.139281420269E+03   -0.58208E-10   -0.15391E-11   168   0.196E-10    0.203E-10
RMM:   2    -0.139281420269E+03    0.35288E-09    0.00000E+00     0   0.107E-10
 466 F= -.13928142E+03 E0= -.13929518E+03  d E =0.363798E-11
quench:  g(F)=  0.000E+00 g(S)=  0.000E+00 dE (1.order)= 0.000E+00
 bond charge predicted
       N       E                     dE             d eps       ncg     rms          rms(c)
DAV:   1    -0.139281420269E+03    0.45475E-09    0.11533E-11   168   0.145E-10    0.204E-10
RMM:   2    -0.139281420268E+03    0.69122E-10    0.00000E+00     0   0.109E-10
 467 F= -.13928142E+03 E0= -.13929518E+03  d E =0.170985E-09
quench:  g(F)=  0.000E+00 g(S)=  0.000E+00 dE (1.order)= 0.000E+00
 bond charge predicted
       N       E                     dE             d eps       ncg     rms          rms(c)
DAV:   1    -0.139281420268E+03    0.41473E-09    0.45934E-11   168   0.162E-10    0.167E-10
RMM:   2    -0.139281420269E+03   -0.48749E-09    0.00000E+00     0   0.120E-10
 468 F= -.13928142E+03 E0= -.13929518E+03  d E =-.141881E-09
quench:  g(F)=  0.000E+00 g(S)=  0.000E+00 dE (1.order)= 0.000E+00
 bond charge predicted
       N       E                     dE             d eps       ncg     rms          rms(c)
DAV:   1    -0.139281420269E+03   -0.88403E-09    0.51990E-11   168   0.180E-10    0.170E-10
RMM:   2    -0.139281420269E+03    0.46566E-09    0.00000E+00     0   0.103E-10
 469 F= -.13928142E+03 E0= -.13929518E+03  d E =0.691216E-10
quench:  g(F)=  0.000E+00 g(S)=  0.000E+00 dE (1.order)= 0.000E+00
 bond charge predicted
       N       E                     dE             d eps       ncg     rms          rms(c)
DAV:   1    -0.139281420268E+03    0.73851E-09    0.82077E-11   168   0.133E-10    0.222E-10
RMM:   2    -0.139281420269E+03   -0.20736E-09    0.00000E+00     0   0.103E-10
 470 F= -.13928142E+03 E0= -.13929518E+03  d E =0.654836E-10
quench:  g(F)=  0.000E+00 g(S)=  0.000E+00 dE (1.order)= 0.000E+00
 bond charge predicted
       N       E                     dE             d eps       ncg     rms          rms(c)
DAV:   1    -0.139281420269E+03   -0.32378E-09   -0.32783E-11   168   0.174E-10    0.268E-10
RMM:   2    -0.139281420269E+03    0.36380E-11    0.00000E+00     0   0.123E-10
 471 F= -.13928142E+03 E0= -.13929518E+03  d E =-.112777E-09
quench:  g(F)=  0.000E+00 g(S)=  0.000E+00 dE (1.order)= 0.000E+00
 bond charge predicted
       N       E                     dE             d eps       ncg     rms          rms(c)
DAV:   1    -0.139281420268E+03    0.12005E-09    0.38041E-11   168   0.248E-10    0.172E-10
RMM:   2    -0.139281420269E+03   -0.21828E-10    0.00000E+00     0   0.103E-10
 472 F= -.13928142E+03 E0= -.13929518E+03  d E =0.945874E-10
quench:  g(F)=  0.000E+00 g(S)=  0.000E+00 dE (1.order)= 0.000E+00
 bond charge predicted
       N       E                     dE             d eps       ncg     rms          rms(c)
DAV:   1    -0.139281420269E+03   -0.58208E-10    0.65003E-12   168   0.119E-10    0.223E-10
RMM:   2    -0.139281420269E+03   -0.16371E-09    0.00000E+00     0   0.101E-10
 473 F= -.13928142E+03 E0= -.13929518E+03  d E =-.200089E-09
quench:  g(F)=  0.000E+00 g(S)=  0.000E+00 dE (1.order)= 0.000E+00
 bond charge predicted
       N       E                     dE             d eps       ncg     rms          rms(c)
DAV:   1    -0.139281420269E+03   -0.77853E-09    0.36715E-11   168   0.201E-10    0.179E-10
RMM:   2    -0.139281420269E+03    0.80399E-09    0.00000E+00     0   0.120E-10
 474 F= -.13928142E+03 E0= -.13929518E+03  d E =0.189175E-09
quench:  g(F)=  0.000E+00 g(S)=  0.000E+00 dE (1.order)= 0.000E+00
 bond charge predicted
       N       E                     dE             d eps       ncg     rms          rms(c)
DAV:   1    -0.139281420269E+03    0.68394E-09    0.42216E-11   168   0.154E-10    0.209E-10
RMM:   2    -0.139281420269E+03    0.12369E-09    0.00000E+00     0   0.104E-10
 475 F= -.13928142E+03 E0= -.13929518E+03  d E =0.363798E-11
quench:  g(F)=  0.000E+00 g(S)=  0.000E+00 dE (1.order)= 0.000E+00
 bond charge predicted
       N       E                     dE             d eps       ncg     rms          rms(c)
DAV:   1    -0.139281420269E+03   -0.11278E-09    0.99981E-11   168   0.142E-10    0.236E-10
RMM:   2    -0.139281420269E+03    0.14916E-09    0.00000E+00     0   0.102E-10
 476 F= -.13928142E+03 E0= -.13929518E+03  d E =-.873115E-10
quench:  g(F)=  0.000E+00 g(S)=  0.000E+00 dE (1.order)= 0.000E+00
 bond charge predicted
       N       E                     dE             d eps       ncg     rms          rms(c)
DAV:   1    -0.139281420270E+03   -0.16371E-08    0.20509E-11   168   0.221E-10    0.162E-10
RMM:   2    -0.139281420269E+03    0.17244E-08    0.00000E+00     0   0.105E-10
 477 F= -.13928142E+03 E0= -.13929518E+03  d E =-.618456E-10
quench:  g(F)=  0.000E+00 g(S)=  0.000E+00 dE (1.order)= 0.000E+00
 bond charge predicted
       N       E                     dE             d eps       ncg     rms          rms(c)
DAV:   1    -0.139281420267E+03    0.35398E-08    0.63751E-11   168   0.150E-10    0.270E-10
RMM:   2    -0.139281420269E+03   -0.16807E-08    0.00000E+00     0   0.130E-10
 478 F= -.13928142E+03 E0= -.13929518E+03  d E =0.134605E-09
quench:  g(F)=  0.000E+00 g(S)=  0.000E+00 dE (1.order)= 0.000E+00
 bond charge predicted
       N       E                     dE             d eps       ncg     rms          rms(c)
DAV:   1    -0.139281420268E+03   -0.14988E-08    0.17482E-12   168   0.212E-10    0.229E-10
RMM:   2    -0.139281420269E+03   -0.16735E-09    0.00000E+00     0   0.117E-10
 479 F= -.13928142E+03 E0= -.13929518E+03  d E =0.145519E-10
quench:  g(F)=  0.000E+00 g(S)=  0.000E+00 dE (1.order)= 0.000E+00
 bond charge predicted
       N       E                     dE             d eps       ncg     rms          rms(c)
DAV:   1    -0.139281420269E+03   -0.11059E-08    0.56194E-11   168   0.213E-10    0.150E-10
RMM:   2    -0.139281420269E+03    0.83310E-09    0.00000E+00     0   0.947E-11
 480 F= -.13928142E+03 E0= -.13929518E+03  d E =-.105501E-09
quench:  g(F)=  0.000E+00 g(S)=  0.000E+00 dE (1.order)= 0.000E+00
 bond charge predicted
       N       E                     dE             d eps       ncg     rms          rms(c)
DAV:   1    -0.139281420268E+03    0.11532E-08    0.93753E-11   168   0.159E-10    0.218E-10
RMM:   2    -0.139281420269E+03   -0.21464E-09    0.00000E+00     0   0.110E-10
 481 F= -.13928142E+03 E0= -.13929518E+03  d E =0.105501E-09
quench:  g(F)=  0.000E+00 g(S)=  0.000E+00 dE (1.order)= 0.000E+00
 bond charge predicted
       N       E                     dE             d eps       ncg     rms          rms(c)
DAV:   1    -0.139281420269E+03   -0.34925E-09    0.41029E-12   168   0.180E-10    0.176E-10
RMM:   2    -0.139281420269E+03    0.00000E+00    0.00000E+00     0   0.112E-10
 482 F= -.13928142E+03 E0= -.13929518E+03  d E =-.134605E-09
quench:  g(F)=  0.000E+00 g(S)=  0.000E+00 dE (1.order)= 0.000E+00
 bond charge predicted
       N       E                     dE             d eps       ncg     rms          rms(c)
DAV:   1    -0.139281420269E+03   -0.58935E-09    0.16887E-11   168   0.187E-10    0.220E-10
RMM:   2    -0.139281420269E+03    0.57116E-09    0.00000E+00     0   0.115E-10
 483 F= -.13928142E+03 E0= -.13929518E+03  d E =-.181899E-10
quench:  g(F)=  0.000E+00 g(S)=  0.000E+00 dE (1.order)= 0.000E+00
 bond charge predicted
       N       E                     dE             d eps       ncg     rms          rms(c)
DAV:   1    -0.139281420270E+03   -0.77489E-09    0.29361E-11   168   0.191E-10    0.203E-10
RMM:   2    -0.139281420269E+03    0.13461E-08    0.00000E+00     0   0.999E-11
 484 F= -.13928142E+03 E0= -.13929518E+03  d E =0.000000E+00
quench:  g(F)=  0.000E+00 g(S)=  0.000E+00 dE (1.order)= 0.000E+00
 bond charge predicted
       N       E                     dE             d eps       ncg     rms          rms(c)
DAV:   1    -0.139281420268E+03    0.18917E-08    0.28104E-11   168   0.171E-10    0.125E-10
RMM:   2    -0.139281420269E+03   -0.43656E-09    0.00000E+00     0   0.880E-11
 485 F= -.13928142E+03 E0= -.13929518E+03  d E =0.109139E-09
quench:  g(F)=  0.000E+00 g(S)=  0.000E+00 dE (1.order)= 0.000E+00
 bond charge predicted
       N       E                     dE             d eps       ncg     rms          rms(c)
DAV:   1    -0.139281420269E+03   -0.94587E-09   -0.38334E-12   168   0.129E-10    0.235E-10
RMM:   2    -0.139281420269E+03    0.35652E-09    0.00000E+00     0   0.122E-10
 486 F= -.13928142E+03 E0= -.13929518E+03  d E =-.152795E-09
quench:  g(F)=  0.000E+00 g(S)=  0.000E+00 dE (1.order)= 0.000E+00
 bond charge predicted
       N       E                     dE             d eps       ncg     rms          rms(c)
DAV:   1    -0.139281420269E+03   -0.23647E-09    0.12009E-11   168   0.189E-10    0.235E-10
RMM:   2    -0.139281420269E+03    0.69485E-09    0.00000E+00     0   0.134E-10
 487 F= -.13928142E+03 E0= -.13929518E+03  d E =0.101863E-09
quench:  g(F)=  0.000E+00 g(S)=  0.000E+00 dE (1.order)= 0.000E+00
 bond charge predicted
       N       E                     dE             d eps       ncg     rms          rms(c)
DAV:   1    -0.139281420269E+03    0.69122E-09    0.43249E-11   168   0.185E-10    0.234E-10
RMM:   2    -0.139281420269E+03   -0.10186E-09    0.00000E+00     0   0.106E-10
 488 F= -.13928142E+03 E0= -.13929518E+03  d E =-.105501E-09
quench:  g(F)=  0.000E+00 g(S)=  0.000E+00 dE (1.order)= 0.000E+00
 bond charge predicted
       N       E                     dE             d eps       ncg     rms          rms(c)
DAV:   1    -0.139281420268E+03    0.38199E-09   -0.19243E-11   168   0.190E-10    0.220E-10
RMM:   2    -0.139281420269E+03   -0.43292E-09    0.00000E+00     0   0.111E-10
 489 F= -.13928142E+03 E0= -.13929518E+03  d E =0.509317E-10
quench:  g(F)=  0.000E+00 g(S)=  0.000E+00 dE (1.order)= 0.000E+00
 bond charge predicted
       N       E                     dE             d eps       ncg     rms          rms(c)
DAV:   1    -0.139281420268E+03   -0.12733E-09    0.66422E-11   168   0.143E-10    0.252E-10
RMM:   2    -0.139281420269E+03   -0.30923E-09    0.00000E+00     0   0.121E-10
 490 F= -.13928142E+03 E0= -.13929518E+03  d E =-.363798E-11
quench:  g(F)=  0.000E+00 g(S)=  0.000E+00 dE (1.order)= 0.000E+00
 bond charge predicted
       N       E                     dE             d eps       ncg     rms          rms(c)
DAV:   1    -0.139281420268E+03   -0.58208E-10    0.75703E-11   168   0.234E-10    0.179E-10
RMM:   2    -0.139281420269E+03   -0.98225E-10    0.00000E+00     0   0.112E-10
 491 F= -.13928142E+03 E0= -.13929518E+03  d E =0.152795E-09
quench:  g(F)=  0.000E+00 g(S)=  0.000E+00 dE (1.order)= 0.000E+00
 bond charge predicted
       N       E                     dE             d eps       ncg     rms          rms(c)
DAV:   1    -0.139281420268E+03    0.23283E-09    0.52672E-11   168   0.144E-10    0.180E-10
RMM:   2    -0.139281420269E+03   -0.42564E-09    0.00000E+00     0   0.108E-10
 492 F= -.13928142E+03 E0= -.13929518E+03  d E =-.945874E-10
quench:  g(F)=  0.000E+00 g(S)=  0.000E+00 dE (1.order)= 0.000E+00
 bond charge predicted
       N       E                     dE             d eps       ncg     rms          rms(c)
DAV:   1    -0.139281420268E+03   -0.72760E-10    0.62663E-11   168   0.167E-10    0.186E-10
RMM:   2    -0.139281420269E+03   -0.44020E-09    0.00000E+00     0   0.880E-11
 493 F= -.13928142E+03 E0= -.13929518E+03  d E =-.873115E-10
quench:  g(F)=  0.000E+00 g(S)=  0.000E+00 dE (1.order)= 0.000E+00
 bond charge predicted
       N       E                     dE             d eps       ncg     rms          rms(c)
DAV:   1    -0.139281420268E+03    0.72760E-10    0.58997E-11   168   0.155E-10    0.202E-10
RMM:   2    -0.139281420269E+03   -0.33833E-09    0.00000E+00     0   0.100E-10
 494 F= -.13928142E+03 E0= -.13929518E+03  d E =0.174623E-09
quench:  g(F)=  0.000E+00 g(S)=  0.000E+00 dE (1.order)= 0.000E+00
 bond charge predicted
       N       E                     dE             d eps       ncg     rms          rms(c)
DAV:   1    -0.139281420269E+03   -0.60390E-09    0.17577E-11   168   0.184E-10    0.185E-10
RMM:   2    -0.139281420269E+03    0.11642E-09    0.00000E+00     0   0.107E-10
 495 F= -.13928142E+03 E0= -.13929518E+03  d E =-.149157E-09
quench:  g(F)=  0.000E+00 g(S)=  0.000E+00 dE (1.order)= 0.000E+00
 bond charge predicted
       N       E                     dE             d eps       ncg     rms          rms(c)
DAV:   1    -0.139281420268E+03    0.72760E-09    0.39477E-11   168   0.205E-10    0.217E-10
RMM:   2    -0.139281420269E+03   -0.58935E-09    0.00000E+00     0   0.117E-10
 496 F= -.13928142E+03 E0= -.13929518E+03  d E =0.218279E-10
quench:  g(F)=  0.000E+00 g(S)=  0.000E+00 dE (1.order)= 0.000E+00
 bond charge predicted
       N       E                     dE             d eps       ncg     rms          rms(c)
DAV:   1    -0.139281420270E+03   -0.17535E-08   -0.43511E-11   168   0.209E-10    0.314E-10
RMM:   2    -0.139281420269E+03    0.11205E-08    0.00000E+00     0   0.116E-10
 497 F= -.13928142E+03 E0= -.13929518E+03  d E =-.436557E-10
quench:  g(F)=  0.000E+00 g(S)=  0.000E+00 dE (1.order)= 0.000E+00
 bond charge predicted
       N       E                     dE             d eps       ncg     rms          rms(c)
DAV:   1    -0.139281420269E+03    0.13169E-08    0.35334E-11   168   0.201E-10    0.209E-10
RMM:   2    -0.139281420269E+03   -0.15280E-09    0.00000E+00     0   0.122E-10
 498 F= -.13928142E+03 E0= -.13929518E+03  d E =0.436557E-10
quench:  g(F)=  0.000E+00 g(S)=  0.000E+00 dE (1.order)= 0.000E+00
 bond charge predicted
       N       E                     dE             d eps       ncg     rms          rms(c)
DAV:   1    -0.139281420269E+03   -0.44747E-09    0.13904E-10   168   0.182E-10    0.163E-10
RMM:   2    -0.139281420269E+03    0.44020E-09    0.00000E+00     0   0.101E-10
 499 F= -.13928142E+03 E0= -.13929518E+03  d E =0.145519E-09
quench:  g(F)=  0.000E+00 g(S)=  0.000E+00 dE (1.order)= 0.000E+00
 bond charge predicted
       N       E                     dE             d eps       ncg     rms          rms(c)
DAV:   1    -0.139281420268E+03    0.59663E-09    0.67048E-11   168   0.195E-10    0.149E-10
RMM:   2    -0.139281420269E+03   -0.16007E-09    0.00000E+00     0   0.114E-10
 500 F= -.13928142E+03 E0= -.13929518E+03  d E =-.363798E-11
quench:  g(F)=  0.000E+00 g(S)=  0.000E+00 dE (1.order)= 0.000E+00
