 128 128   0   0
  0.1217722E+02  0.8746000E-09  0.1316830E-08  0.1390580E-08  0.5000000E-15
   1.0000000000000000E-004
  CAR 
 relax                                   
     13.24397500    -51.46848124  301      1.21824355      1.00000000
    -51.468  0.0000E+00  0.0000E+00
    -51.253  0.0000E+00  0.0000E+00
    -51.037  0.0000E+00  0.0000E+00
    -50.821  0.0000E+00  0.0000E+00
    -50.606  0.0000E+00  0.0000E+00
    -50.390  0.0000E+00  0.0000E+00
    -50.174  0.0000E+00  0.0000E+00
    -49.959  0.0000E+00  0.0000E+00
    -49.743  0.0000E+00  0.0000E+00
    -49.527  0.0000E+00  0.0000E+00
    -49.311  0.0000E+00  0.0000E+00
    -49.096  0.0000E+00  0.0000E+00
    -48.880  0.0000E+00  0.0000E+00
    -48.664  0.9551E-05  0.2060E-05
    -48.449  0.2522E+00  0.5440E-01
    -48.233  0.3088E+00  0.1210E+00
    -48.017  0.5516E+00  0.2400E+00
    -47.801  0.5152E-06  0.2400E+00
    -47.586  0.0000E+00  0.2400E+00
    -47.370  0.0000E+00  0.2400E+00
    -47.154  0.0000E+00  0.2400E+00
    -46.939  0.0000E+00  0.2400E+00
    -46.723  0.0000E+00  0.2400E+00
    -46.507  0.0000E+00  0.2400E+00
    -46.291  0.0000E+00  0.2400E+00
    -46.076  0.0000E+00  0.2400E+00
    -45.860  0.0000E+00  0.2400E+00
    -45.644  0.0000E+00  0.2400E+00
    -45.429  0.0000E+00  0.2400E+00
    -45.213  0.0000E+00  0.2400E+00
    -44.997  0.0000E+00  0.2400E+00
    -44.782  0.0000E+00  0.2400E+00
    -44.566  0.0000E+00  0.2400E+00
    -44.350  0.0000E+00  0.2400E+00
    -44.134  0.0000E+00  0.2400E+00
    -43.919  0.0000E+00  0.2400E+00
    -43.703  0.0000E+00  0.2400E+00
    -43.487  0.0000E+00  0.2400E+00
    -43.272  0.0000E+00  0.2400E+00
    -43.056  0.0000E+00  0.2400E+00
    -42.840  0.0000E+00  0.2400E+00
    -42.624  0.0000E+00  0.2400E+00
    -42.409  0.0000E+00  0.2400E+00
    -42.193  0.0000E+00  0.2400E+00
    -41.977  0.0000E+00  0.2400E+00
    -41.762  0.0000E+00  0.2400E+00
    -41.546  0.0000E+00  0.2400E+00
    -41.330  0.0000E+00  0.2400E+00
    -41.114  0.0000E+00  0.2400E+00
    -40.899  0.0000E+00  0.2400E+00
    -40.683  0.0000E+00  0.2400E+00
    -40.467  0.0000E+00  0.2400E+00
    -40.252  0.0000E+00  0.2400E+00
    -40.036  0.0000E+00  0.2400E+00
    -39.820  0.0000E+00  0.2400E+00
    -39.605  0.0000E+00  0.2400E+00
    -39.389  0.0000E+00  0.2400E+00
    -39.173  0.0000E+00  0.2400E+00
    -38.957  0.0000E+00  0.2400E+00
    -38.742  0.0000E+00  0.2400E+00
    -38.526  0.0000E+00  0.2400E+00
    -38.310  0.0000E+00  0.2400E+00
    -38.095  0.0000E+00  0.2400E+00
    -37.879  0.0000E+00  0.2400E+00
    -37.663  0.0000E+00  0.2400E+00
    -37.447  0.0000E+00  0.2400E+00
    -37.232  0.0000E+00  0.2400E+00
    -37.016  0.0000E+00  0.2400E+00
    -36.800  0.0000E+00  0.2400E+00
    -36.585  0.0000E+00  0.2400E+00
    -36.369  0.0000E+00  0.2400E+00
    -36.153  0.0000E+00  0.2400E+00
    -35.937  0.0000E+00  0.2400E+00
    -35.722  0.0000E+00  0.2400E+00
    -35.506  0.0000E+00  0.2400E+00
    -35.290  0.0000E+00  0.2400E+00
    -35.075  0.0000E+00  0.2400E+00
    -34.859  0.0000E+00  0.2400E+00
    -34.643  0.0000E+00  0.2400E+00
    -34.428  0.0000E+00  0.2400E+00
    -34.212  0.0000E+00  0.2400E+00
    -33.996  0.0000E+00  0.2400E+00
    -33.780  0.0000E+00  0.2400E+00
    -33.565  0.0000E+00  0.2400E+00
    -33.349  0.0000E+00  0.2400E+00
    -33.133  0.0000E+00  0.2400E+00
    -32.918  0.0000E+00  0.2400E+00
    -32.702  0.0000E+00  0.2400E+00
    -32.486  0.0000E+00  0.2400E+00
    -32.270  0.0000E+00  0.2400E+00
    -32.055  0.0000E+00  0.2400E+00
    -31.839  0.0000E+00  0.2400E+00
    -31.623  0.0000E+00  0.2400E+00
    -31.408  0.0000E+00  0.2400E+00
    -31.192  0.0000E+00  0.2400E+00
    -30.976  0.0000E+00  0.2400E+00
    -30.760  0.0000E+00  0.2400E+00
    -30.545  0.0000E+00  0.2400E+00
    -30.329  0.0000E+00  0.2400E+00
    -30.113  0.0000E+00  0.2400E+00
    -29.898  0.0000E+00  0.2400E+00
    -29.682  0.0000E+00  0.2400E+00
    -29.466  0.0000E+00  0.2400E+00
    -29.251  0.0000E+00  0.2400E+00
    -29.035  0.0000E+00  0.2400E+00
    -28.819  0.0000E+00  0.2400E+00
    -28.603  0.0000E+00  0.2400E+00
    -28.388  0.0000E+00  0.2400E+00
    -28.172  0.0000E+00  0.2400E+00
    -27.956  0.0000E+00  0.2400E+00
    -27.741  0.0000E+00  0.2400E+00
    -27.525  0.0000E+00  0.2400E+00
    -27.309  0.0000E+00  0.2400E+00
    -27.093  0.0000E+00  0.2400E+00
    -26.878  0.0000E+00  0.2400E+00
    -26.662  0.0000E+00  0.2400E+00
    -26.446  0.0000E+00  0.2400E+00
    -26.231  0.0000E+00  0.2400E+00
    -26.015  0.0000E+00  0.2400E+00
    -25.799  0.0000E+00  0.2400E+00
    -25.583  0.0000E+00  0.2400E+00
    -25.368  0.0000E+00  0.2400E+00
    -25.152  0.0000E+00  0.2400E+00
    -24.936  0.0000E+00  0.2400E+00
    -24.721  0.0000E+00  0.2400E+00
    -24.505  0.0000E+00  0.2400E+00
    -24.289  0.0000E+00  0.2400E+00
    -24.074  0.0000E+00  0.2400E+00
    -23.858  0.0000E+00  0.2400E+00
    -23.642  0.0000E+00  0.2400E+00
    -23.426  0.0000E+00  0.2400E+00
    -23.211  0.0000E+00  0.2400E+00
    -22.995  0.0000E+00  0.2400E+00
    -22.779  0.0000E+00  0.2400E+00
    -22.564  0.0000E+00  0.2400E+00
    -22.348  0.0000E+00  0.2400E+00
    -22.132  0.0000E+00  0.2400E+00
    -21.916  0.0000E+00  0.2400E+00
    -21.701  0.0000E+00  0.2400E+00
    -21.485  0.0000E+00  0.2400E+00
    -21.269  0.0000E+00  0.2400E+00
    -21.054  0.0000E+00  0.2400E+00
    -20.838  0.0000E+00  0.2400E+00
    -20.622  0.1275E-06  0.2400E+00
    -20.407  0.4474E+00  0.3365E+00
    -20.191  0.8609E+00  0.5222E+00
    -19.975  0.2027E+01  0.9594E+00
    -19.759  0.2784E-02  0.9600E+00
    -19.544  0.0000E+00  0.9600E+00
    -19.328  0.4285E-09  0.9600E+00
    -19.112  0.1001E+00  0.9816E+00
    -18.897  0.1047E+01  0.1207E+01
    -18.681  0.6469E+00  0.1347E+01
    -18.465  0.1001E+01  0.1563E+01
    -18.249  0.1718E+00  0.1600E+01
    -18.034  0.0000E+00  0.1600E+01
    -17.818  0.0000E+00  0.1600E+01
    -17.602  0.0000E+00  0.1600E+01
    -17.387  0.0000E+00  0.1600E+01
    -17.171  0.0000E+00  0.1600E+01
    -16.955  0.0000E+00  0.1600E+01
    -16.739  0.0000E+00  0.1600E+01
    -16.524  0.0000E+00  0.1600E+01
    -16.308  0.0000E+00  0.1600E+01
    -16.092  0.0000E+00  0.1600E+01
    -15.877  0.0000E+00  0.1600E+01
    -15.661  0.0000E+00  0.1600E+01
    -15.445  0.0000E+00  0.1600E+01
    -15.230  0.0000E+00  0.1600E+01
    -15.014  0.0000E+00  0.1600E+01
    -14.798  0.0000E+00  0.1600E+01
    -14.582  0.0000E+00  0.1600E+01
    -14.367  0.0000E+00  0.1600E+01
    -14.151  0.0000E+00  0.1600E+01
    -13.935  0.0000E+00  0.1600E+01
    -13.720  0.0000E+00  0.1600E+01
    -13.504  0.0000E+00  0.1600E+01
    -13.288  0.0000E+00  0.1600E+01
    -13.072  0.0000E+00  0.1600E+01
    -12.857  0.0000E+00  0.1600E+01
    -12.641  0.0000E+00  0.1600E+01
    -12.425  0.1600E-12  0.1600E+01
    -12.210  0.2004E-01  0.1604E+01
    -11.994  0.3508E+00  0.1680E+01
    -11.778  0.3088E-04  0.1680E+01
    -11.562  0.0000E+00  0.1680E+01
    -11.347  0.0000E+00  0.1680E+01
    -11.131  0.0000E+00  0.1680E+01
    -10.915  0.2859E-18  0.1680E+01
    -10.700  0.6533E-03  0.1680E+01
    -10.484  0.6113E+00  0.1812E+01
    -10.268  0.2533E+00  0.1867E+01
    -10.053  0.2473E+00  0.1920E+01
     -9.837  0.2514E-04  0.1920E+01
     -9.621  0.0000E+00  0.1920E+01
     -9.405  0.0000E+00  0.1920E+01
     -9.190  0.0000E+00  0.1920E+01
     -8.974  0.0000E+00  0.1920E+01
     -8.758  0.0000E+00  0.1920E+01
     -8.543  0.0000E+00  0.1920E+01
     -8.327  0.0000E+00  0.1920E+01
     -8.111  0.0000E+00  0.1920E+01
     -7.895  0.0000E+00  0.1920E+01
     -7.680  0.0000E+00  0.1920E+01
     -7.464  0.4628E-15  0.1920E+01
     -7.248  0.8783E-03  0.1920E+01
     -7.033  0.3051E+00  0.1986E+01
     -6.817  0.8415E+00  0.2168E+01
     -6.601  0.9249E+00  0.2367E+01
     -6.385  0.6173E+00  0.2500E+01
     -6.170  0.2912E+00  0.2563E+01
     -5.954  0.1553E+00  0.2596E+01
     -5.738  0.1880E+00  0.2637E+01
     -5.523  0.1370E-01  0.2640E+01
     -5.307  0.0000E+00  0.2640E+01
     -5.091  0.0000E+00  0.2640E+01
     -4.876  0.0000E+00  0.2640E+01
     -4.660  0.0000E+00  0.2640E+01
     -4.444  0.1105E-13  0.2640E+01
     -4.228  0.9647E-02  0.2642E+01
     -4.013  0.4272E+00  0.2734E+01
     -3.797  0.4874E+00  0.2839E+01
     -3.581  0.6204E+00  0.2973E+01
     -3.366  0.6600E+00  0.3116E+01
     -3.150  0.3155E+00  0.3184E+01
     -2.934  0.1572E+00  0.3218E+01
     -2.718  0.2949E+00  0.3281E+01
     -2.503  0.3006E+00  0.3346E+01
     -2.287  0.2892E+00  0.3408E+01
     -2.071  0.3327E+00  0.3480E+01
     -1.856  0.2044E+00  0.3524E+01
     -1.640  0.3582E+00  0.3601E+01
     -1.424  0.6333E+00  0.3738E+01
     -1.208  0.6145E+00  0.3871E+01
     -0.993  0.7944E+00  0.4042E+01
     -0.777  0.5324E+00  0.4157E+01
     -0.561  0.1463E-01  0.4160E+01
     -0.346  0.2578E+00  0.4216E+01
     -0.130  0.5741E+00  0.4339E+01
      0.086  0.5290E+00  0.4454E+01
      0.301  0.6127E+00  0.4586E+01
      0.517  0.6505E+00  0.4726E+01
      0.733  0.2320E+00  0.4776E+01
      0.949  0.1102E+00  0.4800E+01
      1.164  0.6407E-03  0.4800E+01
      1.380  0.0000E+00  0.4800E+01
      1.596  0.0000E+00  0.4800E+01
      1.811  0.0000E+00  0.4800E+01
      2.027  0.0000E+00  0.4800E+01
      2.243  0.0000E+00  0.4800E+01
      2.459  0.0000E+00  0.4800E+01
      2.674  0.0000E+00  0.4800E+01
      2.890  0.6065E-05  0.4800E+01
      3.106  0.8220E-02  0.4802E+01
      3.321  0.6271E-01  0.4815E+01
      3.537  0.1150E+00  0.4840E+01
      3.753  0.9946E-01  0.4862E+01
      3.969  0.7174E-01  0.4877E+01
      4.184  0.1370E-01  0.4880E+01
      4.400  0.2571E-05  0.4880E+01
      4.616  0.0000E+00  0.4880E+01
      4.831  0.1515E-07  0.4880E+01
      5.047  0.2902E-01  0.4886E+01
      5.263  0.2926E+00  0.4949E+01
      5.478  0.2018E+00  0.4993E+01
      5.694  0.2799E+00  0.5053E+01
      5.910  0.2249E+00  0.5102E+01
      6.126  0.2118E+00  0.5147E+01
      6.341  0.9114E-01  0.5167E+01
      6.557  0.6923E-01  0.5182E+01
      6.773  0.5993E-01  0.5195E+01
      6.988  0.1880E+00  0.5236E+01
      7.204  0.3078E+00  0.5302E+01
      7.420  0.3020E+00  0.5367E+01
      7.636  0.2601E+00  0.5423E+01
      7.851  0.3070E+00  0.5489E+01
      8.067  0.3843E+00  0.5572E+01
      8.283  0.3674E+00  0.5652E+01
      8.498  0.3333E+00  0.5723E+01
      8.714  0.3682E+00  0.5803E+01
      8.930  0.3981E+00  0.5889E+01
      9.146  0.3425E+00  0.5963E+01
      9.361  0.3142E+00  0.6030E+01
      9.577  0.4138E+00  0.6120E+01
      9.793  0.4340E+00  0.6213E+01
     10.008  0.3666E+00  0.6292E+01
     10.224  0.3855E+00  0.6375E+01
     10.440  0.1137E+00  0.6400E+01
     10.655  0.3042E-06  0.6400E+01
     10.871  0.0000E+00  0.6400E+01
     11.087  0.0000E+00  0.6400E+01
     11.303  0.0000E+00  0.6400E+01
     11.518  0.0000E+00  0.6400E+01
     11.734  0.0000E+00  0.6400E+01
     11.950  0.0000E+00  0.6400E+01
     12.165  0.0000E+00  0.6400E+01
     12.381  0.0000E+00  0.6400E+01
     12.597  0.0000E+00  0.6400E+01
     12.813  0.0000E+00  0.6400E+01
     13.028  0.0000E+00  0.6400E+01
     13.244  0.0000E+00  0.6400E+01
