       N       E                     dE             d eps       ncg     rms          rms(c)
DAV:   1     0.423570046588E+04    0.42357E+04   -0.23384E+05  8960   0.135E+03
DAV:   2    -0.138335356460E+03   -0.43740E+04   -0.42551E+04 11616   0.339E+02
DAV:   3    -0.626720732814E+03   -0.48839E+03   -0.48572E+03 11968   0.135E+02
DAV:   4    -0.637191252422E+03   -0.10471E+02   -0.10450E+02 11904   0.217E+01
DAV:   5    -0.637661405365E+03   -0.47015E+00   -0.47002E+00 14848   0.357E+00    0.502E+01
DAV:   6    -0.572502037936E+03    0.65159E+02   -0.23666E+02 10592   0.270E+01    0.263E+01
DAV:   7    -0.571372489529E+03    0.11295E+01   -0.20351E+01 10656   0.741E+00    0.145E+01
DAV:   8    -0.570091115180E+03    0.12814E+01   -0.27962E+00 11136   0.341E+00    0.590E+00
DAV:   9    -0.569921140542E+03    0.16997E+00   -0.15799E+00 11104   0.190E+00    0.187E+00
DAV:  10    -0.569909401276E+03    0.11739E-01   -0.28913E-01 10848   0.897E-01    0.112E+00
DAV:  11    -0.569922119068E+03   -0.12718E-01   -0.89050E-02 10688   0.445E-01    0.415E-01
DAV:  12    -0.569922723456E+03   -0.60439E-03   -0.13730E-02 11424   0.197E-01    0.178E-01
DAV:  13    -0.569923575517E+03   -0.85206E-03   -0.21483E-03 10176   0.828E-02    0.110E-01
DAV:  14    -0.569923989304E+03   -0.41379E-03   -0.15388E-03 10336   0.727E-02    0.443E-02
DAV:  15    -0.569924009217E+03   -0.19913E-04   -0.26734E-04 12320   0.294E-02    0.246E-02
DAV:  16    -0.569924019810E+03   -0.10593E-04   -0.41686E-05  9792   0.118E-02    0.128E-02
DAV:  17    -0.569924024017E+03   -0.42072E-05   -0.21376E-05 10016   0.111E-02    0.486E-03
DAV:  18    -0.569924024204E+03   -0.18663E-06   -0.75186E-06 10880   0.484E-03
   1 F= -.56992402E+03 E0= -.56992402E+03  d E =-.569924E+03
       N       E                     dE             d eps       ncg     rms          rms(c)
DAV:   1    -0.606335252367E+03   -0.36411E+02   -0.18773E+03  8960   0.101E+02    0.474E+01
DAV:   2    -0.581846218804E+03    0.24489E+02   -0.16456E+02 10720   0.266E+01    0.164E+01
DAV:   3    -0.578845651422E+03    0.30006E+01   -0.15068E+01 12512   0.102E+01    0.632E+00
DAV:   4    -0.578471304780E+03    0.37435E+00   -0.28078E+00 12096   0.305E+00    0.349E+00
DAV:   5    -0.578419602622E+03    0.51702E-01   -0.43119E-01 11040   0.117E+00    0.228E+00
DAV:   6    -0.578409153482E+03    0.10449E-01   -0.98422E-02 12416   0.705E-01    0.102E+00
DAV:   7    -0.578405745511E+03    0.34080E-02   -0.32899E-02 12480   0.378E-01    0.286E-01
DAV:   8    -0.578406044317E+03   -0.29881E-03   -0.63386E-03 11712   0.157E-01    0.127E-01
DAV:   9    -0.578406121271E+03   -0.76955E-04   -0.74019E-04 11968   0.519E-02    0.766E-02
DAV:  10    -0.578406167471E+03   -0.46200E-04   -0.12662E-04 11040   0.273E-02    0.183E-02
DAV:  11    -0.578406171709E+03   -0.42376E-05   -0.34792E-05 12704   0.128E-02    0.846E-03
DAV:  12    -0.578406172981E+03   -0.12716E-05   -0.43361E-06  9760   0.492E-03    0.418E-03
DAV:  13    -0.578406174584E+03   -0.16035E-05   -0.19421E-06  7872   0.379E-03    0.155E-03
DAV:  14    -0.578406174829E+03   -0.24524E-06   -0.59019E-07  6016   0.180E-03
   2 F= -.57840617E+03 E0= -.57840617E+03  d E =-.848215E+01
       N       E                     dE             d eps       ncg     rms          rms(c)
DAV:   1    -0.578437042204E+03   -0.30868E-01   -0.16971E+00  9856   0.309E+00    0.130E+00
DAV:   2    -0.578415041495E+03    0.22001E-01   -0.10697E-01 10752   0.733E-01    0.504E-01
DAV:   3    -0.578412670385E+03    0.23711E-02   -0.14118E-02 11040   0.268E-01    0.181E-01
DAV:   4    -0.578412192536E+03    0.47785E-03   -0.18713E-03 12512   0.912E-02    0.660E-02
DAV:   5    -0.578412142540E+03    0.49996E-04   -0.36932E-04 10784   0.356E-02    0.457E-02
DAV:   6    -0.578412124439E+03    0.18101E-04   -0.71181E-05 12512   0.183E-02    0.250E-02
DAV:   7    -0.578412110568E+03    0.13871E-04   -0.18452E-05 12096   0.108E-02    0.852E-03
DAV:   8    -0.578412107207E+03    0.33608E-05   -0.58308E-06  9952   0.510E-03    0.365E-03
DAV:   9    -0.578412106746E+03    0.46074E-06   -0.68438E-07  5824   0.189E-03
   3 F= -.57841211E+03 E0= -.57841211E+03  d E =-.848808E+01
       N       E                     dE             d eps       ncg     rms          rms(c)
DAV:   1    -0.599582000863E+03   -0.21170E+02   -0.85861E+02  8960   0.725E+01    0.317E+01
DAV:   2    -0.586027984512E+03    0.13554E+02   -0.58252E+01 10752   0.187E+01    0.115E+01
DAV:   3    -0.584896567412E+03    0.11314E+01   -0.68531E+00 10624   0.688E+00    0.309E+00
DAV:   4    -0.584795236744E+03    0.10133E+00   -0.79241E-01 12864   0.179E+00    0.225E+00
DAV:   5    -0.584782334006E+03    0.12903E-01   -0.11132E-01 11872   0.651E-01    0.160E+00
DAV:   6    -0.584782868027E+03   -0.53402E-03   -0.37400E-02 12512   0.511E-01    0.755E-01
DAV:   7    -0.584779274040E+03    0.35940E-02   -0.17941E-02 13312   0.307E-01    0.205E-01
DAV:   8    -0.584779341853E+03   -0.67813E-04   -0.57865E-03 10656   0.140E-01    0.141E-01
DAV:   9    -0.584779278258E+03    0.63595E-04   -0.51555E-04 12320   0.498E-02    0.649E-02
DAV:  10    -0.584779268013E+03    0.10244E-04   -0.14872E-04 10848   0.241E-02    0.141E-02
DAV:  11    -0.584779270890E+03   -0.28761E-05   -0.13617E-05 12224   0.958E-03    0.610E-03
DAV:  12    -0.584779270915E+03   -0.25233E-07   -0.27498E-06  8096   0.346E-03
   4 F= -.58477927E+03 E0= -.58477927E+03  d E =-.636716E+01
       N       E                     dE             d eps       ncg     rms          rms(c)
DAV:   1    -0.599840267285E+03   -0.15061E+02   -0.80158E+02  8960   0.721E+01    0.305E+01
DAV:   2    -0.587302307622E+03    0.12538E+02   -0.50432E+01 10720   0.182E+01    0.113E+01
DAV:   3    -0.586303792621E+03    0.99852E+00   -0.68047E+00 10368   0.669E+00    0.280E+00
DAV:   4    -0.586205312548E+03    0.98480E-01   -0.66089E-01 12512   0.177E+00    0.213E+00
DAV:   5    -0.586193095900E+03    0.12217E-01   -0.72712E-02 12896   0.565E-01    0.149E+00
DAV:   6    -0.586189962690E+03    0.31332E-02   -0.28274E-02 12512   0.498E-01    0.432E-01
DAV:   7    -0.586189968199E+03   -0.55089E-05   -0.79307E-03 13696   0.194E-01    0.168E-01
DAV:   8    -0.586189878687E+03    0.89512E-04   -0.16955E-03 10816   0.953E-02    0.962E-02
DAV:   9    -0.586189888418E+03   -0.97310E-05   -0.26908E-04 10528   0.382E-02    0.290E-02
DAV:  10    -0.586189888281E+03    0.13759E-06   -0.48879E-05 12736   0.166E-02    0.115E-02
DAV:  11    -0.586189890841E+03   -0.25604E-05   -0.60451E-06  9952   0.656E-03    0.653E-03
DAV:  12    -0.586189888718E+03    0.21234E-05   -0.13368E-06  7136   0.329E-03    0.197E-03
DAV:  13    -0.586189888480E+03    0.23730E-06   -0.79431E-07  6592   0.316E-03
   5 F= -.58618989E+03 E0= -.58618989E+03  d E =-.777778E+01
       N       E                     dE             d eps       ncg     rms          rms(c)
DAV:   1    -0.590189265612E+03   -0.39994E+01   -0.17366E+02  8960   0.311E+01    0.102E+01
DAV:   2    -0.589006386857E+03    0.11829E+01   -0.81445E+00 10752   0.694E+00    0.379E+00
DAV:   3    -0.588873152727E+03    0.13323E+00   -0.78035E-01 11168   0.226E+00    0.120E+00
DAV:   4    -0.588854663905E+03    0.18489E-01   -0.10166E-01 12512   0.670E-01    0.828E-01
DAV:   5    -0.588851951610E+03    0.27123E-02   -0.12013E-02 12320   0.241E-01    0.531E-01
DAV:   6    -0.588851351475E+03    0.60014E-03   -0.38110E-03 11968   0.189E-01    0.139E-01
DAV:   7    -0.588851399847E+03   -0.48373E-04   -0.12041E-03 13120   0.776E-02    0.615E-02
DAV:   8    -0.588851389036E+03    0.10812E-04   -0.18003E-04 11072   0.314E-02    0.292E-02
DAV:   9    -0.588851393102E+03   -0.40664E-05   -0.42998E-05 10720   0.160E-02    0.868E-03
DAV:  10    -0.588851392209E+03    0.89265E-06   -0.91601E-06 12640   0.724E-03
   6 F= -.58885139E+03 E0= -.58885139E+03  d E =-.266150E+01
       N       E                     dE             d eps       ncg     rms          rms(c)
DAV:   1    -0.599983549507E+03   -0.11132E+02   -0.15631E+03  8960   0.940E+01    0.328E+01
DAV:   2    -0.590745100912E+03    0.92384E+01   -0.84204E+01 10560   0.214E+01    0.121E+01
DAV:   3    -0.589400004093E+03    0.13451E+01   -0.74083E+00 11328   0.741E+00    0.430E+00
DAV:   4    -0.589238019238E+03    0.16198E+00   -0.10411E+00 11200   0.225E+00    0.327E+00
DAV:   5    -0.589217113648E+03    0.20906E-01   -0.13160E-01 13184   0.820E-01    0.220E+00
DAV:   6    -0.589208233905E+03    0.88797E-02   -0.33153E-02 12000   0.659E-01    0.713E-01
DAV:   7    -0.589208026034E+03    0.20787E-03   -0.17428E-02 13152   0.351E-01    0.211E-01
DAV:   8    -0.589208068938E+03   -0.42904E-04   -0.36789E-03 10752   0.161E-01    0.962E-02
DAV:   9    -0.589208071408E+03   -0.24691E-05   -0.70786E-04 11232   0.662E-02    0.449E-02
DAV:  10    -0.589208062100E+03    0.93073E-05   -0.10656E-04 13408   0.257E-02    0.195E-02
DAV:  11    -0.589208062936E+03   -0.83623E-06   -0.22575E-05 11328   0.209E-02    0.953E-03
DAV:  12    -0.589208062065E+03    0.87126E-06   -0.90007E-06 11488   0.863E-03
   7 F= -.58920806E+03 E0= -.58920806E+03  d E =-.301817E+01
       N       E                     dE             d eps       ncg     rms          rms(c)
DAV:   1    -0.594187256763E+03   -0.49792E+01   -0.53990E+02  9376   0.578E+01    0.165E+01
DAV:   2    -0.591314204274E+03    0.28731E+01   -0.20401E+01 11136   0.114E+01    0.715E+00
DAV:   3    -0.590834460975E+03    0.47974E+00   -0.22818E+00 11552   0.382E+00    0.239E+00
DAV:   4    -0.590766758779E+03    0.67702E-01   -0.27030E-01 12288   0.126E+00    0.100E+00
DAV:   5    -0.590757386110E+03    0.93727E-02   -0.52662E-02 11616   0.503E-01    0.617E-01
DAV:   6    -0.590756614169E+03    0.77194E-03   -0.87516E-03 13440   0.255E-01    0.335E-01
DAV:   7    -0.590756233665E+03    0.38050E-03   -0.28163E-03 11808   0.171E-01    0.837E-02
DAV:   8    -0.590756234001E+03   -0.33587E-06   -0.70509E-04 12224   0.596E-02    0.552E-02
DAV:   9    -0.590756224172E+03    0.98294E-05   -0.47937E-05 11552   0.160E-02    0.280E-02
DAV:  10    -0.590756215069E+03    0.91028E-05   -0.28028E-05 11584   0.188E-02    0.776E-03
DAV:  11    -0.590756215443E+03   -0.37456E-06   -0.99093E-06 12832   0.822E-03
   8 F= -.59075622E+03 E0= -.59075622E+03  d E =-.456633E+01
       N       E                     dE             d eps       ncg     rms          rms(c)
DAV:   1    -0.591416119661E+03   -0.65990E+00   -0.65724E+01  8960   0.196E+01    0.607E+00
DAV:   2    -0.591019496329E+03    0.39662E+00   -0.28514E+00 10976   0.420E+00    0.242E+00
DAV:   3    -0.590963671597E+03    0.55825E-01   -0.29548E-01 11584   0.140E+00    0.701E-01
DAV:   4    -0.590957089270E+03    0.65823E-02   -0.35494E-02 12160   0.428E-01    0.451E-01
DAV:   5    -0.590956268624E+03    0.82065E-03   -0.45948E-03 12608   0.153E-01    0.294E-01
DAV:   6    -0.590956122024E+03    0.14660E-03   -0.11543E-03 13024   0.121E-01    0.100E-01
DAV:   7    -0.590956144811E+03   -0.22787E-04   -0.46555E-04 12640   0.605E-02    0.408E-02
DAV:   8    -0.590956142188E+03    0.26232E-05   -0.98718E-05 10720   0.240E-02    0.208E-02
DAV:   9    -0.590956145963E+03   -0.37749E-05   -0.23739E-05 10688   0.121E-02    0.716E-03
DAV:  10    -0.590956146323E+03   -0.35999E-06   -0.30785E-06 10816   0.571E-03
   9 F= -.59095615E+03 E0= -.59095615E+03  d E =-.476626E+01
       N       E                     dE             d eps       ncg     rms          rms(c)
DAV:   1    -0.593770604845E+03   -0.28145E+01   -0.42361E+01  9280   0.169E+01    0.574E+00
DAV:   2    -0.593394841309E+03    0.37576E+00   -0.18256E+00 11040   0.358E+00    0.240E+00
DAV:   3    -0.593349736159E+03    0.45105E-01   -0.31473E-01 10944   0.136E+00    0.632E-01
DAV:   4    -0.593343715175E+03    0.60210E-02   -0.28177E-02 11648   0.424E-01    0.322E-01
DAV:   5    -0.593342830049E+03    0.88513E-03   -0.66054E-03 11168   0.153E-01    0.166E-01
DAV:   6    -0.593342779615E+03    0.50435E-04   -0.64282E-04 12704   0.755E-02    0.979E-02
DAV:   7    -0.593342739931E+03    0.39684E-04   -0.28272E-04 10880   0.415E-02    0.302E-02
DAV:   8    -0.593342732779E+03    0.71519E-05   -0.41651E-05 12512   0.150E-02    0.157E-02
DAV:   9    -0.593342730175E+03    0.26041E-05   -0.78113E-06  9920   0.607E-03    0.674E-03
DAV:  10    -0.593342727845E+03    0.23305E-05   -0.12546E-06  7136   0.320E-03    0.182E-03
DAV:  11    -0.593342727326E+03    0.51860E-06   -0.20911E-07  5824   0.153E-03
  10 F= -.59334273E+03 E0= -.59334273E+03  d E =-.238658E+01
       N       E                     dE             d eps       ncg     rms          rms(c)
DAV:   1    -0.598520110739E+03   -0.51774E+01   -0.29131E+02  9376   0.440E+01    0.148E+01
DAV:   2    -0.595925312315E+03    0.25948E+01   -0.12071E+01 11040   0.900E+00    0.625E+00
DAV:   3    -0.595625813125E+03    0.29950E+00   -0.22772E+00 10880   0.343E+00    0.164E+00
DAV:   4    -0.595583364165E+03    0.42449E-01   -0.19560E-01 11584   0.109E+00    0.848E-01
DAV:   5    -0.595577044071E+03    0.63201E-02   -0.49741E-02 10880   0.409E-01    0.409E-01
DAV:   6    -0.595576843840E+03    0.20023E-03   -0.42169E-03 12352   0.182E-01    0.259E-01
DAV:   7    -0.595576840712E+03    0.31288E-05   -0.21247E-03 10784   0.111E-01    0.857E-02
DAV:   8    -0.595576799036E+03    0.41676E-04   -0.21588E-04 12704   0.403E-02    0.445E-02
DAV:   9    -0.595576793953E+03    0.50833E-05   -0.11617E-04 10592   0.226E-02    0.190E-02
DAV:  10    -0.595576788729E+03    0.52235E-05   -0.19415E-05 10752   0.118E-02    0.756E-03
DAV:  11    -0.595576786292E+03    0.24371E-05   -0.38657E-06  9888   0.582E-03    0.421E-03
DAV:  12    -0.595576786789E+03   -0.49717E-06   -0.17855E-06  7232   0.317E-03
  11 F= -.59557679E+03 E0= -.59557679E+03  d E =-.462064E+01
       N       E                     dE             d eps       ncg     rms          rms(c)
DAV:   1    -0.598927998523E+03   -0.33512E+01   -0.77333E+01  8960   0.230E+01    0.946E+00
DAV:   2    -0.597647460774E+03    0.12805E+01   -0.41465E+00 10752   0.513E+00    0.357E+00
DAV:   3    -0.597542611987E+03    0.10485E+00   -0.76823E-01 10496   0.194E+00    0.858E-01
DAV:   4    -0.597527411208E+03    0.15201E-01   -0.63273E-02 11456   0.602E-01    0.467E-01
DAV:   5    -0.597525408045E+03    0.20032E-02   -0.15557E-02 11456   0.214E-01    0.261E-01
DAV:   6    -0.597525210238E+03    0.19781E-03   -0.16193E-03 12320   0.116E-01    0.133E-01
DAV:   7    -0.597525135731E+03    0.74507E-04   -0.71023E-04 11104   0.501E-02    0.377E-02
DAV:   8    -0.597525128607E+03    0.71236E-05   -0.69567E-05 12608   0.175E-02    0.197E-02
DAV:   9    -0.597525125044E+03    0.35631E-05   -0.78022E-06 10240   0.580E-03    0.840E-03
DAV:  10    -0.597525121245E+03    0.37990E-05   -0.15658E-06  7328   0.391E-03    0.285E-03
DAV:  11    -0.597525120809E+03    0.43630E-06   -0.50688E-07  5824   0.169E-03
  12 F= -.59752512E+03 E0= -.59752512E+03  d E =-.194833E+01
       N       E                     dE             d eps       ncg     rms          rms(c)
DAV:   1    -0.607506175122E+03   -0.99811E+01   -0.44980E+02  8960   0.547E+01    0.222E+01
DAV:   2    -0.600209945672E+03    0.72962E+01   -0.22986E+01 10752   0.118E+01    0.845E+00
DAV:   3    -0.599589724829E+03    0.62022E+00   -0.46174E+00 10528   0.457E+00    0.205E+00
DAV:   4    -0.599502391311E+03    0.87334E-01   -0.39148E-01 11136   0.146E+00    0.113E+00
DAV:   5    -0.599490187779E+03    0.12204E-01   -0.10587E-01 11040   0.549E-01    0.586E-01
DAV:   6    -0.599489292382E+03    0.89540E-03   -0.90373E-03 12384   0.266E-01    0.317E-01
DAV:   7    -0.599489220641E+03    0.71741E-04   -0.36521E-03 11200   0.124E-01    0.979E-02
DAV:   8    -0.599489199050E+03    0.21590E-04   -0.40428E-04 12320   0.451E-02    0.495E-02
DAV:   9    -0.599489198065E+03    0.98511E-06   -0.94727E-05 11104   0.200E-02    0.206E-02
DAV:  10    -0.599489193660E+03    0.44050E-05   -0.13994E-05 11264   0.102E-02    0.762E-03
DAV:  11    -0.599489191536E+03    0.21240E-05   -0.39463E-06  9568   0.409E-03    0.475E-03
DAV:  12    -0.599489191434E+03    0.10277E-06   -0.88733E-07  6816   0.282E-03
  13 F= -.59948919E+03 E0= -.59948919E+03  d E =-.391240E+01
       N       E                     dE             d eps       ncg     rms          rms(c)
DAV:   1    -0.600938940663E+03   -0.14497E+01   -0.74044E+01  8960   0.196E+01    0.546E+00
DAV:   2    -0.600624859265E+03    0.31408E+00   -0.25957E+00 11168   0.371E+00    0.243E+00
DAV:   3    -0.600567461254E+03    0.57398E-01   -0.40400E-01 11520   0.143E+00    0.840E-01
DAV:   4    -0.600558812211E+03    0.86490E-02   -0.45220E-02 12096   0.501E-01    0.431E-01
DAV:   5    -0.600557341505E+03    0.14707E-02   -0.13417E-02 10752   0.218E-01    0.203E-01
DAV:   6    -0.600557197899E+03    0.14361E-03   -0.10184E-03 12032   0.878E-02    0.118E-01
DAV:   7    -0.600557192852E+03    0.50475E-05   -0.78975E-04 10912   0.581E-02    0.517E-02
DAV:   8    -0.600557144701E+03    0.48151E-04   -0.16547E-04 11616   0.349E-02    0.149E-02
DAV:   9    -0.600557146074E+03   -0.13734E-05   -0.52572E-05  9408   0.135E-02    0.949E-03
DAV:  10    -0.600557144124E+03    0.19503E-05   -0.57710E-06 10624   0.638E-03    0.473E-03
DAV:  11    -0.600557143095E+03    0.10294E-05   -0.11458E-06  7584   0.268E-03    0.245E-03
DAV:  12    -0.600557142907E+03    0.18757E-06   -0.75423E-07  5984   0.210E-03
  14 F= -.60055714E+03 E0= -.60055714E+03  d E =-.106795E+01
       N       E                     dE             d eps       ncg     rms          rms(c)
DAV:   1    -0.600740156757E+03   -0.18301E+00   -0.13686E+01  9024   0.839E+00    0.237E+00
DAV:   2    -0.600681550837E+03    0.58606E-01   -0.50531E-01 11168   0.161E+00    0.104E+00
DAV:   3    -0.600670652490E+03    0.10898E-01   -0.77611E-02 11520   0.629E-01    0.361E-01
DAV:   4    -0.600669057291E+03    0.15952E-02   -0.87552E-03 12096   0.214E-01    0.190E-01
DAV:   5    -0.600668757286E+03    0.30000E-03   -0.24219E-03 10752   0.929E-02    0.894E-02
DAV:   6    -0.600668726014E+03    0.31272E-04   -0.20448E-04 11936   0.381E-02    0.507E-02
DAV:   7    -0.600668714652E+03    0.11362E-04   -0.13087E-04 10912   0.231E-02    0.212E-02
DAV:   8    -0.600668704992E+03    0.96604E-05   -0.31213E-05 11328   0.147E-02    0.560E-03
DAV:   9    -0.600668704632E+03    0.36011E-06   -0.80755E-06  9408   0.543E-03
  15 F= -.60066870E+03 E0= -.60066870E+03  d E =-.117951E+01
       N       E                     dE             d eps       ncg     rms          rms(c)
DAV:   1    -0.601208121467E+03   -0.53942E+00   -0.28339E+01  8992   0.114E+01    0.254E+00
DAV:   2    -0.601214194557E+03   -0.60731E-02   -0.92887E-01 10720   0.201E+00    0.115E+00
DAV:   3    -0.601199795079E+03    0.14399E-01   -0.54797E-02 11232   0.546E-01    0.500E-01
DAV:   4    -0.601197504684E+03    0.22904E-02   -0.93620E-03 11840   0.215E-01    0.241E-01
DAV:   5    -0.601197295249E+03    0.20943E-03   -0.20578E-03 11456   0.906E-02    0.113E-01
DAV:   6    -0.601197296153E+03   -0.90371E-06   -0.23325E-04 13216   0.364E-02    0.651E-02
DAV:   7    -0.601197292382E+03    0.37708E-05   -0.53149E-05 10880   0.180E-02    0.160E-02
DAV:   8    -0.601197288360E+03    0.40223E-05   -0.16533E-05 10752   0.966E-03    0.679E-03
DAV:   9    -0.601197288164E+03    0.19571E-06   -0.30859E-06  9056   0.352E-03
  16 F= -.60119729E+03 E0= -.60119729E+03  d E =-.528584E+00
       N       E                     dE             d eps       ncg     rms          rms(c)
DAV:   1    -0.601333003432E+03   -0.13572E+00   -0.16103E+01  8992   0.853E+00    0.192E+00
DAV:   2    -0.601334609115E+03   -0.16057E-02   -0.52698E-01 10720   0.151E+00    0.856E-01
DAV:   3    -0.601326417740E+03    0.81914E-02   -0.33129E-02 11456   0.418E-01    0.374E-01
DAV:   4    -0.601325187291E+03    0.12304E-02   -0.51380E-03 11744   0.158E-01    0.190E-01
DAV:   5    -0.601325053223E+03    0.13407E-03   -0.12070E-03 11520   0.694E-02    0.875E-02
DAV:   6    -0.601325051207E+03    0.20159E-05   -0.15652E-04 12608   0.297E-02    0.498E-02
DAV:   7    -0.601325048258E+03    0.29500E-05   -0.29744E-05 11264   0.126E-02    0.130E-02
DAV:   8    -0.601325045177E+03    0.30806E-05   -0.10656E-05 10592   0.762E-03    0.469E-03
DAV:   9    -0.601325045011E+03    0.16644E-06   -0.15968E-06  7744   0.262E-03
  17 F= -.60132505E+03 E0= -.60132505E+03  d E =-.656340E+00
       N       E                     dE             d eps       ncg     rms          rms(c)
DAV:   1    -0.601694842620E+03   -0.36980E+00   -0.30167E+01  8960   0.112E+01    0.210E+00
DAV:   2    -0.601737384761E+03   -0.42542E-01   -0.81009E-01 10752   0.180E+00    0.903E-01
DAV:   3    -0.601728000179E+03    0.93846E-02   -0.30477E-02 11360   0.409E-01    0.495E-01
DAV:   4    -0.601725702986E+03    0.22972E-02   -0.78369E-03 11360   0.202E-01    0.227E-01
DAV:   5    -0.601725697851E+03    0.51348E-05   -0.17683E-03 12192   0.832E-02    0.118E-01
DAV:   6    -0.601725688816E+03    0.90345E-05   -0.32789E-04 11488   0.401E-02    0.616E-02
DAV:   7    -0.601725678401E+03    0.10416E-04   -0.45870E-05 10752   0.195E-02    0.197E-02
DAV:   8    -0.601725676629E+03    0.17713E-05   -0.39011E-05 10464   0.124E-02    0.689E-03
DAV:   9    -0.601725676389E+03    0.23974E-06   -0.32219E-06  8992   0.404E-03
  18 F= -.60172568E+03 E0= -.60172568E+03  d E =-.400631E+00
       N       E                     dE             d eps       ncg     rms          rms(c)
DAV:   1    -0.601801501243E+03   -0.75825E-01   -0.18090E+01  8960   0.874E+00    0.162E+00
DAV:   2    -0.601828685512E+03   -0.27184E-01   -0.49834E-01 10752   0.141E+00    0.703E-01
DAV:   3    -0.601822911919E+03    0.57736E-02   -0.18121E-02 11584   0.321E-01    0.393E-01
DAV:   4    -0.601821595144E+03    0.13168E-02   -0.45617E-03 11168   0.152E-01    0.188E-01
DAV:   5    -0.601821585756E+03    0.93882E-05   -0.11573E-03 12288   0.673E-02    0.897E-02
DAV:   6    -0.601821577594E+03    0.81623E-05   -0.14871E-04 11296   0.277E-02    0.474E-02
DAV:   7    -0.601821574622E+03    0.29718E-05   -0.32068E-05 10432   0.135E-02    0.140E-02
DAV:   8    -0.601821572584E+03    0.20379E-05   -0.15169E-05 10528   0.907E-03    0.470E-03
DAV:   9    -0.601821572568E+03    0.15898E-07   -0.23242E-06  8320   0.299E-03
  19 F= -.60182157E+03 E0= -.60182157E+03  d E =-.496528E+00
       N       E                     dE             d eps       ncg     rms          rms(c)
DAV:   1    -0.601898015979E+03   -0.76443E-01   -0.66632E+00  8960   0.552E+00    0.896E-01
DAV:   2    -0.601908487700E+03   -0.10472E-01   -0.17154E-01 11136   0.873E-01    0.469E-01
DAV:   3    -0.601905959002E+03    0.25287E-02   -0.68847E-03 11648   0.191E-01    0.271E-01
DAV:   4    -0.601905191990E+03    0.76701E-03   -0.18717E-03 10784   0.988E-02    0.990E-02
DAV:   5    -0.601905166458E+03    0.25532E-04   -0.47986E-04 11200   0.469E-02    0.429E-02
DAV:   6    -0.601905162481E+03    0.39778E-05   -0.12764E-04 11104   0.245E-02    0.260E-02
DAV:   7    -0.601905159779E+03    0.27017E-05   -0.15117E-05 10176   0.938E-03    0.122E-02
DAV:   8    -0.601905158812E+03    0.96743E-06   -0.16335E-05 10272   0.844E-03    0.347E-03
DAV:   9    -0.601905158981E+03   -0.16963E-06   -0.11820E-06  7200   0.248E-03
  20 F= -.60190516E+03 E0= -.60190516E+03  d E =-.835864E-01
       N       E                     dE             d eps       ncg     rms          rms(c)
DAV:   1    -0.601909050782E+03   -0.38920E-02   -0.56136E-01  9472   0.161E+00    0.259E-01
DAV:   2    -0.601909950943E+03   -0.90016E-03   -0.14524E-02 11104   0.254E-01    0.137E-01
DAV:   3    -0.601909737868E+03    0.21307E-03   -0.56554E-04 11648   0.551E-02    0.794E-02
DAV:   4    -0.601909672725E+03    0.65143E-04   -0.15978E-04 10784   0.288E-02    0.290E-02
DAV:   5    -0.601909670585E+03    0.21404E-05   -0.40869E-05 11200   0.137E-02    0.125E-02
DAV:   6    -0.601909670153E+03    0.43155E-06   -0.10596E-05  9856   0.708E-03    0.752E-03
DAV:   7    -0.601909669962E+03    0.19139E-06   -0.12098E-06  6720   0.284E-03
  21 F= -.60190967E+03 E0= -.60190967E+03  d E =-.880974E-01
       N       E                     dE             d eps       ncg     rms          rms(c)
DAV:   1    -0.601970199442E+03   -0.60529E-01   -0.50750E+00  8960   0.483E+00    0.733E-01
DAV:   2    -0.601976253833E+03   -0.60544E-02   -0.94552E-02 11136   0.674E-01    0.347E-01
DAV:   3    -0.601975077471E+03    0.11764E-02   -0.31066E-03 12032   0.133E-01    0.199E-01
DAV:   4    -0.601974733732E+03    0.34374E-03   -0.87275E-04 11072   0.680E-02    0.712E-02
DAV:   5    -0.601974724861E+03    0.88711E-05   -0.23444E-04 11104   0.326E-02    0.330E-02
DAV:   6    -0.601974723711E+03    0.11494E-05   -0.34774E-05 10848   0.131E-02    0.183E-02
DAV:   7    -0.601974723542E+03    0.16926E-06   -0.71204E-06  9440   0.578E-03
  22 F= -.60197472E+03 E0= -.60197472E+03  d E =-.650536E-01
       N       E                     dE             d eps       ncg     rms          rms(c)
DAV:   1    -0.602005138752E+03   -0.30415E-01   -0.15020E+01  8960   0.832E+00    0.126E+00
DAV:   2    -0.602023001434E+03   -0.17863E-01   -0.27853E-01 11104   0.116E+00    0.596E-01
DAV:   3    -0.602019528593E+03    0.34728E-02   -0.93122E-03 11680   0.230E-01    0.342E-01
DAV:   4    -0.602018527891E+03    0.10007E-02   -0.24995E-03 11072   0.116E-01    0.123E-01
DAV:   5    -0.602018497543E+03    0.30348E-04   -0.70298E-04 11136   0.572E-02    0.569E-02
DAV:   6    -0.602018494772E+03    0.27707E-05   -0.10755E-04 11392   0.231E-02    0.320E-02
DAV:   7    -0.602018494766E+03    0.65629E-08   -0.21731E-05  9952   0.991E-03    0.142E-02
DAV:   8    -0.602018494535E+03    0.23044E-06   -0.10222E-05 10496   0.814E-03    0.402E-03
DAV:   9    -0.602018494780E+03   -0.24504E-06   -0.19798E-06  7872   0.301E-03
  23 F= -.60201849E+03 E0= -.60201849E+03  d E =-.108825E+00
       N       E                     dE             d eps       ncg     rms          rms(c)
DAV:   1    -0.602063503333E+03   -0.45009E-01   -0.31321E+00  9024   0.376E+00    0.442E-01
DAV:   2    -0.602067288051E+03   -0.37847E-02   -0.52646E-02 10720   0.502E-01    0.239E-01
DAV:   3    -0.602066837684E+03    0.45037E-03   -0.13385E-03 12192   0.866E-02    0.145E-01
DAV:   4    -0.602066690092E+03    0.14759E-03   -0.49834E-04 11200   0.517E-02    0.447E-02
DAV:   5    -0.602066694558E+03   -0.44662E-05   -0.10759E-04 12128   0.212E-02    0.205E-02
DAV:   6    -0.602066693735E+03    0.82322E-06   -0.13579E-05 10368   0.765E-03    0.136E-02
DAV:   7    -0.602066693318E+03    0.41759E-06   -0.30893E-06  9280   0.448E-03
  24 F= -.60206669E+03 E0= -.60206669E+03  d E =-.481985E-01
       N       E                     dE             d eps       ncg     rms          rms(c)
DAV:   1    -0.602119252125E+03   -0.52558E-01   -0.28223E+01  8960   0.113E+01    0.133E+00
DAV:   2    -0.602153474979E+03   -0.34223E-01   -0.47229E-01 10720   0.150E+00    0.716E-01
DAV:   3    -0.602149460877E+03    0.40141E-02   -0.11943E-02 11840   0.258E-01    0.434E-01
DAV:   4    -0.602148138062E+03    0.13228E-02   -0.44559E-03 10816   0.157E-01    0.132E-01
DAV:   5    -0.602148188294E+03   -0.50232E-04   -0.98131E-04 12128   0.638E-02    0.622E-02
DAV:   6    -0.602148182063E+03    0.62308E-05   -0.12651E-04 11552   0.235E-02    0.414E-02
DAV:   7    -0.602148179403E+03    0.26603E-05   -0.27331E-05 10496   0.135E-02    0.135E-02
DAV:   8    -0.602148180321E+03   -0.91854E-06   -0.78829E-06 10368   0.610E-03
  25 F= -.60214818E+03 E0= -.60214818E+03  d E =-.129686E+00
       N       E                     dE             d eps       ncg     rms          rms(c)
DAV:   1    -0.602150531885E+03   -0.23525E-02   -0.36610E+00  9024   0.404E+00    0.478E-01
DAV:   2    -0.602154929246E+03   -0.43974E-02   -0.61431E-02 10752   0.540E-01    0.257E-01
DAV:   3    -0.602154408530E+03    0.52072E-03   -0.15305E-03 11840   0.922E-02    0.156E-01
DAV:   4    -0.602154239284E+03    0.16925E-03   -0.61016E-04 11040   0.571E-02    0.476E-02
DAV:   5    -0.602154245163E+03   -0.58791E-05   -0.12654E-04 12000   0.230E-02    0.225E-02
DAV:   6    -0.602154244222E+03    0.94072E-06   -0.17153E-05 10592   0.849E-03    0.149E-02
DAV:   7    -0.602154243742E+03    0.48007E-06   -0.38725E-06  9568   0.501E-03
  26 F= -.60215424E+03 E0= -.60215424E+03  d E =-.135749E+00
       N       E                     dE             d eps       ncg     rms          rms(c)
DAV:   1    -0.602201937735E+03   -0.47694E-01   -0.75659E+00  8960   0.578E+00    0.680E-01
DAV:   2    -0.602213419787E+03   -0.11482E-01   -0.14061E-01 10624   0.806E-01    0.373E-01
DAV:   3    -0.602212271363E+03    0.11484E-02   -0.29896E-03 12064   0.129E-01    0.235E-01
DAV:   4    -0.602211854988E+03    0.41637E-03   -0.14978E-03 11232   0.837E-02    0.677E-02
DAV:   5    -0.602211882285E+03   -0.27296E-04   -0.31343E-04 11904   0.342E-02    0.508E-02
DAV:   6    -0.602211884719E+03   -0.24345E-05   -0.16739E-05 10848   0.795E-03    0.391E-02
DAV:   7    -0.602211883193E+03    0.15259E-05   -0.72474E-06  9408   0.600E-03    0.221E-02
DAV:   8    -0.602211883513E+03   -0.32004E-06   -0.42230E-06  9792   0.425E-03
  27 F= -.60221188E+03 E0= -.60221188E+03  d E =-.576398E-01
       N       E                     dE             d eps       ncg     rms          rms(c)
DAV:   1    -0.602222339613E+03   -0.10456E-01   -0.13230E+01  8960   0.764E+00    0.902E-01
DAV:   2    -0.602242450997E+03   -0.20111E-01   -0.24615E-01 10560   0.107E+00    0.493E-01
DAV:   3    -0.602240446489E+03    0.20045E-02   -0.51924E-03 12000   0.171E-01    0.311E-01
DAV:   4    -0.602239717937E+03    0.72855E-03   -0.26559E-03 10752   0.111E-01    0.900E-02
DAV:   5    -0.602239765877E+03   -0.47940E-04   -0.55559E-04 11520   0.459E-02    0.677E-02
DAV:   6    -0.602239770328E+03   -0.44514E-05   -0.30347E-05 11264   0.108E-02    0.520E-02
DAV:   7    -0.602239767561E+03    0.27665E-05   -0.12554E-05  9856   0.800E-03    0.296E-02
DAV:   8    -0.602239767893E+03   -0.33191E-06   -0.74400E-06 10752   0.573E-03
  28 F= -.60223977E+03 E0= -.60223977E+03  d E =-.855242E-01
       N       E                     dE             d eps       ncg     rms          rms(c)
DAV:   1    -0.602282924730E+03   -0.43157E-01   -0.11126E+01  8960   0.702E+00    0.962E-01
DAV:   2    -0.602298174647E+03   -0.15250E-01   -0.22523E-01 10912   0.102E+00    0.470E-01
DAV:   3    -0.602296228597E+03    0.19460E-02   -0.77887E-03 11648   0.204E-01    0.266E-01
DAV:   4    -0.602295790080E+03    0.43852E-03   -0.19916E-03 11584   0.106E-01    0.110E-01
DAV:   5    -0.602295806243E+03   -0.16163E-04   -0.47572E-04 11904   0.470E-02    0.633E-02
DAV:   6    -0.602295810803E+03   -0.45595E-05   -0.89915E-05 10816   0.195E-02    0.476E-02
DAV:   7    -0.602295813792E+03   -0.29888E-05   -0.23016E-05 10400   0.107E-02    0.130E-02
DAV:   8    -0.602295813662E+03    0.12990E-06   -0.55407E-06 10592   0.611E-03
  29 F= -.60229581E+03 E0= -.60229581E+03  d E =-.560458E-01
       N       E                     dE             d eps       ncg     rms          rms(c)
DAV:   1    -0.602299367509E+03   -0.35537E-02   -0.35755E+00  8960   0.398E+00    0.540E-01
DAV:   2    -0.602304307559E+03   -0.49400E-02   -0.72219E-02 10944   0.579E-01    0.267E-01
DAV:   3    -0.602303671988E+03    0.63557E-03   -0.24573E-03 11648   0.115E-01    0.150E-01
DAV:   4    -0.602303529343E+03    0.14264E-03   -0.63488E-04 11552   0.601E-02    0.607E-02
DAV:   5    -0.602303535779E+03   -0.64355E-05   -0.15408E-04 11936   0.266E-02    0.354E-02
DAV:   6    -0.602303537747E+03   -0.19681E-05   -0.27215E-05 10336   0.107E-02    0.269E-02
DAV:   7    -0.602303539358E+03   -0.16110E-05   -0.72528E-06  9888   0.599E-03    0.791E-03
DAV:   8    -0.602303539560E+03   -0.20192E-06   -0.16651E-06  7648   0.356E-03
  30 F= -.60230354E+03 E0= -.60230354E+03  d E =-.637717E-01
       N       E                     dE             d eps       ncg     rms          rms(c)
DAV:   1    -0.602335868638E+03   -0.32329E-01   -0.43205E+00  8960   0.444E+00    0.720E-01
DAV:   2    -0.602338055113E+03   -0.21865E-02   -0.93593E-02 11104   0.667E-01    0.341E-01
DAV:   3    -0.602337047046E+03    0.10081E-02   -0.49586E-03 11296   0.164E-01    0.158E-01
DAV:   4    -0.602336936975E+03    0.11007E-03   -0.91753E-04 12032   0.683E-02    0.743E-02
DAV:   5    -0.602336945015E+03   -0.80392E-05   -0.23078E-04 11200   0.311E-02    0.313E-02
DAV:   6    -0.602336952417E+03   -0.74020E-05   -0.26515E-05 11488   0.123E-02    0.184E-02
DAV:   7    -0.602336957023E+03   -0.46065E-05   -0.54395E-06 10592   0.512E-03    0.597E-03
DAV:   8    -0.602336957816E+03   -0.79330E-06   -0.14388E-06  6816   0.351E-03
  31 F= -.60233696E+03 E0= -.60233696E+03  d E =-.334183E-01
       N       E                     dE             d eps       ncg     rms          rms(c)
DAV:   1    -0.602346019697E+03   -0.90627E-02   -0.41397E+00  8960   0.434E+00    0.706E-01
DAV:   2    -0.602348094570E+03   -0.20749E-02   -0.89518E-02 11040   0.652E-01    0.334E-01
DAV:   3    -0.602347131688E+03    0.96288E-03   -0.47169E-03 11392   0.159E-01    0.155E-01
DAV:   4    -0.602347024907E+03    0.10678E-03   -0.87581E-04 11968   0.667E-02    0.723E-02
DAV:   5    -0.602347032764E+03   -0.78571E-05   -0.21710E-04 11264   0.301E-02    0.306E-02
DAV:   6    -0.602347040046E+03   -0.72819E-05   -0.25263E-05 11232   0.120E-02    0.178E-02
DAV:   7    -0.602347044517E+03   -0.44709E-05   -0.49175E-06 10560   0.493E-03    0.573E-03
DAV:   8    -0.602347045319E+03   -0.80195E-06   -0.12956E-06  6400   0.336E-03
  32 F= -.60234705E+03 E0= -.60234705E+03  d E =-.435058E-01
       N       E                     dE             d eps       ncg     rms          rms(c)
DAV:   1    -0.602377318165E+03   -0.30274E-01   -0.46019E+00  8960   0.462E+00    0.821E-01
DAV:   2    -0.602378492753E+03   -0.11746E-02   -0.10284E-01 11136   0.696E-01    0.378E-01
DAV:   3    -0.602377251013E+03    0.12417E-02   -0.50497E-03 11264   0.170E-01    0.168E-01
DAV:   4    -0.602377095137E+03    0.15588E-03   -0.10137E-03 12000   0.702E-02    0.728E-02
DAV:   5    -0.602377104169E+03   -0.90318E-05   -0.18254E-04 10976   0.271E-02    0.345E-02
DAV:   6    -0.602377113025E+03   -0.88562E-05   -0.21026E-05 12160   0.111E-02    0.167E-02
DAV:   7    -0.602377117423E+03   -0.43982E-05   -0.35794E-06 10016   0.461E-03    0.357E-03
DAV:   8    -0.602377118117E+03   -0.69356E-06   -0.72057E-07  5824   0.208E-03
  33 F= -.60237712E+03 E0= -.60237712E+03  d E =-.300728E-01
       N       E                     dE             d eps       ncg     rms          rms(c)
DAV:   1    -0.602383974811E+03   -0.68574E-02   -0.30747E+00  8960   0.378E+00    0.670E-01
DAV:   2    -0.602384768363E+03   -0.79355E-03   -0.68638E-02 11168   0.569E-01    0.309E-01
DAV:   3    -0.602383937182E+03    0.83118E-03   -0.33890E-03 11456   0.140E-01    0.137E-01
DAV:   4    -0.602383833492E+03    0.10369E-03   -0.66578E-04 11776   0.567E-02    0.596E-02
DAV:   5    -0.602383840390E+03   -0.68986E-05   -0.12432E-04 11264   0.225E-02    0.281E-02
DAV:   6    -0.602383846989E+03   -0.65987E-05   -0.14257E-05 12192   0.910E-03    0.137E-02
DAV:   7    -0.602383850389E+03   -0.34003E-05   -0.21502E-06  7680   0.376E-03    0.291E-03
DAV:   8    -0.602383850994E+03   -0.60500E-06   -0.76262E-07  5824   0.204E-03
  34 F= -.60238385E+03 E0= -.60238385E+03  d E =-.368057E-01
       N       E                     dE             d eps       ncg     rms          rms(c)
DAV:   1    -0.602398683345E+03   -0.14833E-01   -0.44916E+00  8960   0.441E+00    0.692E-01
DAV:   2    -0.602404181937E+03   -0.54986E-02   -0.99534E-02 11136   0.652E-01    0.327E-01
DAV:   3    -0.602403170443E+03    0.10115E-02   -0.38302E-03 11616   0.150E-01    0.167E-01
DAV:   4    -0.602402983799E+03    0.18664E-03   -0.89523E-04 11488   0.688E-02    0.677E-02
DAV:   5    -0.602402986967E+03   -0.31673E-05   -0.18370E-04 11808   0.287E-02    0.307E-02
DAV:   6    -0.602402992248E+03   -0.52811E-05   -0.41016E-05 10880   0.141E-02    0.195E-02
DAV:   7    -0.602402994448E+03   -0.22005E-05   -0.46034E-06  9568   0.546E-03    0.642E-03
DAV:   8    -0.602402995530E+03   -0.10812E-05   -0.17367E-06  8064   0.305E-03    0.170E-03
DAV:   9    -0.602402995674E+03   -0.14452E-06   -0.23855E-07  5824   0.136E-03
  35 F= -.60240300E+03 E0= -.60240300E+03  d E =-.191447E-01
       N       E                     dE             d eps       ncg     rms          rms(c)
DAV:   1    -0.602403662259E+03   -0.66673E-03   -0.43942E-01  8960   0.138E+00    0.216E-01
DAV:   2    -0.602404203756E+03   -0.54150E-03   -0.97001E-03 11136   0.203E-01    0.103E-01
DAV:   3    -0.602404103232E+03    0.10052E-03   -0.37680E-04 11584   0.469E-02    0.524E-02
DAV:   4    -0.602404085328E+03    0.17904E-04   -0.86356E-05 11520   0.214E-02    0.212E-02
DAV:   5    -0.602404086298E+03   -0.96979E-06   -0.18218E-05 11328   0.906E-03    0.947E-03
DAV:   6    -0.602404087332E+03   -0.10346E-05   -0.39600E-06  9472   0.444E-03    0.609E-03
DAV:   7    -0.602404087915E+03   -0.58216E-06   -0.40497E-07  5824   0.173E-03
  36 F= -.60240409E+03 E0= -.60240409E+03  d E =-.202369E-01
       N       E                     dE             d eps       ncg     rms          rms(c)
DAV:   1    -0.602416575268E+03   -0.12488E-01   -0.25032E+00  8960   0.323E+00    0.425E-01
DAV:   2    -0.602421213828E+03   -0.46386E-02   -0.54563E-02 10848   0.466E-01    0.220E-01
DAV:   3    -0.602420809425E+03    0.40440E-03   -0.91639E-04 12288   0.717E-02    0.140E-01
DAV:   4    -0.602420658854E+03    0.15057E-03   -0.64520E-04 10560   0.540E-02    0.376E-02
DAV:   5    -0.602420670890E+03   -0.12037E-04   -0.13522E-04 11328   0.231E-02    0.315E-02
DAV:   6    -0.602420671550E+03   -0.66002E-06   -0.93665E-06 10176   0.590E-03
  37 F= -.60242067E+03 E0= -.60242067E+03  d E =-.165836E-01
       N       E                     dE             d eps       ncg     rms          rms(c)
DAV:   1    -0.602421551820E+03   -0.88093E-03   -0.42423E+00  8960   0.420E+00    0.559E-01
DAV:   2    -0.602429444759E+03   -0.78929E-02   -0.92747E-02 10784   0.607E-01    0.285E-01
DAV:   3    -0.602428767529E+03    0.67723E-03   -0.15621E-03 12224   0.938E-02    0.182E-01
DAV:   4    -0.602428518831E+03    0.24870E-03   -0.10861E-03 10560   0.701E-02    0.488E-02
DAV:   5    -0.602428539532E+03   -0.20701E-04   -0.22655E-04 11360   0.300E-02    0.411E-02
DAV:   6    -0.602428540913E+03   -0.13810E-05   -0.16259E-05 10784   0.776E-03    0.323E-02
DAV:   7    -0.602428539427E+03    0.14861E-05   -0.75504E-06  9664   0.663E-03    0.151E-02
DAV:   8    -0.602428539184E+03    0.24247E-06   -0.24472E-06  8160   0.342E-03
  38 F= -.60242854E+03 E0= -.60242854E+03  d E =-.244513E-01
       N       E                     dE             d eps       ncg     rms          rms(c)
DAV:   1    -0.602438358248E+03   -0.98188E-02   -0.99059E-01  8960   0.205E+00    0.282E-01
DAV:   2    -0.602439979091E+03   -0.16208E-02   -0.21235E-02 10688   0.293E-01    0.143E-01
DAV:   3    -0.602439819688E+03    0.15940E-03   -0.38818E-04 11840   0.479E-02    0.898E-02
DAV:   4    -0.602439755013E+03    0.64675E-04   -0.29445E-04 10848   0.392E-02    0.236E-02
DAV:   5    -0.602439756658E+03   -0.16460E-05   -0.54759E-05 10720   0.152E-02    0.188E-02
DAV:   6    -0.602439756282E+03    0.37691E-06   -0.55483E-06 10304   0.463E-03
  39 F= -.60243976E+03 E0= -.60243976E+03  d E =-.112171E-01
       N       E                     dE             d eps       ncg     rms          rms(c)
DAV:   1    -0.602446288508E+03   -0.65318E-02   -0.89235E+00  8960   0.615E+00    0.848E-01
DAV:   2    -0.602460881307E+03   -0.14593E-01   -0.19036E-01 10656   0.879E-01    0.429E-01
DAV:   3    -0.602459460354E+03    0.14210E-02   -0.35024E-03 11776   0.143E-01    0.269E-01
DAV:   4    -0.602458887438E+03    0.57292E-03   -0.25538E-03 10816   0.116E-01    0.694E-02
DAV:   5    -0.602458913065E+03   -0.25627E-04   -0.48743E-04 10976   0.450E-02    0.564E-02
DAV:   6    -0.602458912586E+03    0.47931E-06   -0.45867E-05 11584   0.133E-02    0.421E-02
DAV:   7    -0.602458908136E+03    0.44494E-05   -0.14909E-05 10304   0.990E-03    0.181E-02
DAV:   8    -0.602458907815E+03    0.32107E-06   -0.45309E-06  9696   0.425E-03
  40 F= -.60245891E+03 E0= -.60245891E+03  d E =-.303686E-01
       N       E                     dE             d eps       ncg     rms          rms(c)
DAV:   1    -0.602458644915E+03    0.26322E-03   -0.13319E+00  8960   0.238E+00    0.327E-01
DAV:   2    -0.602460829795E+03   -0.21849E-02   -0.28570E-02 10656   0.340E-01    0.165E-01
DAV:   3    -0.602460615721E+03    0.21407E-03   -0.51982E-04 11648   0.554E-02    0.104E-01
DAV:   4    -0.602460529768E+03    0.85953E-04   -0.39182E-04 10848   0.453E-02    0.272E-02
DAV:   5    -0.602460532338E+03   -0.25699E-05   -0.73546E-05 10752   0.176E-02    0.218E-02
DAV:   6    -0.602460531960E+03    0.37759E-06   -0.73979E-06 10400   0.533E-03
  41 F= -.60246053E+03 E0= -.60246053E+03  d E =-.319928E-01
       N       E                     dE             d eps       ncg     rms          rms(c)
DAV:   1    -0.602468455532E+03   -0.79232E-02   -0.21479E+00  8960   0.298E+00    0.381E-01
DAV:   2    -0.602472518733E+03   -0.40632E-02   -0.47952E-02 10496   0.437E-01    0.188E-01
DAV:   3    -0.602472250318E+03    0.26842E-03   -0.87970E-04 11648   0.708E-02    0.119E-01
DAV:   4    -0.602472149227E+03    0.10109E-03   -0.45157E-04 11104   0.471E-02    0.399E-02
DAV:   5    -0.602472156983E+03   -0.77557E-05   -0.10843E-04 10976   0.199E-02    0.224E-02
DAV:   6    -0.602472156462E+03    0.52106E-06   -0.95065E-06 11040   0.624E-03
  42 F= -.60247216E+03 E0= -.60247216E+03  d E =-.116245E-01
       N       E                     dE             d eps       ncg     rms          rms(c)
DAV:   1    -0.602472201047E+03   -0.44064E-04   -0.29317E+00  8960   0.349E+00    0.445E-01
DAV:   2    -0.602477753840E+03   -0.55528E-02   -0.65352E-02 10496   0.510E-01    0.220E-01
DAV:   3    -0.602477388979E+03    0.36486E-03   -0.11920E-03 11648   0.823E-02    0.139E-01
DAV:   4    -0.602477251731E+03    0.13725E-03   -0.60595E-04 11104   0.546E-02    0.468E-02
DAV:   5    -0.602477262905E+03   -0.11174E-04   -0.14802E-04 11424   0.231E-02    0.261E-02
DAV:   6    -0.602477262285E+03    0.62014E-06   -0.12264E-05 11296   0.701E-03    0.190E-02
DAV:   7    -0.602477260721E+03    0.15640E-05   -0.36507E-06  8704   0.456E-03    0.631E-03
DAV:   8    -0.602477260482E+03    0.23958E-06   -0.10851E-06  6272   0.231E-03
  43 F= -.60247726E+03 E0= -.60247726E+03  d E =-.167285E-01
       N       E                     dE             d eps       ncg     rms          rms(c)
DAV:   1    -0.602482825120E+03   -0.55644E-02   -0.97541E-01  9024   0.200E+00    0.283E-01
DAV:   2    -0.602484772505E+03   -0.19474E-02   -0.22280E-02 10912   0.295E-01    0.130E-01
DAV:   3    -0.602484672814E+03    0.99691E-04   -0.41133E-04 12160   0.441E-02    0.812E-02
DAV:   4    -0.602484633110E+03    0.39704E-04   -0.15800E-04 10912   0.263E-02    0.314E-02
DAV:   5    -0.602484636202E+03   -0.30913E-05   -0.43535E-05 12032   0.134E-02    0.177E-02
DAV:   6    -0.602484636269E+03   -0.67681E-07   -0.48721E-06  9632   0.413E-03
  44 F= -.60248464E+03 E0= -.60248464E+03  d E =-.737579E-02
       N       E                     dE             d eps       ncg     rms          rms(c)
DAV:   1    -0.602485313763E+03   -0.67756E-03   -0.79029E-01  9088   0.180E+00    0.258E-01
DAV:   2    -0.602486905295E+03   -0.15915E-02   -0.18180E-02 10912   0.267E-01    0.117E-01
DAV:   3    -0.602486826582E+03    0.78713E-04   -0.33569E-04 12160   0.399E-02    0.726E-02
DAV:   4    -0.602486795947E+03    0.30635E-04   -0.12488E-04 10944   0.234E-02    0.284E-02
DAV:   5    -0.602486798328E+03   -0.23810E-05   -0.34134E-05 11104   0.120E-02    0.158E-02
DAV:   6    -0.602486798454E+03   -0.12605E-06   -0.41953E-06  9376   0.402E-03
  45 F= -.60248680E+03 E0= -.60248680E+03  d E =-.953797E-02
       N       E                     dE             d eps       ncg     rms          rms(c)
DAV:   1    -0.602491285066E+03   -0.44867E-02   -0.12932E+00  8960   0.223E+00    0.290E-01
DAV:   2    -0.602493694549E+03   -0.24095E-02   -0.26838E-02 10560   0.318E-01    0.134E-01
DAV:   3    -0.602493603252E+03    0.91297E-04   -0.55089E-04 12480   0.527E-02    0.889E-02
DAV:   4    -0.602493567163E+03    0.36088E-04   -0.15991E-04 10528   0.267E-02    0.374E-02
DAV:   5    -0.602493573210E+03   -0.60467E-05   -0.59312E-05 10624   0.150E-02    0.160E-02
DAV:   6    -0.602493572654E+03    0.55620E-06   -0.96073E-06 10112   0.667E-03
  46 F= -.60249357E+03 E0= -.60249357E+03  d E =-.677420E-02
       N       E                     dE             d eps       ncg     rms          rms(c)
DAV:   1    -0.602493386576E+03    0.18663E-03   -0.14489E+00  8960   0.236E+00    0.306E-01
DAV:   2    -0.602496096900E+03   -0.27103E-02   -0.30124E-02 10560   0.337E-01    0.141E-01
DAV:   3    -0.602495995150E+03    0.10175E-03   -0.61598E-04 12640   0.556E-02    0.943E-02
DAV:   4    -0.602495954639E+03    0.40511E-04   -0.18082E-04 10496   0.280E-02    0.396E-02
DAV:   5    -0.602495961436E+03   -0.67970E-05   -0.66183E-05 10656   0.158E-02    0.169E-02
DAV:   6    -0.602495960873E+03    0.56293E-06   -0.10514E-05 10240   0.695E-03    0.118E-02
DAV:   7    -0.602495960471E+03    0.40222E-06   -0.25892E-06  8864   0.323E-03
  47 F= -.60249596E+03 E0= -.60249596E+03  d E =-.916202E-02
       N       E                     dE             d eps       ncg     rms          rms(c)
DAV:   1    -0.602500066477E+03   -0.41056E-02   -0.17380E+00  8960   0.258E+00    0.312E-01
DAV:   2    -0.602503098417E+03   -0.30319E-02   -0.34703E-02 10304   0.369E-01    0.158E-01
DAV:   3    -0.602502948936E+03    0.14948E-03   -0.58846E-04 13440   0.566E-02    0.107E-01
DAV:   4    -0.602502879941E+03    0.68994E-04   -0.32886E-04 10816   0.391E-02    0.372E-02
DAV:   5    -0.602502889789E+03   -0.98474E-05   -0.79907E-05 11040   0.162E-02    0.172E-02
DAV:   6    -0.602502890254E+03   -0.46517E-06   -0.53014E-06  9984   0.483E-03
  48 F= -.60250289E+03 E0= -.60250289E+03  d E =-.692978E-02
       N       E                     dE             d eps       ncg     rms          rms(c)
DAV:   1    -0.602500321569E+03    0.25682E-02   -0.38689E+00  8960   0.385E+00    0.468E-01
DAV:   2    -0.602507073927E+03   -0.67524E-02   -0.77382E-02 10304   0.550E-01    0.234E-01
DAV:   3    -0.602506741543E+03    0.33238E-03   -0.13140E-03 13408   0.847E-02    0.158E-01
DAV:   4    -0.602506589645E+03    0.15190E-03   -0.72677E-04 10848   0.580E-02    0.552E-02
DAV:   5    -0.602506610800E+03   -0.21155E-04   -0.17595E-04 11456   0.241E-02    0.258E-02
DAV:   6    -0.602506611553E+03   -0.75237E-06   -0.11556E-05 10848   0.706E-03    0.192E-02
DAV:   7    -0.602506611705E+03   -0.15269E-06   -0.44128E-06  9056   0.482E-03
  49 F= -.60250661E+03 E0= -.60250661E+03  d E =-.106512E-01
       N       E                     dE             d eps       ncg     rms          rms(c)
DAV:   1    -0.602509589825E+03   -0.29783E-02   -0.17178E+00  8960   0.256E+00    0.325E-01
DAV:   2    -0.602512593398E+03   -0.30036E-02   -0.34233E-02 10400   0.365E-01    0.152E-01
DAV:   3    -0.602512489327E+03    0.10407E-03   -0.65314E-04 13248   0.560E-02    0.102E-01
DAV:   4    -0.602512437185E+03    0.52141E-04   -0.26531E-04 10816   0.340E-02    0.377E-02
DAV:   5    -0.602512445626E+03   -0.84403E-05   -0.64831E-05 11008   0.150E-02    0.230E-02
DAV:   6    -0.602512446137E+03   -0.51093E-06   -0.67683E-06  9952   0.518E-03
  50 F= -.60251245E+03 E0= -.60251245E+03  d E =-.583443E-02
       N       E                     dE             d eps       ncg     rms          rms(c)
DAV:   1    -0.602512247582E+03    0.19804E-03   -0.83698E-01  8960   0.179E+00    0.229E-01
DAV:   2    -0.602513725203E+03   -0.14776E-02   -0.16817E-02 10400   0.256E-01    0.106E-01
DAV:   3    -0.602513675194E+03    0.50009E-04   -0.32198E-04 13312   0.393E-02    0.709E-02
DAV:   4    -0.602513650535E+03    0.24659E-04   -0.12850E-04 10816   0.237E-02    0.265E-02
DAV:   5    -0.602513654911E+03   -0.43757E-05   -0.31226E-05 10720   0.105E-02    0.162E-02
DAV:   6    -0.602513655243E+03   -0.33158E-06   -0.33174E-06  9184   0.367E-03
  51 F= -.60251366E+03 E0= -.60251366E+03  d E =-.704354E-02
       N       E                     dE             d eps       ncg     rms          rms(c)
DAV:   1    -0.602515502265E+03   -0.18474E-02   -0.22724E-01  9024   0.968E-01    0.130E-01
DAV:   2    -0.602515903099E+03   -0.40083E-03   -0.49732E-03 10976   0.143E-01    0.717E-02
DAV:   3    -0.602515864846E+03    0.38253E-04   -0.16362E-04 11776   0.300E-02    0.434E-02
DAV:   4    -0.602515853087E+03    0.11758E-04   -0.36556E-05 10848   0.139E-02    0.175E-02
DAV:   5    -0.602515852514E+03    0.57374E-06   -0.13805E-05 10656   0.807E-03    0.805E-03
DAV:   6    -0.602515852451E+03    0.62573E-07   -0.19918E-06  7520   0.311E-03
  52 F= -.60251585E+03 E0= -.60251585E+03  d E =-.219721E-02
       N       E                     dE             d eps       ncg     rms          rms(c)
DAV:   1    -0.602516199905E+03   -0.34739E-03   -0.18251E-01  9024   0.868E-01    0.116E-01
DAV:   2    -0.602516523753E+03   -0.32385E-03   -0.39946E-03 10976   0.128E-01    0.638E-02
DAV:   3    -0.602516493608E+03    0.30146E-04   -0.12855E-04 12128   0.266E-02    0.387E-02
DAV:   4    -0.602516484271E+03    0.93369E-05   -0.29092E-05 10816   0.123E-02    0.155E-02
DAV:   5    -0.602516483755E+03    0.51641E-06   -0.10735E-05 10656   0.716E-03    0.713E-03
DAV:   6    -0.602516483695E+03    0.59496E-07   -0.14708E-06  6144   0.274E-03
  53 F= -.60251648E+03 E0= -.60251648E+03  d E =-.282845E-02
       N       E                     dE             d eps       ncg     rms          rms(c)
DAV:   1    -0.602518363123E+03   -0.18794E-02   -0.27508E-01  8960   0.107E+00    0.132E-01
DAV:   2    -0.602518796932E+03   -0.43381E-03   -0.53853E-03 11008   0.150E-01    0.720E-02
DAV:   3    -0.602518751011E+03    0.45922E-04   -0.97533E-05 12576   0.236E-02    0.446E-02
DAV:   4    -0.602518735860E+03    0.15150E-04   -0.77011E-05 10752   0.187E-02    0.102E-02
DAV:   5    -0.602518736591E+03   -0.73022E-06   -0.13298E-05 10208   0.762E-03    0.723E-03
DAV:   6    -0.602518736527E+03    0.63432E-07   -0.11960E-06  6400   0.224E-03
  54 F= -.60251874E+03 E0= -.60251874E+03  d E =-.225283E-02
       N       E                     dE             d eps       ncg     rms          rms(c)
DAV:   1    -0.602519075453E+03   -0.33886E-03   -0.93498E-01  8960   0.197E+00    0.244E-01
DAV:   2    -0.602520555285E+03   -0.14798E-02   -0.18292E-02 10976   0.277E-01    0.133E-01
DAV:   3    -0.602520400283E+03    0.15500E-03   -0.33163E-04 12544   0.436E-02    0.826E-02
DAV:   4    -0.602520350760E+03    0.49523E-04   -0.26306E-04 10752   0.347E-02    0.187E-02
DAV:   5    -0.602520354053E+03   -0.32928E-05   -0.45683E-05 10240   0.141E-02    0.134E-02
DAV:   6    -0.602520354066E+03   -0.13162E-07   -0.45523E-06  9568   0.410E-03
  55 F= -.60252035E+03 E0= -.60252035E+03  d E =-.387037E-02
       N       E                     dE             d eps       ncg     rms          rms(c)
DAV:   1    -0.602521945251E+03   -0.15912E-02   -0.15115E-01  9024   0.801E-01    0.982E-02
DAV:   2    -0.602522179217E+03   -0.23397E-03   -0.28161E-03 11040   0.110E-01    0.546E-02
DAV:   3    -0.602522162446E+03    0.16772E-04   -0.72617E-05 12384   0.193E-02    0.324E-02
DAV:   4    -0.602522157891E+03    0.45549E-05   -0.21874E-05 10720   0.107E-02    0.109E-02
DAV:   5    -0.602522158474E+03   -0.58310E-06   -0.59567E-06 10272   0.514E-03
  56 F= -.60252216E+03 E0= -.60252216E+03  d E =-.180441E-02
       N       E                     dE             d eps       ncg     rms          rms(c)
DAV:   1    -0.602522786996E+03   -0.62911E-03   -0.82973E-01  8960   0.188E+00    0.227E-01
DAV:   2    -0.602524076609E+03   -0.12896E-02   -0.15351E-02 11008   0.257E-01    0.127E-01
DAV:   3    -0.602523985533E+03    0.91075E-04   -0.37156E-04 12416   0.439E-02    0.759E-02
DAV:   4    -0.602523960550E+03    0.24984E-04   -0.12239E-04 10688   0.251E-02    0.245E-02
DAV:   5    -0.602523964626E+03   -0.40761E-05   -0.32116E-05 11296   0.118E-02    0.105E-02
DAV:   6    -0.602523964518E+03    0.10758E-06   -0.33593E-06  8960   0.376E-03
  57 F= -.60252396E+03 E0= -.60252396E+03  d E =-.361045E-02
       N       E                     dE             d eps       ncg     rms          rms(c)
DAV:   1    -0.602525162506E+03   -0.11979E-02   -0.77341E-02  9088   0.574E-01    0.838E-02
DAV:   2    -0.602525252560E+03   -0.90054E-04   -0.15618E-03 11072   0.820E-02    0.444E-02
DAV:   3    -0.602525240962E+03    0.11598E-04   -0.55776E-05 11136   0.171E-02    0.243E-02
DAV:   4    -0.602525238975E+03    0.19871E-05   -0.15007E-05 11232   0.929E-03    0.856E-03
DAV:   5    -0.602525239928E+03   -0.95325E-06   -0.32972E-06  9472   0.392E-03
  58 F= -.60252524E+03 E0= -.60252524E+03  d E =-.127541E-02
       N       E                     dE             d eps       ncg     rms          rms(c)
DAV:   1    -0.602526515130E+03   -0.12762E-02   -0.51240E-01  8960   0.148E+00    0.215E-01
DAV:   2    -0.602527104834E+03   -0.58970E-03   -0.10313E-02 11104   0.211E-01    0.114E-01
DAV:   3    -0.602527022900E+03    0.81934E-04   -0.36399E-04 11136   0.438E-02    0.626E-02
DAV:   4    -0.602527005644E+03    0.17257E-04   -0.10146E-04 11264   0.241E-02    0.217E-02
DAV:   5    -0.602527009201E+03   -0.35577E-05   -0.22192E-05 11040   0.101E-02    0.818E-03
DAV:   6    -0.602527009711E+03   -0.50972E-06   -0.33386E-06  8576   0.415E-03
  59 F= -.60252701E+03 E0= -.60252701E+03  d E =-.304519E-02
       N       E                     dE             d eps       ncg     rms          rms(c)
DAV:   1    -0.602528266060E+03   -0.12569E-02   -0.72352E-02  8960   0.556E-01    0.779E-02
DAV:   2    -0.602528361089E+03   -0.95029E-04   -0.14627E-03 10976   0.798E-02    0.420E-02
DAV:   3    -0.602528349554E+03    0.11535E-04   -0.36906E-05 11168   0.151E-02    0.231E-02
DAV:   4    -0.602528348403E+03    0.11505E-05   -0.18143E-05 11264   0.963E-03    0.709E-03
DAV:   5    -0.602528349407E+03   -0.10040E-05   -0.27358E-06  9120   0.373E-03    0.310E-03
DAV:   6    -0.602528349741E+03   -0.33328E-06   -0.37307E-07  5824   0.146E-03
  60 F= -.60252835E+03 E0= -.60252835E+03  d E =-.134003E-02
       N       E                     dE             d eps       ncg     rms          rms(c)
DAV:   1    -0.602530338495E+03   -0.19891E-02   -0.65106E-01  8960   0.167E+00    0.234E-01
DAV:   2    -0.602531166732E+03   -0.82824E-03   -0.13139E-02 10944   0.239E-01    0.126E-01
DAV:   3    -0.602531054997E+03    0.11173E-03   -0.33361E-04 11168   0.454E-02    0.690E-02
DAV:   4    -0.602531037282E+03    0.17715E-04   -0.16392E-04 11232   0.289E-02    0.212E-02
DAV:   5    -0.602531041940E+03   -0.46580E-05   -0.25298E-05 11136   0.111E-02    0.941E-03
DAV:   6    -0.602531043143E+03   -0.12032E-05   -0.31924E-06  9120   0.397E-03    0.628E-03
DAV:   7    -0.602531043985E+03   -0.84146E-06   -0.51638E-07  5824   0.211E-03
  61 F= -.60253104E+03 E0= -.60253104E+03  d E =-.403427E-02
       N       E                     dE             d eps       ncg     rms          rms(c)
DAV:   1    -0.602527653794E+03    0.33893E-02   -0.26045E+00  8960   0.333E+00    0.468E-01
DAV:   2    -0.602530953711E+03   -0.32999E-02   -0.52780E-02 10912   0.478E-01    0.253E-01
DAV:   3    -0.602530501362E+03    0.45235E-03   -0.13344E-03 11168   0.909E-02    0.138E-01
DAV:   4    -0.602530424865E+03    0.76498E-04   -0.66360E-04 11232   0.580E-02    0.426E-02
DAV:   5    -0.602530439524E+03   -0.14659E-04   -0.10245E-04 12032   0.223E-02    0.189E-02
DAV:   6    -0.602530442666E+03   -0.31426E-05   -0.12532E-05  9952   0.773E-03    0.125E-02
DAV:   7    -0.602530444571E+03   -0.19043E-05   -0.22132E-06  7936   0.408E-03    0.410E-03
DAV:   8    -0.602530445471E+03   -0.90076E-06   -0.53774E-07  5824   0.195E-03
  62 F= -.60253045E+03 E0= -.60253045E+03  d E =-.343576E-02
       N       E                     dE             d eps       ncg     rms          rms(c)
DAV:   1    -0.602530875030E+03   -0.43046E-03   -0.86145E-01  8960   0.192E+00    0.267E-01
DAV:   2    -0.602531956722E+03   -0.10817E-02   -0.17222E-02 10912   0.274E-01    0.146E-01
DAV:   3    -0.602531804313E+03    0.15241E-03   -0.44505E-04 11168   0.521E-02    0.797E-02
DAV:   4    -0.602531773978E+03    0.30336E-04   -0.20930E-04 11232   0.328E-02    0.244E-02
DAV:   5    -0.602531775360E+03   -0.13824E-05   -0.33059E-05 11616   0.126E-02    0.108E-02
DAV:   6    -0.602531774844E+03    0.51560E-06   -0.40455E-06  9312   0.447E-03
  63 F= -.60253177E+03 E0= -.60253177E+03  d E =-.476513E-02
       N       E                     dE             d eps       ncg     rms          rms(c)
DAV:   1    -0.602532726835E+03   -0.95147E-03   -0.10444E-01  8960   0.675E-01    0.859E-02
DAV:   2    -0.602532863694E+03   -0.13686E-03   -0.18051E-03 10560   0.908E-02    0.476E-02
DAV:   3    -0.602532851308E+03    0.12386E-04   -0.36313E-05 11648   0.152E-02    0.279E-02
DAV:   4    -0.602532849315E+03    0.19933E-05   -0.24739E-05 10976   0.114E-02    0.736E-03
DAV:   5    -0.602532849884E+03   -0.56905E-06   -0.36535E-06  9024   0.443E-03
  64 F= -.60253285E+03 E0= -.60253285E+03  d E =-.107504E-02
       N       E                     dE             d eps       ncg     rms          rms(c)
DAV:   1    -0.602533773487E+03   -0.92417E-03   -0.94066E-01  8960   0.203E+00    0.262E-01
DAV:   2    -0.602535021836E+03   -0.12483E-02   -0.16406E-02 10560   0.273E-01    0.143E-01
DAV:   3    -0.602534914497E+03    0.10734E-03   -0.32959E-04 11648   0.457E-02    0.834E-02
DAV:   4    -0.602534897302E+03    0.17195E-04   -0.22091E-04 10976   0.341E-02    0.222E-02
DAV:   5    -0.602534900669E+03   -0.33674E-05   -0.32959E-05 11136   0.133E-02    0.128E-02
DAV:   6    -0.602534901596E+03   -0.92722E-06   -0.60444E-06  9376   0.479E-03
  65 F= -.60253490E+03 E0= -.60253490E+03  d E =-.312675E-02
       N       E                     dE             d eps       ncg     rms          rms(c)
DAV:   1    -0.602529367288E+03    0.55334E-02   -0.37636E+00  8960   0.405E+00    0.525E-01
DAV:   2    -0.602534338437E+03   -0.49711E-02   -0.65816E-02 10560   0.547E-01    0.286E-01
DAV:   3    -0.602533904203E+03    0.43423E-03   -0.13238E-03 11648   0.917E-02    0.167E-01
DAV:   4    -0.602533829268E+03    0.74936E-04   -0.88695E-04 11008   0.681E-02    0.446E-02
DAV:   5    -0.602533840523E+03   -0.11255E-04   -0.13310E-04 11104   0.266E-02    0.256E-02
DAV:   6    -0.602533843200E+03   -0.26771E-05   -0.23758E-05  9984   0.952E-03    0.175E-02
DAV:   7    -0.602533843815E+03   -0.61509E-06   -0.38036E-06  9376   0.540E-03
  66 F= -.60253384E+03 E0= -.60253384E+03  d E =-.206897E-02
       N       E                     dE             d eps       ncg     rms          rms(c)
DAV:   1    -0.602533441906E+03    0.40129E-03   -0.16179E+00  8960   0.266E+00    0.341E-01
DAV:   2    -0.602535554902E+03   -0.21130E-02   -0.27847E-02 10592   0.357E-01    0.188E-01
DAV:   3    -0.602535360573E+03    0.19433E-03   -0.56573E-04 11648   0.592E-02    0.110E-01
DAV:   4    -0.602535319686E+03    0.40887E-04   -0.36665E-04 10976   0.444E-02    0.287E-02
DAV:   5    -0.602535322272E+03   -0.25860E-05   -0.54690E-05 11136   0.170E-02    0.167E-02
DAV:   6    -0.602535322272E+03    0.20373E-09   -0.95861E-06  9888   0.610E-03
  67 F= -.60253532E+03 E0= -.60253532E+03  d E =-.354743E-02
       N       E                     dE             d eps       ncg     rms          rms(c)
DAV:   1    -0.602536605088E+03   -0.12828E-02   -0.15690E-01  8960   0.838E-01    0.106E-01
DAV:   2    -0.602536765559E+03   -0.16047E-03   -0.27762E-03 11104   0.117E-01    0.576E-02
DAV:   3    -0.602536741560E+03    0.23999E-04   -0.93051E-05 11648   0.236E-02    0.296E-02
DAV:   4    -0.602536736169E+03    0.53910E-05   -0.28634E-05 11456   0.127E-02    0.958E-03
DAV:   5    -0.602536735640E+03    0.52856E-06   -0.47872E-06  9728   0.448E-03
  68 F= -.60253674E+03 E0= -.60253674E+03  d E =-.141337E-02
       N       E                     dE             d eps       ncg     rms          rms(c)
DAV:   1    -0.602537434565E+03   -0.69840E-03   -0.43416E-01  8960   0.139E+00    0.179E-01
DAV:   2    -0.602537890535E+03   -0.45597E-03   -0.77667E-03 11104   0.195E-01    0.963E-02
DAV:   3    -0.602537829002E+03    0.61533E-04   -0.26300E-04 11648   0.396E-02    0.492E-02
DAV:   4    -0.602537817246E+03    0.11757E-04   -0.78167E-05 11456   0.211E-02    0.161E-02
DAV:   5    -0.602537817068E+03    0.17777E-06   -0.13099E-05 10400   0.741E-03    0.801E-03
DAV:   6    -0.602537816504E+03    0.56376E-06   -0.20601E-06  7744   0.345E-03
  69 F= -.60253782E+03 E0= -.60253782E+03  d E =-.249423E-02
       N       E                     dE             d eps       ncg     rms          rms(c)
DAV:   1    -0.602539823143E+03   -0.20061E-02   -0.34430E-01  8960   0.125E+00    0.195E-01
DAV:   2    -0.602539927729E+03   -0.10459E-03   -0.62783E-03 11008   0.180E-01    0.928E-02
DAV:   3    -0.602539863576E+03    0.64153E-04   -0.27462E-04 10784   0.393E-02    0.416E-02
DAV:   4    -0.602539851486E+03    0.12090E-04   -0.67517E-05 11456   0.187E-02    0.145E-02
DAV:   5    -0.602539849884E+03    0.16029E-05   -0.97371E-06 10912   0.628E-03    0.736E-03
DAV:   6    -0.602539848818E+03    0.10657E-05   -0.87050E-07  5824   0.264E-03    0.396E-03
DAV:   7    -0.602539847623E+03    0.11945E-05   -0.38374E-07  5824   0.172E-03    0.755E-04
DAV:   8    -0.602539847544E+03    0.79730E-07   -0.11202E-07  5824   0.107E-03
  70 F= -.60253985E+03 E0= -.60253985E+03  d E =-.203104E-02
       N       E                     dE             d eps       ncg     rms          rms(c)
DAV:   1    -0.602541743562E+03   -0.18959E-02   -0.13420E+00  8960   0.247E+00    0.384E-01
DAV:   2    -0.602542146372E+03   -0.40281E-03   -0.24404E-02 11008   0.356E-01    0.184E-01
DAV:   3    -0.602541898165E+03    0.24821E-03   -0.10766E-03 10816   0.777E-02    0.822E-02
DAV:   4    -0.602541855392E+03    0.42772E-04   -0.25943E-04 11392   0.368E-02    0.287E-02
DAV:   5    -0.602541852970E+03    0.24227E-05   -0.38374E-05 12032   0.124E-02    0.145E-02
DAV:   6    -0.602541851166E+03    0.18041E-05   -0.40231E-06 10016   0.503E-03    0.810E-03
DAV:   7    -0.602541849055E+03    0.21104E-05   -0.84868E-07  6208   0.272E-03    0.124E-03
DAV:   8    -0.602541848818E+03    0.23717E-06   -0.22155E-07  5824   0.135E-03
  71 F= -.60254185E+03 E0= -.60254185E+03  d E =-.403231E-02
       N       E                     dE             d eps       ncg     rms          rms(c)
DAV:   1    -0.602543504109E+03   -0.16551E-02   -0.62700E-01  8960   0.167E+00    0.213E-01
DAV:   2    -0.602543960978E+03   -0.45687E-03   -0.94573E-03 11136   0.223E-01    0.113E-01
DAV:   3    -0.602543873022E+03    0.87956E-04   -0.36329E-04 11904   0.457E-02    0.570E-02
DAV:   4    -0.602543853171E+03    0.19851E-04   -0.87808E-05 11488   0.229E-02    0.191E-02
DAV:   5    -0.602543851819E+03    0.13524E-05   -0.17862E-05 11232   0.857E-03    0.788E-03
DAV:   6    -0.602543851023E+03    0.79564E-06   -0.14740E-06  6080   0.329E-03
  72 F= -.60254385E+03 E0= -.60254385E+03  d E =-.200220E-02
       N       E                     dE             d eps       ncg     rms          rms(c)
DAV:   1    -0.602544029794E+03   -0.17797E-03   -0.14775E-01  8960   0.809E-01    0.103E-01
DAV:   2    -0.602544139882E+03   -0.11009E-03   -0.22368E-03 11136   0.108E-01    0.545E-02
DAV:   3    -0.602544118917E+03    0.20965E-04   -0.83082E-05 11968   0.219E-02    0.277E-02
DAV:   4    -0.602544113640E+03    0.52768E-05   -0.20880E-05 11488   0.111E-02    0.915E-03
DAV:   5    -0.602544112801E+03    0.83836E-06   -0.40714E-06  9344   0.412E-03
  73 F= -.60254411E+03 E0= -.60254411E+03  d E =-.226398E-02
       N       E                     dE             d eps       ncg     rms          rms(c)
DAV:   1    -0.602544927816E+03   -0.81418E-03   -0.65686E-01  8960   0.167E+00    0.160E-01
DAV:   2    -0.602545685827E+03   -0.75801E-03   -0.86941E-03 10592   0.209E-01    0.891E-02
DAV:   3    -0.602545640468E+03    0.45359E-04   -0.15988E-04 13024   0.302E-02    0.528E-02
DAV:   4    -0.602545628697E+03    0.11771E-04   -0.86480E-05 10752   0.212E-02    0.102E-02
DAV:   5    -0.602545630532E+03   -0.18349E-05   -0.16391E-05  9920   0.816E-03    0.890E-03
DAV:   6    -0.602545630532E+03    0.27649E-09   -0.10053E-06  5952   0.228E-03
  74 F= -.60254563E+03 E0= -.60254563E+03  d E =-.151773E-02
       N       E                     dE             d eps       ncg     rms          rms(c)
DAV:   1    -0.602545342370E+03    0.28816E-03   -0.11004E+00  8960   0.216E+00    0.207E-01
DAV:   2    -0.602546615395E+03   -0.12730E-02   -0.14593E-02 10624   0.270E-01    0.115E-01
DAV:   3    -0.602546538941E+03    0.76454E-04   -0.26660E-04 12992   0.389E-02    0.684E-02
DAV:   4    -0.602546518776E+03    0.20165E-04   -0.14523E-04 10784   0.274E-02    0.132E-02
DAV:   5    -0.602546521903E+03   -0.31265E-05   -0.27711E-05  9920   0.106E-02    0.116E-02
DAV:   6    -0.602546521907E+03   -0.39654E-08   -0.18581E-06  7488   0.297E-03
  75 F= -.60254652E+03 E0= -.60254652E+03  d E =-.240911E-02
       N       E                     dE             d eps       ncg     rms          rms(c)
DAV:   1    -0.602547619332E+03   -0.10974E-02   -0.49241E-01  8960   0.146E+00    0.162E-01
DAV:   2    -0.602548156995E+03   -0.53766E-03   -0.75302E-03 10720   0.194E-01    0.882E-02
DAV:   3    -0.602548103625E+03    0.53370E-04   -0.20119E-04 12544   0.339E-02    0.487E-02
DAV:   4    -0.602548092393E+03    0.11231E-04   -0.67690E-05 11392   0.195E-02    0.156E-02
DAV:   5    -0.602548094744E+03   -0.23501E-05   -0.12530E-05 10592   0.734E-03    0.687E-03
DAV:   6    -0.602548095230E+03   -0.48592E-06   -0.11252E-06  5824   0.262E-03
  76 F= -.60254810E+03 E0= -.60254810E+03  d E =-.157332E-02
       N       E                     dE             d eps       ncg     rms          rms(c)
DAV:   1    -0.602548163707E+03   -0.68963E-04   -0.83918E-01  8960   0.191E+00    0.211E-01
DAV:   2    -0.602549076784E+03   -0.91308E-03   -0.12804E-02 10688   0.253E-01    0.115E-01
DAV:   3    -0.602548984880E+03    0.91903E-04   -0.34089E-04 12576   0.442E-02    0.636E-02
DAV:   4    -0.602548964605E+03    0.20275E-04   -0.11577E-04 11360   0.254E-02    0.203E-02
DAV:   5    -0.602548968145E+03   -0.35398E-05   -0.21581E-05 11200   0.957E-03    0.899E-03
DAV:   6    -0.602548968800E+03   -0.65452E-06   -0.20299E-06  7520   0.333E-03
  77 F= -.60254897E+03 E0= -.60254897E+03  d E =-.244689E-02
       N       E                     dE             d eps       ncg     rms          rms(c)
DAV:   1    -0.602549854510E+03   -0.88637E-03   -0.20667E-01  8960   0.954E-01    0.138E-01
DAV:   2    -0.602549961023E+03   -0.10651E-03   -0.32172E-03 10944   0.130E-01    0.701E-02
DAV:   3    -0.602549933676E+03    0.27346E-04   -0.13834E-04 11392   0.276E-02    0.346E-02
DAV:   4    -0.602549930357E+03    0.33198E-05   -0.29735E-05 11616   0.132E-02    0.123E-02
DAV:   5    -0.602549931804E+03   -0.14475E-05   -0.53163E-06  9824   0.473E-03    0.464E-03
DAV:   6    -0.602549932428E+03   -0.62407E-06   -0.61441E-07  5824   0.221E-03
  78 F= -.60254993E+03 E0= -.60254993E+03  d E =-.963628E-03
       N       E                     dE             d eps       ncg     rms          rms(c)
DAV:   1    -0.602550398058E+03   -0.46625E-03   -0.69198E-01  8960   0.174E+00    0.253E-01
DAV:   2    -0.602550740279E+03   -0.34222E-03   -0.10747E-02 10944   0.238E-01    0.128E-01
DAV:   3    -0.602550646380E+03    0.93899E-04   -0.46455E-04 11488   0.506E-02    0.631E-02
DAV:   4    -0.602550632632E+03    0.13749E-04   -0.99632E-05 11616   0.240E-02    0.225E-02
DAV:   5    -0.602550635480E+03   -0.28480E-05   -0.18151E-05 11648   0.861E-03    0.873E-03
DAV:   6    -0.602550636733E+03   -0.12530E-05   -0.21328E-06  7648   0.383E-03    0.510E-03
DAV:   7    -0.602550637994E+03   -0.12610E-05   -0.57566E-07  5824   0.202E-03    0.141E-03
DAV:   8    -0.602550638315E+03   -0.32151E-06   -0.18635E-07  5824   0.117E-03
  79 F= -.60255064E+03 E0= -.60255064E+03  d E =-.166952E-02
       N       E                     dE             d eps       ncg     rms          rms(c)
DAV:   1    -0.602551218946E+03   -0.58095E-03   -0.13295E-01  8960   0.757E-01    0.906E-02
DAV:   2    -0.602551350488E+03   -0.13154E-03   -0.20572E-03 10496   0.102E-01    0.485E-02
DAV:   3    -0.602551337025E+03    0.13463E-04   -0.57851E-05 11936   0.183E-02    0.262E-02
DAV:   4    -0.602551335586E+03    0.14383E-05   -0.20721E-05 11264   0.108E-02    0.825E-03
DAV:   5    -0.602551336678E+03   -0.10916E-05   -0.31016E-06  9024   0.362E-03    0.382E-03
DAV:   6    -0.602551337074E+03   -0.39622E-06   -0.41747E-07  5824   0.165E-03
  80 F= -.60255134E+03 E0= -.60255134E+03  d E =-.698759E-03
       N       E                     dE             d eps       ncg     rms          rms(c)
DAV:   1    -0.602551471554E+03   -0.13488E-03   -0.11965E+00  8960   0.227E+00    0.273E-01
DAV:   2    -0.602552652075E+03   -0.11805E-02   -0.18549E-02 10496   0.305E-01    0.145E-01
DAV:   3    -0.602552527927E+03    0.12415E-03   -0.51654E-04 12000   0.546E-02    0.784E-02
DAV:   4    -0.602552509653E+03    0.18274E-04   -0.18832E-04 11200   0.324E-02    0.246E-02
DAV:   5    -0.602552515349E+03   -0.56959E-05   -0.27991E-05 11424   0.108E-02    0.117E-02
DAV:   6    -0.602552516834E+03   -0.14852E-05   -0.43157E-06  9280   0.486E-03    0.713E-03
DAV:   7    -0.602552517976E+03   -0.11419E-05   -0.72751E-07  5824   0.255E-03    0.196E-03
DAV:   8    -0.602552518449E+03   -0.47367E-06   -0.31276E-07  5824   0.133E-03
  81 F= -.60255252E+03 E0= -.60255252E+03  d E =-.188013E-02
       N       E                     dE             d eps       ncg     rms          rms(c)
DAV:   1    -0.602552453804E+03    0.64172E-04   -0.19019E-01  8960   0.905E-01    0.108E-01
DAV:   2    -0.602552641791E+03   -0.18799E-03   -0.29446E-03 10496   0.122E-01    0.581E-02
DAV:   3    -0.602552622433E+03    0.19358E-04   -0.82784E-05 11936   0.218E-02    0.314E-02
DAV:   4    -0.602552620157E+03    0.22759E-05   -0.29680E-05 11232   0.130E-02    0.986E-03
DAV:   5    -0.602552621571E+03   -0.14141E-05   -0.44569E-06  9888   0.433E-03    0.460E-03
DAV:   6    -0.602552622053E+03   -0.48177E-06   -0.59068E-07  5824   0.195E-03
  82 F= -.60255262E+03 E0= -.60255262E+03  d E =-.198374E-02
       N       E                     dE             d eps       ncg     rms          rms(c)
DAV:   1    -0.602553241158E+03   -0.61959E-03   -0.30260E-01  8960   0.112E+00    0.107E-01
DAV:   2    -0.602553670748E+03   -0.42959E-03   -0.45935E-03 10368   0.144E-01    0.625E-02
DAV:   3    -0.602553651943E+03    0.18805E-04   -0.69780E-05 12544   0.196E-02    0.396E-02
DAV:   4    -0.602553648182E+03    0.37607E-05   -0.61578E-05 10720   0.167E-02    0.843E-03
DAV:   5    -0.602553648937E+03   -0.75498E-06   -0.10593E-05  9696   0.656E-03    0.564E-03
DAV:   6    -0.602553648901E+03    0.35754E-07   -0.12240E-06  7072   0.225E-03
  83 F= -.60255365E+03 E0= -.60255365E+03  d E =-.102685E-02
       N       E                     dE             d eps       ncg     rms          rms(c)
DAV:   1    -0.602553582000E+03    0.66937E-04   -0.61745E-01  8960   0.161E+00    0.153E-01
DAV:   2    -0.602554462645E+03   -0.88064E-03   -0.93985E-03 10368   0.206E-01    0.891E-02
DAV:   3    -0.602554424897E+03    0.37749E-04   -0.14224E-04 12544   0.280E-02    0.564E-02
DAV:   4    -0.602554417647E+03    0.72492E-05   -0.12512E-04 10688   0.239E-02    0.121E-02
DAV:   5    -0.602554419199E+03   -0.15512E-05   -0.21450E-05  9760   0.938E-03    0.806E-03
DAV:   6    -0.602554419182E+03    0.16669E-07   -0.27453E-06  9376   0.326E-03
  84 F= -.60255442E+03 E0= -.60255442E+03  d E =-.179713E-02
       N       E                     dE             d eps       ncg     rms          rms(c)
DAV:   1    -0.602554337488E+03    0.81711E-04   -0.12277E-01  9024   0.716E-01    0.689E-02
DAV:   2    -0.602554514025E+03   -0.17654E-03   -0.18818E-03 10368   0.922E-02    0.396E-02
DAV:   3    -0.602554506940E+03    0.70850E-05   -0.28534E-05 12544   0.125E-02    0.249E-02
DAV:   4    -0.602554505645E+03    0.12952E-05   -0.24085E-05 10240   0.105E-02    0.537E-03
DAV:   5    -0.602554505927E+03   -0.28197E-06   -0.40635E-06  8352   0.426E-03
  85 F= -.60255451E+03 E0= -.60255451E+03  d E =-.188387E-02
       N       E                     dE             d eps       ncg     rms          rms(c)
DAV:   1    -0.602555356466E+03   -0.85082E-03   -0.25344E-01  8960   0.104E+00    0.117E-01
DAV:   2    -0.602555655410E+03   -0.29894E-03   -0.36775E-03 10304   0.137E-01    0.633E-02
DAV:   3    -0.602555644553E+03    0.10857E-04   -0.73738E-05 12352   0.201E-02    0.378E-02
DAV:   4    -0.602555642463E+03    0.20901E-05   -0.34196E-05 10720   0.138E-02    0.103E-02
DAV:   5    -0.602555642389E+03    0.73480E-07   -0.55614E-06 10208   0.517E-03
  86 F= -.60255564E+03 E0= -.60255564E+03  d E =-.113646E-02
       N       E                     dE             d eps       ncg     rms          rms(c)
DAV:   1    -0.602555673275E+03   -0.30812E-04   -0.12666E+00  8960   0.232E+00    0.261E-01
DAV:   2    -0.602557175049E+03   -0.15018E-02   -0.18361E-02 10304   0.306E-01    0.142E-01
DAV:   3    -0.602557122572E+03    0.52477E-04   -0.36851E-04 12320   0.451E-02    0.851E-02
DAV:   4    -0.602557115940E+03    0.66315E-05   -0.17286E-04 10752   0.313E-02    0.229E-02
DAV:   5    -0.602557118185E+03   -0.22447E-05   -0.28376E-05 11040   0.116E-02    0.118E-02
DAV:   6    -0.602557117581E+03    0.60446E-06   -0.39292E-06  9408   0.429E-03
  87 F= -.60255712E+03 E0= -.60255712E+03  d E =-.261165E-02
       N       E                     dE             d eps       ncg     rms          rms(c)
DAV:   1    -0.602549998189E+03    0.71200E-02   -0.50670E+00  8960   0.465E+00    0.520E-01
DAV:   2    -0.602556037396E+03   -0.60392E-02   -0.73478E-02 10304   0.612E-01    0.284E-01
DAV:   3    -0.602555824872E+03    0.21252E-03   -0.14815E-03 12320   0.905E-02    0.172E-01
DAV:   4    -0.602555801092E+03    0.23780E-04   -0.70198E-04 10816   0.635E-02    0.460E-02
DAV:   5    -0.602555814381E+03   -0.13289E-04   -0.11528E-04 10976   0.233E-02    0.238E-02
DAV:   6    -0.602555813285E+03    0.10960E-05   -0.16299E-05 10848   0.874E-03    0.162E-02
DAV:   7    -0.602555811529E+03    0.17561E-05   -0.41730E-06 10112   0.549E-03    0.620E-03
DAV:   8    -0.602555810797E+03    0.73258E-06   -0.98786E-07  6176   0.284E-03
  88 F= -.60255581E+03 E0= -.60255581E+03  d E =-.130487E-02
       N       E                     dE             d eps       ncg     rms          rms(c)
DAV:   1    -0.602554220510E+03    0.15910E-02   -0.27284E+00  8960   0.341E+00    0.383E-01
DAV:   2    -0.602557410911E+03   -0.31904E-02   -0.39368E-02 10304   0.446E-01    0.206E-01
DAV:   3    -0.602557305179E+03    0.10573E-03   -0.79196E-04 12320   0.661E-02    0.123E-01
DAV:   4    -0.602557304303E+03    0.87589E-06   -0.36368E-04 10816   0.445E-02    0.335E-02
DAV:   5    -0.602557316700E+03   -0.12397E-04   -0.60341E-05 10912   0.168E-02    0.170E-02
DAV:   6    -0.602557317943E+03   -0.12427E-05   -0.75066E-06 10240   0.588E-03    0.117E-02
DAV:   7    -0.602557318921E+03   -0.97796E-06   -0.19479E-06  7136   0.383E-03
  89 F= -.60255732E+03 E0= -.60255732E+03  d E =-.281299E-02
       N       E                     dE             d eps       ncg     rms          rms(c)
DAV:   1    -0.602557950087E+03   -0.63214E-03   -0.65941E-01  8960   0.166E+00    0.179E-01
DAV:   2    -0.602558841476E+03   -0.89139E-03   -0.10448E-02 10496   0.221E-01    0.101E-01
DAV:   3    -0.602558794305E+03    0.47171E-04   -0.21694E-04 12096   0.347E-02    0.603E-02
DAV:   4    -0.602558785135E+03    0.91699E-05   -0.99482E-05 11136   0.228E-02    0.177E-02
DAV:   5    -0.602558787418E+03   -0.22824E-05   -0.19794E-05 10368   0.889E-03    0.868E-03
DAV:   6    -0.602558786954E+03    0.46319E-06   -0.19808E-06  7680   0.317E-03
  90 F= -.60255879E+03 E0= -.60255879E+03  d E =-.146803E-02
       N       E                     dE             d eps       ncg     rms          rms(c)
DAV:   1    -0.602558548610E+03    0.23881E-03   -0.62540E-01  8960   0.162E+00    0.175E-01
DAV:   2    -0.602559403720E+03   -0.85511E-03   -0.99779E-03 10496   0.215E-01    0.980E-02
DAV:   3    -0.602559360258E+03    0.43463E-04   -0.20631E-04 12096   0.338E-02    0.590E-02
DAV:   4    -0.602559352030E+03    0.82272E-05   -0.95468E-05 11104   0.223E-02    0.174E-02
DAV:   5    -0.602559354202E+03   -0.21719E-05   -0.18927E-05 10400   0.876E-03    0.854E-03
DAV:   6    -0.602559353749E+03    0.45357E-06   -0.20810E-06  7936   0.321E-03
  91 F= -.60255935E+03 E0= -.60255935E+03  d E =-.203483E-02
       N       E                     dE             d eps       ncg     rms          rms(c)
DAV:   1    -0.602560209323E+03   -0.85512E-03   -0.36052E-01  8960   0.122E+00    0.130E-01
DAV:   2    -0.602560736957E+03   -0.52763E-03   -0.57586E-03 10336   0.158E-01    0.755E-02
DAV:   3    -0.602560710455E+03    0.26501E-04   -0.87357E-05 12128   0.217E-02    0.464E-02
DAV:   4    -0.602560707513E+03    0.29420E-05   -0.77962E-05 10624   0.179E-02    0.102E-02
DAV:   5    -0.602560708848E+03   -0.13349E-05   -0.13127E-05  9984   0.742E-03    0.669E-03
DAV:   6    -0.602560708914E+03   -0.65411E-07   -0.12067E-06  6624   0.226E-03
  92 F= -.60256071E+03 E0= -.60256071E+03  d E =-.135517E-02
       N       E                     dE             d eps       ncg     rms          rms(c)
DAV:   1    -0.602560634917E+03    0.73931E-04   -0.84034E-01  8960   0.186E+00    0.199E-01
DAV:   2    -0.602561860271E+03   -0.12254E-02   -0.13391E-02 10336   0.241E-01    0.115E-01
DAV:   3    -0.602561797317E+03    0.62954E-04   -0.20240E-04 12096   0.330E-02    0.709E-02
DAV:   4    -0.602561789873E+03    0.74442E-05   -0.18302E-04 10624   0.273E-02    0.156E-02
DAV:   5    -0.602561792874E+03   -0.30017E-05   -0.30844E-05  9984   0.113E-02    0.102E-02
DAV:   6    -0.602561793054E+03   -0.17971E-06   -0.31208E-06  9664   0.341E-03
  93 F= -.60256179E+03 E0= -.60256179E+03  d E =-.243931E-02
       N       E                     dE             d eps       ncg     rms          rms(c)
DAV:   1    -0.602562981758E+03   -0.11889E-02   -0.36595E-01  8960   0.125E+00    0.168E-01
DAV:   2    -0.602563377194E+03   -0.39544E-03   -0.58455E-03 10432   0.167E-01    0.910E-02
DAV:   3    -0.602563344282E+03    0.32912E-04   -0.15870E-04 12032   0.302E-02    0.506E-02
DAV:   4    -0.602563341699E+03    0.25835E-05   -0.60231E-05 10912   0.180E-02    0.149E-02
DAV:   5    -0.602563343918E+03   -0.22189E-05   -0.93545E-06 11040   0.698E-03    0.661E-03
DAV:   6    -0.602563344365E+03   -0.44742E-06   -0.11796E-06  6304   0.249E-03
  94 F= -.60256334E+03 E0= -.60256334E+03  d E =-.155131E-02
       N       E                     dE             d eps       ncg     rms          rms(c)
DAV:   1    -0.602563563810E+03   -0.21989E-03   -0.38838E-01  8960   0.129E+00    0.172E-01
DAV:   2    -0.602563982624E+03   -0.41881E-03   -0.61907E-03 10432   0.171E-01    0.937E-02
DAV:   3    -0.602563946740E+03    0.35883E-04   -0.16815E-04 12032   0.312E-02    0.522E-02
DAV:   4    -0.602563943613E+03    0.31276E-05   -0.64371E-05 10912   0.186E-02    0.153E-02
DAV:   5    -0.602563945931E+03   -0.23185E-05   -0.10082E-05 10976   0.722E-03    0.684E-03
DAV:   6    -0.602563946396E+03   -0.46423E-06   -0.12430E-06  6368   0.255E-03
  95 F= -.60256395E+03 E0= -.60256395E+03  d E =-.215334E-02
       N       E                     dE             d eps       ncg     rms          rms(c)
DAV:   1    -0.602564346487E+03   -0.40056E-03   -0.49563E-01  8960   0.143E+00    0.188E-01
DAV:   2    -0.602564951107E+03   -0.60462E-03   -0.85782E-03 10496   0.196E-01    0.102E-01
DAV:   3    -0.602564889487E+03    0.61620E-04   -0.20738E-04 11776   0.350E-02    0.574E-02
DAV:   4    -0.602564879489E+03    0.99985E-05   -0.10109E-04 11200   0.224E-02    0.161E-02
DAV:   5    -0.602564882351E+03   -0.28625E-05   -0.15454E-05 10592   0.831E-03    0.738E-03
DAV:   6    -0.602564882891E+03   -0.53978E-06   -0.15631E-06  6304   0.305E-03
  96 F= -.60256488E+03 E0= -.60256488E+03  d E =-.936496E-03
       N       E                     dE             d eps       ncg     rms          rms(c)
DAV:   1    -0.602564818963E+03    0.63388E-04   -0.30025E-01  8960   0.112E+00    0.146E-01
DAV:   2    -0.602565187629E+03   -0.36867E-03   -0.52047E-03 10496   0.152E-01    0.795E-02
DAV:   3    -0.602565150466E+03    0.37163E-04   -0.12516E-04 11936   0.271E-02    0.448E-02
DAV:   4    -0.602565144682E+03    0.57839E-05   -0.61637E-05 11200   0.175E-02    0.125E-02
DAV:   5    -0.602565146594E+03   -0.19120E-05   -0.93646E-06 10432   0.647E-03    0.576E-03
DAV:   6    -0.602565147004E+03   -0.40999E-06   -0.92992E-07  5824   0.238E-03
  97 F= -.60256515E+03 E0= -.60256515E+03  d E =-.120061E-02
       N       E                     dE             d eps       ncg     rms          rms(c)
DAV:   1    -0.602565523195E+03   -0.37660E-03   -0.52027E-01  8960   0.147E+00    0.166E-01
DAV:   2    -0.602566293216E+03   -0.77002E-03   -0.87231E-03 10464   0.196E-01    0.946E-02
DAV:   3    -0.602566247610E+03    0.45606E-04   -0.15244E-04 12256   0.288E-02    0.587E-02
DAV:   4    -0.602566237421E+03    0.10189E-04   -0.97566E-05 10720   0.211E-02    0.143E-02
DAV:   5    -0.602566240514E+03   -0.30938E-05   -0.18934E-05  9920   0.845E-03    0.773E-03
DAV:   6    -0.602566240391E+03    0.12385E-06   -0.12228E-06  6432   0.256E-03
  98 F= -.60256624E+03 E0= -.60256624E+03  d E =-.109339E-02
       N       E                     dE             d eps       ncg     rms          rms(c)
DAV:   1    -0.602566190468E+03    0.50047E-04   -0.25646E-01  9024   0.103E+00    0.117E-01
DAV:   2    -0.602566573149E+03   -0.38268E-03   -0.43213E-03 10464   0.138E-01    0.663E-02
DAV:   3    -0.602566551173E+03    0.21976E-04   -0.74674E-05 12224   0.201E-02    0.412E-02
DAV:   4    -0.602566546538E+03    0.46348E-05   -0.48279E-05 10720   0.148E-02    0.998E-03
DAV:   5    -0.602566548106E+03   -0.15678E-05   -0.93178E-06  9952   0.594E-03    0.545E-03
DAV:   6    -0.602566548051E+03    0.55210E-07   -0.60563E-07  5824   0.179E-03
  99 F= -.60256655E+03 E0= -.60256655E+03  d E =-.140105E-02
       N       E                     dE             d eps       ncg     rms          rms(c)
DAV:   1    -0.602567229252E+03   -0.68115E-03   -0.33883E-01  9024   0.118E+00    0.135E-01
DAV:   2    -0.602567712421E+03   -0.48317E-03   -0.54192E-03 10304   0.156E-01    0.756E-02
DAV:   3    -0.602567691034E+03    0.21388E-04   -0.93022E-05 12064   0.229E-02    0.472E-02
DAV:   4    -0.602567686228E+03    0.48056E-05   -0.61634E-05 11136   0.176E-02    0.113E-02
DAV:   5    -0.602567687193E+03   -0.96455E-06   -0.11257E-05 10016   0.689E-03    0.669E-03
DAV:   6    -0.602567687001E+03    0.19180E-06   -0.13397E-06  7392   0.241E-03
 100 F= -.60256769E+03 E0= -.60256769E+03  d E =-.113895E-02
