  79  79   0   0
  0.2352942E+02  0.1210264E-08  0.7093817E-09  0.2165102E-08  0.5000000E-15
   1.0000000000000000E-004
  CAR 
 endpoint_relax_bottleneck               
      9.33603134    -23.87629439  301      0.88068935      1.00000000
    -23.876  0.0000E+00  0.0000E+00
    -23.766  0.0000E+00  0.0000E+00
    -23.655  0.0000E+00  0.0000E+00
    -23.544 -0.2338E-30 -0.2588E-31
    -23.433 -0.1777E-26 -0.1968E-27
    -23.323 -0.7186E-23 -0.7957E-24
    -23.212 -0.1575E-19 -0.1744E-20
    -23.101 -0.1870E-16 -0.2072E-17
    -22.991 -0.1166E-13 -0.1293E-14
    -22.880 -0.4031E-11 -0.4475E-12
    -22.769 -0.7508E-09 -0.8357E-10
    -22.659 -0.7508E-07 -0.8396E-08
    -22.548 -0.4004E-05 -0.4517E-06
    -22.437 -0.1126E-03 -0.1292E-04
    -22.326 -0.1633E-02 -0.1937E-03
    -22.216 -0.1165E-01 -0.1484E-02
    -22.105 -0.3527E-01 -0.5388E-02
    -21.994 -0.4175E-02 -0.5850E-02
    -21.884  0.2547E+00  0.2234E-01
    -21.773  0.8687E+00  0.1185E+00
    -21.662  0.1717E+01  0.3086E+00
    -21.551  0.2120E+01  0.5433E+00
    -21.441  0.1549E+01  0.7148E+00
    -21.330  0.6015E+00  0.7813E+00
    -21.219  0.6117E-01  0.7881E+00
    -21.109 -0.4579E-01  0.7830E+00
    -20.998 -0.2221E-01  0.7806E+00
    -20.887 -0.4730E-02  0.7801E+00
    -20.776 -0.5577E-03  0.7800E+00
    -20.666 -0.3686E-04  0.7800E+00
    -20.555 -0.1341E-05  0.7800E+00
    -20.444 -0.2650E-07  0.7800E+00
    -20.334 -0.2826E-09  0.7800E+00
    -20.223 -0.1623E-11  0.7800E+00
    -20.112 -0.5014E-14  0.7800E+00
    -20.002  0.0000E+00  0.7800E+00
    -19.891  0.0000E+00  0.7800E+00
    -19.780  0.0000E+00  0.7800E+00
    -19.669  0.0000E+00  0.7800E+00
    -19.559  0.0000E+00  0.7800E+00
    -19.448  0.0000E+00  0.7800E+00
    -19.337  0.0000E+00  0.7800E+00
    -19.227  0.0000E+00  0.7800E+00
    -19.116  0.0000E+00  0.7800E+00
    -19.005  0.0000E+00  0.7800E+00
    -18.894  0.0000E+00  0.7800E+00
    -18.784  0.0000E+00  0.7800E+00
    -18.673  0.0000E+00  0.7800E+00
    -18.562  0.0000E+00  0.7800E+00
    -18.452  0.0000E+00  0.7800E+00
    -18.341  0.0000E+00  0.7800E+00
    -18.230  0.0000E+00  0.7800E+00
    -18.119  0.0000E+00  0.7800E+00
    -18.009  0.0000E+00  0.7800E+00
    -17.898  0.0000E+00  0.7800E+00
    -17.787  0.0000E+00  0.7800E+00
    -17.677  0.0000E+00  0.7800E+00
    -17.566  0.0000E+00  0.7800E+00
    -17.455  0.0000E+00  0.7800E+00
    -17.345  0.0000E+00  0.7800E+00
    -17.234  0.0000E+00  0.7800E+00
    -17.123  0.0000E+00  0.7800E+00
    -17.012  0.0000E+00  0.7800E+00
    -16.902  0.0000E+00  0.7800E+00
    -16.791  0.0000E+00  0.7800E+00
    -16.680  0.0000E+00  0.7800E+00
    -16.570  0.0000E+00  0.7800E+00
    -16.459  0.0000E+00  0.7800E+00
    -16.348  0.0000E+00  0.7800E+00
    -16.237  0.0000E+00  0.7800E+00
    -16.127  0.0000E+00  0.7800E+00
    -16.016  0.0000E+00  0.7800E+00
    -15.905  0.0000E+00  0.7800E+00
    -15.795  0.0000E+00  0.7800E+00
    -15.684  0.0000E+00  0.7800E+00
    -15.573  0.0000E+00  0.7800E+00
    -15.463  0.0000E+00  0.7800E+00
    -15.352  0.0000E+00  0.7800E+00
    -15.241  0.0000E+00  0.7800E+00
    -15.130  0.0000E+00  0.7800E+00
    -15.020  0.0000E+00  0.7800E+00
    -14.909  0.0000E+00  0.7800E+00
    -14.798  0.0000E+00  0.7800E+00
    -14.688  0.0000E+00  0.7800E+00
    -14.577  0.0000E+00  0.7800E+00
    -14.466  0.0000E+00  0.7800E+00
    -14.355  0.0000E+00  0.7800E+00
    -14.245  0.0000E+00  0.7800E+00
    -14.134  0.0000E+00  0.7800E+00
    -14.023  0.0000E+00  0.7800E+00
    -13.913  0.0000E+00  0.7800E+00
    -13.802  0.0000E+00  0.7800E+00
    -13.691  0.0000E+00  0.7800E+00
    -13.580  0.0000E+00  0.7800E+00
    -13.470  0.0000E+00  0.7800E+00
    -13.359  0.0000E+00  0.7800E+00
    -13.248  0.0000E+00  0.7800E+00
    -13.138  0.0000E+00  0.7800E+00
    -13.027  0.0000E+00  0.7800E+00
    -12.916  0.0000E+00  0.7800E+00
    -12.806  0.0000E+00  0.7800E+00
    -12.695  0.0000E+00  0.7800E+00
    -12.584  0.0000E+00  0.7800E+00
    -12.473  0.0000E+00  0.7800E+00
    -12.363  0.0000E+00  0.7800E+00
    -12.252 -0.2101E-31  0.7800E+00
    -12.141 -0.1664E-27  0.7800E+00
    -12.031 -0.6995E-24  0.7800E+00
    -11.920 -0.1588E-20  0.7800E+00
    -11.809 -0.1945E-17  0.7800E+00
    -11.698 -0.1247E-14  0.7800E+00
    -11.588 -0.4422E-12  0.7800E+00
    -11.477 -0.8434E-10  0.7800E+00
    -11.366 -0.8639E-08  0.7800E+00
    -11.256 -0.4734E-06  0.7800E+00
    -11.145 -0.1378E-04  0.7800E+00
    -11.034 -0.2097E-03  0.7800E+00
    -10.923 -0.1601E-02  0.7798E+00
    -10.813 -0.5274E-02  0.7792E+00
    -10.702 -0.1358E-03  0.7792E+00
    -10.591  0.4674E-01  0.7844E+00
    -10.481  0.1340E+00  0.7992E+00
    -10.370  0.1739E+00  0.8185E+00
    -10.259  0.1118E+00  0.8308E+00
    -10.149  0.2241E-01  0.8333E+00
    -10.038 -0.1579E-01  0.8316E+00
     -9.927  0.2916E-01  0.8348E+00
     -9.816  0.1968E+00  0.8566E+00
     -9.706  0.4263E+00  0.9038E+00
     -9.595  0.4894E+00  0.9580E+00
     -9.484  0.2889E+00  0.9899E+00
     -9.374  0.6035E-01  0.9966E+00
     -9.263 -0.1657E-01  0.9948E+00
     -9.152 -0.1085E-01  0.9936E+00
     -9.041 -0.2121E-02  0.9934E+00
     -8.931 -0.1963E-03  0.9933E+00
     -8.820 -0.9381E-05  0.9933E+00
     -8.709 -0.2381E-06  0.9933E+00
     -8.599 -0.3248E-08  0.9933E+00
     -8.488 -0.2392E-10  0.9933E+00
     -8.377 -0.9527E-13  0.9933E+00
     -8.267 -0.2006E-15  0.9933E+00
     -8.156  0.0000E+00  0.9933E+00
     -8.045  0.0000E+00  0.9933E+00
     -7.934  0.0000E+00  0.9933E+00
     -7.824  0.0000E+00  0.9933E+00
     -7.713  0.0000E+00  0.9933E+00
     -7.602  0.0000E+00  0.9933E+00
     -7.492  0.0000E+00  0.9933E+00
     -7.381  0.0000E+00  0.9933E+00
     -7.270  0.0000E+00  0.9933E+00
     -7.159  0.0000E+00  0.9933E+00
     -7.049  0.0000E+00  0.9933E+00
     -6.938  0.0000E+00  0.9933E+00
     -6.827  0.0000E+00  0.9933E+00
     -6.717  0.0000E+00  0.9933E+00
     -6.606  0.0000E+00  0.9933E+00
     -6.495  0.0000E+00  0.9933E+00
     -6.384  0.0000E+00  0.9933E+00
     -6.274  0.0000E+00  0.9933E+00
     -6.163  0.0000E+00  0.9933E+00
     -6.052  0.0000E+00  0.9933E+00
     -5.942  0.0000E+00  0.9933E+00
     -5.831  0.0000E+00  0.9933E+00
     -5.720  0.0000E+00  0.9933E+00
     -5.610  0.0000E+00  0.9933E+00
     -5.499  0.0000E+00  0.9933E+00
     -5.388  0.0000E+00  0.9933E+00
     -5.277  0.0000E+00  0.9933E+00
     -5.167  0.0000E+00  0.9933E+00
     -5.056  0.0000E+00  0.9933E+00
     -4.945 -0.1528E-30  0.9933E+00
     -4.835 -0.1037E-26  0.9933E+00
     -4.724 -0.3791E-23  0.9933E+00
     -4.613 -0.7468E-20  0.9933E+00
     -4.502 -0.7925E-17  0.9933E+00
     -4.392 -0.4379E-14  0.9933E+00
     -4.281 -0.1336E-11  0.9933E+00
     -4.170 -0.2181E-09  0.9933E+00
     -4.060 -0.1902E-07  0.9933E+00
     -3.949 -0.8832E-06  0.9933E+00
     -3.838 -0.2167E-04  0.9933E+00
     -3.727 -0.2769E-03  0.9933E+00
     -3.617 -0.1768E-02  0.9931E+00
     -3.506 -0.4705E-02  0.9926E+00
     -3.395  0.2682E-02  0.9929E+00
     -3.285  0.4832E-01  0.9982E+00
     -3.174  0.1280E+00  0.1012E+01
     -3.063  0.1661E+00  0.1031E+01
     -2.953  0.1145E+00  0.1043E+01
     -2.842  0.3610E-01  0.1047E+01
     -2.731 -0.1299E-02  0.1047E+01
     -2.620 -0.4452E-02  0.1047E+01
     -2.510 -0.1290E-02  0.1047E+01
     -2.399 -0.1665E-03  0.1047E+01
     -2.288 -0.3624E-04  0.1047E+01
     -2.178 -0.3578E-03  0.1047E+01
     -2.067 -0.2575E-02  0.1046E+01
     -1.956 -0.8220E-02  0.1045E+01
     -1.845 -0.4164E-03  0.1045E+01
     -1.735  0.6979E-01  0.1053E+01
     -1.624  0.2034E+00  0.1076E+01
     -1.513  0.3006E+00  0.1109E+01
     -1.403  0.3084E+00  0.1143E+01
     -1.292  0.2644E+00  0.1172E+01
     -1.181  0.1914E+00  0.1194E+01
     -1.070  0.9865E-01  0.1204E+01
     -0.960  0.1902E-01  0.1207E+01
     -0.849 -0.6442E-02  0.1206E+01
     -0.738  0.5593E-01  0.1212E+01
     -0.628  0.1745E+00  0.1231E+01
     -0.517  0.2339E+00  0.1257E+01
     -0.406  0.2256E+00  0.1282E+01
     -0.296  0.2292E+00  0.1308E+01
     -0.185  0.2518E+00  0.1335E+01
     -0.074  0.2667E+00  0.1365E+01
      0.037  0.2488E+00  0.1393E+01
      0.147  0.2277E+00  0.1418E+01
      0.258  0.2591E+00  0.1446E+01
      0.369  0.3240E+00  0.1482E+01
      0.479  0.3809E+00  0.1524E+01
      0.590  0.3819E+00  0.1567E+01
      0.701  0.3095E+00  0.1601E+01
      0.812  0.1968E+00  0.1623E+01
      0.922  0.8672E-01  0.1632E+01
      1.033  0.1765E-01  0.1634E+01
      1.144 -0.4357E-02  0.1634E+01
      1.254 -0.3764E-02  0.1633E+01
      1.365 -0.9534E-03  0.1633E+01
      1.476 -0.1147E-03  0.1633E+01
      1.586 -0.7061E-05  0.1633E+01
      1.697 -0.2277E-06  0.1633E+01
      1.808 -0.3886E-08  0.1633E+01
      1.919 -0.3533E-10  0.1633E+01
      2.029 -0.1716E-12  0.1633E+01
      2.140 -0.4413E-15  0.1633E+01
      2.251 -0.7482E-19  0.1633E+01
      2.361 -0.6144E-16  0.1633E+01
      2.472 -0.2908E-13  0.1633E+01
      2.583 -0.7179E-11  0.1633E+01
      2.694 -0.9425E-09  0.1633E+01
      2.804 -0.6531E-07  0.1633E+01
      2.915 -0.2357E-05  0.1633E+01
      3.026 -0.4317E-04  0.1633E+01
      3.136 -0.3775E-03  0.1633E+01
      3.247 -0.1280E-02  0.1633E+01
      3.358  0.7040E-03  0.1633E+01
      3.469  0.1326E-01  0.1635E+01
      3.579  0.2661E-01  0.1638E+01
      3.690  0.1950E-01  0.1640E+01
      3.801  0.3915E-02  0.1640E+01
      3.911 -0.1694E-02  0.1640E+01
      4.022 -0.2449E-02  0.1640E+01
      4.133 -0.1606E-02  0.1640E+01
      4.243  0.1393E-01  0.1641E+01
      4.354  0.4409E-01  0.1646E+01
      4.465  0.4870E-01  0.1651E+01
      4.576  0.1988E-01  0.1654E+01
      4.686 -0.1787E-02  0.1653E+01
      4.797 -0.5801E-02  0.1653E+01
      4.908  0.7997E-02  0.1654E+01
      5.018  0.4739E-01  0.1659E+01
      5.129  0.7429E-01  0.1667E+01
      5.240  0.7164E-01  0.1675E+01
      5.351  0.9363E-01  0.1685E+01
      5.461  0.1337E+00  0.1700E+01
      5.572  0.1652E+00  0.1719E+01
      5.683  0.2061E+00  0.1741E+01
      5.793  0.2212E+00  0.1766E+01
      5.904  0.1709E+00  0.1785E+01
      6.015  0.1136E+00  0.1797E+01
      6.126  0.1168E+00  0.1810E+01
      6.236  0.1429E+00  0.1826E+01
      6.347  0.1408E+00  0.1842E+01
      6.458  0.1482E+00  0.1858E+01
      6.568  0.1850E+00  0.1879E+01
      6.679  0.1944E+00  0.1900E+01
      6.790  0.1748E+00  0.1919E+01
      6.900  0.1878E+00  0.1940E+01
      7.011  0.2203E+00  0.1965E+01
      7.122  0.2209E+00  0.1989E+01
      7.233  0.1842E+00  0.2009E+01
      7.343  0.1174E+00  0.2022E+01
      7.454  0.4316E-01  0.2027E+01
      7.565  0.1719E-02  0.2027E+01
      7.675 -0.4816E-02  0.2027E+01
      7.786 -0.1726E-02  0.2027E+01
      7.897 -0.2580E-03  0.2027E+01
      8.008 -0.1921E-04  0.2027E+01
      8.118 -0.7453E-06  0.2027E+01
      8.229 -0.1531E-07  0.2027E+01
      8.340 -0.1677E-09  0.2027E+01
      8.450 -0.9837E-12  0.2027E+01
      8.561 -0.3102E-14  0.2027E+01
      8.672  0.0000E+00  0.2027E+01
      8.782  0.0000E+00  0.2027E+01
      8.893  0.0000E+00  0.2027E+01
      9.004  0.0000E+00  0.2027E+01
      9.115  0.0000E+00  0.2027E+01
      9.225  0.0000E+00  0.2027E+01
      9.336  0.0000E+00  0.2027E+01
