       N       E                     dE             d eps       ncg     rms          rms(c)
DAV:   1     0.496615593425E+04    0.49662E+04   -0.22177E+05   608   0.157E+03
DAV:   2     0.401847811042E+03   -0.45643E+04   -0.43805E+04   656   0.423E+02
DAV:   3    -0.279088112657E+03   -0.68094E+03   -0.67170E+03   720   0.173E+02
DAV:   4    -0.321158050148E+03   -0.42070E+02   -0.41709E+02   704   0.396E+01
DAV:   5    -0.322886328379E+03   -0.17283E+01   -0.17244E+01   864   0.837E+00    0.268E+01
RMM:   6    -0.305174843890E+03    0.17711E+02   -0.28979E+01   647   0.561E+00    0.179E+01
RMM:   7    -0.304057560114E+03    0.11173E+01   -0.33069E+01   625   0.510E+00    0.108E+01
RMM:   8    -0.303816784798E+03    0.24078E+00   -0.25406E+00   745   0.275E+00    0.580E+00
RMM:   9    -0.303791140504E+03    0.25644E-01   -0.17289E+00   646   0.165E+00    0.259E+00
RMM:  10    -0.303633324403E+03    0.15782E+00   -0.19749E-01   720   0.921E-01    0.178E+00
RMM:  11    -0.303605323956E+03    0.28000E-01   -0.77683E-02   804   0.402E-01    0.120E+00
RMM:  12    -0.303617109789E+03   -0.11786E-01   -0.75948E-02   698   0.278E-01    0.102E+00
RMM:  13    -0.303608553004E+03    0.85568E-02   -0.19219E-02   704   0.177E-01    0.642E-01
RMM:  14    -0.303612553769E+03   -0.40008E-02   -0.17734E-02   672   0.173E-01    0.382E-01
RMM:  15    -0.303610354228E+03    0.21995E-02   -0.47026E-03   704   0.948E-02    0.336E-01
RMM:  16    -0.303608897139E+03    0.14571E-02   -0.23222E-03   688   0.668E-02    0.128E-01
RMM:  17    -0.303609375040E+03   -0.47790E-03   -0.15673E-03   682   0.492E-02    0.952E-02
RMM:  18    -0.303609239277E+03    0.13576E-03   -0.29211E-04   692   0.302E-02    0.413E-02
RMM:  19    -0.303609223472E+03    0.15804E-04   -0.86263E-05   770   0.155E-02    0.221E-02
RMM:  20    -0.303609224751E+03   -0.12782E-05   -0.15655E-05   549   0.717E-03    0.166E-02
RMM:  21    -0.303609229177E+03   -0.44260E-05   -0.16211E-05   502   0.626E-03    0.100E-02
RMM:  22    -0.303609227447E+03    0.17292E-05   -0.36103E-06   525   0.350E-03    0.420E-03
RMM:  23    -0.303609227334E+03    0.11342E-06   -0.13603E-06   377   0.218E-03
   1 F= -.30360923E+03 E0= -.30365169E+03  d E =-.303609E+03
       N       E                     dE             d eps       ncg     rms          rms(c)
DAV:   1    -0.303645985689E+03   -0.36758E-01   -0.38261E+00   688   0.291E+00    0.114E+00
RMM:   2    -0.303658635024E+03   -0.12649E-01   -0.14498E-01   748   0.697E-01    0.200E-01
RMM:   3    -0.303660970705E+03   -0.23357E-02   -0.29201E-02   718   0.319E-01    0.358E-01
RMM:   4    -0.303660335111E+03    0.63559E-03   -0.42807E-03   839   0.133E-01    0.281E-01
RMM:   5    -0.303660073084E+03    0.26203E-03   -0.61801E-04   708   0.371E-02    0.230E-01
RMM:   6    -0.303659816684E+03    0.25640E-03   -0.72776E-04   604   0.288E-02    0.135E-01
RMM:   7    -0.303659790163E+03    0.26522E-04   -0.11302E-03   724   0.322E-02    0.465E-02
RMM:   8    -0.303659771317E+03    0.18846E-04   -0.11352E-04   702   0.169E-02    0.380E-02
RMM:   9    -0.303659747941E+03    0.23376E-04   -0.26099E-05   558   0.782E-03    0.288E-02
RMM:  10    -0.303659738543E+03    0.93978E-05   -0.80717E-05   630   0.833E-03    0.155E-02
RMM:  11    -0.303659737774E+03    0.76882E-06   -0.10868E-05   656   0.459E-03    0.101E-02
RMM:  12    -0.303659737078E+03    0.69652E-06   -0.43037E-06   458   0.230E-03
   2 F= -.30365974E+03 E0= -.30370361E+03  d E =-.505097E-01
       N       E                     dE             d eps       ncg     rms          rms(c)
DAV:   1    -0.303661847069E+03   -0.21093E-02   -0.61833E+00   640   0.371E+00    0.146E+00
RMM:   2    -0.303679546470E+03   -0.17699E-01   -0.20964E-01   732   0.887E-01    0.241E-01
RMM:   3    -0.303684350945E+03   -0.48045E-02   -0.54637E-02   738   0.439E-01    0.519E-01
RMM:   4    -0.303683564790E+03    0.78616E-03   -0.63361E-03   805   0.168E-01    0.411E-01
RMM:   5    -0.303683364829E+03    0.19996E-03   -0.87250E-04   754   0.463E-02    0.377E-01
RMM:   6    -0.303683154856E+03    0.20997E-03   -0.14380E-04   678   0.195E-02    0.338E-01
RMM:   7    -0.303682791452E+03    0.36340E-03   -0.17981E-03   775   0.365E-02    0.167E-01
RMM:   8    -0.303682764406E+03    0.27046E-04   -0.15957E-03   807   0.372E-02    0.109E-01
RMM:   9    -0.303682741514E+03    0.22892E-04   -0.76871E-05   719   0.158E-02    0.103E-01
RMM:  10    -0.303682642012E+03    0.99501E-04   -0.12673E-04   601   0.111E-02    0.586E-02
RMM:  11    -0.303682621618E+03    0.20395E-04   -0.41413E-04   726   0.171E-02    0.384E-02
RMM:  12    -0.303682609500E+03    0.12118E-04   -0.39375E-05   586   0.739E-03    0.162E-02
RMM:  13    -0.303682614104E+03   -0.46041E-05   -0.37622E-05   646   0.552E-03    0.154E-02
RMM:  14    -0.303682609873E+03    0.42316E-05   -0.16871E-05   547   0.390E-03    0.442E-03
RMM:  15    -0.303682610412E+03   -0.53933E-06   -0.50937E-06   509   0.240E-03
   3 F= -.30368261E+03 E0= -.30372781E+03  d E =-.733831E-01
       N       E                     dE             d eps       ncg     rms          rms(c)
DAV:   1    -0.303698357239E+03   -0.15747E-01   -0.87443E+00   672   0.444E+00    0.102E+00
RMM:   2    -0.303717475569E+03   -0.19118E-01   -0.21704E-01   755   0.949E-01    0.186E-01
RMM:   3    -0.303722228056E+03   -0.47525E-02   -0.51407E-02   729   0.453E-01    0.394E-01
RMM:   4    -0.303722308327E+03   -0.80271E-04   -0.70131E-03   834   0.185E-01    0.329E-01
RMM:   5    -0.303721991329E+03    0.31700E-03   -0.69553E-04   683   0.455E-02    0.277E-01
RMM:   6    -0.303721629873E+03    0.36146E-03   -0.17482E-03   644   0.438E-02    0.125E-01
RMM:   7    -0.303721751570E+03   -0.12170E-03   -0.12579E-03   709   0.389E-02    0.626E-02
RMM:   8    -0.303721714581E+03    0.36989E-04   -0.78928E-05   645   0.186E-02    0.574E-02
RMM:   9    -0.303721634523E+03    0.80058E-04   -0.21668E-04   610   0.143E-02    0.266E-02
RMM:  10    -0.303721630226E+03    0.42974E-05   -0.88111E-05   679   0.105E-02    0.122E-02
RMM:  11    -0.303721629194E+03    0.10316E-05   -0.59778E-06   496   0.445E-03    0.929E-03
RMM:  12    -0.303721629267E+03   -0.73087E-07   -0.42082E-06   462   0.280E-03
   4 F= -.30372163E+03 E0= -.30376778E+03  d E =-.390189E-01
       N       E                     dE             d eps       ncg     rms          rms(c)
DAV:   1    -0.303699761257E+03    0.21868E-01   -0.14712E+01   656   0.574E+00    0.134E+00
RMM:   2    -0.303732356333E+03   -0.32595E-01   -0.37041E-01   755   0.125E+00    0.242E-01
RMM:   3    -0.303740215503E+03   -0.78592E-02   -0.86603E-02   732   0.592E-01    0.500E-01
RMM:   4    -0.303740597856E+03   -0.38235E-03   -0.11799E-02   831   0.241E-01    0.423E-01
RMM:   5    -0.303739989861E+03    0.60799E-03   -0.12121E-03   665   0.596E-02    0.340E-01
RMM:   6    -0.303739484024E+03    0.50584E-03   -0.28535E-03   643   0.571E-02    0.155E-01
RMM:   7    -0.303739672405E+03   -0.18838E-03   -0.18642E-03   705   0.493E-02    0.773E-02
RMM:   8    -0.303739604365E+03    0.68040E-04   -0.13326E-04   673   0.241E-02    0.685E-02
RMM:   9    -0.303739493192E+03    0.11117E-03   -0.33805E-04   628   0.184E-02    0.321E-02
RMM:  10    -0.303739486505E+03    0.66862E-05   -0.14415E-04   700   0.136E-02    0.157E-02
RMM:  11    -0.303739483751E+03    0.27543E-05   -0.95702E-06   519   0.581E-03    0.125E-02
RMM:  12    -0.303739482807E+03    0.94442E-06   -0.11719E-05   492   0.388E-03    0.823E-03
RMM:  13    -0.303739483004E+03   -0.19760E-06   -0.27471E-06   530   0.281E-03
   5 F= -.30373948E+03 E0= -.30378659E+03  d E =-.568726E-01
       N       E                     dE             d eps       ncg     rms          rms(c)
DAV:   1    -0.303739797195E+03   -0.31439E-03   -0.77134E+00   672   0.410E+00    0.813E-01
RMM:   2    -0.303754545920E+03   -0.14749E-01   -0.15910E-01   761   0.848E-01    0.145E-01
RMM:   3    -0.303757909965E+03   -0.33640E-02   -0.36182E-02   724   0.407E-01    0.246E-01
RMM:   4    -0.303758105886E+03   -0.19592E-03   -0.62552E-03   838   0.172E-01    0.204E-01
RMM:   5    -0.303758010602E+03    0.95284E-04   -0.41651E-04   702   0.368E-02    0.190E-01
RMM:   6    -0.303757893789E+03    0.11681E-03   -0.10746E-04   622   0.187E-02    0.163E-01
RMM:   7    -0.303757786094E+03    0.10770E-03   -0.12887E-03   797   0.353E-02    0.667E-02
RMM:   8    -0.303757783491E+03    0.26025E-05   -0.21743E-04   796   0.203E-02    0.547E-02
RMM:   9    -0.303757744769E+03    0.38722E-04   -0.37774E-05   528   0.831E-03    0.280E-02
RMM:  10    -0.303757742454E+03    0.23156E-05   -0.26993E-04   730   0.152E-02    0.310E-02
RMM:  11    -0.303757733350E+03    0.91042E-05   -0.13681E-05   539   0.649E-03    0.180E-02
RMM:  12    -0.303757731083E+03    0.22670E-05   -0.31213E-05   643   0.522E-03    0.638E-03
RMM:  13    -0.303757731178E+03   -0.95300E-07   -0.21842E-06   449   0.243E-03
   6 F= -.30375773E+03 E0= -.30380445E+03  d E =-.182482E-01
       N       E                     dE             d eps       ncg     rms          rms(c)
DAV:   1    -0.303742943168E+03    0.14788E-01   -0.91467E+00   672   0.449E+00    0.891E-01
RMM:   2    -0.303760486206E+03   -0.17543E-01   -0.18962E-01   763   0.922E-01    0.159E-01
RMM:   3    -0.303764483523E+03   -0.39973E-02   -0.43533E-02   727   0.441E-01    0.263E-01
RMM:   4    -0.303764746608E+03   -0.26309E-03   -0.69978E-03   837   0.184E-01    0.221E-01
RMM:   5    -0.303764637146E+03    0.10946E-03   -0.49241E-04   702   0.401E-02    0.207E-01
RMM:   6    -0.303764498875E+03    0.13827E-03   -0.12599E-04   628   0.202E-02    0.178E-01
RMM:   7    -0.303764368210E+03    0.13067E-03   -0.18007E-03   810   0.417E-02    0.698E-02
RMM:   8    -0.303764369306E+03   -0.10955E-05   -0.17964E-04   813   0.203E-02    0.612E-02
RMM:   9    -0.303764325950E+03    0.43355E-04   -0.32766E-05   529   0.793E-03    0.332E-02
RMM:  10    -0.303764315344E+03    0.10607E-04   -0.29699E-04   753   0.164E-02    0.312E-02
RMM:  11    -0.303764310231E+03    0.51131E-05   -0.96047E-06   578   0.678E-03    0.227E-02
RMM:  12    -0.303764305707E+03    0.45236E-05   -0.32638E-05   657   0.565E-03    0.597E-03
RMM:  13    -0.303764306378E+03   -0.67041E-06   -0.38883E-06   541   0.269E-03
   7 F= -.30376431E+03 E0= -.30381056E+03  d E =-.248234E-01
       N       E                     dE             d eps       ncg     rms          rms(c)
DAV:   1    -0.303757223392E+03    0.70823E-02   -0.11510E+01   688   0.484E+00    0.699E-01
RMM:   2    -0.303775892168E+03   -0.18669E-01   -0.19866E-01   774   0.921E-01    0.216E-01
RMM:   3    -0.303779997970E+03   -0.41058E-02   -0.44631E-02   739   0.432E-01    0.186E-01
RMM:   4    -0.303780557281E+03   -0.55931E-03   -0.77395E-03   840   0.189E-01    0.165E-01
RMM:   5    -0.303780375905E+03    0.18138E-03   -0.54610E-04   647   0.430E-02    0.127E-01
RMM:   6    -0.303780295250E+03    0.80656E-04   -0.40583E-04   613   0.293E-02    0.696E-02
RMM:   7    -0.303780319382E+03   -0.24133E-04   -0.30812E-04   770   0.242E-02    0.361E-02
RMM:   8    -0.303780303679E+03    0.15703E-04   -0.29027E-05   589   0.107E-02    0.256E-02
RMM:   9    -0.303780299250E+03    0.44291E-05   -0.31846E-05   550   0.760E-03    0.142E-02
RMM:  10    -0.303780300121E+03   -0.87161E-06   -0.19705E-05   671   0.642E-03    0.733E-03
RMM:  11    -0.303780298125E+03    0.19969E-05   -0.58246E-06   464   0.322E-03    0.439E-03
RMM:  12    -0.303780298589E+03   -0.46432E-06   -0.51531E-06   493   0.277E-03
   8 F= -.30378030E+03 E0= -.30382700E+03  d E =-.159922E-01
       N       E                     dE             d eps       ncg     rms          rms(c)
DAV:   1    -0.303747463658E+03    0.32834E-01   -0.20432E+01   688   0.640E+00    0.935E-01
RMM:   2    -0.303779713426E+03   -0.32250E-01   -0.34424E-01   776   0.119E+00    0.292E-01
RMM:   3    -0.303786805559E+03   -0.70921E-02   -0.77669E-02   742   0.553E-01    0.245E-01
RMM:   4    -0.303787738320E+03   -0.93276E-03   -0.12813E-02   838   0.239E-01    0.218E-01
RMM:   5    -0.303787421239E+03    0.31708E-03   -0.90754E-04   652   0.560E-02    0.171E-01
RMM:   6    -0.303787279263E+03    0.14198E-03   -0.60757E-04   619   0.365E-02    0.103E-01
RMM:   7    -0.303787306996E+03   -0.27733E-04   -0.59715E-04   776   0.321E-02    0.524E-02
RMM:   8    -0.303787282957E+03    0.24039E-04   -0.54413E-05   628   0.145E-02    0.350E-02
RMM:   9    -0.303787273801E+03    0.91556E-05   -0.45814E-05   574   0.973E-03    0.187E-02
RMM:  10    -0.303787274541E+03   -0.74015E-06   -0.33937E-05   681   0.831E-03    0.885E-03
RMM:  11    -0.303787272129E+03    0.24124E-05   -0.70875E-06   478   0.391E-03    0.580E-03
RMM:  12    -0.303787272677E+03   -0.54787E-06   -0.73215E-06   505   0.337E-03
   9 F= -.30378727E+03 E0= -.30383455E+03  d E =-.229663E-01
       N       E                     dE             d eps       ncg     rms          rms(c)
DAV:   1    -0.303763382819E+03    0.23889E-01   -0.15938E+01   672   0.578E+00    0.102E+00
RMM:   2    -0.303790842813E+03   -0.27460E-01   -0.29770E-01   772   0.115E+00    0.233E-01
RMM:   3    -0.303797102997E+03   -0.62602E-02   -0.69440E-02   716   0.540E-01    0.282E-01
RMM:   4    -0.303797532209E+03   -0.42921E-03   -0.95182E-03   844   0.218E-01    0.244E-01
RMM:   5    -0.303797334700E+03    0.19751E-03   -0.83883E-04   697   0.532E-02    0.223E-01
RMM:   6    -0.303797115919E+03    0.21878E-03   -0.28676E-04   626   0.280E-02    0.171E-01
RMM:   7    -0.303797003983E+03    0.11194E-03   -0.14485E-03   779   0.409E-02    0.606E-02
RMM:   8    -0.303797008400E+03   -0.44176E-05   -0.17262E-04   825   0.216E-02    0.471E-02
RMM:   9    -0.303796962174E+03    0.46227E-04   -0.14484E-04   584   0.136E-02    0.166E-02
RMM:  10    -0.303796969162E+03   -0.69887E-05   -0.76001E-05   609   0.111E-02    0.227E-02
RMM:  11    -0.303796963632E+03    0.55303E-05   -0.69030E-06   553   0.585E-03    0.140E-02
RMM:  12    -0.303796964097E+03   -0.46518E-06   -0.42689E-05   646   0.642E-03    0.939E-03
RMM:  13    -0.303796961612E+03    0.24849E-05   -0.47859E-06   487   0.335E-03    0.208E-03
RMM:  14    -0.303796961720E+03   -0.10771E-06   -0.38413E-06   535   0.217E-03
  10 F= -.30379696E+03 E0= -.30384452E+03  d E =-.968904E-02
       N       E                     dE             d eps       ncg     rms          rms(c)
DAV:   1    -0.303796951422E+03    0.10190E-04   -0.85971E-03   704   0.134E-01    0.238E-02
RMM:   2    -0.303796965818E+03   -0.14396E-04   -0.15677E-04   766   0.269E-02    0.491E-03
RMM:   3    -0.303796968734E+03   -0.29155E-05   -0.32271E-05   682   0.126E-02    0.666E-03
RMM:   4    -0.303796969351E+03   -0.61768E-06   -0.90013E-06   457   0.601E-03
  11 F= -.30379697E+03 E0= -.30384454E+03  d E =-.969667E-02
       N       E                     dE             d eps       ncg     rms          rms(c)
DAV:   1    -0.303793587440E+03    0.33813E-02   -0.45937E+00   656   0.316E+00    0.510E-01
RMM:   2    -0.303801639549E+03   -0.80521E-02   -0.86199E-02   788   0.627E-01    0.152E-01
RMM:   3    -0.303803182178E+03   -0.15426E-02   -0.17154E-02   695   0.281E-01    0.130E-01
RMM:   4    -0.303803423997E+03   -0.24182E-03   -0.34898E-03   876   0.130E-01    0.116E-01
RMM:   5    -0.303803357023E+03    0.66975E-04   -0.19078E-04   658   0.261E-02    0.101E-01
RMM:   6    -0.303803306024E+03    0.50999E-04   -0.10848E-04   615   0.170E-02    0.721E-02
RMM:   7    -0.303803290389E+03    0.15635E-04   -0.26071E-04   740   0.194E-02    0.299E-02
RMM:   8    -0.303803292456E+03   -0.20675E-05   -0.35464E-05   745   0.107E-02    0.203E-02
RMM:   9    -0.303803286481E+03    0.59749E-05   -0.67926E-06   508   0.424E-03    0.124E-02
RMM:  10    -0.303803285554E+03    0.92737E-06   -0.34696E-05   669   0.632E-03    0.933E-03
RMM:  11    -0.303803284327E+03    0.12272E-05   -0.22546E-06   439   0.316E-03    0.491E-03
RMM:  12    -0.303803284221E+03    0.10573E-06   -0.40462E-06   545   0.225E-03
  12 F= -.30380328E+03 E0= -.30385096E+03  d E =-.631487E-02
       N       E                     dE             d eps       ncg     rms          rms(c)
DAV:   1    -0.303797257807E+03    0.60265E-02   -0.38545E+00   672   0.290E+00    0.469E-01
RMM:   2    -0.303804005964E+03   -0.67482E-02   -0.72320E-02   788   0.574E-01    0.138E-01
RMM:   3    -0.303805301221E+03   -0.12953E-02   -0.14366E-02   698   0.259E-01    0.118E-01
RMM:   4    -0.303805501335E+03   -0.20011E-03   -0.29050E-03   876   0.119E-01    0.106E-01
RMM:   5    -0.303805445004E+03    0.56331E-04   -0.16428E-04   658   0.245E-02    0.917E-02
RMM:   6    -0.303805402275E+03    0.42729E-04   -0.90003E-05   615   0.156E-02    0.660E-02
RMM:   7    -0.303805388579E+03    0.13696E-04   -0.21733E-04   725   0.177E-02    0.272E-02
RMM:   8    -0.303805390413E+03   -0.18335E-05   -0.30883E-05   722   0.983E-03    0.184E-02
RMM:   9    -0.303805385441E+03    0.49719E-05   -0.57403E-06   498   0.390E-03    0.112E-02
RMM:  10    -0.303805384743E+03    0.69770E-06   -0.28589E-05   653   0.572E-03    0.848E-03
RMM:  11    -0.303805383717E+03    0.10264E-05   -0.19449E-06   419   0.291E-03    0.446E-03
RMM:  12    -0.303805383606E+03    0.11039E-06   -0.30535E-06   530   0.202E-03
  13 F= -.30380538E+03 E0= -.30385315E+03  d E =-.841426E-02
       N       E                     dE             d eps       ncg     rms          rms(c)
DAV:   1    -0.303801154292E+03    0.42294E-02   -0.41081E+00   672   0.311E+00    0.525E-01
RMM:   2    -0.303808353906E+03   -0.71996E-02   -0.78156E-02   790   0.598E-01    0.156E-01
RMM:   3    -0.303809625245E+03   -0.12713E-02   -0.14491E-02   697   0.261E-01    0.132E-01
RMM:   4    -0.303809800194E+03   -0.17495E-03   -0.30193E-03   884   0.121E-01    0.119E-01
RMM:   5    -0.303809704683E+03    0.95511E-04   -0.19097E-04   644   0.258E-02    0.973E-02
RMM:   6    -0.303809639990E+03    0.64692E-04   -0.25490E-04   611   0.213E-02    0.536E-02
RMM:   7    -0.303809643437E+03   -0.34466E-05   -0.22508E-04   696   0.190E-02    0.239E-02
RMM:   8    -0.303809636875E+03    0.65619E-05   -0.19243E-05   595   0.984E-03    0.153E-02
RMM:   9    -0.303809631898E+03    0.49775E-05   -0.24194E-05   530   0.618E-03    0.752E-03
RMM:  10    -0.303809631979E+03   -0.81222E-07   -0.99323E-06   642   0.426E-03
  14 F= -.30380963E+03 E0= -.30385743E+03  d E =-.424837E-02
       N       E                     dE             d eps       ncg     rms          rms(c)
DAV:   1    -0.303808985321E+03    0.64658E-03   -0.45407E-01   688   0.103E+00    0.175E-01
RMM:   2    -0.303809801187E+03   -0.81587E-03   -0.88022E-03   787   0.205E-01    0.479E-02
RMM:   3    -0.303809948352E+03   -0.14717E-03   -0.16534E-03   688   0.912E-02    0.448E-02
RMM:   4    -0.303809971238E+03   -0.22886E-04   -0.37539E-04   882   0.431E-02    0.400E-02
RMM:   5    -0.303809959711E+03    0.11527E-04   -0.20952E-05   584   0.875E-03    0.322E-02
RMM:   6    -0.303809952634E+03    0.70766E-05   -0.31009E-05   535   0.735E-03    0.170E-02
RMM:   7    -0.303809953198E+03   -0.56389E-06   -0.24583E-05   607   0.630E-03    0.758E-03
RMM:   8    -0.303809952174E+03    0.10242E-05   -0.22814E-06   476   0.335E-03    0.471E-03
RMM:   9    -0.303809951790E+03    0.38421E-06   -0.31347E-06   470   0.227E-03
  15 F= -.30380995E+03 E0= -.30385777E+03  d E =-.456818E-02
       N       E                     dE             d eps       ncg     rms          rms(c)
DAV:   1    -0.303808753751E+03    0.11984E-02   -0.15117E+00   656   0.190E+00    0.306E-01
RMM:   2    -0.303811548031E+03   -0.27943E-02   -0.29998E-02   794   0.381E-01    0.998E-02
RMM:   3    -0.303812014807E+03   -0.46678E-03   -0.52375E-03   683   0.165E-01    0.747E-02
RMM:   4    -0.303812097722E+03   -0.82915E-04   -0.12239E-03   890   0.790E-02    0.638E-02
RMM:   5    -0.303812074172E+03    0.23550E-04   -0.68744E-05   646   0.157E-02    0.528E-02
RMM:   6    -0.303812060305E+03    0.13867E-04   -0.41015E-05   583   0.105E-02    0.346E-02
RMM:   7    -0.303812061019E+03   -0.71405E-06   -0.53225E-05   678   0.965E-03    0.155E-02
RMM:   8    -0.303812060054E+03    0.96534E-06   -0.75266E-06   606   0.516E-03
  16 F= -.30381206E+03 E0= -.30386000E+03  d E =-.210826E-02
       N       E                     dE             d eps       ncg     rms          rms(c)
DAV:   1    -0.303808748546E+03    0.33125E-02   -0.19252E+00   656   0.215E+00    0.345E-01
RMM:   2    -0.303812324084E+03   -0.35755E-02   -0.38476E-02   794   0.430E-01    0.115E-01
RMM:   3    -0.303812915328E+03   -0.59124E-03   -0.66410E-03   680   0.187E-01    0.863E-02
RMM:   4    -0.303813030764E+03   -0.11544E-03   -0.16539E-03   892   0.906E-02    0.738E-02
RMM:   5    -0.303812998759E+03    0.32004E-04   -0.86221E-05   648   0.176E-02    0.608E-02
RMM:   6    -0.303812981171E+03    0.17589E-04   -0.52345E-05   587   0.119E-02    0.402E-02
RMM:   7    -0.303812982402E+03   -0.12314E-05   -0.73521E-05   688   0.113E-02    0.169E-02
RMM:   8    -0.303812980987E+03    0.14145E-05   -0.94281E-06   618   0.595E-03    0.972E-03
RMM:   9    -0.303812979398E+03    0.15891E-05   -0.45126E-06   530   0.312E-03    0.543E-03
RMM:  10    -0.303812979545E+03   -0.14681E-06   -0.45407E-06   550   0.268E-03
  17 F= -.30381298E+03 E0= -.30386106E+03  d E =-.302776E-02
       N       E                     dE             d eps       ncg     rms          rms(c)
DAV:   1    -0.303812540244E+03    0.43915E-03   -0.96668E-01   672   0.151E+00    0.243E-01
RMM:   2    -0.303814308134E+03   -0.17679E-02   -0.18964E-02   782   0.303E-01    0.637E-02
RMM:   3    -0.303814651856E+03   -0.34372E-03   -0.37274E-03   708   0.136E-01    0.707E-02
RMM:   4    -0.303814706761E+03   -0.54906E-04   -0.80483E-04   856   0.628E-02    0.586E-02
RMM:   5    -0.303814693720E+03    0.13042E-04   -0.35652E-05   651   0.119E-02    0.507E-02
RMM:   6    -0.303814681763E+03    0.11957E-04   -0.29335E-05   572   0.836E-03    0.372E-02
RMM:   7    -0.303814680726E+03    0.10374E-05   -0.92243E-05   716   0.107E-02    0.161E-02
RMM:   8    -0.303814679041E+03    0.16844E-05   -0.43158E-06   566   0.488E-03    0.113E-02
RMM:   9    -0.303814676645E+03    0.23962E-05   -0.10250E-05   596   0.368E-03    0.378E-03
RMM:  10    -0.303814677215E+03   -0.56984E-06   -0.42561E-06   537   0.281E-03
  18 F= -.30381468E+03 E0= -.30386280E+03  d E =-.169767E-02
       N       E                     dE             d eps       ncg     rms          rms(c)
DAV:   1    -0.303811934346E+03    0.27423E-02   -0.19045E+00   656   0.212E+00    0.341E-01
RMM:   2    -0.303815415563E+03   -0.34812E-02   -0.37368E-02   781   0.425E-01    0.882E-02
RMM:   3    -0.303816097485E+03   -0.68192E-03   -0.74057E-03   712   0.192E-01    0.995E-02
RMM:   4    -0.303816209215E+03   -0.11173E-03   -0.16147E-03   854   0.884E-02    0.830E-02
RMM:   5    -0.303816184512E+03    0.24703E-04   -0.70588E-05   668   0.167E-02    0.727E-02
RMM:   6    -0.303816160005E+03    0.24508E-04   -0.52881E-05   595   0.115E-02    0.545E-02
RMM:   7    -0.303816157169E+03    0.28362E-05   -0.20649E-04   757   0.159E-02    0.229E-02
RMM:   8    -0.303816152898E+03    0.42705E-05   -0.89122E-06   584   0.723E-03    0.156E-02
RMM:   9    -0.303816148379E+03    0.45191E-05   -0.22391E-05   618   0.544E-03    0.514E-03
RMM:  10    -0.303816149325E+03   -0.94593E-06   -0.71869E-06   623   0.382E-03
  19 F= -.30381615E+03 E0= -.30386432E+03  d E =-.316978E-02
       N       E                     dE             d eps       ncg     rms          rms(c)
DAV:   1    -0.303798863429E+03    0.17285E-01   -0.76218E+00   656   0.424E+00    0.685E-01
RMM:   2    -0.303812926025E+03   -0.14063E-01   -0.15122E-01   782   0.862E-01    0.180E-01
RMM:   3    -0.303815725402E+03   -0.27994E-02   -0.30596E-02   715   0.395E-01    0.198E-01
RMM:   4    -0.303816158357E+03   -0.43295E-03   -0.63508E-03   850   0.178E-01    0.165E-01
RMM:   5    -0.303816068690E+03    0.89667E-04   -0.30817E-04   681   0.349E-02    0.146E-01
RMM:   6    -0.303815968549E+03    0.10014E-03   -0.18165E-04   619   0.223E-02    0.111E-01
RMM:   7    -0.303815949727E+03    0.18822E-04   -0.79751E-04   774   0.316E-02    0.437E-02
RMM:   8    -0.303815936163E+03    0.13564E-04   -0.35107E-05   674   0.154E-02    0.285E-02
RMM:   9    -0.303815920916E+03    0.15247E-04   -0.66108E-05   645   0.108E-02    0.101E-02
RMM:  10    -0.303815924489E+03   -0.35724E-05   -0.32207E-05   710   0.777E-03    0.141E-02
RMM:  11    -0.303815921544E+03    0.29449E-05   -0.41864E-06   464   0.354E-03    0.868E-03
RMM:  12    -0.303815920787E+03    0.75690E-06   -0.77313E-06   495   0.343E-03
  20 F= -.30381592E+03 E0= -.30386415E+03  d E =-.294124E-02
       N       E                     dE             d eps       ncg     rms          rms(c)
DAV:   1    -0.303811382915E+03    0.45386E-02   -0.23423E+00   656   0.235E+00    0.380E-01
RMM:   2    -0.303815671402E+03   -0.42885E-02   -0.46087E-02   781   0.473E-01    0.995E-02
RMM:   3    -0.303816524752E+03   -0.85335E-03   -0.92659E-03   718   0.214E-01    0.111E-01
RMM:   4    -0.303816644254E+03   -0.11950E-03   -0.18144E-03   847   0.951E-02    0.921E-02
RMM:   5    -0.303816612820E+03    0.31433E-04   -0.88751E-05   670   0.189E-02    0.798E-02
RMM:   6    -0.303816581507E+03    0.31314E-04   -0.70546E-05   609   0.131E-02    0.586E-02
RMM:   7    -0.303816580816E+03    0.69082E-06   -0.23691E-04   767   0.171E-02    0.242E-02
RMM:   8    -0.303816574579E+03    0.62375E-05   -0.10791E-05   556   0.750E-03    0.160E-02
RMM:   9    -0.303816571308E+03    0.32710E-05   -0.40643E-05   675   0.706E-03    0.700E-03
RMM:  10    -0.303816571238E+03    0.69784E-07   -0.33271E-06   536   0.371E-03
  21 F= -.30381657E+03 E0= -.30386477E+03  d E =-.359169E-02
       N       E                     dE             d eps       ncg     rms          rms(c)
DAV:   1    -0.303815662768E+03    0.90854E-03   -0.92804E-01   656   0.148E+00    0.224E-01
RMM:   2    -0.303817316810E+03   -0.16540E-02   -0.17735E-02   789   0.293E-01    0.702E-02
RMM:   3    -0.303817627708E+03   -0.31090E-03   -0.33558E-03   707   0.130E-01    0.593E-02
RMM:   4    -0.303817680356E+03   -0.52647E-04   -0.74271E-04   862   0.607E-02    0.508E-02
RMM:   5    -0.303817664960E+03    0.15396E-04   -0.42089E-05   644   0.125E-02    0.405E-02
RMM:   6    -0.303817658372E+03    0.65877E-05   -0.28603E-05   571   0.841E-03    0.269E-02
RMM:   7    -0.303817657764E+03    0.60879E-06   -0.30416E-05   662   0.748E-03    0.125E-02
RMM:   8    -0.303817658096E+03   -0.33250E-06   -0.46606E-06   528   0.396E-03
  22 F= -.30381766E+03 E0= -.30386588E+03  d E =-.108686E-02
       N       E                     dE             d eps       ncg     rms          rms(c)
DAV:   1    -0.303813748184E+03    0.39096E-02   -0.21157E+00   656   0.222E+00    0.339E-01
RMM:   2    -0.303817517569E+03   -0.37694E-02   -0.40378E-02   787   0.444E-01    0.102E-01
RMM:   3    -0.303818251990E+03   -0.73442E-03   -0.79161E-03   707   0.198E-01    0.914E-02
RMM:   4    -0.303818366496E+03   -0.11451E-03   -0.16359E-03   862   0.905E-02    0.782E-02
RMM:   5    -0.303818331745E+03    0.34751E-04   -0.96746E-05   660   0.189E-02    0.631E-02
RMM:   6    -0.303818314341E+03    0.17404E-04   -0.65067E-05   599   0.127E-02    0.427E-02
RMM:   7    -0.303818312848E+03    0.14925E-05   -0.82113E-05   701   0.120E-02    0.184E-02
RMM:   8    -0.303818313505E+03   -0.65627E-06   -0.10815E-05   664   0.633E-03    0.107E-02
RMM:   9    -0.303818311182E+03    0.23231E-05   -0.41907E-06   490   0.298E-03    0.531E-03
RMM:  10    -0.303818310957E+03    0.22467E-06   -0.67677E-06   551   0.303E-03
  23 F= -.30381831E+03 E0= -.30386655E+03  d E =-.173972E-02
       N       E                     dE             d eps       ncg     rms          rms(c)
DAV:   1    -0.303817238412E+03    0.10728E-02   -0.99920E-01   672   0.153E+00    0.239E-01
RMM:   2    -0.303819031797E+03   -0.17934E-02   -0.19146E-02   785   0.303E-01    0.680E-02
RMM:   3    -0.303819379068E+03   -0.34727E-03   -0.37454E-03   709   0.136E-01    0.656E-02
RMM:   4    -0.303819431514E+03   -0.52446E-04   -0.78040E-04   865   0.625E-02    0.547E-02
RMM:   5    -0.303819416373E+03    0.15142E-04   -0.40448E-05   649   0.124E-02    0.455E-02
RMM:   6    -0.303819406273E+03    0.10099E-04   -0.30808E-05   574   0.862E-03    0.300E-02
RMM:   7    -0.303819406190E+03    0.83055E-07   -0.34878E-05   613   0.787E-03    0.158E-02
RMM:   8    -0.303819406205E+03   -0.14385E-07   -0.11496E-05   656   0.516E-03    0.884E-03
RMM:   9    -0.303819404415E+03    0.17893E-05   -0.49169E-06   480   0.292E-03    0.399E-03
RMM:  10    -0.303819404836E+03   -0.42028E-06   -0.48589E-06   508   0.266E-03
  24 F= -.30381940E+03 E0= -.30386777E+03  d E =-.109388E-02
       N       E                     dE             d eps       ncg     rms          rms(c)
DAV:   1    -0.303818185713E+03    0.12187E-02   -0.82561E-01   656   0.139E+00    0.217E-01
RMM:   2    -0.303819665951E+03   -0.14802E-02   -0.15789E-02   785   0.276E-01    0.616E-02
RMM:   3    -0.303819951380E+03   -0.28543E-03   -0.30834E-03   707   0.124E-01    0.597E-02
RMM:   4    -0.303819994568E+03   -0.43188E-04   -0.64441E-04   865   0.569E-02    0.498E-02
RMM:   5    -0.303819982075E+03    0.12493E-04   -0.33158E-05   644   0.113E-02    0.415E-02
RMM:   6    -0.303819973443E+03    0.86319E-05   -0.26295E-05   561   0.794E-03    0.268E-02
RMM:   7    -0.303819973856E+03   -0.41297E-06   -0.30966E-05   600   0.735E-03    0.140E-02
RMM:   8    -0.303819973663E+03    0.19305E-06   -0.94142E-06   642   0.477E-03
  25 F= -.30381997E+03 E0= -.30386845E+03  d E =-.166271E-02
       N       E                     dE             d eps       ncg     rms          rms(c)
DAV:   1    -0.303812668078E+03    0.73058E-02   -0.33056E+00   656   0.279E+00    0.435E-01
RMM:   2    -0.303818650180E+03   -0.59821E-02   -0.64060E-02   786   0.557E-01    0.128E-01
RMM:   3    -0.303819809306E+03   -0.11591E-02   -0.12566E-02   707   0.251E-01    0.121E-01
RMM:   4    -0.303819983982E+03   -0.17468E-03   -0.26138E-03   866   0.115E-01    0.999E-02
RMM:   5    -0.303819934531E+03    0.49452E-04   -0.13963E-04   668   0.231E-02    0.825E-02
RMM:   6    -0.303819901524E+03    0.33007E-04   -0.10482E-04   613   0.161E-02    0.527E-02
RMM:   7    -0.303819905538E+03   -0.40147E-05   -0.11867E-04   658   0.147E-02    0.272E-02
RMM:   8    -0.303819904174E+03    0.13642E-05   -0.35013E-05   720   0.934E-03    0.161E-02
RMM:   9    -0.303819897862E+03    0.63120E-05   -0.15782E-05   500   0.518E-03    0.746E-03
RMM:  10    -0.303819899253E+03   -0.13906E-05   -0.18628E-05   563   0.521E-03    0.799E-03
RMM:  11    -0.303819898165E+03    0.10877E-05   -0.19373E-06   433   0.275E-03    0.478E-03
RMM:  12    -0.303819897953E+03    0.21174E-06   -0.32064E-06   505   0.229E-03
  26 F= -.30381990E+03 E0= -.30386861E+03  d E =-.158700E-02
       N       E                     dE             d eps       ncg     rms          rms(c)
DAV:   1    -0.303818148470E+03    0.17497E-02   -0.91766E-01   656   0.147E+00    0.229E-01
RMM:   2    -0.303819796752E+03   -0.16483E-02   -0.17588E-02   785   0.292E-01    0.659E-02
RMM:   3    -0.303820113560E+03   -0.31681E-03   -0.34250E-03   708   0.131E-01    0.634E-02
RMM:   4    -0.303820162158E+03   -0.48598E-04   -0.72308E-04   865   0.605E-02    0.526E-02
RMM:   5    -0.303820147858E+03    0.14300E-04   -0.37465E-05   648   0.120E-02    0.432E-02
RMM:   6    -0.303820138736E+03    0.91219E-05   -0.30645E-05   571   0.847E-03    0.277E-02
RMM:   7    -0.303820138940E+03   -0.20390E-06   -0.31890E-05   622   0.753E-03    0.147E-02
RMM:   8    -0.303820138812E+03    0.12810E-06   -0.83375E-06   628   0.464E-03
  27 F= -.30382014E+03 E0= -.30386874E+03  d E =-.182786E-02
       N       E                     dE             d eps       ncg     rms          rms(c)
DAV:   1    -0.303818500621E+03    0.16383E-02   -0.11214E+00   656   0.162E+00    0.267E-01
RMM:   2    -0.303820570327E+03   -0.20697E-02   -0.22143E-02   788   0.325E-01    0.761E-02
RMM:   3    -0.303820951148E+03   -0.38082E-03   -0.41641E-03   697   0.144E-01    0.694E-02
RMM:   4    -0.303821007200E+03   -0.56052E-04   -0.85879E-04   871   0.667E-02    0.579E-02
RMM:   5    -0.303820988146E+03    0.19053E-04   -0.51980E-05   642   0.137E-02    0.473E-02
RMM:   6    -0.303820976283E+03    0.11864E-04   -0.40657E-05   587   0.968E-03    0.291E-02
RMM:   7    -0.303820979202E+03   -0.29193E-05   -0.44731E-05   625   0.884E-03    0.134E-02
RMM:   8    -0.303820978221E+03    0.98127E-06   -0.83096E-06   644   0.526E-03
  28 F= -.30382098E+03 E0= -.30386946E+03  d E =-.839409E-03
       N       E                     dE             d eps       ncg     rms          rms(c)
DAV:   1    -0.303816907341E+03    0.40719E-02   -0.19433E+00   656   0.213E+00    0.352E-01
RMM:   2    -0.303820535230E+03   -0.36279E-02   -0.38944E-02   788   0.431E-01    0.104E-01
RMM:   3    -0.303821209182E+03   -0.67395E-03   -0.73655E-03   698   0.189E-01    0.948E-02
RMM:   4    -0.303821304644E+03   -0.95462E-04   -0.14823E-03   871   0.877E-02    0.790E-02
RMM:   5    -0.303821271750E+03    0.32894E-04   -0.93933E-05   651   0.182E-02    0.642E-02
RMM:   6    -0.303821254499E+03    0.17251E-04   -0.63921E-05   609   0.124E-02    0.429E-02
RMM:   7    -0.303821255925E+03   -0.14258E-05   -0.66517E-05   670   0.110E-02    0.225E-02
RMM:   8    -0.303821255225E+03    0.69915E-06   -0.17744E-05   680   0.669E-03    0.119E-02
RMM:   9    -0.303821252515E+03    0.27109E-05   -0.54744E-06   491   0.330E-03    0.591E-03
RMM:  10    -0.303821252468E+03    0.46566E-07   -0.86372E-06   562   0.336E-03
  29 F= -.30382125E+03 E0= -.30386956E+03  d E =-.111366E-02
       N       E                     dE             d eps       ncg     rms          rms(c)
DAV:   1    -0.303819598361E+03    0.16542E-02   -0.10601E+00   672   0.157E+00    0.249E-01
RMM:   2    -0.303821552263E+03   -0.19539E-02   -0.20802E-02   791   0.314E-01    0.841E-02
RMM:   3    -0.303821904248E+03   -0.35198E-03   -0.38248E-03   698   0.137E-01    0.671E-02
RMM:   4    -0.303821957191E+03   -0.52943E-04   -0.81464E-04   880   0.647E-02    0.601E-02
RMM:   5    -0.303821935639E+03    0.21551E-04   -0.46706E-05   633   0.131E-02    0.505E-02
RMM:   6    -0.303821923093E+03    0.12546E-04   -0.33984E-05   568   0.896E-03    0.360E-02
RMM:   7    -0.303821920191E+03    0.29019E-05   -0.57386E-05   670   0.930E-03    0.159E-02
RMM:   8    -0.303821920794E+03   -0.60255E-06   -0.63207E-06   643   0.484E-03
  30 F= -.30382192E+03 E0= -.30387022E+03  d E =-.668326E-03
       N       E                     dE             d eps       ncg     rms          rms(c)
DAV:   1    -0.303819744610E+03    0.21756E-02   -0.11403E+00   656   0.164E+00    0.259E-01
RMM:   2    -0.303821861419E+03   -0.21168E-02   -0.22603E-02   792   0.327E-01    0.906E-02
RMM:   3    -0.303822236773E+03   -0.37535E-03   -0.40844E-03   696   0.143E-01    0.706E-02
RMM:   4    -0.303822296216E+03   -0.59442E-04   -0.89939E-04   884   0.677E-02    0.634E-02
RMM:   5    -0.303822271769E+03    0.24446E-04   -0.53249E-05   638   0.139E-02    0.527E-02
RMM:   6    -0.303822258400E+03    0.13369E-04   -0.38472E-05   574   0.945E-03    0.372E-02
RMM:   7    -0.303822256114E+03    0.22858E-05   -0.61333E-05   675   0.968E-03    0.163E-02
RMM:   8    -0.303822256573E+03   -0.45863E-06   -0.64903E-06   651   0.499E-03
  31 F= -.30382226E+03 E0= -.30387056E+03  d E =-.100410E-02
       N       E                     dE             d eps       ncg     rms          rms(c)
DAV:   1    -0.303821792105E+03    0.46401E-03   -0.22439E-01   672   0.723E-01    0.116E-01
RMM:   2    -0.303822211432E+03   -0.41933E-03   -0.44800E-03   792   0.145E-01    0.410E-02
RMM:   3    -0.303822285504E+03   -0.74072E-04   -0.80470E-04   694   0.636E-02    0.321E-02
RMM:   4    -0.303822296842E+03   -0.11338E-04   -0.17412E-04   882   0.300E-02    0.288E-02
RMM:   5    -0.303822291890E+03    0.49529E-05   -0.10347E-05   552   0.617E-03    0.240E-02
RMM:   6    -0.303822289183E+03    0.27066E-05   -0.79292E-06   498   0.424E-03    0.168E-02
RMM:   7    -0.303822288835E+03    0.34797E-06   -0.12705E-05   587   0.435E-03    0.723E-03
RMM:   8    -0.303822288879E+03   -0.44492E-07   -0.12087E-06   390   0.231E-03
  32 F= -.30382229E+03 E0= -.30387059E+03  d E =-.103641E-02
       N       E                     dE             d eps       ncg     rms          rms(c)
DAV:   1    -0.303821960266E+03    0.32857E-03   -0.39211E-01   656   0.976E-01    0.185E-01
RMM:   2    -0.303822742031E+03   -0.78177E-03   -0.84540E-03   780   0.202E-01    0.459E-02
RMM:   3    -0.303822876273E+03   -0.13424E-03   -0.15233E-03   673   0.889E-02    0.465E-02
RMM:   4    -0.303822895013E+03   -0.18740E-04   -0.32500E-04   874   0.412E-02    0.373E-02
RMM:   5    -0.303822888224E+03    0.67890E-05   -0.19684E-05   612   0.838E-03    0.303E-02
RMM:   6    -0.303822884243E+03    0.39812E-05   -0.15957E-05   525   0.604E-03    0.194E-02
RMM:   7    -0.303822883846E+03    0.39648E-06   -0.17477E-05   613   0.549E-03    0.892E-03
RMM:   8    -0.303822883935E+03   -0.89203E-07   -0.33181E-06   509   0.316E-03
  33 F= -.30382288E+03 E0= -.30387118E+03  d E =-.595056E-03
