 vasp.6.3.2 27Jun22 (build Jun 14 2024 17:29:11) complex                         
 executed on             LinuxGNU date 2026.04.03  17:49:19
 running on   16 total cores
 distrk:  each k-point on   16 cores,    1 groups
 distr:  one band on NCORE=   1 cores,   16 groups


--------------------------------------------------------------------------------------------------------


 INCAR:
   SYSTEM = endpoint_relax_bottleneck
   ENCUT = 500
   EDIFF = 1E-06
   PREC = Accurate
   ALGO = Fast
   LREAL = .FALSE.
   ADDGRID = .TRUE.
   ISYM = 0
   IBRION = 2
   ISIF = 2
   NSW = 300
   EDIFFG = -0.02
   LWAVE = .TRUE.
   LCHARG = .FALSE.

 POTCAR:    PAW_PBE Na_pv 19Sep2006               
 POTCAR:    PAW_PBE Al 04Jan2001                  
 POTCAR:    PAW_PBE S 06Sep2000                   
 -----------------------------------------------------------------------------
|                                                                             |
|           W    W    AA    RRRRR   N    N  II  N    N   GGGG   !!!           |
|           W    W   A  A   R    R  NN   N  II  NN   N  G    G  !!!           |
|           W    W  A    A  R    R  N N  N  II  N N  N  G       !!!           |
|           W WW W  AAAAAA  RRRRR   N  N N  II  N  N N  G  GGG   !            |
|           WW  WW  A    A  R   R   N   NN  II  N   NN  G    G                |
|           W    W  A    A  R    R  N    N  II  N    N   GGGG   !!!           |
|                                                                             |
|     For optimal performance we recommend to set                             |
|       NCORE = 2 up to number-of-cores-per-socket                            |
|     NCORE specifies how many cores store one orbital (NPAR=cpu/NCORE).      |
|     This setting can greatly improve the performance of VASP for DFT.       |
|     The default, NCORE=1 might be grossly inefficient on modern             |
|     multi-core architectures or massively parallel machines. Do your        |
|     own testing! More info at https://www.vasp.at/wiki/index.php/NCORE      |
|     Unfortunately you need to use the default for GW and RPA                |
|     calculations (for HF NCORE is supported but not extensively tested      |
|     yet).                                                                   |
|                                                                             |
 -----------------------------------------------------------------------------

 POTCAR:    PAW_PBE Na_pv 19Sep2006               
   SHA256 =  6a2f546d9e11350984debacf3dc457d8cffc0868e817d445faca461816a32b94 Na_pv/POTCAR          
   COPYR  = (c) Copyright 19Sep2006 Georg Kresse                                                    
   COPYR  = This file is part of the software VASP. Any use, copying, and all other rights are regul
   COPYR  = If you do not have a valid VASP license, you may not use, copy or distribute this file. 
   VRHFIN =Na: p6s1                                                                                 
   LEXCH  = PE                                                                                      
   EATOM  =   766.0439 eV,   56.3026 Ry                                                             
                                                                                                    
   TITEL  = PAW_PBE Na_pv 19Sep2006                                                                 
   LULTRA =        F    use ultrasoft PP ?                                                          
   IUNSCR =        1    unscreen: 0-lin 1-nonlin 2-no                                               
   RPACOR =    1.800    partial core radius                                                         
   POMASS =   22.990; ZVAL   =    7.000    mass and valenz                                          
   RCORE  =    2.200    outmost cutoff radius                                                       
   RWIGS  =    2.200; RWIGS  =    1.164    wigner-seitz radius (au A)                               
   ENMAX  =  259.561; ENMIN  =  194.671 eV                                                          
   ICORE  =        2    local potential                                                             
   LCOR   =        T    correct aug charges                                                         
   LPAW   =        T    paw PP                                                                      
   EAUG   =  368.056                                                                                
   DEXC   =    0.000                                                                                
   RMAX   =    2.245    core radius for proj-oper                                                   
   RAUG   =    1.300    factor for augmentation sphere                                              
   RDEP   =    2.259    radius for radial grids                                                     
   RDEPT  =    1.738    core radius for aug-charge                                                  
                                                                                                    
   Atomic configuration                                                                             
    5 entries                                                                                       
     n  l   j            E        occ.                                                              
     1  0  0.50     -1033.6933   2.0000                                                             
     2  0  0.50       -56.7526   2.0000                                                             
     2  1  1.50       -28.6721   6.0000                                                             
     3  0  0.50        -2.7440   1.0000                                                             
     3  2  1.50        -1.3606   0.0000                                                             
   Description                                                                                      
     l       E           TYP  RCUT    TYP  RCUT                                                     
     1    -28.6720912     23  2.000                                                                 
     1      6.8029130     23  2.000                                                                 
     0     -2.7439560     23  2.200                                                                 
     0     34.0145650     23  2.200                                                                 
     2     -1.3605826     23  2.200                                                                 
  local pseudopotential read in
  partial core-charges read in
  partial kinetic energy density read in
  atomic valenz-charges read in
  non local Contribution for L=           1  read in
    real space projection operators read in
  non local Contribution for L=           1  read in
    real space projection operators read in
  non local Contribution for L=           0  read in
    real space projection operators read in
  non local Contribution for L=           0  read in
    real space projection operators read in
    PAW grid and wavefunctions read in

   number of l-projection  operators is LMAX  =           4
   number of lm-projection operators is LMMAX =           8

 POTCAR:    PAW_PBE Al 04Jan2001                  
   SHA256 =  17880443556af62b473fe41b62a467bd001ad55d2cabe504a3f22e34d4e9db96 Al/POTCAR             
   COPYR  = (c) Copyright 04Jan2001 Georg Kresse                                                    
   COPYR  = This file is part of the software VASP. Any use, copying, and all other rights are regul
   COPYR  = If you do not have a valid VASP license, you may not use, copy or distribute this file. 
   VRHFIN =Al: s2p1                                                                                 
   LEXCH  = PE                                                                                      
   EATOM  =    53.5387 eV,    3.9350 Ry                                                             
                                                                                                    
   TITEL  = PAW_PBE Al 04Jan2001                                                                    
   LULTRA =        F    use ultrasoft PP ?                                                          
   IUNSCR =        1    unscreen: 0-lin 1-nonlin 2-no                                               
   RPACOR =    1.500    partial core radius                                                         
   POMASS =   26.981; ZVAL   =    3.000    mass and valenz                                          
   RCORE  =    1.900    outmost cutoff radius                                                       
   RWIGS  =    2.650; RWIGS  =    1.402    wigner-seitz radius (au A)                               
   ENMAX  =  240.300; ENMIN  =  180.225 eV                                                          
   ICORE  =        2    local potential                                                             
   LCOR   =        T    correct aug charges                                                         
   LPAW   =        T    paw PP                                                                      
   EAUG   =  291.052                                                                                
   DEXC   =    0.000                                                                                
   RMAX   =    1.939    core radius for proj-oper                                                   
   RAUG   =    1.300    factor for augmentation sphere                                              
   RDEP   =    1.966    radius for radial grids                                                     
   RDEPT  =    1.856    core radius for aug-charge                                                  
                                                                                                    
   Atomic configuration                                                                             
    6 entries                                                                                       
     n  l   j            E        occ.                                                              
     1  0  0.50     -1511.1048   2.0000                                                             
     2  0  0.50      -108.1629   2.0000                                                             
     2  1  1.50       -69.6402   6.0000                                                             
     3  0  0.50        -7.7528   2.0000                                                             
     3  1  1.50        -2.7121   1.0000                                                             
     3  2  2.50        -2.7212   0.0000                                                             
   Description                                                                                      
     l       E           TYP  RCUT    TYP  RCUT                                                     
     0     -7.7528455     23  1.900                                                                 
     0     -3.3096929     23  1.900                                                                 
     1     -2.7120682     23  1.900                                                                 
     1     13.6058260     23  1.900                                                                 
     2     -2.7211652      7  1.900                                                                 
  local pseudopotential read in
  partial core-charges read in
  partial kinetic energy density read in
  atomic valenz-charges read in
  non local Contribution for L=           0  read in
    real space projection operators read in
  non local Contribution for L=           0  read in
    real space projection operators read in
  non local Contribution for L=           1  read in
    real space projection operators read in
  non local Contribution for L=           1  read in
    real space projection operators read in
    PAW grid and wavefunctions read in

   number of l-projection  operators is LMAX  =           4
   number of lm-projection operators is LMMAX =           8

 POTCAR:    PAW_PBE S 06Sep2000                   
   SHA256 =  0fc7481fb0695f01bdc6462160264c5c84044ae9ec85a907d398b887a2bc3132 S/POTCAR              
   COPYR  = (c) Copyright 06Sep2000 Georg Kresse                                                    
   COPYR  = This file is part of the software VASP. Any use, copying, and all other rights are regul
   COPYR  = If you do not have a valid VASP license, you may not use, copy or distribute this file. 
   VRHFIN =S : s2p4                                                                                 
   LEXCH  = PE                                                                                      
   EATOM  =   276.8230 eV,   20.3459 Ry                                                             
                                                                                                    
   TITEL  = PAW_PBE S 06Sep2000                                                                     
   LULTRA =        F    use ultrasoft PP ?                                                          
   IUNSCR =        1    unscreen: 0-lin 1-nonlin 2-no                                               
   RPACOR =    1.500    partial core radius                                                         
   POMASS =   32.066; ZVAL   =    6.000    mass and valenz                                          
   RCORE  =    1.900    outmost cutoff radius                                                       
   RWIGS  =    2.200; RWIGS  =    1.164    wigner-seitz radius (au A)                               
   ENMAX  =  258.689; ENMIN  =  194.016 eV                                                          
   ICORE  =        2    local potential                                                             
   LCOR   =        T    correct aug charges                                                         
   LPAW   =        T    paw PP                                                                      
   EAUG   =  335.092                                                                                
   DEXC   =    0.000                                                                                
   RMAX   =    1.942    core radius for proj-oper                                                   
   RAUG   =    1.300    factor for augmentation sphere                                              
   RDEP   =    1.954    radius for radial grids                                                     
   RDEPT  =    1.744    core radius for aug-charge                                                  
                                                                                                    
   Atomic configuration                                                                             
    6 entries                                                                                       
     n  l   j            E        occ.                                                              
     1  0  0.50     -2405.8406   2.0000                                                             
     2  0  0.50      -211.7007   2.0000                                                             
     2  1  1.50      -156.4958   6.0000                                                             
     3  0  0.50       -17.2562   2.0000                                                             
     3  1  0.50        -7.0085   4.0000                                                             
     3  2  1.50        -6.8029   0.0000                                                             
   Description                                                                                      
     l       E           TYP  RCUT    TYP  RCUT                                                     
     0    -17.2561641     23  1.900                                                                 
     0    -15.8743224     23  1.900                                                                 
     1     -7.0085400     23  1.900                                                                 
     1     -2.7779785     23  1.900                                                                 
     2     -6.8029130     23  1.900                                                                 
  local pseudopotential read in
  partial core-charges read in
  partial kinetic energy density read in
  atomic valenz-charges read in
  non local Contribution for L=           0  read in
    real space projection operators read in
  non local Contribution for L=           0  read in
    real space projection operators read in
  non local Contribution for L=           1  read in
    real space projection operators read in
  non local Contribution for L=           1  read in
    real space projection operators read in
    PAW grid and wavefunctions read in

   number of l-projection  operators is LMAX  =           4
   number of lm-projection operators is LMMAX =           8

 -----------------------------------------------------------------------------
|                                                                             |
|               ----> ADVICE to this user running VASP <----                  |
|                                                                             |
|     You have a (more or less) 'large supercell' and for larger cells it     |
|     might be more efficient to use real-space projection operators.         |
|     Therefore, try LREAL= Auto in the INCAR file.                           |
|     Mind: For very accurate calculation, you might also keep the            |
|     reciprocal projection scheme (i.e. LREAL=.FALSE.).                      |
|                                                                             |
 -----------------------------------------------------------------------------

  PAW_PBE Na_pv 19Sep2006               :
 energy of atom  1       EATOM= -766.0439
 kinetic energy error for atom=    0.0021 (will be added to EATOM!!)
  PAW_PBE Al 04Jan2001                  :
 energy of atom  2       EATOM=  -53.5387
 kinetic energy error for atom=    0.0003 (will be added to EATOM!!)
  PAW_PBE S 06Sep2000                   :
 energy of atom  3       EATOM= -276.8230
 kinetic energy error for atom=    0.0020 (will be added to EATOM!!)


 POSCAR: Na5AlS4 bottleneck ep00
  positions in direct lattice
  No initial velocities read in
 exchange correlation table for  LEXCH =        8
   RHO(1)=    0.500       N(1)  =     2000
   RHO(2)=  100.500       N(2)  =     4000



--------------------------------------------------------------------------------------------------------


 ion  position               nearest neighbor table
   1  0.352  0.909  0.500-
   2  0.648  0.409  0.000-
   3  0.148  0.091  1.000-
   4  0.148  0.409  0.500-
   5  0.352  0.591  1.000-
   6  0.648  0.091  0.500-
   7  0.852  0.591  0.500-
   8  0.852  0.909  0.000-
   9  0.287  0.554  0.366-
  10  0.713  0.054  0.134-
  11  0.213  0.446  0.866-
  12  0.213  0.054  0.366-
  13  0.713  0.446  0.634-
  14  0.787  0.946  0.634-
  15  0.787  0.554  0.134-
  16  0.556  0.565  0.434-  49 2.70  56 2.71  70 2.74
  17  0.444  0.065  0.066-  48 2.70  57 2.71  66 2.74
  18  0.944  0.435  0.934-  54 2.70  58 2.71  65 2.74
  19  0.944  0.065  0.434-  55 2.70  59 2.71  69 2.74
  20  0.556  0.935  0.934-  53 2.70  60 2.71  71 2.74
  21  0.444  0.435  0.566-  52 2.70  61 2.71  67 2.74
  22  0.056  0.935  0.566-  50 2.70  62 2.71  64 2.74
  23  0.056  0.565  0.066-  51 2.70  63 2.71  68 2.74
  24  0.586  0.381  0.251-
  25  0.414  0.881  0.249-
  26  0.914  0.619  0.751-
  27  0.914  0.881  0.251-
  28  0.586  0.119  0.751-
  29  0.414  0.619  0.749-
  30  0.086  0.119  0.749-
  31  0.086  0.381  0.249-
  32  0.837  0.107  0.830-  74 2.73  71 2.75  65 2.76
  33  0.163  0.607  0.670-  78 2.73  67 2.75  64 2.76
  34  0.663  0.893  0.330-  72 2.73  69 2.75  70 2.76
  35  0.663  0.607  0.830-  76 2.73  65 2.75  71 2.76
  36  0.837  0.393  0.330-  75 2.73  70 2.75  69 2.76
  37  0.163  0.893  0.170-  79 2.73  66 2.75  68 2.76
  38  0.337  0.393  0.170-  73 2.73  68 2.75  66 2.76
  39  0.337  0.107  0.670-  77 2.73  64 2.75  67 2.76
  40  0.040  0.830  0.875-  58 2.27  78 2.27  65 2.28  51 2.28
  41  0.960  0.330  0.625-  62 2.27  74 2.27  64 2.28  55 2.28
  42  0.460  0.170  0.375-  56 2.27  73 2.27  70 2.28  52 2.28
  43  0.460  0.330  0.875-  60 2.27  77 2.27  71 2.28  48 2.28
  44  0.040  0.670  0.375-  59 2.27  79 2.27  69 2.28  50 2.28
  45  0.960  0.170  0.125-  63 2.27  75 2.27  68 2.28  54 2.28
  46  0.540  0.670  0.125-  57 2.27  72 2.27  66 2.28  53 2.28
  47  0.540  0.830  0.625-  61 2.27  76 2.27  67 2.28  49 2.28
  48  0.370  0.205  0.957-  43 2.28  17 2.70
  49  0.630  0.705  0.543-  47 2.28  16 2.70
  50  0.130  0.795  0.457-  44 2.28  22 2.70
  51  0.130  0.705  0.957-  40 2.28  23 2.70
  52  0.370  0.295  0.457-  42 2.28  21 2.70
  53  0.630  0.795  0.043-  46 2.28  20 2.70
  54  0.870  0.295  0.043-  45 2.28  18 2.70
  55  0.870  0.205  0.543-  41 2.28  19 2.70
  56  0.447  0.851  0.378-  42 2.27  16 2.71
  57  0.553  0.351  0.122-  46 2.27  17 2.71
  58  0.053  0.149  0.878-  40 2.27  18 2.71
  59  0.053  0.351  0.378-  44 2.27  19 2.71
  60  0.447  0.649  0.878-  43 2.27  20 2.71
  61  0.553  0.149  0.622-  47 2.27  21 2.71
  62  0.947  0.649  0.622-  41 2.27  22 2.71
  63  0.947  0.851  0.122-  45 2.27  23 2.71
  64  0.141  0.245  0.624-  41 2.28  22 2.74  39 2.75  33 2.76
  65  0.859  0.745  0.876-  40 2.28  18 2.74  35 2.75  32 2.76
  66  0.359  0.755  0.124-  46 2.28  17 2.74  37 2.75  38 2.76
  67  0.359  0.745  0.624-  47 2.28  21 2.74  33 2.75  39 2.76
  68  0.141  0.255  0.124-  45 2.28  23 2.74  38 2.75  37 2.76
  69  0.859  0.755  0.376-  44 2.28  19 2.74  34 2.75  36 2.76
  70  0.641  0.255  0.376-  42 2.28  16 2.74  36 2.75  34 2.76
  71  0.641  0.245  0.876-  43 2.28  20 2.74  32 2.75  35 2.76
  72  0.630  0.761  0.213-  46 2.27  34 2.73
  73  0.370  0.261  0.287-  42 2.27  38 2.73
  74  0.870  0.239  0.713-  41 2.27  32 2.73
  75  0.870  0.261  0.213-  45 2.27  36 2.73
  76  0.630  0.739  0.713-  47 2.27  35 2.73
  77  0.370  0.239  0.787-  43 2.27  39 2.73
  78  0.130  0.739  0.787-  40 2.27  33 2.73
  79  0.130  0.761  0.287-  44 2.27  37 2.73


IMPORTANT INFORMATION: All symmetrisations will be switched off!
NOSYMM: (Re-)initialisation of all symmetry stuff for point group C_1.


----------------------------------------------------------------------------------------

                                     Primitive cell                                     

  volume of cell :    1858.8241

  direct lattice vectors                    reciprocal lattice vectors
    12.102638204 -0.000000000  0.000000000     0.082626613  0.000000000 -0.000000000
    -0.000000000  7.093817079  0.000000000     0.000000000  0.140967830 -0.000000000
     0.000000000  0.000000000 21.651014956    -0.000000000 -0.000000000  0.046187211

  length of vectors
    12.102638204  7.093817079 21.651014956     0.082626613  0.140967830  0.046187211

  position of ions in fractional coordinates (direct lattice)
     0.351501911  0.908580173  0.499874127
     0.648498089  0.408580173  0.000125873
     0.148498089  0.091419827  0.999874127
     0.148498089  0.408580173  0.499874127
     0.351501911  0.591419827  0.999874127
     0.648498089  0.091419827  0.500125873
     0.851501911  0.591419827  0.500125873
     0.851501911  0.908580173  0.000125873
     0.287037455  0.553641495  0.365704068
     0.712962545  0.053641495  0.134295932
     0.212962545  0.446358505  0.865704068
     0.212962545  0.053641495  0.365704068
     0.712962545  0.446358505  0.634295932
     0.787037455  0.946358505  0.634295932
     0.787037455  0.553641495  0.134295932
     0.556392998  0.565166083  0.434112628
     0.443607002  0.065166083  0.065887372
     0.943607002  0.434833917  0.934112628
     0.943607002  0.065166083  0.434112628
     0.556392998  0.934833917  0.934112628
     0.443607002  0.434833917  0.565887372
     0.056392998  0.934833917  0.565887372
     0.056392998  0.565166083  0.065887372
     0.586277872  0.380876536  0.250636148
     0.413722128  0.880876536  0.249363852
     0.913722128  0.619123464  0.750636148
     0.913722128  0.880876536  0.250636148
     0.586277872  0.119123464  0.750636148
     0.413722128  0.619123464  0.749363852
     0.086277872  0.119123464  0.749363852
     0.086277872  0.380876536  0.249363852
     0.837195332  0.106739277  0.829724985
     0.162804668  0.606739277  0.670275015
     0.662804668  0.893260723  0.329724985
     0.662804668  0.606739277  0.829724985
     0.837195332  0.393260723  0.329724985
     0.162804668  0.893260723  0.170275015
     0.337195332  0.393260723  0.170275015
     0.337195332  0.106739277  0.670275015
     0.040015432  0.829939837  0.874579644
     0.959984568  0.329939837  0.625420356
     0.459984568  0.170060163  0.374579644
     0.459984568  0.329939837  0.874579644
     0.040015432  0.670060163  0.374579644
     0.959984568  0.170060163  0.125420356
     0.540015432  0.670060163  0.125420356
     0.540015432  0.829939837  0.625420356
     0.370249064  0.204734029  0.957371820
     0.629750936  0.704734029  0.542628180
     0.129750936  0.795265971  0.457371820
     0.129750936  0.704734029  0.957371820
     0.370249064  0.295265971  0.457371820
     0.629750936  0.795265971  0.042628180
     0.870249064  0.295265971  0.042628180
     0.870249064  0.204734029  0.542628180
     0.446889613  0.851242122  0.378477527
     0.553110387  0.351242122  0.121522473
     0.053110387  0.148757878  0.878477527
     0.053110387  0.351242122  0.378477527
     0.446889613  0.648757878  0.878477527
     0.553110387  0.148757878  0.621522473
     0.946889613  0.648757878  0.621522473
     0.946889613  0.851242122  0.121522473
     0.141331091  0.245285831  0.624492831
     0.858668909  0.745285831  0.875507169
     0.358668909  0.754714169  0.124492831
     0.358668909  0.745285831  0.624492831
     0.141331091  0.254714169  0.124492831
     0.858668909  0.754714169  0.375507169
     0.641331091  0.254714169  0.375507169
     0.641331091  0.245285831  0.875507169
     0.630093410  0.761010605  0.212510784
     0.369906590  0.261010605  0.287489216
     0.869906590  0.238989395  0.712510784
     0.869906590  0.261010605  0.212510784
     0.630093410  0.738989395  0.712510784
     0.369906590  0.238989395  0.787489216
     0.130093410  0.738989395  0.787489216
     0.130093410  0.761010605  0.287489216

  ion indices of the primitive-cell ions
   primitive index   ion index
                 1           1
                 2           2
                 3           3
                 4           4
                 5           5
                 6           6
                 7           7
                 8           8
                 9           9
                10          10
                11          11
                12          12
                13          13
                14          14
                15          15
                16          16
                17          17
                18          18
                19          19
                20          20
                21          21
                22          22
                23          23
                24          24
                25          25
                26          26
                27          27
                28          28
                29          29
                30          30
                31          31
                32          32
                33          33
                34          34
                35          35
                36          36
                37          37
                38          38
                39          39
                40          40
                41          41
                42          42
                43          43
                44          44
                45          45
                46          46
                47          47
                48          48
                49          49
                50          50
                51          51
                52          52
                53          53
                54          54
                55          55
                56          56
                57          57
                58          58
                59          59
                60          60
                61          61
                62          62
                63          63
                64          64
                65          65
                66          66
                67          67
                68          68
                69          69
                70          70
                71          71
                72          72
                73          73
                74          74
                75          75
                76          76
                77          77
                78          78
                79          79

----------------------------------------------------------------------------------------



 KPOINTS: Gamma-point only                        

Automatic generation of k-mesh.
 Grid dimensions read from file:
 generate k-points for:    1    1    1

 Generating k-lattice:

  Cartesian coordinates                     Fractional coordinates (reciprocal lattice)
     0.082626613  0.000000000 -0.000000000     1.000000000 -0.000000000  0.000000000
     0.000000000  0.140967830 -0.000000000     0.000000000  1.000000000  0.000000000
    -0.000000000 -0.000000000  0.046187211    -0.000000000 -0.000000000  1.000000000

  Length of vectors
     0.082626613  0.140967830  0.046187211

  Shift w.r.t. Gamma in fractional coordinates (k-lattice)
     0.000000000  0.000000000  0.000000000

 
 Subroutine IBZKPT returns following result:
 ===========================================
 
 Found      1 irreducible k-points:
 
 Following reciprocal coordinates:
            Coordinates               Weight
  0.000000  0.000000  0.000000      1.000000
 
 Following cartesian coordinates:
            Coordinates               Weight
  0.000000  0.000000  0.000000      1.000000
 


--------------------------------------------------------------------------------------------------------




 Dimension of arrays:
   k-points           NKPTS =      1   k-points in BZ     NKDIM =      1   number of bands    NBANDS=    304
   number of dos      NEDOS =    301   number of ions     NIONS =     79
   non local maximal  LDIM  =      4   non local SUM 2l+1 LMDIM =      8
   total plane-waves  NPLWV = 777600
   max r-space proj   IRMAX =      1   max aug-charges    IRDMAX= 130434
   dimension x,y,z NGX =    90 NGY =   54 NGZ =  160
   dimension x,y,z NGXF=   180 NGYF=  108 NGZF=  320
   support grid    NGXF=   360 NGYF=  216 NGZF=  640
   ions per type =              39   8  32
   NGX,Y,Z   is equivalent  to a cutoff of  12.36, 12.66, 12.29 a.u.
   NGXF,Y,Z  is equivalent  to a cutoff of  24.73, 25.31, 24.57 a.u.

 SYSTEM =  endpoint_relax_bottleneck               
 POSCAR =  Na5AlS4 bottleneck ep00                 

 Startparameter for this run:
   NWRITE =      2    write-flag & timer
   PREC   = accura    normal or accurate (medium, high low for compatibility)
   ISTART =      0    job   : 0-new  1-cont  2-samecut
   ICHARG =      2    charge: 1-file 2-atom 10-const
   ISPIN  =      1    spin polarized calculation?
   LNONCOLLINEAR =      F non collinear calculations
   LSORBIT =      F    spin-orbit coupling
   INIWAV =      1    electr: 0-lowe 1-rand  2-diag
   LASPH  =      F    aspherical Exc in radial PAW
 Electronic Relaxation 1
   ENCUT  =  500.0 eV  36.75 Ry    6.06 a.u.  22.07 12.93 39.47*2*pi/ulx,y,z
   ENINI  =  500.0     initial cutoff
   ENAUG  =  368.1 eV  augmentation charge cutoff
   NELM   =     60;   NELMIN=  2; NELMDL= -5     # of ELM steps 
   EDIFF  = 0.1E-05   stopping-criterion for ELM
   LREAL  =      F    real-space projection
   NLSPLINE    = F    spline interpolate recip. space projectors
   LCOMPAT=      F    compatible to vasp.4.4
   GGA_COMPAT  = T    GGA compatible to vasp.4.4-vasp.4.6
   LMAXPAW     = -100 max onsite density
   LMAXMIX     =    2 max onsite mixed and CHGCAR
   VOSKOWN=      0    Vosko Wilk Nusair interpolation
   ROPT   =    0.00000   0.00000   0.00000
 Ionic relaxation
   EDIFFG = -.2E-01   stopping-criterion for IOM
   NSW    =    300    number of steps for IOM
   NBLOCK =      1;   KBLOCK =    300    inner block; outer block 
   IBRION =      2    ionic relax: 0-MD 1-quasi-New 2-CG
   NFREE  =      1    steps in history (QN), initial steepest desc. (CG)
   ISIF   =      2    stress and relaxation
   IWAVPR =     11    prediction:  0-non 1-charg 2-wave 3-comb
   ISYM   =      0    0-nonsym 1-usesym 2-fastsym
   LCORR  =      T    Harris-Foulkes like correction to forces

   POTIM  = 0.5000    time-step for ionic-motion
   TEIN   =    0.0    initial temperature
   TEBEG  =    0.0;   TEEND  =   0.0 temperature during run
   SMASS  =  -3.00    Nose mass-parameter (am)
   estimated Nose-frequenzy (Omega)   =  0.10E-29 period in steps = 0.13E+47 mass=  -0.335E-26a.u.
   SCALEE = 1.0000    scale energy and forces
   NPACO  =    256;   APACO  = 10.0  distance and # of slots for P.C.
   PSTRESS=    0.0 pullay stress

  Mass of Ions in am
   POMASS =  22.99 26.98 32.07
  Ionic Valenz
   ZVAL   =   7.00  3.00  6.00
  Atomic Wigner-Seitz radii
   RWIGS  =  -1.00 -1.00 -1.00
  virtual crystal weights 
   VCA    =   1.00  1.00  1.00
   NELECT =     489.0000    total number of electrons
   NUPDOWN=      -1.0000    fix difference up-down

 DOS related values:
   EMIN   =  10.00;   EMAX   =-10.00  energy-range for DOS
   EFERMI =   0.00
   ISMEAR =     1;   SIGMA  =   0.20  broadening in eV -4-tet -1-fermi 0-gaus

 Electronic relaxation 2 (details)
   IALGO  =     68    algorithm
   LDIAG  =      T    sub-space diagonalisation (order eigenvalues)
   LSUBROT=      F    optimize rotation matrix (better conditioning)
   TURBO    =      0    0=normal 1=particle mesh
   IRESTART =      0    0=no restart 2=restart with 2 vectors
   NREBOOT  =      0    no. of reboots
   NMIN     =      0    reboot dimension
   EREF     =   0.00    reference energy to select bands
   IMIX   =      4    mixing-type and parameters
     AMIX     =   0.40;   BMIX     =  1.00
     AMIX_MAG =   1.60;   BMIX_MAG =  1.00
     AMIN     =   0.10
     WC   =   100.;   INIMIX=   1;  MIXPRE=   1;  MAXMIX= -45

 Intra band minimization:
   WEIMIN = 0.0010     energy-eigenvalue tresh-hold
   EBREAK =  0.82E-09  absolut break condition
   DEPER  =   0.30     relativ break condition  

   TIME   =   0.40     timestep for ELM

  volume/ion in A,a.u.               =      23.53       158.78
  Fermi-wavevector in a.u.,A,eV,Ry     =   1.048975  1.982275 14.971143  1.100348
  Thomas-Fermi vector in A             =   2.183918

 Write flags
   LWAVE        =      T    write WAVECAR
   LDOWNSAMPLE  =      F    k-point downsampling of WAVECAR
   LCHARG       =      F    write CHGCAR
   LVTOT        =      F    write LOCPOT, total local potential
   LVHAR        =      F    write LOCPOT, Hartree potential only
   LELF         =      F    write electronic localiz. function (ELF)
   LORBIT       =      0    0 simple, 1 ext, 2 COOP (PROOUT), +10 PAW based schemes


 Dipole corrections
   LMONO  =      F    monopole corrections only (constant potential shift)
   LDIPOL =      F    correct potential (dipole corrections)
   IDIPOL =      0    1-x, 2-y, 3-z, 4-all directions 
   EPSILON=  1.0000000 bulk dielectric constant

 Exchange correlation treatment:
   GGA     =    --    GGA type
   LEXCH   =     8    internal setting for exchange type
   LIBXC   =     F    Libxc                    
   VOSKOWN =     0    Vosko Wilk Nusair interpolation
   LHFCALC =     F    Hartree Fock is set to
   LHFONE  =     F    Hartree Fock one center treatment
   AEXX    =    0.0000 exact exchange contribution

 Linear response parameters
   LEPSILON=     F    determine dielectric tensor
   LRPA    =     F    only Hartree local field effects (RPA)
   LNABLA  =     F    use nabla operator in PAW spheres
   LVEL    =     F    velocity operator in full k-point grid
   CSHIFT  =0.1000    complex shift for real part using Kramers Kronig
   OMEGAMAX=  -1.0    maximum frequency
   DEG_THRESHOLD= 0.2000000E-02 threshold for treating states as degnerate
   RTIME   =   -0.100 relaxation time in fs
  (WPLASMAI=    0.000 imaginary part of plasma frequency in eV, 0.658/RTIME)
   DFIELD  = 0.0000000 0.0000000 0.0000000 field for delta impulse in time

  Optional k-point grid parameters
   LKPOINTS_OPT  =     F    use optional k-point grid
   KPOINTS_OPT_MODE=     1    mode for optional k-point grid

 Orbital magnetization related:
   ORBITALMAG=     F  switch on orbital magnetization
   LCHIMAG   =     F  perturbation theory with respect to B field
   DQ        =  0.001000  dq finite difference perturbation B field
   LLRAUG    =     F  two centre corrections for induced B field



--------------------------------------------------------------------------------------------------------


 conjugate gradient relaxation of ions
 charge density and potential will be updated during run
 non-spin polarized calculation
 RMM-DIIS sequential band-by-band and
  variant of blocked Davidson during initial phase
 perform sub-space diagonalisation
    before iterative eigenvector-optimisation
 modified Broyden-mixing scheme, WC =      100.0
 initial mixing is a Kerker type mixing with AMIX =  0.4000 and BMIX =      1.0000
 Hartree-type preconditioning will be used
 using additional bands           59
 reciprocal scheme for non local part
 use partial core corrections
 calculate Harris-corrections to forces   (improved forces if not selfconsistent)
 use gradient corrections 
 use of overlap-Matrix (Vanderbilt PP)
 Methfessel and Paxton  Order N= 1 SIGMA  =   0.20


--------------------------------------------------------------------------------------------------------


  energy-cutoff  :      500.00
  volume of cell :     1858.82
      direct lattice vectors                 reciprocal lattice vectors
    12.102638204 -0.000000000  0.000000000     0.082626613  0.000000000 -0.000000000
    -0.000000000  7.093817079  0.000000000     0.000000000  0.140967830 -0.000000000
     0.000000000  0.000000000 21.651014956    -0.000000000 -0.000000000  0.046187211

  length of vectors
    12.102638204  7.093817079 21.651014956     0.082626613  0.140967830  0.046187211



 k-points in units of 2pi/SCALE and weight: Gamma-point only                        
   0.00000000  0.00000000  0.00000000       1.000

 k-points in reciprocal lattice and weights: Gamma-point only                        
   0.00000000  0.00000000  0.00000000       1.000

 position of ions in fractional coordinates (direct lattice) 
   0.35150191  0.90858017  0.49987413
   0.64849809  0.40858017  0.00012587
   0.14849809  0.09141983  0.99987413
   0.14849809  0.40858017  0.49987413
   0.35150191  0.59141983  0.99987413
   0.64849809  0.09141983  0.50012587
   0.85150191  0.59141983  0.50012587
   0.85150191  0.90858017  0.00012587
   0.28703745  0.55364149  0.36570407
   0.71296255  0.05364149  0.13429593
   0.21296255  0.44635851  0.86570407
   0.21296255  0.05364149  0.36570407
   0.71296255  0.44635851  0.63429593
   0.78703745  0.94635851  0.63429593
   0.78703745  0.55364149  0.13429593
   0.55639300  0.56516608  0.43411263
   0.44360700  0.06516608  0.06588737
   0.94360700  0.43483392  0.93411263
   0.94360700  0.06516608  0.43411263
   0.55639300  0.93483392  0.93411263
   0.44360700  0.43483392  0.56588737
   0.05639300  0.93483392  0.56588737
   0.05639300  0.56516608  0.06588737
   0.58627787  0.38087654  0.25063615
   0.41372213  0.88087654  0.24936385
   0.91372213  0.61912346  0.75063615
   0.91372213  0.88087654  0.25063615
   0.58627787  0.11912346  0.75063615
   0.41372213  0.61912346  0.74936385
   0.08627787  0.11912346  0.74936385
   0.08627787  0.38087654  0.24936385
   0.83719533  0.10673928  0.82972499
   0.16280467  0.60673928  0.67027501
   0.66280467  0.89326072  0.32972499
   0.66280467  0.60673928  0.82972499
   0.83719533  0.39326072  0.32972499
   0.16280467  0.89326072  0.17027501
   0.33719533  0.39326072  0.17027501
   0.33719533  0.10673928  0.67027501
   0.04001543  0.82993984  0.87457964
   0.95998457  0.32993984  0.62542036
   0.45998457  0.17006016  0.37457964
   0.45998457  0.32993984  0.87457964
   0.04001543  0.67006016  0.37457964
   0.95998457  0.17006016  0.12542036
   0.54001543  0.67006016  0.12542036
   0.54001543  0.82993984  0.62542036
   0.37024906  0.20473403  0.95737182
   0.62975094  0.70473403  0.54262818
   0.12975094  0.79526597  0.45737182
   0.12975094  0.70473403  0.95737182
   0.37024906  0.29526597  0.45737182
   0.62975094  0.79526597  0.04262818
   0.87024906  0.29526597  0.04262818
   0.87024906  0.20473403  0.54262818
   0.44688961  0.85124212  0.37847753
   0.55311039  0.35124212  0.12152247
   0.05311039  0.14875788  0.87847753
   0.05311039  0.35124212  0.37847753
   0.44688961  0.64875788  0.87847753
   0.55311039  0.14875788  0.62152247
   0.94688961  0.64875788  0.62152247
   0.94688961  0.85124212  0.12152247
   0.14133109  0.24528583  0.62449283
   0.85866891  0.74528583  0.87550717
   0.35866891  0.75471417  0.12449283
   0.35866891  0.74528583  0.62449283
   0.14133109  0.25471417  0.12449283
   0.85866891  0.75471417  0.37550717
   0.64133109  0.25471417  0.37550717
   0.64133109  0.24528583  0.87550717
   0.63009341  0.76101060  0.21251078
   0.36990659  0.26101060  0.28748922
   0.86990659  0.23898940  0.71251078
   0.86990659  0.26101060  0.21251078
   0.63009341  0.73898940  0.71251078
   0.36990659  0.23898940  0.78748922
   0.13009341  0.73898940  0.78748922
   0.13009341  0.76101060  0.28748922

 position of ions in cartesian coordinates  (Angst):
   4.25410046  6.44530155 10.82278221
   7.84853774  2.89839301  0.00272527
   1.79721864  0.64851553 21.64828968
   1.79721864  2.89839301 10.82278221
   4.25410046  4.19542407 21.64828968
   7.84853774  0.64851553 10.82823275
  10.30541956  4.19542407 10.82823275
  10.30541956  6.44530155  0.00272527
   3.47391047  3.92743149  7.91786426
   8.62872774  0.38052295  2.90764322
   2.57740864  3.16638559 18.74337173
   2.57740864  0.38052295  7.91786426
   8.62872774  3.16638559 13.73315070
   9.52522957  6.71329413 13.73315070
   9.52522957  3.92743149  2.90764322
   6.73382315  4.00918481  9.39897900
   5.36881506  0.46227627  1.42652848
  11.42013416  3.08463227 20.22448648
  11.42013416  0.46227627  9.39897900
   6.73382315  6.63154081 20.22448648
   5.36881506  3.08463227 12.25203596
   0.68250405  6.63154081 12.25203596
   0.68250405  4.00918481  1.42652848
   7.09550897  2.70186847  5.42652698
   5.00712923  6.24877701  5.39898050
  11.05844833  4.39194861 16.25203446
  11.05844833  6.24877701  5.42652698
   7.09550897  0.84504007 16.25203446
   5.00712923  4.39194861 16.22448798
   1.04418987  0.84504007 16.22448798
   1.04418987  2.70186847  5.39898050
  10.13227221  0.75718890 17.96438807
   1.97036600  4.30409744 14.51213437
   8.02168510  6.33662818  7.13888059
   8.02168510  4.30409744 17.96438807
  10.13227221  2.78971964  7.13888059
   1.97036600  6.33662818  3.68662689
   4.08095310  2.78971964  3.68662689
   4.08095310  0.75718890 14.51213437
   0.48429230  5.88744139 18.93553695
  11.61834591  2.34053285 13.54098549
   5.56702680  1.20637569  8.11002947
   5.56702680  2.34053285 18.93553695
   0.48429230  4.75328423  8.11002947
  11.61834591  1.20637569  2.71547801
   6.53561140  4.75328423  2.71547801
   6.53561140  5.88744139 13.54098549
   4.48099047  1.45234575 20.72807159
   7.62164773  4.99925429 11.74845084
   1.57032863  5.64147133  9.90256412
   1.57032863  4.99925429 20.72807159
   4.48099047  2.09456279  9.90256412
   7.62164773  5.64147133  0.92294336
  10.53230957  2.09456279  0.92294336
  10.53230957  1.45234575 11.74845084
   5.40854330  6.03855590  8.19442259
   6.69409490  2.49164737  2.63108489
   0.64277580  1.05526117 19.01993007
   0.64277580  2.49164737  8.19442259
   5.40854330  4.60216971 19.01993007
   6.69409490  1.05526117 13.45659237
  11.45986240  4.60216971 13.45659237
  11.45986240  6.03855590  2.63108489
   1.71047906  1.74001282 13.52090363
  10.39215915  5.28692136 18.95561880
   4.34084004  5.35380426  2.69539615
   4.34084004  5.28692136 13.52090363
   1.71047906  1.80689572  2.69539615
  10.39215915  5.35380426  8.13011132
   7.76179816  1.80689572  8.13011132
   7.76179816  1.74001282 18.95561880
   7.62579258  5.39847003  4.60107416
   4.47684562  1.85156149  6.22443332
  10.52816473  1.69534705 15.42658163
  10.52816473  1.85156149  4.60107416
   7.62579258  5.24225559 15.42658163
   4.47684562  1.69534705 17.04994080
   1.57447348  5.24225559 17.04994080
   1.57447348  5.39847003  6.22443332



--------------------------------------------------------------------------------------------------------


 k-point   1 :   0.0000 0.0000 0.0000  plane waves:   47083

 maximum and minimum number of plane-waves per node :     47083    47083

 maximum number of plane-waves:     47083
 maximum index in each direction: 
   IXMAX=   22   IYMAX=   12   IZMAX=   39
   IXMIN=  -22   IYMIN=  -12   IZMIN=  -39


 serial   3D FFT for wavefunctions
 parallel 3D FFT for charge:
    minimum data exchange during FFTs selected (reduces bandwidth)


 total amount of memory used by VASP MPI-rank0   232203. kBytes
=======================================================================

   base      :      30000. kBytes
   nonl-proj :      68560. kBytes
   fftplans  :      61044. kBytes
   grid      :      57848. kBytes
   one-center:        242. kBytes
   wavefun   :      14509. kBytes

     INWAV:  cpu time      0.0000: real time      0.0002
 Broyden mixing: mesh for mixing (old mesh)
   NGX = 45   NGY = 25   NGZ = 79
  (NGX  =180   NGY  =108   NGZ  =320)
  gives a total of  88875 points

 initial charge density was supplied:
 charge density of overlapping atoms calculated
 number of electron     489.0000000 magnetization 
 keeping initial charge density in first step


--------------------------------------------------------------------------------------------------------


 Maximum index for augmentation-charges         9168 (set IRDMAX)


--------------------------------------------------------------------------------------------------------


 First call to EWALD:  gamma=   0.144
 Maximum number of real-space cells 3x 4x 2
 Maximum number of reciprocal cells 3x 2x 4

    FEWALD:  cpu time      0.0060: real time      0.0060


--------------------------------------- Iteration      1(   1)  ---------------------------------------


    POTLOK:  cpu time      0.2755: real time      0.2757
    SETDIJ:  cpu time      0.2092: real time      0.2095
     EDDAV:  cpu time      9.9550: real time     10.0399
       DOS:  cpu time      0.0006: real time      0.0007
    --------------------------------------------
      LOOP:  cpu time     10.4403: real time     10.5258

 eigenvalue-minimisations  :   608
 total energy-change (2. order) : 0.4966156E+04  (-0.2217652E+05)
 number of electron     489.0000000 magnetization 
 augmentation part      489.0000000 magnetization 

 Free energy of the ion-electron system (eV)
  ---------------------------------------------------
  alpha Z        PSCENC =       656.31070834
  Ewald energy   TEWEN  =    -21520.87002723
  -Hartree energ DENC   =    -10707.77926437
  -exchange      EXHF   =         0.00000000
  -V(xc)+E(xc)   XCENC  =      1138.27619572
  PAW double counting   =     27080.65996750   -30177.27443338
  entropy T*S    EENTRO =        -0.03847443
  eigenvalues    EBANDS =      -665.33980743
  atomic energy  EATOM  =     39162.21106953
  Solvation  Ediel_sol  =         0.00000000
  ---------------------------------------------------
  free energy    TOTEN  =      4966.15593425 eV

  energy without entropy =     4966.19440868  energy(sigma->0) =     4966.16875906


--------------------------------------------------------------------------------------------------------




--------------------------------------- Iteration      1(   2)  ---------------------------------------


     EDDAV:  cpu time     10.5522: real time     10.5607
       DOS:  cpu time      0.0004: real time      0.0004
    --------------------------------------------
      LOOP:  cpu time     10.5525: real time     10.5611

 eigenvalue-minimisations  :   656
 total energy-change (2. order) :-0.4564308E+04  (-0.4380474E+04)
 number of electron     489.0000000 magnetization 
 augmentation part      489.0000000 magnetization 

 Free energy of the ion-electron system (eV)
  ---------------------------------------------------
  alpha Z        PSCENC =       656.31070834
  Ewald energy   TEWEN  =    -21520.87002723
  -Hartree energ DENC   =    -10707.77926437
  -exchange      EXHF   =         0.00000000
  -V(xc)+E(xc)   XCENC  =      1138.27619572
  PAW double counting   =     27080.65996750   -30177.27443338
  entropy T*S    EENTRO =        -0.05421381
  eigenvalues    EBANDS =     -5229.63219126
  atomic energy  EATOM  =     39162.21106953
  Solvation  Ediel_sol  =         0.00000000
  ---------------------------------------------------
  free energy    TOTEN  =       401.84781104 eV

  energy without entropy =      401.90202485  energy(sigma->0) =      401.86588231


--------------------------------------------------------------------------------------------------------




--------------------------------------- Iteration      1(   3)  ---------------------------------------


     EDDAV:  cpu time     15.0789: real time     15.0882
       DOS:  cpu time      0.0004: real time      0.0005
    --------------------------------------------
      LOOP:  cpu time     15.0793: real time     15.0887

 eigenvalue-minimisations  :   720
 total energy-change (2. order) :-0.6809359E+03  (-0.6717001E+03)
 number of electron     489.0000000 magnetization 
 augmentation part      489.0000000 magnetization 

 Free energy of the ion-electron system (eV)
  ---------------------------------------------------
  alpha Z        PSCENC =       656.31070834
  Ewald energy   TEWEN  =    -21520.87002723
  -Hartree energ DENC   =    -10707.77926437
  -exchange      EXHF   =         0.00000000
  -V(xc)+E(xc)   XCENC  =      1138.27619572
  PAW double counting   =     27080.65996750   -30177.27443338
  entropy T*S    EENTRO =        -0.02519531
  eigenvalues    EBANDS =     -5910.59713346
  atomic energy  EATOM  =     39162.21106953
  Solvation  Ediel_sol  =         0.00000000
  ---------------------------------------------------
  free energy    TOTEN  =      -279.08811266 eV

  energy without entropy =     -279.06291734  energy(sigma->0) =     -279.07971422


--------------------------------------------------------------------------------------------------------




--------------------------------------- Iteration      1(   4)  ---------------------------------------


     EDDAV:  cpu time     11.1479: real time     11.1556
       DOS:  cpu time      0.0004: real time      0.0004
    --------------------------------------------
      LOOP:  cpu time     11.1482: real time     11.1560

 eigenvalue-minimisations  :   704
 total energy-change (2. order) :-0.4206994E+02  (-0.4170894E+02)
 number of electron     489.0000000 magnetization 
 augmentation part      489.0000000 magnetization 

 Free energy of the ion-electron system (eV)
  ---------------------------------------------------
  alpha Z        PSCENC =       656.31070834
  Ewald energy   TEWEN  =    -21520.87002723
  -Hartree energ DENC   =    -10707.77926437
  -exchange      EXHF   =         0.00000000
  -V(xc)+E(xc)   XCENC  =      1138.27619572
  PAW double counting   =     27080.65996750   -30177.27443338
  entropy T*S    EENTRO =         0.14184132
  eigenvalues    EBANDS =     -5952.83410758
  atomic energy  EATOM  =     39162.21106953
  Solvation  Ediel_sol  =         0.00000000
  ---------------------------------------------------
  free energy    TOTEN  =      -321.15805015 eV

  energy without entropy =     -321.29989147  energy(sigma->0) =     -321.20533059


--------------------------------------------------------------------------------------------------------




--------------------------------------- Iteration      1(   5)  ---------------------------------------


     EDDAV:  cpu time     13.1414: real time     13.1743
       DOS:  cpu time      0.0004: real time      0.0005
    CHARGE:  cpu time      0.5928: real time      0.5932
    MIXING:  cpu time      0.0078: real time      0.0079
    --------------------------------------------
      LOOP:  cpu time     13.7425: real time     13.7758

 eigenvalue-minimisations  :   864
 total energy-change (2. order) :-0.1728278E+01  (-0.1724371E+01)
 number of electron     489.0000015 magnetization 
 augmentation part      146.0421628 magnetization 

 Broyden mixing:
  rms(total) = 0.26761E+01    rms(broyden)= 0.26760E+01
  rms(prec ) = 0.28686E+01
  weight for this iteration     100.00

 Free energy of the ion-electron system (eV)
  ---------------------------------------------------
  alpha Z        PSCENC =       656.31070834
  Ewald energy   TEWEN  =    -21520.87002723
  -Hartree energ DENC   =    -10707.77926437
  -exchange      EXHF   =         0.00000000
  -V(xc)+E(xc)   XCENC  =      1138.27619572
  PAW double counting   =     27080.65996750   -30177.27443338
  entropy T*S    EENTRO =         0.14569057
  eigenvalues    EBANDS =     -5954.56623506
  atomic energy  EATOM  =     39162.21106953
  Solvation  Ediel_sol  =         0.00000000
  ---------------------------------------------------
  free energy    TOTEN  =      -322.88632838 eV

  energy without entropy =     -323.03201895  energy(sigma->0) =     -322.93489190


--------------------------------------------------------------------------------------------------------




--------------------------------------- Iteration      1(   6)  ---------------------------------------


    POTLOK:  cpu time      0.2696: real time      0.2703
    SETDIJ:  cpu time      0.2029: real time      0.2029
    EDDIAG:  cpu time      0.7764: real time      0.7770
  RMM-DIIS:  cpu time      7.8031: real time      7.8084
    ORTHCH:  cpu time      0.0857: real time      0.0857
       DOS:  cpu time      0.0005: real time      0.0006
    CHARGE:  cpu time      0.5692: real time      0.5697
    MIXING:  cpu time      0.0070: real time      0.0070
    --------------------------------------------
      LOOP:  cpu time      9.7142: real time      9.7217

 eigenvalue-minimisations  :   647
 total energy-change (2. order) : 0.1771148E+02  (-0.2897948E+01)
 number of electron     489.0000016 magnetization 
 augmentation part      147.3736750 magnetization 

 Broyden mixing:
  rms(total) = 0.17901E+01    rms(broyden)= 0.17901E+01
  rms(prec ) = 0.18596E+01
  weight for this iteration     100.00

 eigenvalues of (default mixing * dielectric matrix)
  average eigenvalue GAMMA=   1.9504
  1.9504

 Free energy of the ion-electron system (eV)
  ---------------------------------------------------
  alpha Z        PSCENC =       656.31070834
  Ewald energy   TEWEN  =    -21520.87002723
  -Hartree energ DENC   =    -10814.47101667
  -exchange      EXHF   =         0.00000000
  -V(xc)+E(xc)   XCENC  =      1152.54836422
  PAW double counting   =     30038.08272760   -33131.67513875
  entropy T*S    EENTRO =         0.12991280
  eigenvalues    EBANDS =     -5847.44144372
  atomic energy  EATOM  =     39162.21106953
  Solvation  Ediel_sol  =         0.00000000
  ---------------------------------------------------
  free energy    TOTEN  =      -305.17484389 eV

  energy without entropy =     -305.30475669  energy(sigma->0) =     -305.21814816


--------------------------------------------------------------------------------------------------------




--------------------------------------- Iteration      1(   7)  ---------------------------------------


    POTLOK:  cpu time      0.2634: real time      0.2641
    SETDIJ:  cpu time      0.2023: real time      0.2023
    EDDIAG:  cpu time      0.7767: real time      0.7772
  RMM-DIIS:  cpu time      7.5163: real time      7.5209
    ORTHCH:  cpu time      0.0877: real time      0.0877
       DOS:  cpu time      0.0004: real time      0.0006
    CHARGE:  cpu time      0.6051: real time      0.6054
    MIXING:  cpu time      0.0076: real time      0.0076
    --------------------------------------------
      LOOP:  cpu time      9.4595: real time      9.4660

 eigenvalue-minimisations  :   625
 total energy-change (2. order) : 0.1117284E+01  (-0.3306915E+01)
 number of electron     489.0000016 magnetization 
 augmentation part      148.4939300 magnetization 

 Broyden mixing:
  rms(total) = 0.10846E+01    rms(broyden)= 0.10846E+01
  rms(prec ) = 0.11133E+01
  weight for this iteration     100.00

 eigenvalues of (default mixing * dielectric matrix)
  average eigenvalue GAMMA=   1.6703
  1.0771  2.2635

 Free energy of the ion-electron system (eV)
  ---------------------------------------------------
  alpha Z        PSCENC =       656.31070834
  Ewald energy   TEWEN  =    -21520.87002723
  -Hartree energ DENC   =    -10891.81216305
  -exchange      EXHF   =         0.00000000
  -V(xc)+E(xc)   XCENC  =      1165.51474466
  PAW double counting   =     34813.15686002   -37915.79102867
  entropy T*S    EENTRO =         0.00475677
  eigenvalues    EBANDS =     -5772.78248050
  atomic energy  EATOM  =     39162.21106953
  Solvation  Ediel_sol  =         0.00000000
  ---------------------------------------------------
  free energy    TOTEN  =      -304.05756011 eV

  energy without entropy =     -304.06231689  energy(sigma->0) =     -304.05914571


--------------------------------------------------------------------------------------------------------




--------------------------------------- Iteration      1(   8)  ---------------------------------------


    POTLOK:  cpu time      0.2658: real time      0.2661
    SETDIJ:  cpu time      0.2020: real time      0.2022
    EDDIAG:  cpu time      0.7763: real time      0.7767
  RMM-DIIS:  cpu time      8.8746: real time      8.8811
    ORTHCH:  cpu time      0.0868: real time      0.0868
       DOS:  cpu time      0.0005: real time      0.0006
    CHARGE:  cpu time      0.5910: real time      0.5914
    MIXING:  cpu time      0.0071: real time      0.0071
    --------------------------------------------
      LOOP:  cpu time     10.8039: real time     10.8119

 eigenvalue-minimisations  :   745
 total energy-change (2. order) : 0.2407753E+00  (-0.2540585E+00)
 number of electron     489.0000016 magnetization 
 augmentation part      148.3958089 magnetization 

 Broyden mixing:
  rms(total) = 0.57995E+00    rms(broyden)= 0.57995E+00
  rms(prec ) = 0.60470E+00
  weight for this iteration     100.00

 eigenvalues of (default mixing * dielectric matrix)
  average eigenvalue GAMMA=   1.7014
  2.6176  1.8046  0.6821

 Free energy of the ion-electron system (eV)
  ---------------------------------------------------
  alpha Z        PSCENC =       656.31070834
  Ewald energy   TEWEN  =    -21520.87002723
  -Hartree energ DENC   =    -10875.25651226
  -exchange      EXHF   =         0.00000000
  -V(xc)+E(xc)   XCENC  =      1165.79684142
  PAW double counting   =     36900.77114800   -40008.32414649
  entropy T*S    EENTRO =         0.02923359
  eigenvalues    EBANDS =     -5784.48509969
  atomic energy  EATOM  =     39162.21106953
  Solvation  Ediel_sol  =         0.00000000
  ---------------------------------------------------
  free energy    TOTEN  =      -303.81678480 eV

  energy without entropy =     -303.84601838  energy(sigma->0) =     -303.82652933


--------------------------------------------------------------------------------------------------------




--------------------------------------- Iteration      1(   9)  ---------------------------------------


    POTLOK:  cpu time      0.2634: real time      0.2640
    SETDIJ:  cpu time      0.2018: real time      0.2020
    EDDIAG:  cpu time      4.5493: real time      4.5530
  RMM-DIIS:  cpu time      7.8249: real time      7.8328
    ORTHCH:  cpu time      0.0871: real time      0.0871
       DOS:  cpu time      0.0004: real time      0.0005
    CHARGE:  cpu time      0.5825: real time      0.5828
    MIXING:  cpu time      0.0082: real time      0.0082
    --------------------------------------------
      LOOP:  cpu time     13.5176: real time     13.5304

 eigenvalue-minimisations  :   646
 total energy-change (2. order) : 0.2564429E-01  (-0.1728902E+00)
 number of electron     489.0000016 magnetization 
 augmentation part      148.1666715 magnetization 

 Broyden mixing:
  rms(total) = 0.25860E+00    rms(broyden)= 0.25860E+00
  rms(prec ) = 0.29709E+00
  weight for this iteration     100.00

 eigenvalues of (default mixing * dielectric matrix)
  average eigenvalue GAMMA=   1.3603
  2.2780  1.7546  0.7673  0.6415

 Free energy of the ion-electron system (eV)
  ---------------------------------------------------
  alpha Z        PSCENC =       656.31070834
  Ewald energy   TEWEN  =    -21520.87002723
  -Hartree energ DENC   =    -10844.83609928
  -exchange      EXHF   =         0.00000000
  -V(xc)+E(xc)   XCENC  =      1164.57955044
  PAW double counting   =     38925.28119813   -42035.82088186
  entropy T*S    EENTRO =         0.09847470
  eigenvalues    EBANDS =     -5810.74513327
  atomic energy  EATOM  =     39162.21106953
  Solvation  Ediel_sol  =         0.00000000
  ---------------------------------------------------
  free energy    TOTEN  =      -303.79114050 eV

  energy without entropy =     -303.88961520  energy(sigma->0) =     -303.82396540


--------------------------------------------------------------------------------------------------------




--------------------------------------- Iteration      1(  10)  ---------------------------------------


    POTLOK:  cpu time      0.2640: real time      0.2645
    SETDIJ:  cpu time      0.2016: real time      0.2017
    EDDIAG:  cpu time      0.7722: real time      0.7728
  RMM-DIIS:  cpu time      8.6750: real time      8.6832
    ORTHCH:  cpu time      0.0866: real time      0.0866
       DOS:  cpu time      0.0005: real time      0.0006
    CHARGE:  cpu time      0.5838: real time      0.5843
    MIXING:  cpu time      0.0076: real time      0.0076
    --------------------------------------------
      LOOP:  cpu time     10.5913: real time     10.6014

 eigenvalue-minimisations  :   720
 total energy-change (2. order) : 0.1578161E+00  (-0.1974901E-01)
 number of electron     489.0000016 magnetization 
 augmentation part      148.1746125 magnetization 

 Broyden mixing:
  rms(total) = 0.17766E+00    rms(broyden)= 0.17766E+00
  rms(prec ) = 0.19525E+00
  weight for this iteration     100.00

 eigenvalues of (default mixing * dielectric matrix)
  average eigenvalue GAMMA=   1.1751
  2.0727  1.7398  0.8682  0.5973  0.5973

 Free energy of the ion-electron system (eV)
  ---------------------------------------------------
  alpha Z        PSCENC =       656.31070834
  Ewald energy   TEWEN  =    -21520.87002723
  -Hartree energ DENC   =    -10849.65091211
  -exchange      EXHF   =         0.00000000
  -V(xc)+E(xc)   XCENC  =      1164.92970342
  PAW double counting   =     38631.02713784   -41740.92622287
  entropy T*S    EENTRO =         0.12650913
  eigenvalues    EBANDS =     -5806.79129046
  atomic energy  EATOM  =     39162.21106953
  Solvation  Ediel_sol  =         0.00000000
  ---------------------------------------------------
  free energy    TOTEN  =      -303.63332440 eV

  energy without entropy =     -303.75983353  energy(sigma->0) =     -303.67549411


--------------------------------------------------------------------------------------------------------




--------------------------------------- Iteration      1(  11)  ---------------------------------------


    POTLOK:  cpu time      0.2634: real time      0.2638
    SETDIJ:  cpu time      0.2020: real time      0.2020
    EDDIAG:  cpu time      0.7708: real time      0.7713
  RMM-DIIS:  cpu time      9.8327: real time      9.8402
    ORTHCH:  cpu time      0.0872: real time      0.0872
       DOS:  cpu time      0.0004: real time      0.0006
    CHARGE:  cpu time      0.5847: real time      0.5850
    MIXING:  cpu time      0.0076: real time      0.0076
    --------------------------------------------
      LOOP:  cpu time     11.7488: real time     11.7578

 eigenvalue-minimisations  :   804
 total energy-change (2. order) : 0.2800045E-01  (-0.7768269E-02)
 number of electron     489.0000016 magnetization 
 augmentation part      148.1863400 magnetization 

 Broyden mixing:
  rms(total) = 0.12018E+00    rms(broyden)= 0.12018E+00
  rms(prec ) = 0.12711E+00
  weight for this iteration     100.00

 eigenvalues of (default mixing * dielectric matrix)
  average eigenvalue GAMMA=   1.2635
  2.0198  2.0198  1.5791  0.9172  0.5227  0.5227

 Free energy of the ion-electron system (eV)
  ---------------------------------------------------
  alpha Z        PSCENC =       656.31070834
  Ewald energy   TEWEN  =    -21520.87002723
  -Hartree energ DENC   =    -10852.13203469
  -exchange      EXHF   =         0.00000000
  -V(xc)+E(xc)   XCENC  =      1165.08994632
  PAW double counting   =     38441.68737842   -41551.34245867
  entropy T*S    EENTRO =         0.12454623
  eigenvalues    EBANDS =     -5804.68445221
  atomic energy  EATOM  =     39162.21106953
  Solvation  Ediel_sol  =         0.00000000
  ---------------------------------------------------
  free energy    TOTEN  =      -303.60532396 eV

  energy without entropy =     -303.72987019  energy(sigma->0) =     -303.64683937


--------------------------------------------------------------------------------------------------------




--------------------------------------- Iteration      1(  12)  ---------------------------------------


    POTLOK:  cpu time      0.2640: real time      0.2644
    SETDIJ:  cpu time      0.2029: real time      0.2030
    EDDIAG:  cpu time      0.7714: real time      0.7718
  RMM-DIIS:  cpu time      8.3797: real time      8.3851
    ORTHCH:  cpu time      0.0866: real time      0.0866
       DOS:  cpu time      0.0004: real time      0.0005
    CHARGE:  cpu time      0.5841: real time      0.5846
    MIXING:  cpu time      0.0077: real time      0.0077
    --------------------------------------------
      LOOP:  cpu time     10.2968: real time     10.3037

 eigenvalue-minimisations  :   698
 total energy-change (2. order) :-0.1178583E-01  (-0.7594824E-02)
 number of electron     489.0000016 magnetization 
 augmentation part      148.2217361 magnetization 

 Broyden mixing:
  rms(total) = 0.10163E+00    rms(broyden)= 0.10163E+00
  rms(prec ) = 0.12222E+00
  weight for this iteration     100.00

 eigenvalues of (default mixing * dielectric matrix)
  average eigenvalue GAMMA=   1.2271
  2.1697  2.1697  1.6609  0.7447  0.7447  0.6920  0.4082

 Free energy of the ion-electron system (eV)
  ---------------------------------------------------
  alpha Z        PSCENC =       656.31070834
  Ewald energy   TEWEN  =    -21520.87002723
  -Hartree energ DENC   =    -10855.46661046
  -exchange      EXHF   =         0.00000000
  -V(xc)+E(xc)   XCENC  =      1165.30765006
  PAW double counting   =     38043.56068387   -41152.96558760
  entropy T*S    EENTRO =         0.11977575
  eigenvalues    EBANDS =     -5801.82477206
  atomic energy  EATOM  =     39162.21106953
  Solvation  Ediel_sol  =         0.00000000
  ---------------------------------------------------
  free energy    TOTEN  =      -303.61710979 eV

  energy without entropy =     -303.73688554  energy(sigma->0) =     -303.65703504


--------------------------------------------------------------------------------------------------------




--------------------------------------- Iteration      1(  13)  ---------------------------------------


    POTLOK:  cpu time      0.2646: real time      0.2649
    SETDIJ:  cpu time      0.2025: real time      0.2025
    EDDIAG:  cpu time      0.7743: real time      0.7750
  RMM-DIIS:  cpu time      8.5213: real time      8.5271
    ORTHCH:  cpu time      0.0860: real time      0.0860
       DOS:  cpu time      0.0004: real time      0.0006
    CHARGE:  cpu time      0.5852: real time      0.5856
    MIXING:  cpu time      0.0077: real time      0.0077
    --------------------------------------------
      LOOP:  cpu time     10.4420: real time     10.4493

 eigenvalue-minimisations  :   704
 total energy-change (2. order) : 0.8556785E-02  (-0.1921934E-02)
 number of electron     489.0000016 magnetization 
 augmentation part      148.2229661 magnetization 

 Broyden mixing:
  rms(total) = 0.64171E-01    rms(broyden)= 0.64171E-01
  rms(prec ) = 0.71068E-01
  weight for this iteration     100.00

 eigenvalues of (default mixing * dielectric matrix)
  average eigenvalue GAMMA=   1.2318
  2.4443  2.4443  1.4360  1.0117  1.0117  0.5601  0.5601  0.3863

 Free energy of the ion-electron system (eV)
  ---------------------------------------------------
  alpha Z        PSCENC =       656.31070834
  Ewald energy   TEWEN  =    -21520.87002723
  -Hartree energ DENC   =    -10855.49304437
  -exchange      EXHF   =         0.00000000
  -V(xc)+E(xc)   XCENC  =      1165.38976603
  PAW double counting   =     38081.38565486   -41190.97359618
  entropy T*S    EENTRO =         0.13480834
  eigenvalues    EBANDS =     -5801.70389233
  atomic energy  EATOM  =     39162.21106953
  Solvation  Ediel_sol  =         0.00000000
  ---------------------------------------------------
  free energy    TOTEN  =      -303.60855300 eV

  energy without entropy =     -303.74336135  energy(sigma->0) =     -303.65348912


--------------------------------------------------------------------------------------------------------




--------------------------------------- Iteration      1(  14)  ---------------------------------------


    POTLOK:  cpu time      0.2634: real time      0.2641
    SETDIJ:  cpu time      0.2030: real time      0.2030
    EDDIAG:  cpu time      0.7745: real time      0.7750
  RMM-DIIS:  cpu time     10.1704: real time     10.1771
    ORTHCH:  cpu time      0.0866: real time      0.0866
       DOS:  cpu time      0.0004: real time      0.0006
    CHARGE:  cpu time      0.5824: real time      0.5829
    MIXING:  cpu time      0.0173: real time      0.0173
    --------------------------------------------
      LOOP:  cpu time     12.0980: real time     12.1067

 eigenvalue-minimisations  :   672
 total energy-change (2. order) :-0.4000765E-02  (-0.1773382E-02)
 number of electron     489.0000016 magnetization 
 augmentation part      148.2014209 magnetization 

 Broyden mixing:
  rms(total) = 0.38152E-01    rms(broyden)= 0.38151E-01
  rms(prec ) = 0.50054E-01
  weight for this iteration     100.00

 eigenvalues of (default mixing * dielectric matrix)
  average eigenvalue GAMMA=   1.1954
  2.5166  2.5166  1.3642  1.3642  0.7329  0.7329  0.5705  0.5705  0.3905

 Free energy of the ion-electron system (eV)
  ---------------------------------------------------
  alpha Z        PSCENC =       656.31070834
  Ewald energy   TEWEN  =    -21520.87002723
  -Hartree energ DENC   =    -10853.20331876
  -exchange      EXHF   =         0.00000000
  -V(xc)+E(xc)   XCENC  =      1165.39638699
  PAW double counting   =     38248.17898062   -41358.21931342
  entropy T*S    EENTRO =         0.12973017
  eigenvalues    EBANDS =     -5803.54677002
  atomic energy  EATOM  =     39162.21106953
  Solvation  Ediel_sol  =         0.00000000
  ---------------------------------------------------
  free energy    TOTEN  =      -303.61255377 eV

  energy without entropy =     -303.74228394  energy(sigma->0) =     -303.65579716


--------------------------------------------------------------------------------------------------------




--------------------------------------- Iteration      1(  15)  ---------------------------------------


    POTLOK:  cpu time      0.2634: real time      0.2640
    SETDIJ:  cpu time      0.2047: real time      0.2051
    EDDIAG:  cpu time      0.7724: real time      0.7730
  RMM-DIIS:  cpu time      8.5395: real time      8.5453
    ORTHCH:  cpu time      0.0860: real time      0.0860
       DOS:  cpu time      0.0004: real time      0.0006
    CHARGE:  cpu time      0.5840: real time      0.5844
    MIXING:  cpu time      0.0082: real time      0.0082
    --------------------------------------------
      LOOP:  cpu time     10.4585: real time     10.4665

 eigenvalue-minimisations  :   704
 total energy-change (2. order) : 0.2199541E-02  (-0.4702613E-03)
 number of electron     489.0000016 magnetization 
 augmentation part      148.1931698 magnetization 

 Broyden mixing:
  rms(total) = 0.33628E-01    rms(broyden)= 0.33628E-01
  rms(prec ) = 0.38153E-01
  weight for this iteration     100.00

 eigenvalues of (default mixing * dielectric matrix)
  average eigenvalue GAMMA=   1.1547
  2.5254  2.5254  1.6096  1.0599  1.0599  0.6617  0.6617  0.5289  0.5289  0.3858

 Free energy of the ion-electron system (eV)
  ---------------------------------------------------
  alpha Z        PSCENC =       656.31070834
  Ewald energy   TEWEN  =    -21520.87002723
  -Hartree energ DENC   =    -10852.72081794
  -exchange      EXHF   =         0.00000000
  -V(xc)+E(xc)   XCENC  =      1165.38917410
  PAW double counting   =     38244.73863921   -41354.87018159
  entropy T*S    EENTRO =         0.12470206
  eigenvalues    EBANDS =     -5803.92362071
  atomic energy  EATOM  =     39162.21106953
  Solvation  Ediel_sol  =         0.00000000
  ---------------------------------------------------
  free energy    TOTEN  =      -303.61035423 eV

  energy without entropy =     -303.73505628  energy(sigma->0) =     -303.65192158


--------------------------------------------------------------------------------------------------------




--------------------------------------- Iteration      1(  16)  ---------------------------------------


    POTLOK:  cpu time      0.2631: real time      0.2634
    SETDIJ:  cpu time      0.2033: real time      0.2034
    EDDIAG:  cpu time      0.7753: real time      0.7761
  RMM-DIIS:  cpu time      8.4249: real time      8.4303
    ORTHCH:  cpu time      0.0864: real time      0.0864
       DOS:  cpu time      0.0004: real time      0.0005
    CHARGE:  cpu time      0.5810: real time      0.5818
    MIXING:  cpu time      0.0090: real time      0.0090
    --------------------------------------------
      LOOP:  cpu time     10.3433: real time     10.3508

 eigenvalue-minimisations  :   688
 total energy-change (2. order) : 0.1457089E-02  (-0.2322164E-03)
 number of electron     489.0000016 magnetization 
 augmentation part      148.2012628 magnetization 

 Broyden mixing:
  rms(total) = 0.12831E-01    rms(broyden)= 0.12831E-01
  rms(prec ) = 0.13379E-01
  weight for this iteration     100.00

 eigenvalues of (default mixing * dielectric matrix)
  average eigenvalue GAMMA=   1.2196
  2.7790  2.7790  1.8107  1.2698  1.2698  0.7463  0.7463  0.5771  0.5771  0.4776
  0.3831

 Free energy of the ion-electron system (eV)
  ---------------------------------------------------
  alpha Z        PSCENC =       656.31070834
  Ewald energy   TEWEN  =    -21520.87002723
  -Hartree energ DENC   =    -10853.85185131
  -exchange      EXHF   =         0.00000000
  -V(xc)+E(xc)   XCENC  =      1165.46325662
  PAW double counting   =     38178.10947375   -41288.16931987
  entropy T*S    EENTRO =         0.12815274
  eigenvalues    EBANDS =     -5802.94035971
  atomic energy  EATOM  =     39162.21106953
  Solvation  Ediel_sol  =         0.00000000
  ---------------------------------------------------
  free energy    TOTEN  =      -303.60889714 eV

  energy without entropy =     -303.73704987  energy(sigma->0) =     -303.65161472


--------------------------------------------------------------------------------------------------------




--------------------------------------- Iteration      1(  17)  ---------------------------------------


    POTLOK:  cpu time      0.2632: real time      0.2637
    SETDIJ:  cpu time      0.2037: real time      0.2037
    EDDIAG:  cpu time      0.7759: real time      0.7765
  RMM-DIIS:  cpu time      8.2851: real time      8.2909
    ORTHCH:  cpu time      0.0870: real time      0.0870
       DOS:  cpu time      0.0004: real time      0.0005
    CHARGE:  cpu time      0.5856: real time      0.5861
    MIXING:  cpu time      0.0093: real time      0.0093
    --------------------------------------------
      LOOP:  cpu time     10.2102: real time     10.2178

 eigenvalue-minimisations  :   682
 total energy-change (2. order) :-0.4779016E-03  (-0.1567316E-03)
 number of electron     489.0000016 magnetization 
 augmentation part      148.2058877 magnetization 

 Broyden mixing:
  rms(total) = 0.95199E-02    rms(broyden)= 0.95197E-02
  rms(prec ) = 0.12844E-01
  weight for this iteration     100.00

 eigenvalues of (default mixing * dielectric matrix)
  average eigenvalue GAMMA=   1.2300
  2.8921  2.8921  1.6878  1.6878  1.0748  1.0748  0.6972  0.6972  0.5794  0.5464
  0.5464  0.3841

 Free energy of the ion-electron system (eV)
  ---------------------------------------------------
  alpha Z        PSCENC =       656.31070834
  Ewald energy   TEWEN  =    -21520.87002723
  -Hartree energ DENC   =    -10854.42636950
  -exchange      EXHF   =         0.00000000
  -V(xc)+E(xc)   XCENC  =      1165.51328026
  PAW double counting   =     38140.98947478   -41251.08762116
  entropy T*S    EENTRO =         0.12889740
  eigenvalues    EBANDS =     -5802.37878746
  atomic energy  EATOM  =     39162.21106953
  Solvation  Ediel_sol  =         0.00000000
  ---------------------------------------------------
  free energy    TOTEN  =      -303.60937504 eV

  energy without entropy =     -303.73827244  energy(sigma->0) =     -303.65234084


--------------------------------------------------------------------------------------------------------




--------------------------------------- Iteration      1(  18)  ---------------------------------------


    POTLOK:  cpu time      0.2635: real time      0.2637
    SETDIJ:  cpu time      0.2032: real time      0.2033
    EDDIAG:  cpu time      0.7765: real time      0.7769
  RMM-DIIS:  cpu time      8.2622: real time      8.2678
    ORTHCH:  cpu time      0.0867: real time      0.0867
       DOS:  cpu time      0.0005: real time      0.0006
    CHARGE:  cpu time      0.5844: real time      0.5849
    MIXING:  cpu time      0.0092: real time      0.0092
    --------------------------------------------
      LOOP:  cpu time     10.1860: real time     10.1931

 eigenvalue-minimisations  :   692
 total energy-change (2. order) : 0.1357638E-03  (-0.2921086E-04)
 number of electron     489.0000016 magnetization 
 augmentation part      148.2036579 magnetization 

 Broyden mixing:
  rms(total) = 0.41280E-02    rms(broyden)= 0.41276E-02
  rms(prec ) = 0.47660E-02
  weight for this iteration     100.00

 eigenvalues of (default mixing * dielectric matrix)
  average eigenvalue GAMMA=   1.1801
  2.8607  2.6286  1.7486  1.7486  1.0283  1.0283  0.9808  0.6726  0.6726  0.5353
  0.5353  0.5179  0.3836

 Free energy of the ion-electron system (eV)
  ---------------------------------------------------
  alpha Z        PSCENC =       656.31070834
[...]
   0.117E+01 0.292E+01 -.526E+02   -.174E+01 -.221E+01 0.510E+02   0.569E+00 -.714E+00 0.159E+01   0.814E-03 0.435E-03 -.379E-04
   -.776E+01 -.684E+00 0.562E+02   0.794E+01 0.137E+01 -.546E+02   -.171E+00 -.690E+00 -.153E+01   0.182E-02 0.143E-02 0.160E-02
   -.162E+02 0.524E+01 0.417E+01   0.166E+02 -.604E+01 -.677E+01   -.477E+00 0.813E+00 0.259E+01   -.212E-03 -.368E-03 0.111E-02
   -.288E+01 0.250E+01 -.523E+02   0.346E+01 -.182E+01 0.506E+02   -.588E+00 -.683E+00 0.170E+01   0.303E-03 0.762E-03 0.355E-03
   0.153E+02 -.170E+02 0.268E+01   -.160E+02 0.158E+02 -.456E+01   0.612E+00 0.118E+01 0.188E+01   -.529E-03 -.190E-02 -.670E-03
   -.182E+01 -.239E+01 0.266E+02   0.239E+01 0.175E+01 -.248E+02   -.572E+00 0.646E+00 -.181E+01   -.105E-02 -.485E-03 -.144E-02
   0.377E+01 -.292E+01 0.271E+02   -.429E+01 0.218E+01 -.253E+02   0.523E+00 0.746E+00 -.178E+01   0.679E-03 0.336E-04 -.721E-03
   0.114E+01 0.313E+01 0.540E+02   -.137E+01 -.229E+01 -.526E+02   0.234E+00 -.846E+00 -.140E+01   0.208E-03 0.277E-02 0.206E-02
   -.150E+02 -.696E+01 0.113E+02   0.154E+02 0.631E+01 -.122E+02   -.361E+00 0.651E+00 0.853E+00   -.258E-03 -.129E-03 -.328E-02
   0.151E+02 -.469E+01 0.534E+01   -.152E+02 0.413E+01 -.460E+01   0.995E-01 0.567E+00 -.741E+00   0.132E-02 0.958E-04 -.455E-03
   -.261E+01 0.998E+01 0.121E+02   0.232E+01 -.946E+01 -.130E+02   0.291E+00 -.530E+00 0.879E+00   -.451E-03 0.909E-03 0.799E-03
   0.145E+02 -.710E+01 0.119E+02   -.149E+02 0.648E+01 -.128E+02   0.384E+00 0.619E+00 0.860E+00   0.163E-02 0.960E-03 -.233E-02
   0.189E+02 0.532E+01 -.343E+02   -.193E+02 -.474E+01 0.350E+02   0.344E+00 -.572E+00 -.686E+00   0.387E-03 -.279E-02 -.208E-02
   -.144E+02 0.807E+01 -.329E+02   0.148E+02 -.734E+01 0.337E+02   -.377E+00 -.728E+00 -.817E+00   0.847E-05 -.468E-03 -.835E-03
   -.157E+02 -.933E+01 0.591E+01   0.161E+02 0.857E+01 -.523E+01   -.392E+00 0.755E+00 -.694E+00   -.228E-03 0.155E-02 0.752E-03
   -.350E+02 -.931E+01 0.155E+01   0.343E+02 0.932E+01 -.142E+01   0.656E+00 -.915E-02 -.129E+00   -.177E-02 -.226E-03 -.282E-02
   0.438E+02 -.464E+01 0.183E+02   -.430E+02 0.473E+01 -.188E+02   -.739E+00 -.891E-01 0.429E+00   -.164E-03 0.266E-02 -.129E-03
   0.240E+02 0.112E+02 0.210E+02   -.231E+02 -.111E+02 -.212E+02   -.899E+00 -.107E+00 0.155E+00   0.211E-02 -.905E-03 0.320E-02
   0.355E+02 -.861E+01 0.269E+01   -.348E+02 0.863E+01 -.249E+01   -.634E+00 -.236E-01 -.203E+00   0.823E-03 0.153E-02 -.185E-02
   0.222E+01 0.111E+02 0.414E+02   -.298E+01 -.110E+02 -.415E+02   0.769E+00 -.926E-01 0.125E+00   -.392E-02 -.351E-02 0.141E-02
   0.348E+02 0.747E+01 -.324E+02   -.340E+02 -.746E+01 0.323E+02   -.740E+00 -.665E-03 0.171E+00   -.102E-02 -.320E-02 -.194E-03
   -.351E+02 0.840E+01 -.302E+02   0.345E+02 -.836E+01 0.300E+02   0.627E+00 -.434E-01 0.166E+00   -.218E-03 0.142E-02 0.810E-03
   -.400E+02 -.773E+01 0.140E+02   0.396E+02 0.776E+01 -.144E+02   0.414E+00 -.425E-01 0.436E+00   0.201E-02 0.387E-02 0.143E-02
   -.172E+02 0.613E+01 -.131E+02   0.153E+02 -.544E+01 0.122E+02   0.195E+01 -.694E+00 0.847E+00   -.418E-03 -.326E-03 -.457E-02
   0.168E+02 0.732E+01 0.300E+02   -.150E+02 -.637E+01 -.292E+02   -.177E+01 -.947E+00 -.780E+00   0.283E-02 -.853E-04 -.363E-02
   0.905E+01 -.899E+01 -.347E+02   -.724E+01 0.827E+01 0.344E+02   -.181E+01 0.712E+00 0.324E+00   -.239E-02 0.113E-02 0.456E-03
   0.163E+02 0.736E+01 -.118E+02   -.144E+02 -.645E+01 0.110E+02   -.187E+01 -.913E+00 0.852E+00   0.208E-02 0.111E-02 -.105E-02
   0.503E+01 -.605E+01 -.417E+02   -.667E+01 0.524E+01 0.413E+02   0.165E+01 0.818E+00 0.458E+00   0.987E-03 -.209E-02 0.266E-02
   0.243E+02 -.250E+02 -.171E+02   -.227E+02 0.237E+02 0.184E+02   -.166E+01 0.137E+01 -.125E+01   0.345E-02 -.174E-02 0.104E-03
   -.409E+02 0.881E+00 -.142E+02   0.392E+02 -.214E+01 0.155E+02   0.166E+01 0.126E+01 -.134E+01   -.222E-02 0.203E-03 0.153E-02
   -.178E+02 0.736E+01 0.320E+02   0.158E+02 -.651E+01 -.312E+02   0.198E+01 -.852E+00 -.817E+00   -.683E-03 0.157E-02 -.837E-03
   0.220E+02 -.554E+01 -.627E+01   -.205E+02 0.458E+01 0.690E+01   -.148E+01 0.973E+00 -.639E+00   -.275E-02 -.902E-04 0.600E-02
   -.314E+02 -.919E+01 -.256E+02   0.302E+02 0.832E+01 0.253E+02   0.115E+01 0.880E+00 0.290E+00   0.153E-02 -.146E-02 0.275E-02
   -.266E+02 0.762E+01 -.126E+01   0.253E+02 -.673E+01 0.175E+01   0.127E+01 -.895E+00 -.495E+00   -.146E-02 0.122E-03 -.326E-02
   -.131E+02 -.110E+02 -.619E+01   0.118E+02 0.102E+02 0.655E+01   0.139E+01 0.810E+00 -.370E+00   -.296E-02 -.153E-02 0.415E-02
   0.271E+02 0.702E+01 -.103E+01   -.258E+02 -.614E+01 0.145E+01   -.128E+01 -.882E+00 -.430E+00   0.746E-03 0.132E-02 -.187E-02
   -.258E+02 0.646E+01 0.242E+02   0.246E+02 -.542E+01 -.246E+02   0.118E+01 -.105E+01 0.421E+00   0.190E-02 0.143E-02 -.641E-03
   0.300E+02 0.787E+01 0.209E+02   -.288E+02 -.687E+01 -.213E+02   -.127E+01 -.100E+01 0.411E+00   0.222E-02 0.134E-02 -.280E-02
   0.270E+02 -.673E+01 -.380E+02   -.259E+02 0.590E+01 0.376E+02   -.115E+01 0.831E+00 0.463E+00   -.323E-03 -.242E-02 -.113E-03
   -.182E+02 -.262E+01 0.799E+00   0.182E+02 0.321E+01 -.872E+00   -.821E-01 -.593E+00 0.725E-01   0.132E-02 0.556E-03 0.149E-02
   -.112E+02 0.454E+01 -.610E+01   0.109E+02 -.407E+01 0.642E+01   0.323E+00 -.461E+00 -.319E+00   0.367E-03 -.418E-03 0.123E-03
   -.103E+02 -.360E+01 -.390E+01   0.100E+02 0.304E+01 0.376E+01   0.265E+00 0.561E+00 0.145E+00   -.601E-03 0.386E-05 -.119E-02
   0.643E+01 0.165E+02 0.596E+01   -.674E+01 -.151E+02 -.592E+01   0.313E+00 -.144E+01 -.569E-01   -.125E-03 -.350E-04 0.144E-02
   0.104E+02 -.369E+01 -.336E+01   -.101E+02 0.313E+01 0.320E+01   -.287E+00 0.550E+00 0.156E+00   0.726E-03 0.452E-05 -.129E-02
   -.139E+02 -.290E+01 0.133E+02   0.136E+02 0.236E+01 -.132E+02   0.265E+00 0.531E+00 -.102E+00   -.911E-06 0.300E-05 -.341E-03
   0.105E+02 -.378E+01 0.110E+02   -.103E+02 0.327E+01 -.109E+02   -.247E+00 0.506E+00 -.132E+00   -.363E-04 0.353E-04 -.293E-03
   0.119E+02 0.518E+01 -.783E+01   -.117E+02 -.466E+01 0.817E+01   -.263E+00 -.514E+00 -.343E+00   -.436E-03 0.405E-05 0.253E-03
   0.356E+02 0.209E+02 0.224E+02   -.362E+02 -.208E+02 -.214E+02   0.591E+00 -.112E+00 -.944E+00   0.975E-03 -.102E-02 0.357E-02
   -.829E+01 -.217E+01 0.163E+02   0.892E+01 0.204E+01 -.173E+02   -.631E+00 0.135E+00 0.104E+01   -.108E-02 0.238E-02 0.462E-03
   -.964E+01 0.304E+01 -.391E+02   0.103E+02 -.291E+01 0.401E+02   -.629E+00 -.125E+00 -.107E+01   0.687E-04 -.222E-02 -.438E-02
   -.322E+02 -.206E+02 0.731E+01   0.328E+02 0.204E+02 -.624E+01   -.562E+00 0.188E+00 -.107E+01   0.206E-02 0.213E-02 -.901E-03
   0.866E+01 0.258E+01 -.398E+02   -.928E+01 -.245E+01 0.408E+02   0.621E+00 -.127E+00 -.106E+01   0.942E-03 -.142E-02 -.286E-02
   -.121E+02 0.187E+01 0.551E+02   0.128E+02 -.172E+01 -.562E+02   -.646E+00 -.150E+00 0.110E+01   -.370E-02 -.283E-02 0.136E-02
   0.524E+01 0.300E+01 0.525E+02   -.591E+01 -.290E+01 -.535E+02   0.675E+00 -.105E+00 0.106E+01   -.108E-02 -.223E-02 -.729E-03
   0.105E+02 -.259E+01 0.169E+02   -.111E+02 0.247E+01 -.179E+02   0.642E+00 0.120E+00 0.104E+01   0.126E-02 0.424E-03 0.644E-03
   -.116E+02 0.177E+02 -.782E+01   0.116E+02 -.185E+02 0.745E+01   0.401E-02 0.759E+00 0.374E+00   -.658E-03 0.110E-02 -.292E-02
   0.116E+02 0.171E+02 0.183E+02   -.115E+02 -.179E+02 -.180E+02   -.298E-01 0.739E+00 -.313E+00   -.727E-03 -.226E-02 0.747E-03
   -.315E+02 -.121E+01 0.539E+00   0.316E+02 0.206E+01 -.910E+00   -.888E-01 -.846E+00 0.364E+00   0.281E-02 -.265E-02 0.197E-02
   0.108E+02 0.174E+02 -.636E+01   -.108E+02 -.181E+02 0.599E+01   -.613E-02 0.751E+00 0.372E+00   0.127E-02 -.290E-03 -.391E-02
   0.282E+02 -.496E+02 0.745E+01   -.288E+02 0.501E+02 -.763E+01   0.600E+00 -.532E+00 0.181E+00   0.252E-02 0.381E-02 0.493E-02
   0.138E+02 -.182E+02 -.141E+02   -.138E+02 0.189E+02 0.145E+02   0.454E-02 -.720E+00 -.352E+00   -.103E-02 0.285E-02 0.143E-02
   -.113E+02 -.189E+02 -.126E+02   0.114E+02 0.197E+02 0.129E+02   -.201E-01 -.735E+00 -.342E+00   -.583E-03 0.102E-02 0.718E-03
   -.142E+02 0.162E+02 0.250E+02   0.142E+02 -.169E+02 -.246E+02   -.357E-02 0.746E+00 -.323E+00   -.106E-02 -.185E-02 -.886E-03
   -.397E+02 0.837E+01 -.136E+02   0.404E+02 -.860E+01 0.133E+02   -.672E+00 0.231E+00 0.305E+00   0.117E-02 0.721E-03 -.837E-04
   0.307E+02 0.424E+01 -.747E+01   -.313E+02 -.433E+01 0.771E+01   0.565E+00 0.838E-01 -.251E+00   -.143E-02 -.976E-03 0.587E-03
   0.418E+02 -.476E+01 0.291E+02   -.425E+02 0.492E+01 -.293E+02   0.697E+00 -.154E+00 0.278E+00   0.153E-03 -.855E-03 0.196E-02
   0.357E+02 0.660E+01 -.151E+02   -.364E+02 -.676E+01 0.148E+02   0.686E+00 0.167E+00 0.268E+00   -.139E-02 0.388E-02 -.142E-02
   -.391E+02 -.149E+01 0.361E+02   0.398E+02 0.164E+01 -.365E+02   -.730E+00 -.151E+00 0.378E+00   -.104E-02 -.105E-02 -.232E-02
   0.390E+02 -.511E+01 -.121E+02   -.398E+02 0.527E+01 0.124E+02   0.712E+00 -.167E+00 -.314E+00   0.471E-04 -.171E-02 -.334E-02
   -.383E+02 -.533E+01 -.127E+02   0.391E+02 0.550E+01 0.130E+02   -.713E+00 -.178E+00 -.305E+00   -.125E-02 -.495E-03 -.164E-02
   -.265E+02 0.103E+02 -.467E+01   0.272E+02 -.105E+02 0.497E+01   -.688E+00 0.173E+00 -.297E+00   0.359E-02 0.271E-02 0.135E-02
   -.127E+02 -.127E+02 -.231E+02   0.133E+02 0.128E+02 0.239E+02   -.605E+00 -.734E-01 -.764E+00   -.109E-02 -.106E-02 -.610E-03
   0.131E+02 -.116E+02 0.381E+02   -.136E+02 0.117E+02 -.389E+02   0.561E+00 -.689E-01 0.818E+00   0.113E-02 -.387E-03 0.209E-03
   0.617E+01 0.142E+02 -.474E+02   -.669E+01 -.143E+02 0.483E+02   0.509E+00 0.764E-01 -.887E+00   0.252E-02 -.132E-02 0.134E-02
   0.119E+02 -.115E+02 -.221E+02   -.124E+02 0.116E+02 0.229E+02   0.558E+00 -.575E-01 -.788E+00   -.325E-03 -.126E-02 -.281E-02
   -.450E+00 0.159E+02 -.515E+02   0.961E+00 -.160E+02 0.524E+02   -.508E+00 0.980E-01 -.876E+00   -.432E-02 0.259E-02 0.237E-02
   0.315E+02 0.439E+02 -.834E+01   -.321E+02 -.440E+02 0.766E+01   0.640E+00 0.581E-01 0.676E+00   -.699E-03 0.757E-03 0.186E-02
   -.480E+02 -.157E+02 -.126E+02   0.486E+02 0.156E+02 0.118E+02   -.618E+00 0.663E-01 0.803E+00   0.450E-02 0.164E-02 0.552E-02
   -.128E+02 -.115E+02 0.386E+02   0.134E+02 0.116E+02 -.394E+02   -.598E+00 -.639E-01 0.805E+00   -.102E-02 -.154E-02 -.155E-02
 -----------------------------------------------------------------------------------------------
   -.102E+00 -.397E+00 0.681E+00   -.764E-13 0.409E-13 0.213E-13   0.931E-01 0.395E+00 -.678E+00   0.857E-02 0.167E-02 -.355E-02


 POSITION                                       TOTAL-FORCE (eV/Angst)
 -----------------------------------------------------------------------------------
      4.20537      6.44687     10.79833        -0.000449      0.000018     -0.001061
      7.76179      2.86469     -0.00577         0.004919     -0.004427     -0.004298
      2.00950      0.60445     21.47412         0.002407      0.007665      0.001574
      1.83825      2.88622     10.78970        -0.000749     -0.002578      0.001500
      4.16920      4.28671     21.61768        -0.000139      0.000374     -0.004506
      7.89307      0.64550     10.85358        -0.000027      0.004781     -0.000077
     10.26329      4.18908     10.85250        -0.000009      0.001377     -0.003544
     10.28954      6.44009     -0.04816         0.002439      0.001881      0.004186
      3.48366      3.90866      7.85348         0.004295      0.001417      0.008366
      8.63667      0.35281      2.92213        -0.009929      0.006664     -0.001390
      2.58814      3.17966     18.73605         0.004002     -0.006729      0.010764
      2.56869      0.35681      7.84768        -0.005655      0.000657      0.005209
      8.62454      3.18792     13.82479        -0.007870      0.006663     -0.002699
      9.53187      6.72271     13.80981         0.003766      0.003641     -0.002594
      9.50584      3.88631      2.95675         0.010579     -0.001348     -0.008614
      6.69081      3.98289      9.42298        -0.001299      0.003779     -0.000440
      5.41456      0.43356      1.47171         0.002127     -0.000225     -0.008990
     11.43616      3.10023     20.24796         0.000798     -0.004996     -0.002972
     11.46787      0.42943      9.40800         0.001202      0.000974      0.000664
      6.54413      6.68925     20.21338         0.005657      0.008766      0.010652
      5.39964      3.11242     12.26273         0.001769      0.005345     -0.000335
      0.64822      6.64413     12.24631        -0.002487     -0.003802     -0.001816
      0.58953      3.94676      1.42225        -0.000695     -0.005783      0.002795
      7.06335      2.73718      5.48808        -0.001782     -0.002851     -0.003583
      5.02095      6.27264      5.35103        -0.001794     -0.002833      0.009625
     11.14239      4.34260     16.30618         0.000560     -0.003048      0.005982
     11.08762      6.26621      5.46998        -0.006393     -0.004138     -0.007538
      7.07014      0.86247     16.29419        -0.001670      0.001748     -0.006660
      4.85680      4.61538     16.31000        -0.002000      0.007844      0.005468
      1.12278      0.84124     16.23819         0.006292     -0.000116      0.001444
      1.01383      2.71509      5.33375         0.003588     -0.003976      0.003232
     10.13950      0.72227     17.96919         0.010830      0.009884     -0.009870
      1.99322      4.29171     14.46725        -0.001270      0.006479      0.000400
      8.03939      6.34041      7.15110        -0.002049     -0.002404     -0.003511
      8.05779      4.30505     18.00197         0.010405     -0.006285     -0.001743
     10.12167      2.77936      7.15483        -0.000637     -0.003156     -0.005402
      1.95731      6.31281      3.63648        -0.004237     -0.001508      0.004501
      4.04619      2.78168      3.65301        -0.004226     -0.007737      0.009814
      4.08058      0.79250     14.49957        -0.002789      0.000674      0.008605
      0.61257      5.92411     18.91856        -0.012880     -0.004356      0.000192
     11.61661      2.34690     13.54537         0.004474      0.001264     -0.005415
      5.55646      1.18316      8.10541         0.001377     -0.000677      0.001341
      5.58101      2.34070     18.93256        -0.001202     -0.001648     -0.010513
      0.49661      4.72533      8.09638        -0.002730     -0.002883     -0.001374
     11.59562      1.16374      2.69593        -0.004694     -0.001774      0.003382
      6.53374      4.73162      2.71228        -0.002289     -0.004891      0.006655
      6.53625      5.90957     13.55552        -0.005338      0.006592     -0.002200
      4.57962      1.59394     20.83144        -0.004480     -0.002115     -0.006296
      7.63617      5.01521     11.76125         0.003589      0.007679     -0.001516
      1.58114      5.61117      9.90187         0.001733     -0.001664     -0.000556
      1.53553      4.97886     20.77394         0.005119      0.008113     -0.003103
      4.47401      2.07162      9.91106         0.000209      0.000288      0.001753
      7.58897      5.60877      0.88531        -0.001884     -0.006540      0.000805
     10.45544      2.04834      0.92443        -0.000552      0.000485     -0.004691
     10.52531      1.46543     11.74094        -0.000054      0.002038      0.000337
      5.41982      6.02145      8.16081         0.001386     -0.001880      0.001089
      6.68954      2.47853      2.69068         0.001294     -0.001886      0.000524
      0.61957      1.08096     19.00636         0.002295      0.001833     -0.004152
      0.63915      2.46984      8.15270        -0.002893     -0.002492     -0.001326
      5.44773      4.57073     19.03676         0.007200     -0.001074      0.009046
      6.69974      1.07087     13.48627        -0.005125      0.004842      0.001025
     11.46261      4.60433     13.48835        -0.000223     -0.000683      0.001464
     11.42738      6.00407      2.65391         0.007075     -0.001485      0.001299
      1.70355      1.73185     13.49209        -0.000244      0.002419      0.002621
     10.49577      5.26945     18.91171        -0.003895     -0.001932     -0.009914
      4.34739      5.35151      2.69618        -0.001335      0.002899      0.005714
      4.34485      5.31318     13.49644         0.001588      0.008306     -0.002980
      1.68026      1.77908      2.64792        -0.003229     -0.004025      0.002187
     10.40982      5.34936      8.13996         0.000590     -0.004076     -0.004271
      7.74449      1.81163      8.14545        -0.002465     -0.002618      0.000044
      7.76196      1.68622     18.93507         0.006573      0.006635      0.002552
      7.63413      5.38880      4.60225        -0.001384     -0.004679      0.003549
      4.46685      1.82880      6.20385         0.001579      0.003085     -0.001867
     10.54914      1.70418     15.44777        -0.002595     -0.004474     -0.002298
     10.52203      1.81686      4.61247        -0.001385     -0.003703     -0.002164
      7.59001      5.27929     15.47016        -0.001227     -0.000701      0.004302
      4.46810      1.81828     17.02507         0.003343     -0.008131     -0.002546
      1.64346      5.24713     17.00568        -0.002207      0.001229      0.008309
      1.58531      5.36876      6.19429        -0.002596     -0.000009     -0.004144
 -----------------------------------------------------------------------------------
    total drift:                               -0.000239     -0.000646     -0.000351


--------------------------------------------------------------------------------------------------------



  FREE ENERGIE OF THE ION-ELECTRON SYSTEM (eV)
  ---------------------------------------------------
  free  energy   TOTEN  =      -303.82288394 eV

  energy  without entropy=     -303.96777773  energy(sigma->0) =     -303.87118187

 d Force = 0.5993566E-03[ 0.396E-03, 0.803E-03]  d Energy = 0.5950558E-03 0.430E-05
 d Force = 0.2422256E+00[ 0.238E+00, 0.246E+00]  d Ewald  = 0.2422251E+00 0.445E-06


--------------------------------------------------------------------------------------------------------


    POTLOK:  cpu time      0.4632: real time      0.4662


--------------------------------------------------------------------------------------------------------


 Conjugate gradient step on ions:
 trial-energy change:   -0.000595  1 .order   -0.000599   -0.000803   -0.000396
  (g-gl).g = 0.300E-03      g.g   = 0.509E-03  gl.gl    = 0.803E-03
 g(Force)  = 0.509E-03   g(Stress)= 0.000E+00 ortho     = 0.421E-05
 gamma     =   0.37402
 trial     =   1.57325
 opt step  =   3.34531  (harmonic =   3.10613) maximal distance =0.00640096
 next E    =  -303.823101   (d E  =  -0.00081)


--------------------------------------------------------------------------------------------------------


  
 reached required accuracy - stopping structural energy minimisation
 writing wavefunctions
     LOOP+:  cpu time    103.6652: real time    103.9943
    4ORBIT:  cpu time      0.0000: real time      0.0000

 total amount of memory used by VASP MPI-rank0   232203. kBytes
=======================================================================

   base      :      30000. kBytes
   nonl-proj :      68560. kBytes
   fftplans  :      61044. kBytes
   grid      :      57848. kBytes
   one-center:        242. kBytes
   wavefun   :      14509. kBytes

  
  
 General timing and accounting informations for this job:
 ========================================================
  
                  Total CPU time used (sec):     4516.144
                            User time (sec):     4430.341
                          System time (sec):       85.803
                         Elapsed time (sec):     4540.261
  
                   Maximum memory used (kb):      488736.
                   Average memory used (kb):          N/A
  
                          Minor page faults:      3151819
                          Major page faults:          191
                 Voluntary context switches:         1888
