 vasp.6.3.2 27Jun22 (build Mar 25 2024 10:42:18) complex                         
 executed on             LinuxGNU date 2024.03.29  15:54:14
 running on   32 total cores
 distrk:  each k-point on   32 cores,    1 groups
 distr:  one band on NCORE=   1 cores,   32 groups


--------------------------------------------------------------------------------------------------------


 INCAR:
   ISTART = 0
   ICHARG = 2
   PREC = Accurate
   IBRION = -1
   EDIFF = 0.000000001
   EDIFFG = -0.0005
   NSW = 0
   NELM = 100
   ENCUT = 520
   ISMEAR = -5
   SIGMA = 0.05
   ISPIN = 2
   ISYM = 0
   LWAVE = False
   LCHARG = False
   LASPH = True
   LORBIT = 11
   ADDGRID = TRUE

 POTCAR:    PAW_PBE Na_pv 19Sep2006               
 POTCAR:    PAW_PBE S 06Sep2000                   
 -----------------------------------------------------------------------------
|                                                                             |
|           W    W    AA    RRRRR   N    N  II  N    N   GGGG   !!!           |
|           W    W   A  A   R    R  NN   N  II  NN   N  G    G  !!!           |
|           W    W  A    A  R    R  N N  N  II  N N  N  G       !!!           |
|           W WW W  AAAAAA  RRRRR   N  N N  II  N  N N  G  GGG   !            |
|           WW  WW  A    A  R   R   N   NN  II  N   NN  G    G                |
|           W    W  A    A  R    R  N    N  II  N    N   GGGG   !!!           |
|                                                                             |
|     You use a magnetic or noncollinear calculation, but did not specify     |
|     the initial magnetic moment with the MAGMOM tag. Note that a            |
|     default of 1 will be used for all atoms. This ferromagnetic setup       |
|     may break the symmetry of the crystal, in particular it may rule        |
|     out finding an antiferromagnetic solution. Thence, we recommend         |
|     setting the initial magnetic moment manually or verifying carefully     |
|     that this magnetic setup is desired.                                    |
|                                                                             |
 -----------------------------------------------------------------------------

 -----------------------------------------------------------------------------
|                                                                             |
|           W    W    AA    RRRRR   N    N  II  N    N   GGGG   !!!           |
|           W    W   A  A   R    R  NN   N  II  NN   N  G    G  !!!           |
|           W    W  A    A  R    R  N N  N  II  N N  N  G       !!!           |
|           W WW W  AAAAAA  RRRRR   N  N N  II  N  N N  G  GGG   !            |
|           WW  WW  A    A  R   R   N   NN  II  N   NN  G    G                |
|           W    W  A    A  R    R  N    N  II  N    N   GGGG   !!!           |
|                                                                             |
|     For optimal performance we recommend to set                             |
|       NCORE = 2 up to number-of-cores-per-socket                            |
|     NCORE specifies how many cores store one orbital (NPAR=cpu/NCORE).      |
|     This setting can greatly improve the performance of VASP for DFT.       |
|     The default, NCORE=1 might be grossly inefficient on modern             |
|     multi-core architectures or massively parallel machines. Do your        |
|     own testing! More info at https://www.vasp.at/wiki/index.php/NCORE      |
|     Unfortunately you need to use the default for GW and RPA                |
|     calculations (for HF NCORE is supported but not extensively tested      |
|     yet).                                                                   |
|                                                                             |
 -----------------------------------------------------------------------------

 POTCAR:    PAW_PBE Na_pv 19Sep2006               
   SHA256 =  6a2f546d9e11350984debacf3dc457d8cffc0868e817d445faca461816a32b94 Na_pv/POTCAR          
   COPYR  = (c) Copyright 19Sep2006 Georg Kresse                                                    
   COPYR  = This file is part of the software VASP. Any use, copying, and all other rights are regul
   COPYR  = If you do not have a valid VASP license, you may not use, copy or distribute this file. 
   VRHFIN =Na: p6s1                                                                                 
   LEXCH  = PE                                                                                      
   EATOM  =   766.0439 eV,   56.3026 Ry                                                             
                                                                                                    
   TITEL  = PAW_PBE Na_pv 19Sep2006                                                                 
   LULTRA =        F    use ultrasoft PP ?                                                          
   IUNSCR =        1    unscreen: 0-lin 1-nonlin 2-no                                               
   RPACOR =    1.800    partial core radius                                                         
   POMASS =   22.990; ZVAL   =    7.000    mass and valenz                                          
   RCORE  =    2.200    outmost cutoff radius                                                       
   RWIGS  =    2.200; RWIGS  =    1.164    wigner-seitz radius (au A)                               
   ENMAX  =  259.561; ENMIN  =  194.671 eV                                                          
   ICORE  =        2    local potential                                                             
   LCOR   =        T    correct aug charges                                                         
   LPAW   =        T    paw PP                                                                      
   EAUG   =  368.056                                                                                
   DEXC   =    0.000                                                                                
   RMAX   =    2.245    core radius for proj-oper                                                   
   RAUG   =    1.300    factor for augmentation sphere                                              
   RDEP   =    2.259    radius for radial grids                                                     
   RDEPT  =    1.738    core radius for aug-charge                                                  
                                                                                                    
   Atomic configuration                                                                             
    5 entries                                                                                       
     n  l   j            E        occ.                                                              
     1  0  0.50     -1033.6933   2.0000                                                             
     2  0  0.50       -56.7526   2.0000                                                             
     2  1  1.50       -28.6721   6.0000                                                             
     3  0  0.50        -2.7440   1.0000                                                             
     3  2  1.50        -1.3606   0.0000                                                             
   Description                                                                                      
     l       E           TYP  RCUT    TYP  RCUT                                                     
     1    -28.6720912     23  2.000                                                                 
     1      6.8029130     23  2.000                                                                 
     0     -2.7439560     23  2.200                                                                 
     0     34.0145650     23  2.200                                                                 
     2     -1.3605826     23  2.200                                                                 
  local pseudopotential read in
  partial core-charges read in
  partial kinetic energy density read in
  atomic valenz-charges read in
  non local Contribution for L=           1  read in
    real space projection operators read in
  non local Contribution for L=           1  read in
    real space projection operators read in
  non local Contribution for L=           0  read in
    real space projection operators read in
  non local Contribution for L=           0  read in
    real space projection operators read in
    PAW grid and wavefunctions read in

   number of l-projection  operators is LMAX  =           4
   number of lm-projection operators is LMMAX =           8

 POTCAR:    PAW_PBE S 06Sep2000                   
   SHA256 =  0fc7481fb0695f01bdc6462160264c5c84044ae9ec85a907d398b887a2bc3132 S/POTCAR              
   COPYR  = (c) Copyright 06Sep2000 Georg Kresse                                                    
   COPYR  = This file is part of the software VASP. Any use, copying, and all other rights are regul
   COPYR  = If you do not have a valid VASP license, you may not use, copy or distribute this file. 
   VRHFIN =S : s2p4                                                                                 
   LEXCH  = PE                                                                                      
   EATOM  =   276.8230 eV,   20.3459 Ry                                                             
                                                                                                    
   TITEL  = PAW_PBE S 06Sep2000                                                                     
   LULTRA =        F    use ultrasoft PP ?                                                          
   IUNSCR =        1    unscreen: 0-lin 1-nonlin 2-no                                               
   RPACOR =    1.500    partial core radius                                                         
   POMASS =   32.066; ZVAL   =    6.000    mass and valenz                                          
   RCORE  =    1.900    outmost cutoff radius                                                       
   RWIGS  =    2.200; RWIGS  =    1.164    wigner-seitz radius (au A)                               
   ENMAX  =  258.689; ENMIN  =  194.016 eV                                                          
   ICORE  =        2    local potential                                                             
   LCOR   =        T    correct aug charges                                                         
   LPAW   =        T    paw PP                                                                      
   EAUG   =  335.092                                                                                
   DEXC   =    0.000                                                                                
   RMAX   =    1.942    core radius for proj-oper                                                   
   RAUG   =    1.300    factor for augmentation sphere                                              
   RDEP   =    1.954    radius for radial grids                                                     
   RDEPT  =    1.744    core radius for aug-charge                                                  
                                                                                                    
   Atomic configuration                                                                             
    6 entries                                                                                       
     n  l   j            E        occ.                                                              
     1  0  0.50     -2405.8406   2.0000                                                             
     2  0  0.50      -211.7007   2.0000                                                             
     2  1  1.50      -156.4958   6.0000                                                             
     3  0  0.50       -17.2562   2.0000                                                             
     3  1  0.50        -7.0085   4.0000                                                             
     3  2  1.50        -6.8029   0.0000                                                             
   Description                                                                                      
     l       E           TYP  RCUT    TYP  RCUT                                                     
     0    -17.2561641     23  1.900                                                                 
     0    -15.8743224     23  1.900                                                                 
     1     -7.0085400     23  1.900                                                                 
     1     -2.7779785     23  1.900                                                                 
     2     -6.8029130     23  1.900                                                                 
  local pseudopotential read in
  partial core-charges read in
  partial kinetic energy density read in
  atomic valenz-charges read in
  non local Contribution for L=           0  read in
    real space projection operators read in
  non local Contribution for L=           0  read in
    real space projection operators read in
  non local Contribution for L=           1  read in
    real space projection operators read in
  non local Contribution for L=           1  read in
    real space projection operators read in
    PAW grid and wavefunctions read in

   number of l-projection  operators is LMAX  =           4
   number of lm-projection operators is LMMAX =           8

 -----------------------------------------------------------------------------
|                                                                             |
|               ----> ADVICE to this user running VASP <----                  |
|                                                                             |
|     You have a (more or less) 'large supercell' and for larger cells it     |
|     might be more efficient to use real-space projection operators.         |
|     Therefore, try LREAL= Auto in the INCAR file.                           |
|     Mind: For very accurate calculation, you might also keep the            |
|     reciprocal projection scheme (i.e. LREAL=.FALSE.).                      |
|                                                                             |
 -----------------------------------------------------------------------------

  PAW_PBE Na_pv 19Sep2006               :
 energy of atom  1       EATOM= -766.0439
 kinetic energy error for atom=    0.0019 (will be added to EATOM!!)
  PAW_PBE S 06Sep2000                   :
 energy of atom  2       EATOM= -276.8230
 kinetic energy error for atom=    0.0016 (will be added to EATOM!!)


 POSCAR: generated by phonopy
  positions in direct lattice
  No initial velocities read in
 exchange correlation table for  LEXCH =        8
   RHO(1)=    0.500       N(1)  =     2000
   RHO(2)=  100.500       N(2)  =     4000



--------------------------------------------------------------------------------------------------------


 ion  position               nearest neighbor table
   1  0.000  0.000  0.000-
   2  0.333  0.000  0.000-
   3  0.667  0.000  0.000-
   4  0.000  0.333  0.000-
   5  0.333  0.333  0.000-
   6  0.667  0.333  0.000-
   7  0.000  0.667  0.000-
   8  0.333  0.667  0.000-
   9  0.667  0.667  0.000-
  10  0.000  0.000  0.500-
  11  0.333  0.000  0.500-
  12  0.667  0.000  0.500-
  13  0.000  0.333  0.500-
  14  0.333  0.333  0.500-
  15  0.667  0.333  0.500-
  16  0.000  0.667  0.500-
  17  0.333  0.667  0.500-
  18  0.667  0.667  0.500-
  19  0.111  0.222  0.250-
  20  0.444  0.222  0.250-
  21  0.778  0.222  0.250-
  22  0.111  0.556  0.250-
  23  0.444  0.556  0.250-
  24  0.778  0.556  0.250-
  25  0.111  0.889  0.250-
  26  0.444  0.889  0.250-
  27  0.778  0.889  0.250-
  28  0.222  0.111  0.750-
  29  0.556  0.111  0.750-
  30  0.889  0.111  0.750-
  31  0.222  0.444  0.750-
  32  0.556  0.444  0.750-
  33  0.889  0.444  0.750-
  34  0.222  0.778  0.750-
  35  0.556  0.778  0.750-
  36  0.889  0.778  0.750-
  37  0.111  0.222  0.644-  64 2.18
  38  0.444  0.222  0.645-  65 2.17
  39  0.778  0.222  0.645-  66 2.17
  40  0.111  0.556  0.645-  67 2.17
  41  0.444  0.556  0.645-  68 2.17
  42  0.778  0.556  0.645-  69 2.17
  43  0.111  0.889  0.645-  70 2.17
  44  0.444  0.889  0.645-  71 2.17
  45  0.778  0.889  0.645-  72 2.17
  46  0.222  0.111  0.145-  55 2.17
  47  0.556  0.111  0.145-  56 2.17
  48  0.889  0.111  0.145-  57 2.17
  49  0.222  0.444  0.145-  58 2.17
  50  0.556  0.444  0.145-  59 2.17
  51  0.889  0.444  0.145-  60 2.17
  52  0.222  0.778  0.145-  61 2.17
  53  0.556  0.778  0.145-  62 2.17
  54  0.889  0.778  0.145-  63 2.17
  55  0.222  0.111  0.355-  46 2.17
  56  0.556  0.111  0.355-  47 2.17
  57  0.889  0.111  0.355-  48 2.17
  58  0.222  0.444  0.355-  49 2.17
  59  0.556  0.444  0.355-  50 2.17
  60  0.889  0.444  0.355-  51 2.17
  61  0.222  0.778  0.355-  52 2.17
  62  0.556  0.778  0.355-  53 2.17
  63  0.889  0.778  0.355-  54 2.17
  64  0.111  0.222  0.855-  37 2.18
  65  0.444  0.222  0.855-  38 2.17
  66  0.778  0.222  0.855-  39 2.17
  67  0.111  0.556  0.855-  40 2.17
  68  0.444  0.556  0.855-  41 2.17
  69  0.778  0.556  0.855-  42 2.17
  70  0.111  0.889  0.855-  43 2.17
  71  0.444  0.889  0.855-  44 2.17
  72  0.778  0.889  0.855-  45 2.17


IMPORTANT INFORMATION: All symmetrisations will be switched off!
NOSYMM: (Re-)initialisation of all symmetry stuff for point group C_1.


----------------------------------------------------------------------------------------

                                     Primitive cell                                     

  volume of cell :    1632.5578

  direct lattice vectors                    reciprocal lattice vectors
     6.766693413-11.720256790  0.000000000     0.073891334 -0.042661181  0.000000000
     6.766693413 11.720256790  0.000000000     0.073891334  0.042661181 -0.000000000
     0.000000000  0.000000000 10.292596541    -0.000000000  0.000000000  0.097157214

  length of vectors
    13.533386826 13.533386826 10.292596541     0.085322363  0.085322363  0.097157214

  position of ions in fractional coordinates (direct lattice)
     0.000000000  0.000000000  0.000000000
     0.333333333  0.000000000  0.000000000
     0.666666667  0.000000000  0.000000000
     0.000000000  0.333333333  0.000000000
     0.333333333  0.333333333  0.000000000
     0.666666667  0.333333333  0.000000000
     0.000000000  0.666666667  0.000000000
     0.333333333  0.666666667  0.000000000
     0.666666667  0.666666667  0.000000000
     0.000000000  0.000000000  0.500000000
     0.333333333  0.000000000  0.500000000
     0.666666667  0.000000000  0.500000000
     0.000000000  0.333333333  0.500000000
     0.333333333  0.333333333  0.500000000
     0.666666667  0.333333333  0.500000000
     0.000000000  0.666666667  0.500000000
     0.333333333  0.666666667  0.500000000
     0.666666667  0.666666667  0.500000000
     0.111111111  0.222222222  0.250000000
     0.444444444  0.222222222  0.250000000
     0.777777778  0.222222222  0.250000000
     0.111111111  0.555555556  0.250000000
     0.444444444  0.555555556  0.250000000
     0.777777778  0.555555556  0.250000000
     0.111111111  0.888888889  0.250000000
     0.444444444  0.888888889  0.250000000
     0.777777778  0.888888889  0.250000000
     0.222222222  0.111111111  0.750000000
     0.555555556  0.111111111  0.750000000
     0.888888889  0.111111111  0.750000000
     0.222222222  0.444444444  0.750000000
     0.555555556  0.444444444  0.750000000
     0.888888889  0.444444444  0.750000000
     0.222222222  0.777777778  0.750000000
     0.555555556  0.777777778  0.750000000
     0.888888889  0.777777778  0.750000000
     0.110522967  0.222222222  0.644026962
     0.444444444  0.222222222  0.644615105
     0.777777778  0.222222222  0.644615105
     0.111111111  0.555555556  0.644615105
     0.444444444  0.555555556  0.644615105
     0.777777778  0.555555556  0.644615105
     0.111111111  0.888888889  0.644615105
     0.444444444  0.888888889  0.644615105
     0.777777778  0.888888889  0.644615105
     0.222222222  0.111111111  0.144615105
     0.555555556  0.111111111  0.144615105
     0.888888889  0.111111111  0.144615105
     0.222222222  0.444444444  0.144615105
     0.555555556  0.444444444  0.144615105
     0.888888889  0.444444444  0.144615105
     0.222222222  0.777777778  0.144615105
     0.555555556  0.777777778  0.144615105
     0.888888889  0.777777778  0.144615105
     0.222222222  0.111111111  0.355384895
     0.555555556  0.111111111  0.355384895
     0.888888889  0.111111111  0.355384895
     0.222222222  0.444444444  0.355384895
     0.555555556  0.444444444  0.355384895
     0.888888889  0.444444444  0.355384895
     0.222222222  0.777777778  0.355384895
     0.555555556  0.777777778  0.355384895
     0.888888889  0.777777778  0.355384895
     0.111111111  0.222222222  0.855384895
     0.444444444  0.222222222  0.855384895
     0.777777778  0.222222222  0.855384895
     0.111111111  0.555555556  0.855384895
     0.444444444  0.555555556  0.855384895
     0.777777778  0.555555556  0.855384895
     0.111111111  0.888888889  0.855384895
     0.444444444  0.888888889  0.855384895
     0.777777778  0.888888889  0.855384895

  ion indices of the primitive-cell ions
   primitive index   ion index
                 1           1
                 2           2
                 3           3
                 4           4
                 5           5
                 6           6
                 7           7
                 8           8
                 9           9
                10          10
                11          11
                12          12
                13          13
                14          14
                15          15
                16          16
                17          17
                18          18
                19          19
                20          20
                21          21
                22          22
                23          23
                24          24
                25          25
                26          26
                27          27
                28          28
                29          29
                30          30
                31          31
                32          32
                33          33
                34          34
                35          35
                36          36
                37          37
                38          38
                39          39
                40          40
                41          41
                42          42
                43          43
                44          44
                45          45
                46          46
                47          47
                48          48
                49          49
                50          50
                51          51
                52          52
                53          53
                54          54
                55          55
                56          56
                57          57
                58          58
                59          59
                60          60
                61          61
                62          62
                63          63
                64          64
                65          65
                66          66
                67          67
                68          68
                69          69
                70          70
                71          71
                72          72

----------------------------------------------------------------------------------------



 KPOINTS: pymatgen with grid density = 727 / numbe

Automatic generation of k-mesh.
 Grid dimensions read from file:
 generate k-points for:    3    3    2

 Generating k-lattice:

  Cartesian coordinates                     Fractional coordinates (reciprocal lattice)
     0.024630445 -0.014220394  0.000000000     0.333333333  0.000000000  0.000000000
     0.024630445  0.014220394 -0.000000000     0.000000000  0.333333333  0.000000000
    -0.000000000  0.000000000  0.048578607     0.000000000  0.000000000  0.500000000

  Length of vectors
     0.028440788  0.028440788  0.048578607

  Shift w.r.t. Gamma in fractional coordinates (k-lattice)
     0.000000000  0.000000000  0.000000000

 TETIRR: Found     51 inequivalent tetrahedra from      108
 
 Subroutine IBZKPT returns following result:
 ===========================================
 
 Found     10 irreducible k-points:
 
 Following reciprocal coordinates:
            Coordinates               Weight
  0.000000  0.000000  0.000000      1.000000
  0.333333  0.000000  0.000000      2.000000
  0.000000  0.333333  0.000000      2.000000
 -0.333333  0.333333  0.000000      2.000000
  0.333333  0.333333  0.000000      2.000000
  0.000000  0.000000  0.500000      1.000000
  0.333333  0.000000  0.500000      2.000000
  0.000000  0.333333  0.500000      2.000000
 -0.333333  0.333333  0.500000      2.000000
  0.333333  0.333333  0.500000      2.000000
 
 Following cartesian coordinates:
            Coordinates               Weight
  0.000000  0.000000  0.000000      1.000000
  0.024630 -0.014220  0.000000      2.000000
  0.024630  0.014220  0.000000      2.000000
  0.000000  0.028441  0.000000      2.000000
  0.049261  0.000000  0.000000      2.000000
  0.000000  0.000000  0.048579      1.000000
  0.024630 -0.014220  0.048579      2.000000
  0.024630  0.014220  0.048579      2.000000
  0.000000  0.028441  0.048579      2.000000
  0.049261  0.000000  0.048579      2.000000
 


--------------------------------------------------------------------------------------------------------




 Dimension of arrays:
   k-points           NKPTS =     10   k-points in BZ     NKDIM =     10   number of bands    NBANDS=    320
   number of dos      NEDOS =    301   number of ions     NIONS =     72
   non local maximal  LDIM  =      4   non local SUM 2l+1 LMDIM =      8
   total plane-waves  NPLWV = 933120
   max r-space proj   IRMAX =      1   max aug-charges    IRDMAX= 144241
   dimension x,y,z NGX =   108 NGY =  108 NGZ =   80
   dimension x,y,z NGXF=   216 NGYF=  216 NGZF=  160
   support grid    NGXF=   432 NGYF=  432 NGZF=  320
   ions per type =              36  36
   NGX,Y,Z   is equivalent  to a cutoff of  13.27, 13.27, 12.92 a.u.
   NGXF,Y,Z  is equivalent  to a cutoff of  26.53, 26.53, 25.84 a.u.

 SYSTEM =  unknown system                          
 POSCAR =  generated by phonopy                    

 Startparameter for this run:
   NWRITE =      2    write-flag & timer
   PREC   = accura    normal or accurate (medium, high low for compatibility)
   ISTART =      0    job   : 0-new  1-cont  2-samecut
   ICHARG =      2    charge: 1-file 2-atom 10-const
   ISPIN  =      2    spin polarized calculation?
   LNONCOLLINEAR =      F non collinear calculations
   LSORBIT =      F    spin-orbit coupling
   INIWAV =      1    electr: 0-lowe 1-rand  2-diag
   LASPH  =      T    aspherical Exc in radial PAW
 Electronic Relaxation 1
   ENCUT  =  520.0 eV  38.22 Ry    6.18 a.u.  25.16 25.16 19.14*2*pi/ulx,y,z
   ENINI  =  520.0     initial cutoff
   ENAUG  =  368.1 eV  augmentation charge cutoff
   NELM   =    100;   NELMIN=  2; NELMDL= -5     # of ELM steps 
   EDIFF  = 0.1E-08   stopping-criterion for ELM
   LREAL  =      F    real-space projection
   NLSPLINE    = F    spline interpolate recip. space projectors
   LCOMPAT=      F    compatible to vasp.4.4
   GGA_COMPAT  = T    GGA compatible to vasp.4.4-vasp.4.6
   LMAXPAW     = -100 max onsite density
   LMAXMIX     =    2 max onsite mixed and CHGCAR
   VOSKOWN=      0    Vosko Wilk Nusair interpolation
   ROPT   =    0.00000   0.00000
 Ionic relaxation
   EDIFFG = -.5E-03   stopping-criterion for IOM
   NSW    =      0    number of steps for IOM
   NBLOCK =      1;   KBLOCK =      1    inner block; outer block 
   IBRION =     -1    ionic relax: 0-MD 1-quasi-New 2-CG
   NFREE  =      0    steps in history (QN), initial steepest desc. (CG)
   ISIF   =      2    stress and relaxation
   IWAVPR =     10    prediction:  0-non 1-charg 2-wave 3-comb
   ISYM   =      0    0-nonsym 1-usesym 2-fastsym
   LCORR  =      T    Harris-Foulkes like correction to forces

   POTIM  = 0.5000    time-step for ionic-motion
   TEIN   =    0.0    initial temperature
   TEBEG  =    0.0;   TEEND  =   0.0 temperature during run
   SMASS  =  -3.00    Nose mass-parameter (am)
   estimated Nose-frequenzy (Omega)   =  0.10E-29 period in steps = 0.13E+47 mass=  -0.419E-26a.u.
   SCALEE = 1.0000    scale energy and forces
   NPACO  =    256;   APACO  = 10.0  distance and # of slots for P.C.
   PSTRESS=    0.0 pullay stress

  Mass of Ions in am
   POMASS =  22.99 32.07
  Ionic Valenz
   ZVAL   =   7.00  6.00
  Atomic Wigner-Seitz radii
   RWIGS  =  -1.00 -1.00
  virtual crystal weights 
   VCA    =   1.00  1.00
   NELECT =     468.0000    total number of electrons
   NUPDOWN=      -1.0000    fix difference up-down

 DOS related values:
   EMIN   =  10.00;   EMAX   =-10.00  energy-range for DOS
   EFERMI =   0.00
   ISMEAR =    -5;   SIGMA  =   0.05  broadening in eV -4-tet -1-fermi 0-gaus

 Electronic relaxation 2 (details)
   IALGO  =     38    algorithm
   LDIAG  =      T    sub-space diagonalisation (order eigenvalues)
   LSUBROT=      F    optimize rotation matrix (better conditioning)
   TURBO    =      0    0=normal 1=particle mesh
   IRESTART =      0    0=no restart 2=restart with 2 vectors
   NREBOOT  =      0    no. of reboots
   NMIN     =      0    reboot dimension
   EREF     =   0.00    reference energy to select bands
   IMIX   =      4    mixing-type and parameters
     AMIX     =   0.40;   BMIX     =  1.00
     AMIX_MAG =   1.60;   BMIX_MAG =  1.00
     AMIN     =   0.10
     WC   =   100.;   INIMIX=   1;  MIXPRE=   1;  MAXMIX= -45

 Intra band minimization:
   WEIMIN = 0.0000     energy-eigenvalue tresh-hold
   EBREAK =  0.78E-12  absolut break condition
   DEPER  =   0.30     relativ break condition  

   TIME   =   0.40     timestep for ELM

  volume/ion in A,a.u.               =      22.67       153.01
  Fermi-wavevector in a.u.,A,eV,Ry     =   1.079445  2.039856 15.853534  1.165202
  Thomas-Fermi vector in A             =   2.215410

 Write flags
   LWAVE        =      F    write WAVECAR
   LDOWNSAMPLE  =      F    k-point downsampling of WAVECAR
   LCHARG       =      F    write CHGCAR
   LVTOT        =      F    write LOCPOT, total local potential
   LVHAR        =      F    write LOCPOT, Hartree potential only
   LELF         =      F    write electronic localiz. function (ELF)
   LORBIT       =     11    0 simple, 1 ext, 2 COOP (PROOUT), +10 PAW based schemes


 Dipole corrections
   LMONO  =      F    monopole corrections only (constant potential shift)
   LDIPOL =      F    correct potential (dipole corrections)
   IDIPOL =      0    1-x, 2-y, 3-z, 4-all directions 
   EPSILON=  1.0000000 bulk dielectric constant

 Exchange correlation treatment:
   GGA     =    --    GGA type
   LEXCH   =     8    internal setting for exchange type
   LIBXC   =     F    Libxc                    
   VOSKOWN =     0    Vosko Wilk Nusair interpolation
   LHFCALC =     F    Hartree Fock is set to
   LHFONE  =     F    Hartree Fock one center treatment
   AEXX    =    0.0000 exact exchange contribution

 Linear response parameters
   LEPSILON=     F    determine dielectric tensor
   LRPA    =     F    only Hartree local field effects (RPA)
   LNABLA  =     F    use nabla operator in PAW spheres
   LVEL    =     F    velocity operator in full k-point grid
   CSHIFT  =0.1000    complex shift for real part using Kramers Kronig
   OMEGAMAX=  -1.0    maximum frequency
   DEG_THRESHOLD= 0.2000000E-02 threshold for treating states as degnerate
   RTIME   =   -0.100 relaxation time in fs
  (WPLASMAI=    0.000 imaginary part of plasma frequency in eV, 0.658/RTIME)
   DFIELD  = 0.0000000 0.0000000 0.0000000 field for delta impulse in time

  Optional k-point grid parameters
   LKPOINTS_OPT  =     F    use optional k-point grid
   KPOINTS_OPT_MODE=     1    mode for optional k-point grid

 Orbital magnetization related:
   ORBITALMAG=     F  switch on orbital magnetization
   LCHIMAG   =     F  perturbation theory with respect to B field
   DQ        =  0.001000  dq finite difference perturbation B field
   LLRAUG    =     F  two centre corrections for induced B field



--------------------------------------------------------------------------------------------------------


 Static calculation
 charge density and potential will be updated during run
 spin polarized calculation
 Variant of blocked Davidson
 Davidson routine will perform the subspace rotation
 perform sub-space diagonalisation
    after iterative eigenvector-optimisation
 modified Broyden-mixing scheme, WC =      100.0
 initial mixing is a Kerker type mixing with AMIX =  0.4000 and BMIX =      1.0000
 Hartree-type preconditioning will be used
 using additional bands           86
 reciprocal scheme for non local part
 use partial core corrections
 calculate Harris-corrections to forces   (improved forces if not selfconsistent)
 use gradient corrections 
 use of overlap-Matrix (Vanderbilt PP)
 Fermi weights with tetrahedron method with Bloechl corrections


--------------------------------------------------------------------------------------------------------


  energy-cutoff  :      520.00
  volume of cell :     1632.56
      direct lattice vectors                 reciprocal lattice vectors
     6.766693413-11.720256790  0.000000000     0.073891334 -0.042661181  0.000000000
     6.766693413 11.720256790  0.000000000     0.073891334  0.042661181 -0.000000000
     0.000000000  0.000000000 10.292596541    -0.000000000  0.000000000  0.097157214

  length of vectors
    13.533386826 13.533386826 10.292596541     0.085322363  0.085322363  0.097157214



 k-points in units of 2pi/SCALE and weight: pymatgen with grid density = 727 / numbe
   0.00000000 -0.00000000  0.00000000       0.056
   0.02463044 -0.01422039  0.00000000       0.111
   0.02463044  0.01422039  0.00000000       0.111
   0.00000000  0.02844079  0.00000000       0.111
   0.04926089 -0.00000000  0.00000000       0.111
   0.00000000 -0.00000000  0.04857861       0.056
   0.02463044 -0.01422039  0.04857861       0.111
   0.02463044  0.01422039  0.04857861       0.111
   0.00000000  0.02844079  0.04857861       0.111
   0.04926089 -0.00000000  0.04857861       0.111

 k-points in reciprocal lattice and weights: pymatgen with grid density = 727 / numbe
   0.00000000  0.00000000  0.00000000       0.056
   0.33333333  0.00000000  0.00000000       0.111
   0.00000000  0.33333333  0.00000000       0.111
  -0.33333333  0.33333333  0.00000000       0.111
   0.33333333  0.33333333  0.00000000       0.111
   0.00000000  0.00000000  0.50000000       0.056
   0.33333333  0.00000000  0.50000000       0.111
   0.00000000  0.33333333  0.50000000       0.111
  -0.33333333  0.33333333  0.50000000       0.111
   0.33333333  0.33333333  0.50000000       0.111

 position of ions in fractional coordinates (direct lattice) 
   0.00000000  0.00000000  0.00000000
   0.33333333  0.00000000  0.00000000
   0.66666667  0.00000000  0.00000000
   0.00000000  0.33333333  0.00000000
   0.33333333  0.33333333  0.00000000
   0.66666667  0.33333333  0.00000000
   0.00000000  0.66666667  0.00000000
   0.33333333  0.66666667  0.00000000
   0.66666667  0.66666667  0.00000000
   0.00000000  0.00000000  0.50000000
   0.33333333  0.00000000  0.50000000
   0.66666667  0.00000000  0.50000000
   0.00000000  0.33333333  0.50000000
   0.33333333  0.33333333  0.50000000
   0.66666667  0.33333333  0.50000000
   0.00000000  0.66666667  0.50000000
   0.33333333  0.66666667  0.50000000
   0.66666667  0.66666667  0.50000000
   0.11111111  0.22222222  0.25000000
   0.44444444  0.22222222  0.25000000
   0.77777778  0.22222222  0.25000000
   0.11111111  0.55555556  0.25000000
   0.44444444  0.55555556  0.25000000
   0.77777778  0.55555556  0.25000000
   0.11111111  0.88888889  0.25000000
   0.44444444  0.88888889  0.25000000
   0.77777778  0.88888889  0.25000000
   0.22222222  0.11111111  0.75000000
   0.55555556  0.11111111  0.75000000
   0.88888889  0.11111111  0.75000000
   0.22222222  0.44444444  0.75000000
   0.55555556  0.44444444  0.75000000
   0.88888889  0.44444444  0.75000000
   0.22222222  0.77777778  0.75000000
   0.55555556  0.77777778  0.75000000
   0.88888889  0.77777778  0.75000000
   0.11052297  0.22222222  0.64402696
   0.44444444  0.22222222  0.64461511
   0.77777778  0.22222222  0.64461511
   0.11111111  0.55555556  0.64461511
   0.44444444  0.55555556  0.64461511
   0.77777778  0.55555556  0.64461511
   0.11111111  0.88888889  0.64461511
   0.44444444  0.88888889  0.64461511
   0.77777778  0.88888889  0.64461511
   0.22222222  0.11111111  0.14461511
   0.55555556  0.11111111  0.14461511
   0.88888889  0.11111111  0.14461511
   0.22222222  0.44444444  0.14461511
   0.55555556  0.44444444  0.14461511
   0.88888889  0.44444444  0.14461511
   0.22222222  0.77777778  0.14461511
   0.55555556  0.77777778  0.14461511
   0.88888889  0.77777778  0.14461511
   0.22222222  0.11111111  0.35538489
   0.55555556  0.11111111  0.35538489
   0.88888889  0.11111111  0.35538489
   0.22222222  0.44444444  0.35538489
   0.55555556  0.44444444  0.35538489
   0.88888889  0.44444444  0.35538489
   0.22222222  0.77777778  0.35538489
   0.55555556  0.77777778  0.35538489
   0.88888889  0.77777778  0.35538489
   0.11111111  0.22222222  0.85538489
   0.44444444  0.22222222  0.85538489
   0.77777778  0.22222222  0.85538489
   0.11111111  0.55555556  0.85538489
   0.44444444  0.55555556  0.85538489
   0.77777778  0.55555556  0.85538489
   0.11111111  0.88888889  0.85538489
   0.44444444  0.88888889  0.85538489
   0.77777778  0.88888889  0.85538489

 position of ions in cartesian coordinates  (Angst):
   0.00000000  0.00000000  0.00000000
   2.25556447 -3.90675226  0.00000000
   4.51112894 -7.81350453  0.00000000
   2.25556447  3.90675226  0.00000000
   4.51112894  0.00000000  0.00000000
   6.76669341 -3.90675226  0.00000000
   4.51112894  7.81350453  0.00000000
   6.76669341  3.90675226  0.00000000
   9.02225788 -0.00000000  0.00000000
   0.00000000  0.00000000  5.14629827
   2.25556447 -3.90675226  5.14629827
   4.51112894 -7.81350453  5.14629827
   2.25556447  3.90675226  5.14629827
   4.51112894  0.00000000  5.14629827
   6.76669341 -3.90675226  5.14629827
   4.51112894  7.81350453  5.14629827
   6.76669341  3.90675226  5.14629827
   9.02225788 -0.00000000  5.14629827
   2.25556447  1.30225075  2.57314914
   4.51112894 -2.60450151  2.57314914
   6.76669341 -6.51125377  2.57314914
   4.51112894  5.20900302  2.57314914
   6.76669341  1.30225075  2.57314914
   9.02225788 -2.60450151  2.57314914
   6.76669341  9.11575528  2.57314914
   9.02225788  5.20900302  2.57314914
  11.27782235  1.30225075  2.57314914
   2.25556447 -1.30225075  7.71944741
   4.51112894 -5.20900302  7.71944741
   6.76669341 -9.11575528  7.71944741
   4.51112894  2.60450151  7.71944741
   6.76669341 -1.30225075  7.71944741
   9.02225788 -5.20900302  7.71944741
   6.76669341  6.51125377  7.71944741
   9.02225788  2.60450151  7.71944741
  11.27782235 -1.30225075  7.71944741
   2.25158468  1.30914395  6.62870968
   4.51112894 -2.60450151  6.63476320
   6.76669341 -6.51125377  6.63476320
   4.51112894  5.20900302  6.63476320
   6.76669341  1.30225075  6.63476320
   9.02225788 -2.60450151  6.63476320
   6.76669341  9.11575528  6.63476320
   9.02225788  5.20900302  6.63476320
  11.27782235  1.30225075  6.63476320
   2.25556447 -1.30225075  1.48846493
   4.51112894 -5.20900302  1.48846493
   6.76669341 -9.11575528  1.48846493
   4.51112894  2.60450151  1.48846493
   6.76669341 -1.30225075  1.48846493
   9.02225788 -5.20900302  1.48846493
   6.76669341  6.51125377  1.48846493
   9.02225788  2.60450151  1.48846493
  11.27782235 -1.30225075  1.48846493
   2.25556447 -1.30225075  3.65783334
   4.51112894 -5.20900302  3.65783334
   6.76669341 -9.11575528  3.65783334
   4.51112894  2.60450151  3.65783334
   6.76669341 -1.30225075  3.65783334
   9.02225788 -5.20900302  3.65783334
   6.76669341  6.51125377  3.65783334
   9.02225788  2.60450151  3.65783334
  11.27782235 -1.30225075  3.65783334
   2.25556447  1.30225075  8.80413161
   4.51112894 -2.60450151  8.80413161
   6.76669341 -6.51125377  8.80413161
   4.51112894  5.20900302  8.80413161
   6.76669341  1.30225075  8.80413161
   9.02225788 -2.60450151  8.80413161
   6.76669341  9.11575528  8.80413161
   9.02225788  5.20900302  8.80413161
  11.27782235  1.30225075  8.80413161



--------------------------------------------------------------------------------------------------------


 k-point   1 :   0.0000 0.0000 0.0000  plane waves:   44013
 k-point   2 :   0.3333 0.0000 0.0000  plane waves:   43952
 k-point   3 :   0.0000 0.3333 0.0000  plane waves:   43952
 k-point   4 :  -0.3333 0.3333 0.0000  plane waves:   43952
 k-point   5 :   0.3333 0.3333 0.0000  plane waves:   43929
 k-point   6 :   0.0000 0.0000 0.5000  plane waves:   43946
 k-point   7 :   0.3333 0.0000 0.5000  plane waves:   43984
 k-point   8 :   0.0000 0.3333 0.5000  plane waves:   43984
 k-point   9 :  -0.3333 0.3333 0.5000  plane waves:   43984
 k-point  10 :   0.3333 0.3333 0.5000  plane waves:   43986

 maximum and minimum number of plane-waves per node :     44013    43929

 maximum number of plane-waves:     44013
 maximum index in each direction: 
   IXMAX=   25   IYMAX=   25   IZMAX=   19
   IXMIN=  -25   IYMIN=  -25   IZMIN=  -19


 serial   3D FFT for wavefunctions
 parallel 3D FFT for charge:
    minimum data exchange during FFTs selected (reduces bandwidth)


 total amount of memory used by VASP MPI-rank0   413811. kBytes
=======================================================================

   base      :      30000. kBytes
   nonl-proj :     107085. kBytes
   fftplans  :      38970. kBytes
   grid      :      94569. kBytes
   one-center:        442. kBytes
   wavefun   :     142745. kBytes

     INWAV:  cpu time      0.0000: real time      0.0002
 Broyden mixing: mesh for mixing (old mesh)
   NGX = 51   NGY = 51   NGZ = 39
  (NGX  =216   NGY  =216   NGZ  =160)
  gives a total of 101439 points

 initial charge density was supplied:
 charge density of overlapping atoms calculated
 number of electron     468.0000000 magnetization      72.0000000
 keeping initial charge density in first step


--------------------------------------------------------------------------------------------------------


 Maximum index for augmentation-charges         5089 (set IRDMAX)


--------------------------------------------------------------------------------------------------------


 First call to EWALD:  gamma=   0.151
 Maximum number of real-space cells 3x 3x 3
 Maximum number of reciprocal cells 3x 3x 2

    FEWALD:  cpu time      0.0032: real time      0.0032


--------------------------------------- Iteration      1(   1)  ---------------------------------------


    POTLOK:  cpu time      0.5950: real time      0.6006
    SETDIJ:  cpu time     11.1892: real time     11.1898
     EDDAV:  cpu time     96.4603: real time     96.4702
 BZINTS: Fermi energy:   16.538419;  468.000000 electrons
         Band energy:-0.290254E+03;  BLOECHL correction:   -0.113539
       DOS:  cpu time      0.1231: real time      0.1231
    --------------------------------------------
      LOOP:  cpu time    108.3677: real time    108.3838

 eigenvalue-minimisations  : 13312
 total energy-change (2. order) : 0.4949402E+04  (-0.2155927E+05)
 number of electron     468.0000000 magnetization      72.0000000
 augmentation part      468.0000000 magnetization      72.0000000

 Free energy of the ion-electron system (eV)
  ---------------------------------------------------
  alpha Z        PSCENC =       709.13725613
  Ewald energy   TEWEN  =    -21667.56229845
  -Hartree energ DENC   =     -9608.67668035
  -exchange      EXHF   =         0.00000000
  -V(xc)+E(xc)   XCENC  =      1335.10190222
  PAW double counting   =     25905.63174358   -28977.05906808
  entropy T*S    EENTRO =         0.00000000
  eigenvalues    EBANDS =      -290.25439274
  atomic energy  EATOM  =     37543.08313351
  Solvation  Ediel_sol  =         0.00000000
  ---------------------------------------------------
  free energy    TOTEN  =      4949.40159582 eV

  energy without entropy =     4949.40159582  energy(sigma->0) =     4949.40159582


--------------------------------------------------------------------------------------------------------




--------------------------------------- Iteration      1(   2)  ---------------------------------------


     EDDAV:  cpu time     92.6222: real time     92.6413
 BZINTS: Fermi energy:    6.018913;  468.000000 electrons
         Band energy:-0.473962E+04;  BLOECHL correction:   -0.254645
       DOS:  cpu time      0.1244: real time      0.1244
    --------------------------------------------
      LOOP:  cpu time     92.7466: real time     92.7658

 eigenvalue-minimisations  : 13024
 total energy-change (2. order) :-0.4449367E+04  (-0.4238693E+04)
 number of electron     468.0000000 magnetization      72.0000000
 augmentation part      468.0000000 magnetization      72.0000000

 Free energy of the ion-electron system (eV)
  ---------------------------------------------------
  alpha Z        PSCENC =       709.13725613
  Ewald energy   TEWEN  =    -21667.56229845
  -Hartree energ DENC   =     -9608.67668035
  -exchange      EXHF   =         0.00000000
  -V(xc)+E(xc)   XCENC  =      1335.10190222
  PAW double counting   =     25905.63174358   -28977.05906808
  entropy T*S    EENTRO =         0.00000000
  eigenvalues    EBANDS =     -4739.62101962
  atomic energy  EATOM  =     37543.08313351
  Solvation  Ediel_sol  =         0.00000000
  ---------------------------------------------------
  free energy    TOTEN  =       500.03496895 eV

  energy without entropy =      500.03496895  energy(sigma->0) =      500.03496895


--------------------------------------------------------------------------------------------------------




--------------------------------------- Iteration      1(   3)  ---------------------------------------


     EDDAV:  cpu time    101.6350: real time    101.6465
 BZINTS: Fermi energy:    1.884056;  468.000000 electrons
         Band energy:-0.543763E+04;  BLOECHL correction:    0.000000
       DOS:  cpu time      0.0738: real time      0.0739
    --------------------------------------------
      LOOP:  cpu time    101.7088: real time    101.7204

 eigenvalue-minimisations  : 15840
 total energy-change (2. order) :-0.6980140E+03  (-0.6781624E+03)
 number of electron     468.0000000 magnetization      72.0000000
 augmentation part      468.0000000 magnetization      72.0000000

 Free energy of the ion-electron system (eV)
  ---------------------------------------------------
  alpha Z        PSCENC =       709.13725613
  Ewald energy   TEWEN  =    -21667.56229845
  -Hartree energ DENC   =     -9608.67668035
  -exchange      EXHF   =         0.00000000
  -V(xc)+E(xc)   XCENC  =      1335.10190222
  PAW double counting   =     25905.63174358   -28977.05906808
  entropy T*S    EENTRO =         0.00000000
  eigenvalues    EBANDS =     -5437.63499218
  atomic energy  EATOM  =     37543.08313351
  Solvation  Ediel_sol  =         0.00000000
  ---------------------------------------------------
  free energy    TOTEN  =      -197.97900361 eV

  energy without entropy =     -197.97900361  energy(sigma->0) =     -197.97900361


--------------------------------------------------------------------------------------------------------




--------------------------------------- Iteration      1(   4)  ---------------------------------------


     EDDAV:  cpu time    123.2372: real time    123.2496
 BZINTS: Fermi energy:    1.337530;  468.000000 electrons
         Band energy:-0.548128E+04;  BLOECHL correction:   -0.000000
       DOS:  cpu time      0.0697: real time      0.0697
    --------------------------------------------
      LOOP:  cpu time    123.3068: real time    123.3193

 eigenvalue-minimisations  : 15776
 total energy-change (2. order) :-0.4364676E+02  (-0.4319117E+02)
 number of electron     468.0000000 magnetization      72.0000000
 augmentation part      468.0000000 magnetization      72.0000000

 Free energy of the ion-electron system (eV)
  ---------------------------------------------------
  alpha Z        PSCENC =       709.13725613
  Ewald energy   TEWEN  =    -21667.56229845
  -Hartree energ DENC   =     -9608.67668035
  -exchange      EXHF   =         0.00000000
  -V(xc)+E(xc)   XCENC  =      1335.10190222
  PAW double counting   =     25905.63174358   -28977.05906808
  entropy T*S    EENTRO =         0.00000000
  eigenvalues    EBANDS =     -5481.28175115
  atomic energy  EATOM  =     37543.08313351
  Solvation  Ediel_sol  =         0.00000000
  ---------------------------------------------------
  free energy    TOTEN  =      -241.62576259 eV

  energy without entropy =     -241.62576259  energy(sigma->0) =     -241.62576259


--------------------------------------------------------------------------------------------------------




--------------------------------------- Iteration      1(   5)  ---------------------------------------


     EDDAV:  cpu time    132.8402: real time    132.8513
 BZINTS: Fermi energy:    1.334208;  468.000000 electrons
         Band energy:-0.548261E+04;  BLOECHL correction:    0.000000
       DOS:  cpu time      0.0702: real time      0.0702
    CHARGE:  cpu time     10.7250: real time     10.7277
    MIXING:  cpu time      0.0152: real time      0.0152
    --------------------------------------------
      LOOP:  cpu time    143.6505: real time    143.6644

 eigenvalue-minimisations  : 16448
 total energy-change (2. order) :-0.1328210E+01  (-0.1325337E+01)
 number of electron     468.0000004 magnetization      46.2827372
 augmentation part      130.0385525 magnetization      47.0964175

 Broyden mixing:
  rms(total) = 0.59541E+01    rms(broyden)= 0.59541E+01
  rms(prec ) = 0.61022E+01
  weight for this iteration     100.00

 Free energy of the ion-electron system (eV)
  ---------------------------------------------------
  alpha Z        PSCENC =       709.13725613
  Ewald energy   TEWEN  =    -21667.56229845
  -Hartree energ DENC   =     -9608.67668035
  -exchange      EXHF   =         0.00000000
  -V(xc)+E(xc)   XCENC  =      1335.10190222
  PAW double counting   =     25905.63174358   -28977.05906808
  entropy T*S    EENTRO =         0.00000000
  eigenvalues    EBANDS =     -5482.60996107
  atomic energy  EATOM  =     37543.08313351
  Solvation  Ediel_sol  =         0.00000000
  ---------------------------------------------------
  free energy    TOTEN  =      -242.95397251 eV

  energy without entropy =     -242.95397251  energy(sigma->0) =     -242.95397251


--------------------------------------------------------------------------------------------------------




--------------------------------------- Iteration      1(   6)  ---------------------------------------


    POTLOK:  cpu time      0.4809: real time      0.4833
    SETDIJ:  cpu time     11.5752: real time     11.5756
     EDDAV:  cpu time    106.7793: real time    106.7870
 BZINTS: Fermi energy:    1.669277;  468.000000 electrons
         Band energy:-0.542023E+04;  BLOECHL correction:    0.000000
       DOS:  cpu time      0.0699: real time      0.0699
    CHARGE:  cpu time     14.8655: real time     14.8661
    MIXING:  cpu time      0.0151: real time      0.0151
    --------------------------------------------
      LOOP:  cpu time    133.7858: real time    133.7970

 eigenvalue-minimisations  : 14080
 total energy-change (2. order) : 0.3024156E+02  (-0.7627216E+01)
 number of electron     468.0000004 magnetization      32.2080509
 augmentation part      131.1036292 magnetization      31.8740007

 Broyden mixing:
  rms(total) = 0.30213E+01    rms(broyden)= 0.30213E+01
  rms(prec ) = 0.31141E+01
  weight for this iteration     100.00

 eigenvalues of (default mixing * dielectric matrix)
  average eigenvalue GAMMA=   0.7582
  0.7582

 Free energy of the ion-electron system (eV)
  ---------------------------------------------------
  alpha Z        PSCENC =       709.13725613
  Ewald energy   TEWEN  =    -21667.56229845
  -Hartree energ DENC   =     -9663.37613956
  -exchange      EXHF   =         0.00000000
  -V(xc)+E(xc)   XCENC  =      1356.47544416
  PAW double counting   =     29102.14239643   -32172.37873569
  entropy T*S    EENTRO =         0.00000000
  eigenvalues    EBANDS =     -5420.23346783
  atomic energy  EATOM  =     37543.08313351
  Solvation  Ediel_sol  =         0.00000000
  ---------------------------------------------------
  free energy    TOTEN  =      -212.71241129 eV

  energy without entropy =     -212.71241129  energy(sigma->0) =     -212.71241129


--------------------------------------------------------------------------------------------------------




--------------------------------------- Iteration      1(   7)  ---------------------------------------


    POTLOK:  cpu time      0.4879: real time      0.4887
    SETDIJ:  cpu time     10.9398: real time     10.9404
     EDDAV:  cpu time    123.0492: real time    123.0573
 BZINTS: Fermi energy:    1.772845;  468.000000 electrons
         Band energy:-0.540924E+04;  BLOECHL correction:    0.000000
       DOS:  cpu time      0.0679: real time      0.0679
    CHARGE:  cpu time     10.8078: real time     10.8083
    MIXING:  cpu time      0.0160: real time      0.0160
    --------------------------------------------
      LOOP:  cpu time    145.3686: real time    145.3787

 eigenvalue-minimisations  : 15072
 total energy-change (2. order) :-0.3430229E+02  (-0.3354124E+01)
 number of electron     468.0000004 magnetization      10.0081854
 augmentation part      131.3313244 magnetization      10.4358815

 Broyden mixing:
  rms(total) = 0.17492E+01    rms(broyden)= 0.17492E+01
  rms(prec ) = 0.17837E+01
  weight for this iteration     100.00

 eigenvalues of (default mixing * dielectric matrix)
  average eigenvalue GAMMA=   1.1541
  1.5823  0.7259

 Free energy of the ion-electron system (eV)
  ---------------------------------------------------
  alpha Z        PSCENC =       709.13725613
  Ewald energy   TEWEN  =    -21667.56229845
  -Hartree energ DENC   =     -9693.45605018
  -exchange      EXHF   =         0.00000000
  -V(xc)+E(xc)   XCENC  =      1348.37845020
  PAW double counting   =     31433.73314323   -34511.08690091
  entropy T*S    EENTRO =         0.00000000
  eigenvalues    EBANDS =     -5409.24143211
  atomic energy  EATOM  =     37543.08313351
  Solvation  Ediel_sol  =         0.00000000
  ---------------------------------------------------
  free energy    TOTEN  =      -247.01469858 eV

  energy without entropy =     -247.01469858  energy(sigma->0) =     -247.01469858


--------------------------------------------------------------------------------------------------------




--------------------------------------- Iteration      1(   8)  ---------------------------------------


    POTLOK:  cpu time      0.4926: real time      0.4935
    SETDIJ:  cpu time     10.5135: real time     10.5156
     EDDAV:  cpu time    120.5336: real time    120.5412
 BZINTS: Fermi energy:    1.883461;  468.000000 electrons
         Band energy:-0.541038E+04;  BLOECHL correction:    0.000000
       DOS:  cpu time      0.0678: real time      0.0679
    CHARGE:  cpu time     11.4022: real time     11.4030
    MIXING:  cpu time      0.0129: real time      0.0129
    --------------------------------------------
      LOOP:  cpu time    143.0225: real time    143.0339

 eigenvalue-minimisations  : 13408
 total energy-change (2. order) :-0.8363805E+01  (-0.1085050E+01)
 number of electron     468.0000004 magnetization       2.3432174
 augmentation part      131.5576986 magnetization       2.4876781

 Broyden mixing:
  rms(total) = 0.65498E+00    rms(broyden)= 0.65498E+00
  rms(prec ) = 0.66470E+00
  weight for this iteration     100.00

 eigenvalues of (default mixing * dielectric matrix)
  average eigenvalue GAMMA=   1.2786
  2.3800  0.7600  0.6958

 Free energy of the ion-electron system (eV)
  ---------------------------------------------------
  alpha Z        PSCENC =       709.13725613
  Ewald energy   TEWEN  =    -21667.56229845
  -Hartree energ DENC   =     -9694.05922869
  -exchange      EXHF   =         0.00000000
  -V(xc)+E(xc)   XCENC  =      1345.76065327
  PAW double counting   =     35492.31179207   -38573.66732345
  entropy T*S    EENTRO =         0.00000000
  eigenvalues    EBANDS =     -5410.38248759
  atomic energy  EATOM  =     37543.08313351
  Solvation  Ediel_sol  =         0.00000000
  ---------------------------------------------------
  free energy    TOTEN  =      -255.37850321 eV

  energy without entropy =     -255.37850321  energy(sigma->0) =     -255.37850321


--------------------------------------------------------------------------------------------------------




--------------------------------------- Iteration      1(   9)  ---------------------------------------


    POTLOK:  cpu time      0.4792: real time      0.4801
    SETDIJ:  cpu time     14.1709: real time     14.1715
     EDDAV:  cpu time    126.1573: real time    126.1656
 BZINTS: Fermi energy:    1.877617;  468.000000 electrons
         Band energy:-0.541607E+04;  BLOECHL correction:    0.000000
       DOS:  cpu time      0.0700: real time      0.0701
    CHARGE:  cpu time     14.5071: real time     14.5077
    MIXING:  cpu time      0.0159: real time      0.0159
    --------------------------------------------
      LOOP:  cpu time    155.4004: real time    155.4109

 eigenvalue-minimisations  : 14976
 total energy-change (2. order) :-0.6357247E+00  (-0.1052322E+00)
 number of electron     468.0000004 magnetization       1.1624242
 augmentation part      131.5613293 magnetization       1.1693366

 Broyden mixing:
  rms(total) = 0.14309E+00    rms(broyden)= 0.14309E+00
  rms(prec ) = 0.15330E+00
  weight for this iteration     100.00

 eigenvalues of (default mixing * dielectric matrix)
  average eigenvalue GAMMA=   1.2620
  2.6008  0.9930  0.7683  0.6859

 Free energy of the ion-electron system (eV)
  ---------------------------------------------------
  alpha Z        PSCENC =       709.13725613
  Ewald energy   TEWEN  =    -21667.56229845
  -Hartree energ DENC   =     -9687.73544553
  -exchange      EXHF   =         0.00000000
  -V(xc)+E(xc)   XCENC  =      1346.20663998
  PAW double counting   =     37017.64129627   -40100.71144696
  entropy T*S    EENTRO =         0.00000000
  eigenvalues    EBANDS =     -5416.07336290
  atomic energy  EATOM  =     37543.08313351
  Solvation  Ediel_sol  =         0.00000000
  ---------------------------------------------------
  free energy    TOTEN  =      -256.01422795 eV

  energy without entropy =     -256.01422795  energy(sigma->0) =     -256.01422795


--------------------------------------------------------------------------------------------------------




--------------------------------------- Iteration      1(  10)  ---------------------------------------


    POTLOK:  cpu time      0.4958: real time      0.4965
    SETDIJ:  cpu time     12.2536: real time     12.2542
     EDDAV:  cpu time    140.7103: real time    140.7222
 BZINTS: Fermi energy:    1.856405;  468.000000 electrons
         Band energy:-0.541888E+04;  BLOECHL correction:    0.000000
       DOS:  cpu time      0.0677: real time      0.0677
    CHARGE:  cpu time     11.8632: real time     11.8640
    MIXING:  cpu time      0.0143: real time      0.0143
    --------------------------------------------
      LOOP:  cpu time    165.4048: real time    165.4189

 eigenvalue-minimisations  : 16192
 total energy-change (2. order) :-0.6080426E-01  (-0.9432282E-02)
 number of electron     468.0000004 magnetization       1.1760986
 augmentation part      131.5309103 magnetization       1.2022036

 Broyden mixing:
  rms(total) = 0.86356E-01    rms(broyden)= 0.86356E-01
  rms(prec ) = 0.90627E-01
  weight for this iteration     100.00

 eigenvalues of (default mixing * dielectric matrix)
  average eigenvalue GAMMA=   1.1602
  2.4990  1.1684  0.7526  0.7526  0.6287

 Free energy of the ion-electron system (eV)
  ---------------------------------------------------
  alpha Z        PSCENC =       709.13725613
  Ewald energy   TEWEN  =    -21667.56229845
  -Hartree energ DENC   =     -9684.27481710
  -exchange      EXHF   =         0.00000000
  -V(xc)+E(xc)   XCENC  =      1346.03066908
  PAW double counting   =     37101.10701407   -40184.71125478
  entropy T*S    EENTRO =         0.00000000
  eigenvalues    EBANDS =     -5418.88473468
  atomic energy  EATOM  =     37543.08313351
  Solvation  Ediel_sol  =         0.00000000
  ---------------------------------------------------
  free energy    TOTEN  =      -256.07503220 eV

  energy without entropy =     -256.07503220  energy(sigma->0) =     -256.07503220


--------------------------------------------------------------------------------------------------------




--------------------------------------- Iteration      1(  11)  ---------------------------------------


    POTLOK:  cpu time      0.4808: real time      0.4816
    SETDIJ:  cpu time     15.4024: real time     15.4030
     EDDAV:  cpu time    138.7855: real time    138.7945
 BZINTS: Fermi energy:    1.850626;  468.000000 electrons
         Band energy:-0.541974E+04;  BLOECHL correction:    0.000000
       DOS:  cpu time      0.0678: real time      0.0679
    CHARGE:  cpu time     11.6096: real time     11.6100
    MIXING:  cpu time      0.0169: real time      0.0169
    --------------------------------------------
      LOOP:  cpu time    166.3631: real time    166.3740

 eigenvalue-minimisations  : 15168
 total energy-change (2. order) :-0.8548091E-02  (-0.1311387E-02)
 number of electron     468.0000004 magnetization       0.7725612
 augmentation part      131.5172631 magnetization       0.7857597

 Broyden mixing:
  rms(total) = 0.52161E-01    rms(broyden)= 0.52161E-01
  rms(prec ) = 0.55120E-01
  weight for this iteration     100.00

 eigenvalues of (default mixing * dielectric matrix)
  average eigenvalue GAMMA=   1.2255
  2.1374  2.1374  0.8652  0.8652  0.7287  0.6192

 Free energy of the ion-electron system (eV)
  ---------------------------------------------------
  alpha Z        PSCENC =       709.13725613
  Ewald energy   TEWEN  =    -21667.56229845
  -Hartree energ DENC   =     -9683.24291424
  -exchange      EXHF   =         0.00000000
  -V(xc)+E(xc)   XCENC  =      1345.90507790
  PAW double counting   =     36944.56057354   -40028.22788768
  entropy T*S    EENTRO =         0.00000000
  eigenvalues    EBANDS =     -5419.73652101
  atomic energy  EATOM  =     37543.08313351
  Solvation  Ediel_sol  =         0.00000000
  ---------------------------------------------------
  free energy    TOTEN  =      -256.08358029 eV

  energy without entropy =     -256.08358029  energy(sigma->0) =     -256.08358029


--------------------------------------------------------------------------------------------------------




--------------------------------------- Iteration      1(  12)  ---------------------------------------


    POTLOK:  cpu time      0.4869: real time      0.4879
    SETDIJ:  cpu time     16.5132: real time     16.5143
     EDDAV:  cpu time    108.1646: real time    108.1747
 BZINTS: Fermi energy:    1.847706;  468.000000 electrons
         Band energy:-0.542039E+04;  BLOECHL correction:    0.000000
       DOS:  cpu time      0.0678: real time      0.0678
    CHARGE:  cpu time     15.4634: real time     15.4642
    MIXING:  cpu time      0.0149: real time      0.0149
    --------------------------------------------
      LOOP:  cpu time    140.7108: real time    140.7239

 eigenvalue-minimisations  : 14176
 total energy-change (2. order) :-0.1240486E-01  (-0.6780496E-03)
 number of electron     468.0000004 magnetization       0.0574508
 augmentation part      131.5132983 magnetization       0.0632737

 Broyden mixing:
  rms(total) = 0.23773E-01    rms(broyden)= 0.23773E-01
  rms(prec ) = 0.25966E-01
  weight for this iteration     100.00

 eigenvalues of (default mixing * dielectric matrix)
  average eigenvalue GAMMA=   1.3486
  2.5156  2.5156  1.3534  0.8926  0.6338  0.7647  0.7647

 Free energy of the ion-electron system (eV)
  ---------------------------------------------------
  alpha Z        PSCENC =       709.13725613
  Ewald energy   TEWEN  =    -21667.56229845
  -Hartree energ DENC   =     -9682.44910416
  -exchange      EXHF   =         0.00000000
  -V(xc)+E(xc)   XCENC  =      1345.87798532
  PAW double counting   =     36793.88801743   -39877.67618903
  entropy T*S    EENTRO =         0.00000000
  eigenvalues    EBANDS =     -5420.39478592
  atomic energy  EATOM  =     37543.08313351
  Solvation  Ediel_sol  =         0.00000000
  ---------------------------------------------------
  free energy    TOTEN  =      -256.09598516 eV

  energy without entropy =     -256.09598516  energy(sigma->0) =     -256.09598516


--------------------------------------------------------------------------------------------------------




--------------------------------------- Iteration      1(  13)  ---------------------------------------


    POTLOK:  cpu time      0.4918: real time      0.4926
    SETDIJ:  cpu time     19.6743: real time     19.6751
     EDDAV:  cpu time    110.2921: real time    110.2996
 BZINTS: Fermi energy:    1.849564;  468.000000 electrons
         Band energy:-0.542051E+04;  BLOECHL correction:    0.000000
       DOS:  cpu time      0.0676: real time      0.0677
    CHARGE:  cpu time     14.3991: real time     14.4000
    MIXING:  cpu time      0.0116: real time      0.0116
    --------------------------------------------
      LOOP:  cpu time    144.9366: real time    144.9467

 eigenvalue-minimisations  : 14400
 total energy-change (2. order) :-0.6472948E-02  (-0.5656716E-03)
 number of electron     468.0000004 magnetization       0.0050394
 augmentation part      131.5169020 magnetization       0.0078254

 Broyden mixing:
  rms(total) = 0.88415E-02    rms(broyden)= 0.88415E-02
  rms(prec ) = 0.91159E-02
  weight for this iteration     100.00

 eigenvalues of (default mixing * dielectric matrix)
  average eigenvalue GAMMA=   1.3155
  2.6151  2.3759  1.6359  0.8903  0.8903  0.6465  0.7350  0.7350

 Free energy of the ion-electron system (eV)
  ---------------------------------------------------
  alpha Z        PSCENC =       709.13725613
  Ewald energy   TEWEN  =    -21667.56229845
  -Hartree energ DENC   =     -9682.28722063
  -exchange      EXHF   =         0.00000000
  -V(xc)+E(xc)   XCENC  =      1345.99500860
  PAW double counting   =     36774.63364490   -39858.59470573
  entropy T*S    EENTRO =         0.00000000
  eigenvalues    EBANDS =     -5420.50727644
  atomic energy  EATOM  =     37543.08313351
  Solvation  Ediel_sol  =         0.00000000
  ---------------------------------------------------
  free energy    TOTEN  =      -256.10245810 eV

  energy without entropy =     -256.10245810  energy(sigma->0) =     -256.10245810


--------------------------------------------------------------------------------------------------------




--------------------------------------- Iteration      1(  14)  ---------------------------------------


    POTLOK:  cpu time      0.4561: real time      0.4569
    SETDIJ:  cpu time      5.0560: real time      5.0562
     EDDAV:  cpu time    117.2411: real time    117.2506
 BZINTS: Fermi energy:    1.850667;  468.000000 electrons
         Band energy:-0.542035E+04;  BLOECHL correction:    0.000000
       DOS:  cpu time      0.0679: real time      0.0679
    CHARGE:  cpu time      8.1550: real time      8.1553
    MIXING:  cpu time      0.0156: real time      0.0156
    --------------------------------------------
      LOOP:  cpu time    130.9917: real time    131.0024

 eigenvalue-minimisations  : 15936
 total energy-change (2. order) :-0.1960211E-03  (-0.4095817E-04)
 number of electron     468.0000004 magnetization      -0.0063582
 augmentation part      131.5172294 magnetization      -0.0054080

 Broyden mixing:
  rms(total) = 0.62663E-02    rms(broyden)= 0.62663E-02
  rms(prec ) = 0.63495E-02
  weight for this iteration     100.00

 eigenvalues of (default mixing * dielectric matrix)
  average eigenvalue GAMMA=   1.3068
  2.8085  2.0956  2.0956  0.9936  0.7715  0.7715  0.6292  0.8424  0.7536

 Free energy of the ion-electron system (eV)
  ---------------------------------------------------
  alpha Z        PSCENC =       709.13725613
  Ewald energy   TEWEN  =    -21667.56229845
  -Hartree energ DENC   =     -9682.42108665
  -exchange      EXHF   =         0.00000000
  -V(xc)+E(xc)   XCENC  =      1346.01808117
  PAW double counting   =     36768.89720385   -39852.90566557
  entropy T*S    EENTRO =         0.00000000
  eigenvalues    EBANDS =     -5420.34927811
  atomic energy  EATOM  =     37543.08313351
  Solvation  Ediel_sol  =         0.00000000
  ---------------------------------------------------
  free energy    TOTEN  =      -256.10265413 eV

  energy without entropy =     -256.10265413  energy(sigma->0) =     -256.10265413


--------------------------------------------------------------------------------------------------------




--------------------------------------- Iteration      1(  15)  ---------------------------------------


    POTLOK:  cpu time      0.4749: real time      0.4758
    SETDIJ:  cpu time     13.6700: real time     13.6707
     EDDAV:  cpu time    109.2490: real time    109.2565
 BZINTS: Fermi energy:    1.850852;  468.000000 electrons
         Band energy:-0.542025E+04;  BLOECHL correction:   -0.000000
       DOS:  cpu time      0.0784: real time      0.0785
    CHARGE:  cpu time     11.3793: real time     11.3798
    MIXING:  cpu time      0.0167: real time      0.0167
    --------------------------------------------
      LOOP:  cpu time    134.8683: real time    134.8780

 eigenvalue-minimisations  : 14240
 total energy-change (2. order) :-0.4249778E-04  (-0.7784579E-05)
 number of electron     468.0000004 magnetization      -0.0032677
 augmentation part      131.5175275 magnetization      -0.0032963

 Broyden mixing:
  rms(total) = 0.30058E-02    rms(broyden)= 0.30057E-02
  rms(prec ) = 0.30611E-02
  weight for this iteration     100.00

 eigenvalues of (default mixing * dielectric matrix)
  average eigenvalue GAMMA=   1.3681
  2.9045  2.4455  2.4455  1.3727  0.8843  0.8843  0.7096  0.7096  0.6173  0.7082

 Free energy of the ion-electron system (eV)
  ---------------------------------------------------
  alpha Z        PSCENC =       709.13725613
  Ewald energy   TEWEN  =    -21667.56229845
  -Hartree energ DENC   =     -9682.49911483
  -exchange      EXHF   =         0.00000000
  -V(xc)+E(xc)   XCENC  =      1346.02631553
  PAW double counting   =     36757.34116716   -39841.37685671
  entropy T*S    EENTRO =         0.00000000
  eigenvalues    EBANDS =     -5420.25229898
  atomic energy  EATOM  =     37543.08313351
  Solvation  Ediel_sol  =         0.00000000
  ---------------------------------------------------
  free energy    TOTEN  =      -256.10269662 eV

  energy without entropy =     -256.10269662  energy(sigma->0) =     -256.10269662


--------------------------------------------------------------------------------------------------------




--------------------------------------- Iteration      1(  16)  ---------------------------------------


    POTLOK:  cpu time      0.4682: real time      0.4711
    SETDIJ:  cpu time     10.8728: real time     10.8751
     EDDAV:  cpu time    111.0005: real time    111.0078
 BZINTS: Fermi energy:    1.850836;  468.000000 electrons
         Band energy:-0.542020E+04;  BLOECHL correction:   -0.000000
       DOS:  cpu time      0.0699: real time      0.0700
    CHARGE:  cpu time     11.1191: real time     11.1195
    MIXING:  cpu time      0.0158: real time      0.0158
    --------------------------------------------
      LOOP:  cpu time    133.5463: real time    133.5593

 eigenvalue-minimisations  : 14080
 total energy-change (2. order) :-0.2431558E-04  (-0.2833536E-05)
 number of electron     468.0000004 magnetization      -0.0021673
 augmentation part      131.5173822 magnetization      -0.0024576

 Broyden mixing:
  rms(total) = 0.11035E-02    rms(broyden)= 0.11034E-02
  rms(prec ) = 0.11333E-02
  weight for this iteration     100.00

 eigenvalues of (default mixing * dielectric matrix)
  average eigenvalue GAMMA=   1.3247
  2.9159  2.5765  1.7391  1.7391  1.1752  0.7956  0.7956  0.8170  0.7724  0.6226
  0.6226

 Free energy of the ion-electron system (eV)
  ---------------------------------------------------
  alpha Z        PSCENC =       709.13725613
  Ewald energy   TEWEN  =    -21667.56229845
  -Hartree energ DENC   =     -9682.53321515
  -exchange      EXHF   =         0.00000000
  -V(xc)+E(xc)   XCENC  =      1346.02740893
  PAW double counting   =     36746.74195769   -39830.79267447
  entropy T*S    EENTRO =         0.00000000
  eigenvalues    EBANDS =     -5420.20428915
  atomic energy  EATOM  =     37543.08313351
  Solvation  Ediel_sol  =         0.00000000
  ---------------------------------------------------
  free energy    TOTEN  =      -256.10272094 eV

  energy without entropy =     -256.10272094  energy(sigma->0) =     -256.10272094


--------------------------------------------------------------------------------------------------------




--------------------------------------- Iteration      1(  17)  ---------------------------------------


    POTLOK:  cpu time      0.4569: real time      0.4578
    SETDIJ:  cpu time     10.0455: real time     10.0460
     EDDAV:  cpu time    124.2447: real time    124.2529
 BZINTS: Fermi energy:    1.850687;  468.000000 electrons
         Band energy:-0.542023E+04;  BLOECHL correction:   -0.000000
       DOS:  cpu time      0.0678: real time      0.0678
    CHARGE:  cpu time     13.9922: real time     13.9930
    MIXING:  cpu time      0.0172: real time      0.0171
    --------------------------------------------
      LOOP:  cpu time    148.8244: real time    148.8346

 eigenvalue-minimisations  : 17408
 total energy-change (2. order) : 0.1298249E-05  (-0.2932588E-06)
 number of electron     468.0000004 magnetization      -0.0014060
 augmentation part      131.5172057 magnetization      -0.0013995

 Broyden mixing:
  rms(total) = 0.33154E-03    rms(broyden)= 0.33112E-03
  rms(prec ) = 0.35644E-03
  weight for this iteration     100.00

 eigenvalues of (default mixing * dielectric matrix)
  average eigenvalue GAMMA=   1.2980
  2.9194  2.6799  1.8235  1.8235  1.0701  0.9200  0.9200  0.7345  0.7345  0.7274
  0.6206  0.6022

 Free energy of the ion-electron system (eV)
  ---------------------------------------------------
  alpha Z        PSCENC =       709.13725613
  Ewald energy   TEWEN  =    -21667.56229845
  -Hartree energ DENC   =     -9682.51454771
  -exchange      EXHF   =         0.00000000
  -V(xc)+E(xc)   XCENC  =      1346.02526347
  PAW double counting   =     36748.05022766   -39832.09509461
  entropy T*S    EENTRO =         0.00000000
  eigenvalues    EBANDS =     -5420.22665965
  atomic energy  EATOM  =     37543.08313351
  Solvation  Ediel_sol  =         0.00000000
  ---------------------------------------------------
  free energy    TOTEN  =      -256.10271964 eV

  energy without entropy =     -256.10271964  energy(sigma->0) =     -256.10271964


--------------------------------------------------------------------------------------------------------




--------------------------------------- Iteration      1(  18)  ---------------------------------------


    POTLOK:  cpu time      0.4578: real time      0.4628
    SETDIJ:  cpu time      5.5602: real time      5.5605
     EDDAV:  cpu time    105.9162: real time    105.9236
 BZINTS: Fermi energy:    1.850866;  468.000000 electrons
         Band energy:-0.542022E+04;  BLOECHL correction:    0.000000
       DOS:  cpu time      0.0677: real time      0.0677
    CHARGE:  cpu time      9.7197: real time      9.7200
    MIXING:  cpu time      0.0200: real time      0.0200
    --------------------------------------------
      LOOP:  cpu time    121.7416: real time    121.7545

 eigenvalue-minimisations  : 14208
 total energy-change (2. order) :-0.4942631E-06  (-0.7075141E-07)
 number of electron     468.0000004 magnetization      -0.0006543
 augmentation part      131.5172131 magnetization      -0.0006527

 Broyden mixing:
  rms(total) = 0.18410E-03    rms(broyden)= 0.18334E-03
  rms(prec ) = 0.20066E-03
  weight for this iteration     100.00

 eigenvalues of (default mixing * dielectric matrix)
  average eigenvalue GAMMA=   1.3175
  2.9816  2.6602  1.9831  1.9831  1.3688  1.0130  0.8648  0.8648  0.7595  0.7595
  0.6816  0.6281  0.5798

 Free energy of the ion-electron system (eV)
  ---------------------------------------------------
  alpha Z        PSCENC =       709.13725613
  Ewald energy   TEWEN  =    -21667.56229845
  -Hartree energ DENC   =     -9682.52170451
  -exchange      EXHF   =         0.00000000
  -V(xc)+E(xc)   XCENC  =      1346.02579375
  PAW double counting   =     36748.43221555   -39832.47545731
  entropy T*S    EENTRO =         0.00000000
  eigenvalues    EBANDS =     -5420.22165880
  atomic energy  EATOM  =     37543.08313351
  Solvation  Ediel_sol  =         0.00000000
  ---------------------------------------------------
  free energy    TOTEN  =      -256.10272013 eV

  energy without entropy =     -256.10272013  energy(sigma->0) =     -256.10272013


--------------------------------------------------------------------------------------------------------




--------------------------------------- Iteration      1(  19)  ---------------------------------------


    POTLOK:  cpu time      0.4560: real time      0.4568
    SETDIJ:  cpu time      8.3101: real time      8.3104
     EDDAV:  cpu time     96.5634: real time     96.5698
 BZINTS: Fermi energy:    1.851074;  468.000000 electrons
         Band energy:-0.542021E+04;  BLOECHL correction:    0.000000
       DOS:  cpu time      0.0679: real time      0.0680
    CHARGE:  cpu time      7.9790: real time      7.9797
    MIXING:  cpu time      0.0173: real time      0.0173
    --------------------------------------------
      LOOP:  cpu time    113.3937: real time    113.4020

 eigenvalue-minimisations  : 14080
 total energy-change (2. order) :-0.1433218E-06  (-0.2855824E-07)
 number of electron     468.0000004 magnetization      -0.0002373
 augmentation part      131.5172436 magnetization      -0.0002542

 Broyden mixing:
  rms(total) = 0.47148E-04    rms(broyden)= 0.44087E-04
  rms(prec ) = 0.52604E-04
  weight for this iteration     100.00

 eigenvalues of (default mixing * dielectric matrix)
  average eigenvalue GAMMA=   1.3162
  3.0605  2.7097  2.3683  1.6100  1.6100  1.1006  0.8880  0.8880  0.7637  0.7637
  0.7845  0.6678  0.6246  0.5875

 Free energy of the ion-electron system (eV)
  ---------------------------------------------------
  alpha Z        PSCENC =       709.13725613
  Ewald energy   TEWEN  =    -21667.56229845
  -Hartree energ DENC   =     -9682.53072788
  -exchange      EXHF   =         0.00000000
  -V(xc)+E(xc)   XCENC  =      1346.02644014
  PAW double counting   =     36748.68037206   -39832.72210422
  entropy T*S    EENTRO =         0.00000000
[...]
   -.200E-01 0.112E-01 -.137E-01   0.189E-01 -.908E-02 0.136E-01   0.932E-03 -.184E-02 0.896E-04   0.122E-05 -.175E-05 0.222E-06
   -.322E+00 0.555E+00 0.628E+02   0.305E+00 -.525E+00 -.702E+02   0.285E-01 -.492E-01 0.745E+01   0.740E-06 -.153E-05 0.200E-05
   0.545E-01 -.940E-01 0.637E+02   -.522E-01 0.904E-01 -.711E+02   -.351E-02 0.579E-02 0.742E+01   -.615E-06 0.107E-05 0.280E-05
   0.549E-01 -.948E-01 0.637E+02   -.524E-01 0.907E-01 -.711E+02   -.397E-02 0.642E-02 0.742E+01   -.228E-06 0.527E-06 0.220E-05
   -.565E-01 -.305E-01 0.637E+02   0.545E-01 0.288E-01 -.711E+02   0.314E-02 0.271E-02 0.742E+01   0.569E-06 -.132E-06 0.216E-05
   0.543E-01 0.332E-01 0.637E+02   -.524E-01 -.326E-01 -.711E+02   -.317E-02 -.986E-03 0.742E+01   -.813E-06 -.983E-06 0.283E-05
   0.103E-01 -.180E-01 0.637E+02   -.101E-01 0.176E-01 -.712E+02   -.324E-03 0.569E-03 0.742E+01   -.543E-06 0.687E-06 0.272E-05
   -.562E-01 -.304E-01 0.637E+02   0.544E-01 0.291E-01 -.711E+02   0.277E-02 0.215E-02 0.742E+01   0.106E-05 0.295E-06 0.280E-05
   0.103E-01 -.178E-01 0.637E+02   -.102E-01 0.175E-01 -.712E+02   -.229E-03 0.396E-03 0.742E+01   -.343E-06 0.855E-06 0.265E-05
   0.548E-01 0.334E-01 0.637E+02   -.522E-01 -.328E-01 -.711E+02   -.398E-02 -.952E-03 0.742E+01   0.717E-08 -.795E-06 0.232E-05
   -.158E-01 -.122E-02 0.638E+02   0.151E-01 -.366E-02 -.712E+02   0.829E-03 0.454E-02 0.742E+01   0.649E-06 -.512E-06 0.280E-05
   0.132E-01 -.228E-01 0.638E+02   -.127E-01 0.220E-01 -.712E+02   -.621E-03 0.994E-03 0.742E+01   -.698E-06 0.158E-05 0.248E-05
   0.521E-02 0.153E-01 0.638E+02   -.442E-02 -.150E-01 -.712E+02   -.110E-02 -.320E-03 0.742E+01   0.237E-06 -.960E-06 0.286E-05
   -.140E-01 0.285E-01 0.638E+02   0.152E-01 -.262E-01 -.712E+02   -.780E-03 -.236E-02 0.742E+01   0.495E-06 -.126E-05 0.262E-05
   0.178E-01 -.648E-02 0.638E+02   -.172E-01 0.639E-02 -.712E+02   -.736E-03 0.146E-03 0.742E+01   -.100E-05 0.250E-06 0.247E-05
   -.334E-02 -.185E-01 0.638E+02   0.313E-02 0.181E-01 -.712E+02   0.240E-03 0.420E-03 0.742E+01   0.124E-06 0.769E-06 0.229E-05
   -.996E-02 -.948E-02 0.638E+02   0.968E-02 0.908E-02 -.712E+02   0.359E-03 0.470E-03 0.742E+01   0.686E-06 0.795E-06 0.256E-05
   0.132E-01 0.384E-02 0.638E+02   -.127E-01 -.385E-02 -.712E+02   -.585E-03 0.116E-05 0.742E+01   -.788E-06 -.403E-06 0.241E-05
   -.342E-02 0.568E-02 0.638E+02   0.312E-02 -.538E-02 -.712E+02   0.366E-03 -.345E-03 0.742E+01   0.341E-06 -.254E-06 0.240E-05
   -.322E-01 0.505E-01 -.638E+02   0.314E-01 -.459E-01 0.712E+02   0.939E-03 -.471E-02 -.742E+01   0.647E-06 -.235E-06 -.280E-05
   0.188E-01 -.299E-01 -.637E+02   -.182E-01 0.290E-01 0.712E+02   -.638E-03 0.104E-02 -.742E+01   -.678E-06 0.156E-05 -.280E-05
   0.988E-01 -.196E-01 -.636E+02   -.961E-01 0.190E-01 0.710E+02   -.245E-02 0.350E-03 -.742E+01   0.482E-06 -.104E-05 -.229E-05
   -.955E-01 0.195E-01 -.637E+02   0.915E-01 -.199E-01 0.711E+02   0.400E-02 0.165E-03 -.742E+01   0.229E-06 -.136E-05 -.243E-05
   0.185E-01 -.501E-02 -.638E+02   -.178E-01 0.490E-02 0.712E+02   -.779E-03 0.148E-03 -.742E+01   -.103E-05 0.292E-06 -.275E-05
   -.498E-02 -.435E-01 -.637E+02   0.474E-02 0.426E-01 0.711E+02   0.261E-03 0.108E-02 -.742E+01   0.968E-07 0.612E-06 -.249E-05
   -.141E-01 -.122E-01 -.637E+02   0.138E-01 0.118E-01 0.712E+02   0.371E-03 0.493E-03 -.742E+01   0.627E-06 0.792E-06 -.285E-05
   0.177E-01 0.354E-02 -.637E+02   -.171E-01 -.352E-02 0.712E+02   -.609E-03 -.181E-04 -.742E+01   -.761E-06 -.472E-06 -.287E-05
   0.584E-02 0.148E-01 -.637E+02   -.596E-02 -.143E-01 0.712E+02   0.120E-03 -.534E-03 -.742E+01   0.476E-06 -.147E-06 -.278E-05
   -.189E+00 0.327E+00 -.632E+02   0.198E+00 -.343E+00 0.705E+02   -.983E-02 0.171E-01 -.744E+01   0.890E-06 -.169E-05 -.270E-05
   0.431E-01 -.745E-01 -.637E+02   -.426E-01 0.738E-01 0.711E+02   -.537E-03 0.661E-03 -.742E+01   -.560E-06 0.105E-05 -.261E-05
   0.186E-01 -.320E-01 -.638E+02   -.183E-01 0.317E-01 0.712E+02   -.328E-03 0.391E-03 -.742E+01   -.279E-06 0.698E-06 -.210E-05
   -.237E-01 0.675E-02 -.638E+02   0.233E-01 -.645E-02 0.712E+02   0.539E-03 -.251E-03 -.742E+01   0.673E-06 -.645E-07 -.204E-05
   0.553E-01 0.236E-01 -.637E+02   -.548E-01 -.233E-01 0.712E+02   -.379E-03 -.369E-03 -.742E+01   -.698E-06 -.995E-06 -.244E-05
   0.858E-02 -.149E-01 -.638E+02   -.838E-02 0.146E-01 0.712E+02   -.258E-03 0.451E-03 -.742E+01   -.546E-06 0.698E-06 -.222E-05
   -.484E-01 -.362E-01 -.637E+02   0.476E-01 0.359E-01 0.712E+02   0.845E-03 0.232E-03 -.742E+01   0.109E-05 0.238E-06 -.246E-05
   0.856E-02 -.147E-01 -.638E+02   -.844E-02 0.145E-01 0.712E+02   -.168E-03 0.291E-03 -.742E+01   -.392E-06 0.843E-06 -.212E-05
   0.621E-02 0.237E-01 -.638E+02   -.606E-02 -.234E-01 0.712E+02   -.288E-03 -.392E-03 -.742E+01   -.171E-06 -.828E-06 -.222E-05
 -----------------------------------------------------------------------------------------------
   0.177E-01 -.307E-01 0.207E-01   -.362E-13 -.289E-13 0.128E-12   -.177E-01 0.306E-01 -.207E-01   0.199E-07 0.167E-06 0.502E-06


 POSITION                                       TOTAL-FORCE (eV/Angst)
 -----------------------------------------------------------------------------------
      0.00000      0.00000      0.00000        -0.000689      0.000198     -0.000118
      2.25556     -3.90675      0.00000        -0.000048     -0.000263      0.000003
      4.51113     -7.81350      0.00000         0.000189     -0.000052     -0.000178
      2.25556      3.90675      0.00000        -0.000257      0.000045     -0.000251
      4.51113      0.00000      0.00000         0.000955     -0.000252      0.000014
      6.76669     -3.90675      0.00000         0.000171     -0.000292     -0.000038
      4.51113      7.81350      0.00000        -0.000120     -0.000127      0.000006
      6.76669      3.90675      0.00000        -0.000018      0.000102     -0.000087
      9.02226     -0.00000      0.00000         0.000169      0.000035     -0.000081
      0.00000      0.00000      5.14630        -0.001225      0.000278     -0.000533
      2.25556     -3.90675      5.14630        -0.000097     -0.000356     -0.000151
      4.51113     -7.81350      5.14630         0.000335     -0.000080      0.000301
      2.25556      3.90675      5.14630        -0.000420      0.003839     -0.000458
      4.51113      0.00000      5.14630        -0.001423      0.001322     -0.000660
      6.76669     -3.90675      5.14630         0.000255     -0.000433      0.000038
      4.51113      7.81350      5.14630        -0.000158     -0.000199     -0.000017
      6.76669      3.90675      5.14630        -0.000087      0.000176      0.000074
      9.02226     -0.00000      5.14630         0.000251      0.000027      0.000092
      2.25556      1.30225      2.57315        -0.000170      0.000300      0.000499
      4.51113     -2.60450      2.57315         0.000136     -0.000148      0.000023
      6.76669     -6.51125      2.57315         0.000139     -0.000065      0.000056
      4.51113      5.20900      2.57315        -0.000141      0.000093      0.000065
      6.76669      1.30225      2.57315         0.000060      0.000043      0.000014
      9.02226     -2.60450      2.57315         0.000080     -0.000136      0.000018
      6.76669      9.11576      2.57315        -0.000212     -0.000073      0.000048
      9.02226      5.20900      2.57315         0.000010     -0.000015      0.000008
     11.27782      1.30225      2.57315         0.000102      0.000020      0.000031
      2.25556     -1.30225      7.71945        -0.000412      0.008056     -0.002450
      4.51113     -5.20900      7.71945         0.000336     -0.000528     -0.000012
      6.76669     -9.11576      7.71945        -0.003093      0.002241      0.000641
      4.51113      2.60450      7.71945        -0.002338     -0.000419     -0.000956
      6.76669     -1.30225      7.71945         0.000388     -0.000041      0.000107
      9.02226     -5.20900      7.71945        -0.000163     -0.000430     -0.000143
      6.76669      6.51125      7.71945        -0.000173     -0.000263     -0.000027
      9.02226      2.60450      7.71945         0.000311     -0.000038      0.000004
     11.27782     -1.30225      7.71945        -0.000132      0.000295     -0.000018
      2.25158      1.30914      6.62871         0.011162     -0.019244      0.070621
      4.51113     -2.60450      6.63476        -0.001247      0.002190      0.003464
      6.76669     -6.51125      6.63476        -0.001394      0.002323      0.003690
      4.51113      5.20900      6.63476         0.001097      0.001006      0.003650
      6.76669      1.30225      6.63476        -0.001247     -0.000412      0.003502
      9.02226     -2.60450      6.63476        -0.000075      0.000132      0.003367
      6.76669      9.11576      6.63476         0.000958      0.000830      0.003537
      9.02226      5.20900      6.63476        -0.000076      0.000132      0.003367
     11.27782      1.30225      6.63476        -0.001366     -0.000385      0.003615
      2.25556     -1.30225      1.48846         0.000145     -0.000343      0.002820
      4.51113     -5.20900      1.48846        -0.000115      0.000173      0.003377
      6.76669     -9.11576      1.48846        -0.000313      0.000013      0.003530
      4.51113      2.60450      1.48846         0.000416     -0.000095      0.003173
      6.76669     -1.30225      1.48846        -0.000152      0.000050      0.003374
      9.02226     -5.20900      1.48846         0.000032      0.000079      0.003286
      6.76669      6.51125      1.48846         0.000080      0.000073      0.003363
      9.02226      2.60450      1.48846        -0.000104     -0.000010      0.003391
     11.27782     -1.30225      1.48846         0.000065     -0.000037      0.003330
      2.25556     -1.30225      3.65783         0.000112     -0.000041     -0.004765
      4.51113     -5.20900      3.65783        -0.000065      0.000084     -0.003376
      6.76669     -9.11576      3.65783         0.000259     -0.000278     -0.004385
      4.51113      2.60450      3.65783        -0.000030     -0.000275     -0.004580
      6.76669     -1.30225      3.65783        -0.000122      0.000043     -0.003344
      9.02226     -5.20900      3.65783         0.000023      0.000179     -0.003404
      6.76669      6.51125      3.65783         0.000052      0.000031     -0.003361
      9.02226      2.60450      3.65783        -0.000053     -0.000004     -0.003391
     11.27782     -1.30225      3.65783         0.000000     -0.000054     -0.003374
      2.25556      1.30225      8.80413        -0.000510      0.000894     -0.063345
      4.51113     -2.60450      8.80413        -0.000013     -0.000051     -0.003257
      6.76669     -6.51125      8.80413        -0.000057      0.000138     -0.003500
      4.51113      5.20900      8.80413         0.000116      0.000045     -0.003449
      6.76669      1.30225      8.80413         0.000091     -0.000059     -0.003306
      9.02226     -2.60450      8.80413        -0.000054      0.000095     -0.003364
      6.76669      9.11576      8.80413         0.000072     -0.000088     -0.003327
      9.02226      5.20900      8.80413        -0.000054      0.000095     -0.003363
     11.27782      1.30225      8.80413        -0.000145     -0.000087     -0.003428
 -----------------------------------------------------------------------------------
    total drift:                                0.000004     -0.000007      0.000006


--------------------------------------------------------------------------------------------------------



  FREE ENERGIE OF THE ION-ELECTRON SYSTEM (eV)
  ---------------------------------------------------
  free  energy   TOTEN  =      -256.10272029 eV

  energy  without entropy=     -256.10272029  energy(sigma->0) =     -256.10272029



--------------------------------------------------------------------------------------------------------


    POTLOK:  cpu time     16.1679: real time     16.1760


--------------------------------------------------------------------------------------------------------


     LOOP+:  cpu time   3419.0430: real time   3419.3460
    4ORBIT:  cpu time      0.0000: real time      0.0000



 total charge

# of ion       s       p       d       tot
------------------------------------------
    1        0.049   5.976   0.000   6.025
    2        0.049   5.976   0.000   6.025
    3        0.049   5.976   0.000   6.025
    4        0.049   5.976   0.000   6.025
    5        0.049   5.976   0.000   6.025
    6        0.049   5.976   0.000   6.025
    7        0.049   5.976   0.000   6.025
    8        0.049   5.976   0.000   6.025
    9        0.049   5.976   0.000   6.025
   10        0.049   5.976   0.000   6.025
   11        0.049   5.976   0.000   6.025
   12        0.049   5.976   0.000   6.025
   13        0.049   5.977   0.000   6.025
   14        0.049   5.976   0.000   6.025
   15        0.049   5.976   0.000   6.025
   16        0.049   5.976   0.000   6.025
   17        0.049   5.976   0.000   6.025
   18        0.049   5.976   0.000   6.025
   19        0.050   5.989   0.000   6.039
   20        0.050   5.989   0.000   6.039
   21        0.050   5.989   0.000   6.039
   22        0.050   5.989   0.000   6.039
   23        0.050   5.989   0.000   6.039
   24        0.050   5.989   0.000   6.039
   25        0.050   5.989   0.000   6.039
   26        0.050   5.989   0.000   6.039
   27        0.050   5.989   0.000   6.039
   28        0.050   5.988   0.000   6.038
   29        0.050   5.989   0.000   6.039
   30        0.050   5.989   0.000   6.039
   31        0.050   5.989   0.000   6.039
   32        0.050   5.989   0.000   6.039
   33        0.050   5.989   0.000   6.039
   34        0.050   5.989   0.000   6.039
   35        0.050   5.989   0.000   6.039
   36        0.050   5.989   0.000   6.039
   37        1.337   2.351   0.000   3.688
   38        1.337   2.353   0.000   3.690
   39        1.337   2.353   0.000   3.690
   40        1.337   2.353   0.000   3.690
   41        1.337   2.353   0.000   3.690
   42        1.337   2.353   0.000   3.690
   43        1.337   2.353   0.000   3.690
   44        1.337   2.353   0.000   3.690
   45        1.337   2.353   0.000   3.690
   46        1.337   2.353   0.000   3.690
   47        1.337   2.353   0.000   3.690
   48        1.337   2.353   0.000   3.690
   49        1.337   2.353   0.000   3.690
   50        1.337   2.353   0.000   3.690
   51        1.337   2.353   0.000   3.690
   52        1.337   2.353   0.000   3.690
   53        1.337   2.353   0.000   3.690
   54        1.337   2.353   0.000   3.690
   55        1.337   2.353   0.000   3.690
   56        1.337   2.353   0.000   3.690
   57        1.337   2.352   0.000   3.690
   58        1.337   2.353   0.000   3.690
   59        1.337   2.353   0.000   3.690
   60        1.337   2.353   0.000   3.690
   61        1.337   2.353   0.000   3.690
   62        1.337   2.353   0.000   3.690
   63        1.337   2.353   0.000   3.690
   64        1.337   2.351   0.000   3.688
   65        1.337   2.353   0.000   3.690
   66        1.337   2.353   0.000   3.690
   67        1.337   2.353   0.000   3.690
   68        1.337   2.353   0.000   3.690
   69        1.337   2.353   0.000   3.690
   70        1.337   2.353   0.000   3.690
   71        1.337   2.353   0.000   3.690
   72        1.337   2.353   0.000   3.690
--------------------------------------------------
tot         49.917 300.058   0.000 349.976



 magnetization (x)

# of ion       s       p       d       tot
------------------------------------------
    1       -0.000  -0.000   0.000  -0.000
    2       -0.000  -0.000   0.000  -0.000
    3       -0.000   0.000   0.000   0.000
    4       -0.000   0.000   0.000   0.000
    5       -0.000  -0.000   0.000  -0.000
    6       -0.000  -0.000   0.000  -0.000
    7       -0.000  -0.000   0.000  -0.000
    8       -0.000  -0.000   0.000  -0.000
    9       -0.000  -0.000   0.000  -0.000
   10       -0.000  -0.000   0.000  -0.000
   11       -0.000  -0.000   0.000  -0.000
   12       -0.000  -0.000   0.000  -0.000
   13       -0.000  -0.000   0.000  -0.000
   14       -0.000  -0.000   0.000  -0.000
   15       -0.000  -0.000   0.000  -0.000
   16       -0.000  -0.000   0.000  -0.000
   17       -0.000  -0.000   0.000  -0.000
   18       -0.000  -0.000   0.000  -0.000
   19       -0.000  -0.000   0.000  -0.000
   20       -0.000  -0.000   0.000  -0.000
   21       -0.000  -0.000   0.000  -0.000
   22       -0.000  -0.000   0.000  -0.000
   23       -0.000  -0.000   0.000  -0.000
   24       -0.000  -0.000   0.000  -0.000
   25       -0.000  -0.000   0.000  -0.000
   26       -0.000  -0.000   0.000  -0.000
   27       -0.000  -0.000   0.000  -0.000
   28       -0.000  -0.000   0.000  -0.000
   29       -0.000  -0.000   0.000  -0.000
   30       -0.000  -0.000   0.000  -0.000
   31       -0.000  -0.000   0.000  -0.000
   32       -0.000  -0.000   0.000  -0.000
   33       -0.000  -0.000   0.000  -0.000
   34       -0.000  -0.000   0.000  -0.000
   35       -0.000  -0.000   0.000  -0.000
   36       -0.000  -0.000   0.000  -0.000
   37        0.000   0.000   0.000   0.000
   38        0.000   0.000   0.000   0.000
   39        0.000   0.000   0.000   0.000
   40        0.000   0.000   0.000   0.000
   41        0.000   0.000   0.000   0.000
   42        0.000   0.000   0.000   0.000
   43        0.000   0.000   0.000   0.000
   44        0.000   0.000   0.000   0.000
   45        0.000   0.000   0.000   0.000
   46        0.000   0.000   0.000   0.000
   47        0.000   0.000   0.000   0.000
   48        0.000   0.000   0.000   0.000
   49        0.000   0.000   0.000   0.000
   50        0.000   0.000   0.000   0.000
   51        0.000   0.000   0.000   0.000
   52        0.000   0.000   0.000   0.000
   53        0.000   0.000   0.000   0.000
   54        0.000   0.000   0.000   0.000
   55        0.000   0.000   0.000   0.000
   56        0.000   0.000   0.000   0.000
   57        0.000   0.000   0.000   0.000
   58        0.000   0.000   0.000   0.000
   59        0.000   0.000   0.000   0.000
   60        0.000   0.000   0.000   0.000
   61        0.000   0.000   0.000   0.000
   62        0.000   0.000   0.000   0.000
   63        0.000   0.000   0.000   0.000
   64        0.000   0.000   0.000   0.000
   65        0.000   0.000   0.000   0.000
   66        0.000   0.000   0.000   0.000
   67        0.000   0.000   0.000   0.000
   68        0.000   0.000   0.000   0.000
   69        0.000   0.000   0.000   0.000
   70        0.000   0.000   0.000   0.000
   71        0.000   0.000   0.000   0.000
   72        0.000   0.000   0.000   0.000
--------------------------------------------------
tot          0.000   0.000   0.000   0.000

 BZINTS: Fermi energy:    1.850759;  468.000000 electrons
         Band energy:-0.542021E+04;  BLOECHL correction:    0.000000

 total amount of memory used by VASP MPI-rank0   413811. kBytes
=======================================================================

   base      :      30000. kBytes
   nonl-proj :     107085. kBytes
   fftplans  :      38970. kBytes
   grid      :      94569. kBytes
   one-center:        442. kBytes
   wavefun   :     142745. kBytes

  
  
 General timing and accounting informations for this job:
 ========================================================
  
                  Total CPU time used (sec):     3487.407
                            User time (sec):     3486.228
                          System time (sec):        1.179
                         Elapsed time (sec):     3488.686
  
                   Maximum memory used (kb):      706280.
                   Average memory used (kb):          N/A
  
                          Minor page faults:       352514
                          Major page faults:          202
                 Voluntary context switches:         7671
