 112 112   0   0
  0.2260158E+02  0.1218282E-08  0.1532313E-08  0.1373046E-08  0.2000000E-14
   1000.0000000000000     
  CAR 
 NVT-AIMD mp-560538_Na3AlS3 1000K        
      9.40656133    -24.12904985  301      1.69215395      1.00000000
    -24.129  0.0000E+00  0.0000E+00
    -24.017  0.0000E+00  0.0000E+00
    -23.905  0.0000E+00  0.0000E+00
    -23.794 -0.4364E-28 -0.4889E-29
    -23.682 -0.3372E-24 -0.3779E-25
    -23.570 -0.1382E-20 -0.1550E-21
    -23.458 -0.3014E-17 -0.3381E-18
    -23.347 -0.3492E-14 -0.3918E-15
    -23.235 -0.2078E-11 -0.2334E-12
    -23.123 -0.6724E-09 -0.7561E-10
    -23.011 -0.1149E-06 -0.1296E-07
    -22.899 -0.1034E-04 -0.1172E-05
    -22.788 -0.4879E-03 -0.5582E-04
    -22.676 -0.1193E-01 -0.1392E-02
    -22.564 -0.1479E+00 -0.1794E-01
    -22.452 -0.8739E+00 -0.1156E+00
    -22.340 -0.1898E+01 -0.3269E+00
    -22.229  0.2488E+01 -0.4604E-01
    -22.117  0.2059E+02  0.2256E+01
    -22.005  0.4890E+02  0.7705E+01
    -21.893  0.7795E+02  0.1637E+02
    -21.782  0.1072E+03  0.2829E+02
    -21.670  0.1396E+03  0.4384E+02
    -21.558  0.1716E+03  0.6301E+02
    -21.446  0.2002E+03  0.8539E+02
    -21.334  0.2290E+03  0.1110E+03
    -21.223  0.2526E+03  0.1393E+03
    -21.111  0.2560E+03  0.1680E+03
    -20.999  0.2377E+03  0.1947E+03
    -20.887  0.2146E+03  0.2188E+03
    -20.775  0.1908E+03  0.2402E+03
    -20.664  0.1527E+03  0.2574E+03
    -20.552  0.1099E+03  0.2698E+03
    -20.440  0.7989E+02  0.2788E+03
    -20.328  0.5397E+02  0.2849E+03
    -20.217  0.2511E+02  0.2877E+03
    -20.105  0.5102E+01  0.2883E+03
    -19.993 -0.1192E+01  0.2881E+03
    -19.881 -0.9961E+00  0.2880E+03
    -19.769 -0.2448E+00  0.2880E+03
    -19.658 -0.2871E-01  0.2880E+03
    -19.546 -0.1718E-02  0.2880E+03
    -19.434 -0.5346E-04  0.2880E+03
    -19.322 -0.8707E-06  0.2880E+03
    -19.210 -0.7451E-08  0.2880E+03
    -19.099 -0.3359E-10  0.2880E+03
    -18.987 -0.7999E-13  0.2880E+03
    -18.875  0.0000E+00  0.2880E+03
    -18.763  0.0000E+00  0.2880E+03
    -18.652  0.0000E+00  0.2880E+03
    -18.540  0.0000E+00  0.2880E+03
    -18.428  0.0000E+00  0.2880E+03
    -18.316  0.0000E+00  0.2880E+03
    -18.204  0.0000E+00  0.2880E+03
    -18.093  0.0000E+00  0.2880E+03
    -17.981  0.0000E+00  0.2880E+03
    -17.869  0.0000E+00  0.2880E+03
    -17.757  0.0000E+00  0.2880E+03
    -17.645  0.0000E+00  0.2880E+03
    -17.534  0.0000E+00  0.2880E+03
    -17.422  0.0000E+00  0.2880E+03
    -17.310  0.0000E+00  0.2880E+03
    -17.198  0.0000E+00  0.2880E+03
    -17.087  0.0000E+00  0.2880E+03
    -16.975  0.0000E+00  0.2880E+03
    -16.863  0.0000E+00  0.2880E+03
    -16.751  0.0000E+00  0.2880E+03
    -16.639  0.0000E+00  0.2880E+03
    -16.528  0.0000E+00  0.2880E+03
    -16.416  0.0000E+00  0.2880E+03
    -16.304  0.0000E+00  0.2880E+03
    -16.192  0.0000E+00  0.2880E+03
    -16.081  0.0000E+00  0.2880E+03
    -15.969  0.0000E+00  0.2880E+03
    -15.857  0.0000E+00  0.2880E+03
    -15.745  0.0000E+00  0.2880E+03
    -15.633  0.0000E+00  0.2880E+03
    -15.522  0.0000E+00  0.2880E+03
    -15.410  0.0000E+00  0.2880E+03
    -15.298  0.0000E+00  0.2880E+03
    -15.186  0.0000E+00  0.2880E+03
    -15.074  0.0000E+00  0.2880E+03
    -14.963  0.0000E+00  0.2880E+03
    -14.851  0.0000E+00  0.2880E+03
    -14.739  0.0000E+00  0.2880E+03
    -14.627  0.0000E+00  0.2880E+03
    -14.516  0.0000E+00  0.2880E+03
    -14.404  0.0000E+00  0.2880E+03
    -14.292  0.0000E+00  0.2880E+03
    -14.180  0.0000E+00  0.2880E+03
    -14.068  0.0000E+00  0.2880E+03
    -13.957  0.0000E+00  0.2880E+03
    -13.845  0.0000E+00  0.2880E+03
    -13.733  0.0000E+00  0.2880E+03
    -13.621  0.0000E+00  0.2880E+03
    -13.509  0.0000E+00  0.2880E+03
    -13.398 -0.1154E-31  0.2880E+03
    -13.286 -0.1729E-27  0.2880E+03
    -13.174 -0.8688E-24  0.2880E+03
    -13.062 -0.2343E-20  0.2880E+03
    -12.951 -0.3391E-17  0.2880E+03
    -12.839 -0.2563E-14  0.2880E+03
    -12.727 -0.1057E-11  0.2880E+03
    -12.615 -0.2333E-09  0.2880E+03
    -12.503 -0.2744E-07  0.2880E+03
    -12.392 -0.1709E-05  0.2880E+03
    -12.280 -0.5582E-04  0.2880E+03
    -12.168 -0.9365E-03  0.2880E+03
    -12.056 -0.7700E-02  0.2880E+03
    -11.944 -0.2691E-01  0.2880E+03
    -11.833 -0.1154E-01  0.2880E+03
    -11.721  0.1461E+00  0.2880E+03
    -11.609  0.4495E+00  0.2881E+03
    -11.497  0.1167E+01  0.2882E+03
    -11.386  0.2738E+01  0.2885E+03
    -11.274  0.4310E+01  0.2890E+03
    -11.162  0.5085E+01  0.2895E+03
    -11.050  0.6205E+01  0.2902E+03
    -10.938  0.9080E+01  0.2912E+03
    -10.827  0.1287E+02  0.2927E+03
    -10.715  0.1513E+02  0.2944E+03
    -10.603  0.1639E+02  0.2962E+03
    -10.491  0.1828E+02  0.2983E+03
    -10.379  0.1925E+02  0.3004E+03
    -10.268  0.2016E+02  0.3027E+03
    -10.156  0.2397E+02  0.3054E+03
    -10.044  0.3061E+02  0.3088E+03
     -9.932  0.3730E+02  0.3130E+03
     -9.821  0.4246E+02  0.3177E+03
     -9.709  0.4832E+02  0.3231E+03
     -9.597  0.5582E+02  0.3293E+03
     -9.485  0.6167E+02  0.3362E+03
     -9.373  0.6383E+02  0.3434E+03
     -9.262  0.6346E+02  0.3505E+03
     -9.150  0.6094E+02  0.3573E+03
     -9.038  0.5546E+02  0.3636E+03
     -8.926  0.4839E+02  0.3690E+03
     -8.814  0.4149E+02  0.3737E+03
     -8.703  0.3313E+02  0.3774E+03
     -8.591  0.2304E+02  0.3800E+03
     -8.479  0.1487E+02  0.3816E+03
     -8.367  0.9886E+01  0.3828E+03
     -8.256  0.5972E+01  0.3834E+03
     -8.144  0.2885E+01  0.3838E+03
     -8.032  0.1396E+01  0.3839E+03
     -7.920  0.6605E+00  0.3840E+03
     -7.808  0.1263E+00  0.3840E+03
     -7.697 -0.5370E-01  0.3840E+03
     -7.585 -0.3205E-01  0.3840E+03
     -7.473 -0.6178E-02  0.3840E+03
     -7.361 -0.5555E-03  0.3840E+03
     -7.249 -0.2510E-04  0.3840E+03
     -7.138 -0.5840E-06  0.3840E+03
     -7.026 -0.7066E-08  0.3840E+03
     -6.914 -0.4463E-10  0.3840E+03
     -6.802 -0.1475E-12  0.3840E+03
     -6.691 -0.2345E-15  0.3840E+03
     -6.579  0.0000E+00  0.3840E+03
     -6.467  0.0000E+00  0.3840E+03
     -6.355  0.0000E+00  0.3840E+03
     -6.243  0.0000E+00  0.3840E+03
     -6.132  0.0000E+00  0.3840E+03
     -6.020  0.0000E+00  0.3840E+03
     -5.908  0.0000E+00  0.3840E+03
     -5.796  0.0000E+00  0.3840E+03
     -5.684  0.0000E+00  0.3840E+03
     -5.573  0.0000E+00  0.3840E+03
     -5.461 -0.9898E-30  0.3840E+03
     -5.349 -0.7901E-26  0.3840E+03
     -5.237 -0.3332E-22  0.3840E+03
     -5.126 -0.7457E-19  0.3840E+03
     -5.014 -0.8856E-16  0.3840E+03
     -4.902 -0.5404E-13  0.3840E+03
     -4.790 -0.1792E-10  0.3840E+03
     -4.678 -0.3146E-08  0.3840E+03
     -4.567 -0.2915E-06  0.3840E+03
     -4.455 -0.1422E-04  0.3840E+03
     -4.343 -0.3632E-03  0.3840E+03
     -4.231 -0.4798E-02  0.3840E+03
     -4.119 -0.3175E-01  0.3840E+03
     -4.008 -0.9354E-01  0.3840E+03
     -3.896 -0.2754E-01  0.3840E+03
     -3.784  0.6108E+00  0.3841E+03
     -3.672  0.2207E+01  0.3843E+03
     -3.561  0.4853E+01  0.3848E+03
     -3.449  0.8534E+01  0.3858E+03
     -3.337  0.1312E+02  0.3873E+03
     -3.225  0.1853E+02  0.3893E+03
     -3.113  0.2468E+02  0.3921E+03
     -3.002  0.3048E+02  0.3955E+03
     -2.890  0.3419E+02  0.3993E+03
     -2.778  0.3437E+02  0.4032E+03
     -2.666  0.3256E+02  0.4068E+03
     -2.554  0.2940E+02  0.4101E+03
     -2.443  0.2317E+02  0.4127E+03
     -2.331  0.1608E+02  0.4145E+03
     -2.219  0.9430E+01  0.4156E+03
     -2.107  0.5468E+01  0.4162E+03
     -1.996  0.7367E+01  0.4170E+03
     -1.884  0.1396E+02  0.4186E+03
     -1.772  0.2258E+02  0.4211E+03
     -1.660  0.3140E+02  0.4246E+03
     -1.548  0.3980E+02  0.4291E+03
     -1.437  0.4735E+02  0.4344E+03
     -1.325  0.5354E+02  0.4404E+03
     -1.213  0.5802E+02  0.4469E+03
     -1.101  0.6052E+02  0.4537E+03
     -0.989  0.6158E+02  0.4606E+03
     -0.878  0.6235E+02  0.4675E+03
     -0.766  0.6446E+02  0.4748E+03
     -0.654  0.6634E+02  0.4822E+03
     -0.542  0.6703E+02  0.4897E+03
     -0.431  0.6986E+02  0.4975E+03
     -0.319  0.7480E+02  0.5059E+03
     -0.207  0.7920E+02  0.5148E+03
     -0.095  0.8196E+02  0.5240E+03
      0.017  0.8179E+02  0.5331E+03
      0.128  0.8007E+02  0.5421E+03
      0.240  0.8039E+02  0.5511E+03
      0.352  0.8220E+02  0.5603E+03
      0.464  0.8475E+02  0.5698E+03
      0.576  0.8928E+02  0.5798E+03
      0.687  0.9432E+02  0.5904E+03
      0.799  0.9620E+02  0.6011E+03
      0.911  0.9507E+02  0.6118E+03
      1.023  0.9329E+02  0.6222E+03
      1.134  0.8921E+02  0.6322E+03
      1.246  0.8125E+02  0.6413E+03
      1.358  0.7192E+02  0.6494E+03
      1.470  0.6252E+02  0.6564E+03
      1.582  0.4977E+02  0.6620E+03
      1.693  0.3536E+02  0.6660E+03
      1.805  0.2525E+02  0.6688E+03
      1.917  0.1651E+02  0.6707E+03
      2.029  0.7175E+01  0.6715E+03
      2.141  0.2241E+01  0.6718E+03
      2.252  0.1354E+01  0.6719E+03
      2.364  0.8128E+00  0.6720E+03
      2.476  0.1209E+00  0.6720E+03
      2.588 -0.8155E-01  0.6720E+03
      2.699 -0.3588E-01  0.6720E+03
      2.811 -0.5518E-02  0.6720E+03
      2.923 -0.3961E-03  0.6720E+03
      3.035 -0.1462E-04  0.6720E+03
      3.147 -0.2108E-04  0.6720E+03
      3.258 -0.6190E-03  0.6720E+03
      3.370 -0.9752E-02  0.6720E+03
      3.482 -0.7743E-01  0.6720E+03
      3.594 -0.2581E+00  0.6720E+03
      3.706  0.7008E-01  0.6720E+03
      3.817  0.2615E+01  0.6723E+03
      3.929  0.6426E+01  0.6730E+03
      4.041  0.6507E+01  0.6737E+03
      4.153  0.2736E+01  0.6740E+03
      4.264  0.1942E+00  0.6740E+03
      4.376  0.1221E+00  0.6741E+03
      4.488  0.5633E+00  0.6741E+03
      4.600  0.1376E+01  0.6743E+03
      4.712  0.4295E+01  0.6748E+03
      4.823  0.8979E+01  0.6758E+03
      4.935  0.1499E+02  0.6774E+03
      5.047  0.2389E+02  0.6801E+03
      5.159  0.3201E+02  0.6837E+03
      5.271  0.3577E+02  0.6877E+03
      5.382  0.3924E+02  0.6921E+03
      5.494  0.4509E+02  0.6972E+03
      5.606  0.5144E+02  0.7029E+03
      5.718  0.5424E+02  0.7090E+03
      5.829  0.5292E+02  0.7149E+03
      5.941  0.5281E+02  0.7208E+03
      6.053  0.5604E+02  0.7271E+03
      6.165  0.5979E+02  0.7338E+03
      6.277  0.6278E+02  0.7408E+03
      6.388  0.6378E+02  0.7480E+03
      6.500  0.6116E+02  0.7548E+03
      6.612  0.5815E+02  0.7614E+03
      6.724  0.5749E+02  0.7678E+03
      6.835  0.5907E+02  0.7744E+03
      6.947  0.6202E+02  0.7814E+03
      7.059  0.6247E+02  0.7884E+03
      7.171  0.5909E+02  0.7950E+03
      7.283  0.5350E+02  0.8010E+03
      7.394  0.4131E+02  0.8056E+03
      7.506  0.2035E+02  0.8079E+03
      7.618  0.3305E+01  0.8083E+03
      7.730 -0.1525E+01  0.8081E+03
      7.842 -0.7878E+00  0.8080E+03
      7.953 -0.1369E+00  0.8080E+03
      8.065 -0.1117E-01  0.8080E+03
      8.177 -0.4592E-03  0.8080E+03
      8.289 -0.9764E-05  0.8080E+03
      8.400 -0.1085E-06  0.8080E+03
      8.512 -0.6344E-09  0.8080E+03
      8.624 -0.1955E-11  0.8080E+03
      8.736 -0.3562E-14  0.8080E+03
      8.848  0.0000E+00  0.8080E+03
      8.959  0.0000E+00  0.8080E+03
      9.071  0.0000E+00  0.8080E+03
      9.183  0.0000E+00  0.8080E+03
      9.295  0.0000E+00  0.8080E+03
      9.407  0.0000E+00  0.8080E+03
      9.38842824    -24.30575356  301      2.08211450      1.00000000
    -24.306  0.0000E+00  0.0000E+00
    -24.193  0.0000E+00  0.0000E+00
    -24.081  0.0000E+00  0.0000E+00
    -23.969 -0.3740E-28 -0.4182E-29
    -23.856 -0.2861E-24 -0.3200E-25
    -23.744 -0.1162E-20 -0.1299E-21
    -23.632 -0.2516E-17 -0.2815E-18
    -23.520 -0.2905E-14 -0.3252E-15
    -23.407 -0.1731E-11 -0.1940E-12
    -23.295 -0.5632E-09 -0.6319E-10
    -23.183 -0.9727E-07 -0.1094E-07
    -23.070 -0.8891E-05 -0.1005E-05
    -22.958 -0.4279E-03 -0.4885E-04
    -22.846 -0.1072E-01 -0.1248E-02
    -22.733 -0.1365E+00 -0.1651E-01
    -22.621 -0.8259E+00 -0.1088E+00
    -22.509 -0.1801E+01 -0.3097E+00
    -22.396  0.2539E+01 -0.2479E-01
    -22.284  0.1931E+02  0.2133E+01
    -22.172  0.4314E+02  0.6946E+01
    -22.059  0.7047E+02  0.1480E+02
    -21.947  0.1074E+03  0.2677E+02
    -21.835  0.1512E+03  0.4365E+02
    -21.723  0.1957E+03  0.6550E+02
    -21.610  0.2380E+03  0.9209E+02
    -21.498  0.2744E+03  0.1227E+03
    -21.386  0.2954E+03  0.1558E+03
    -21.273  0.2990E+03  0.1892E+03
    -21.161  0.2787E+03  0.2204E+03
    -21.049  0.2241E+03  0.2454E+03
    -20.936  0.1529E+03  0.2626E+03
    -20.824  0.9331E+02  0.2730E+03
    -20.712  0.5248E+02  0.2789E+03
    -20.599  0.3063E+02  0.2823E+03
    -20.487  0.2434E+02  0.2851E+03
    -20.375  0.1877E+02  0.2872E+03
    -20.262  0.8027E+01  0.2881E+03
    -20.150  0.5779E+00  0.2881E+03
    -20.038 -0.7916E+00  0.2880E+03
    -19.926 -0.2946E+00  0.2880E+03
    -19.813 -0.4426E-01  0.2880E+03
    -19.701 -0.3319E-02  0.2880E+03
    -19.589 -0.1309E-03  0.2880E+03
    -19.476 -0.2766E-05  0.2880E+03
    -19.364 -0.3147E-07  0.2880E+03
    -19.252 -0.1930E-09  0.2880E+03
    -19.139 -0.6374E-12  0.2880E+03
    -19.027 -0.9900E-15  0.2880E+03
    -18.915  0.0000E+00  0.2880E+03
    -18.802  0.0000E+00  0.2880E+03
    -18.690  0.0000E+00  0.2880E+03
    -18.578  0.0000E+00  0.2880E+03
    -18.465  0.0000E+00  0.2880E+03
    -18.353  0.0000E+00  0.2880E+03
    -18.241  0.0000E+00  0.2880E+03
    -18.128  0.0000E+00  0.2880E+03
    -18.016  0.0000E+00  0.2880E+03
    -17.904  0.0000E+00  0.2880E+03
    -17.792  0.0000E+00  0.2880E+03
    -17.679  0.0000E+00  0.2880E+03
    -17.567  0.0000E+00  0.2880E+03
    -17.455  0.0000E+00  0.2880E+03
    -17.342  0.0000E+00  0.2880E+03
    -17.230  0.0000E+00  0.2880E+03
    -17.118  0.0000E+00  0.2880E+03
    -17.005  0.0000E+00  0.2880E+03
    -16.893  0.0000E+00  0.2880E+03
    -16.781  0.0000E+00  0.2880E+03
    -16.668  0.0000E+00  0.2880E+03
    -16.556  0.0000E+00  0.2880E+03
    -16.444  0.0000E+00  0.2880E+03
    -16.331  0.0000E+00  0.2880E+03
    -16.219  0.0000E+00  0.2880E+03
    -16.107  0.0000E+00  0.2880E+03
    -15.995  0.0000E+00  0.2880E+03
    -15.882  0.0000E+00  0.2880E+03
    -15.770  0.0000E+00  0.2880E+03
    -15.658  0.0000E+00  0.2880E+03
    -15.545  0.0000E+00  0.2880E+03
    -15.433  0.0000E+00  0.2880E+03
    -15.321  0.0000E+00  0.2880E+03
    -15.208  0.0000E+00  0.2880E+03
    -15.096  0.0000E+00  0.2880E+03
    -14.984  0.0000E+00  0.2880E+03
    -14.871  0.0000E+00  0.2880E+03
    -14.759  0.0000E+00  0.2880E+03
    -14.647  0.0000E+00  0.2880E+03
    -14.534  0.0000E+00  0.2880E+03
    -14.422  0.0000E+00  0.2880E+03
    -14.310  0.0000E+00  0.2880E+03
    -14.197  0.0000E+00  0.2880E+03
    -14.085  0.0000E+00  0.2880E+03
    -13.973  0.0000E+00  0.2880E+03
    -13.861  0.0000E+00  0.2880E+03
    -13.748  0.0000E+00  0.2880E+03
    -13.636  0.0000E+00  0.2880E+03
    -13.524 -0.2880E-29  0.2880E+03
    -13.411 -0.2079E-25  0.2880E+03
    -13.299 -0.7972E-22  0.2880E+03
    -13.187 -0.1622E-18  0.2880E+03
    -13.074 -0.1749E-15  0.2880E+03
    -12.962 -0.9652E-13  0.2880E+03
    -12.850 -0.2888E-10  0.2880E+03
    -12.737 -0.4539E-08  0.2880E+03
    -12.625 -0.3722E-06  0.2880E+03
    -12.513 -0.1576E-04  0.2880E+03
    -12.400 -0.3373E-03  0.2880E+03
    -12.288 -0.3495E-02  0.2880E+03
    -12.176 -0.1546E-01  0.2880E+03
    -12.064 -0.1251E-01  0.2880E+03
    -11.951  0.9467E-01  0.2880E+03
    -11.839  0.2936E+00  0.2880E+03
    -11.727  0.4934E+00  0.2881E+03
    -11.614  0.8935E+00  0.2882E+03
    -11.502  0.1751E+01  0.2884E+03
    -11.390  0.3230E+01  0.2888E+03
    -11.277  0.5788E+01  0.2894E+03
    -11.165  0.9718E+01  0.2905E+03
    -11.053  0.1369E+02  0.2920E+03
    -10.940  0.1617E+02  0.2938E+03
    -10.828  0.1776E+02  0.2958E+03
    -10.716  0.1953E+02  0.2980E+03
    -10.603  0.2024E+02  0.3002E+03
    -10.491  0.1977E+02  0.3025E+03
    -10.379  0.1984E+02  0.3047E+03
    -10.267  0.2041E+02  0.3070E+03
    -10.154  0.2455E+02  0.3097E+03
    -10.042  0.3564E+02  0.3137E+03
     -9.930  0.4901E+02  0.3192E+03
     -9.817  0.5766E+02  0.3256E+03
     -9.705  0.6129E+02  0.3324E+03
     -9.593  0.6351E+02  0.3395E+03
     -9.480  0.6532E+02  0.3468E+03
     -9.368  0.6499E+02  0.3541E+03
     -9.256  0.6232E+02  0.3611E+03
     -9.143  0.5770E+02  0.3675E+03
     -9.031  0.4877E+02  0.3730E+03
     -8.919  0.3779E+02  0.3772E+03
     -8.806  0.2901E+02  0.3805E+03
     -8.694  0.1958E+02  0.3826E+03
     -8.582  0.8950E+01  0.3836E+03
     -8.469  0.2140E+01  0.3839E+03
     -8.357  0.2197E+00  0.3839E+03
     -8.245  0.3427E+00  0.3840E+03
     -8.133  0.3848E+00  0.3840E+03
     -8.020  0.1074E+00  0.3840E+03
     -7.908 -0.2726E-01  0.3840E+03
     -7.796 -0.1830E-01  0.3840E+03
     -7.683 -0.3246E-02  0.3840E+03
     -7.571 -0.2564E-03  0.3840E+03
     -7.459 -0.9982E-05  0.3840E+03
     -7.346 -0.1987E-06  0.3840E+03
     -7.234 -0.2058E-08  0.3840E+03
     -7.122 -0.1118E-10  0.3840E+03
     -7.009 -0.3208E-13  0.3840E+03
     -6.897  0.0000E+00  0.3840E+03
     -6.785  0.0000E+00  0.3840E+03
     -6.672  0.0000E+00  0.3840E+03
     -6.560  0.0000E+00  0.3840E+03
     -6.448  0.0000E+00  0.3840E+03
     -6.336  0.0000E+00  0.3840E+03
     -6.223  0.0000E+00  0.3840E+03
     -6.111  0.0000E+00  0.3840E+03
     -5.999  0.0000E+00  0.3840E+03
     -5.886  0.0000E+00  0.3840E+03
     -5.774  0.0000E+00  0.3840E+03
     -5.662  0.0000E+00  0.3840E+03
     -5.549  0.0000E+00  0.3840E+03
     -5.437 -0.2468E-28  0.3840E+03
     -5.325 -0.1557E-24  0.3840E+03
     -5.212 -0.5206E-21  0.3840E+03
     -5.100 -0.9224E-18  0.3840E+03
     -4.988 -0.8453E-15  0.3840E+03
     -4.875 -0.4140E-12  0.3840E+03
     -4.763 -0.1073E-09  0.3840E+03
     -4.651 -0.1459E-07  0.3840E+03
     -4.539 -0.1035E-05  0.3840E+03
     -4.426 -0.3791E-04  0.3840E+03
     -4.314 -0.7083E-03  0.3840E+03
     -4.202 -0.6619E-02  0.3840E+03
     -4.089 -0.3053E-01  0.3840E+03
     -3.977 -0.7558E-01  0.3840E+03
     -3.865 -0.1321E+00  0.3840E+03
     -3.752  0.1011E+00  0.3840E+03
     -3.640  0.2400E+01  0.3843E+03
     -3.528  0.8515E+01  0.3852E+03
     -3.415  0.1595E+02  0.3870E+03
     -3.303  0.2282E+02  0.3895E+03
     -3.191  0.3078E+02  0.3930E+03
     -3.078  0.3809E+02  0.3972E+03
     -2.966  0.4175E+02  0.4019E+03
     -2.854  0.4007E+02  0.4064E+03
     -2.741  0.3382E+02  0.4101E+03
     -2.629  0.2533E+02  0.4130E+03
     -2.517  0.1613E+02  0.4148E+03
     -2.405  0.8040E+01  0.4157E+03
     -2.292  0.2558E+01  0.4160E+03
     -2.180  0.1306E+01  0.4161E+03
     -2.068  0.5989E+01  0.4168E+03
     -1.955  0.1602E+02  0.4186E+03
     -1.843  0.2744E+02  0.4216E+03
     -1.731  0.3673E+02  0.4257E+03
     -1.618  0.4458E+02  0.4307E+03
     -1.506  0.5201E+02  0.4365E+03
     -1.394  0.5775E+02  0.4430E+03
     -1.281  0.6036E+02  0.4497E+03
     -1.169  0.5962E+02  0.4564E+03
     -1.057  0.5823E+02  0.4629E+03
     -0.944  0.5874E+02  0.4695E+03
     -0.832  0.5978E+02  0.4762E+03
     -0.720  0.6198E+02  0.4831E+03
     -0.608  0.6730E+02  0.4906E+03
     -0.495  0.7457E+02  0.4989E+03
     -0.383  0.8068E+02  0.5080E+03
     -0.271  0.8369E+02  0.5173E+03
     -0.158  0.8553E+02  0.5269E+03
     -0.046  0.8544E+02  0.5364E+03
      0.066  0.8100E+02  0.5455E+03
      0.179  0.7774E+02  0.5542E+03
      0.291  0.8033E+02  0.5631E+03
      0.403  0.8533E+02  0.5727E+03
      0.516  0.9087E+02  0.5828E+03
      0.628  0.9599E+02  0.5936E+03
      0.740  0.9769E+02  0.6045E+03
      0.853  0.9551E+02  0.6152E+03
      0.965  0.9298E+02  0.6256E+03
      1.077  0.9101E+02  0.6357E+03
      1.190  0.8454E+02  0.6452E+03
      1.302  0.7159E+02  0.6532E+03
      1.414  0.5806E+02  0.6597E+03
      1.526  0.4605E+02  0.6648E+03
      1.639  0.3230E+02  0.6684E+03
      1.751  0.1829E+02  0.6705E+03
      1.863  0.8537E+01  0.6714E+03
      1.976  0.3578E+01  0.6718E+03
      2.088  0.1332E+01  0.6720E+03
      2.200  0.2759E+00  0.6720E+03
      2.313 -0.7914E-01  0.6720E+03
      2.425 -0.7271E-01  0.6720E+03
      2.537 -0.2019E-01  0.6720E+03
      2.650 -0.2709E-02  0.6720E+03
      2.762 -0.1880E-03  0.6720E+03
      2.874 -0.6855E-05  0.6720E+03
      2.987 -0.1564E-06  0.6720E+03
      3.099 -0.2127E-05  0.6720E+03
      3.211 -0.9910E-04  0.6720E+03
      3.323 -0.2438E-02  0.6720E+03
      3.436 -0.3066E-01  0.6720E+03
      3.548 -0.1801E+00  0.6720E+03
      3.660 -0.3176E+00  0.6719E+03
      3.773  0.1087E+01  0.6721E+03
      3.885  0.5246E+01  0.6726E+03
      3.997  0.7614E+01  0.6735E+03
      4.110  0.4394E+01  0.6740E+03
      4.222  0.5764E+00  0.6741E+03
      4.334 -0.4240E+00  0.6740E+03
      4.447 -0.4677E+00  0.6740E+03
      4.559 -0.4481E+00  0.6739E+03
      4.671  0.1644E+01  0.6741E+03
      4.784  0.8331E+01  0.6750E+03
      4.896  0.1785E+02  0.6770E+03
      5.008  0.2619E+02  0.6799E+03
      5.120  0.3254E+02  0.6836E+03
      5.233  0.3673E+02  0.6877E+03
      5.345  0.3956E+02  0.6921E+03
      5.457  0.4200E+02  0.6968E+03
      5.570  0.4450E+02  0.7018E+03
      5.682  0.4762E+02  0.7071E+03
      5.794  0.5091E+02  0.7128E+03
      5.907  0.5464E+02  0.7189E+03
      6.019  0.5808E+02  0.7254E+03
      6.131  0.6078E+02  0.7322E+03
      6.244  0.6296E+02  0.7392E+03
      6.356  0.6411E+02  0.7464E+03
      6.468  0.6469E+02  0.7536E+03
      6.581  0.6424E+02  0.7608E+03
      6.693  0.6210E+02  0.7677E+03
      6.805  0.6065E+02  0.7745E+03
      6.918  0.6046E+02  0.7813E+03
      7.030  0.5983E+02  0.7880E+03
      7.142  0.5857E+02  0.7945E+03
      7.254  0.5596E+02  0.8008E+03
      7.367  0.4383E+02  0.8057E+03
      7.479  0.2071E+02  0.8080E+03
      7.591  0.2843E+01  0.8083E+03
      7.704 -0.1684E+01  0.8081E+03
      7.816 -0.7853E+00  0.8080E+03
      7.928 -0.1306E+00  0.8080E+03
      8.041 -0.1034E-01  0.8080E+03
      8.153 -0.4162E-03  0.8080E+03
      8.265 -0.8712E-05  0.8080E+03
      8.378 -0.9589E-07  0.8080E+03
      8.490 -0.5579E-09  0.8080E+03
      8.602 -0.1720E-11  0.8080E+03
      8.715 -0.3412E-14  0.8080E+03
      8.827  0.0000E+00  0.8080E+03
      8.939  0.0000E+00  0.8080E+03
      9.051  0.0000E+00  0.8080E+03
      9.164  0.0000E+00  0.8080E+03
      9.276  0.0000E+00  0.8080E+03
      9.388  0.0000E+00  0.8080E+03
      9.42891875    -24.47067336  301      1.81743728      1.00000000
    -24.471  0.0000E+00  0.0000E+00
    -24.358  0.0000E+00  0.0000E+00
    -24.245  0.0000E+00  0.0000E+00
    -24.132 -0.3993E-28 -0.4476E-29
    -24.019 -0.3095E-24 -0.3471E-25
    -23.906 -0.1271E-20 -0.1425E-21
    -23.793 -0.2773E-17 -0.3111E-18
    -23.680 -0.3214E-14 -0.3607E-15
    -23.567 -0.1914E-11 -0.2150E-12
    -23.454 -0.6192E-09 -0.6965E-10
    -23.341 -0.1058E-06 -0.1193E-07
    -23.228 -0.9508E-05 -0.1078E-05
    -23.115 -0.4469E-03 -0.5118E-04
    -23.002 -0.1086E-01 -0.1268E-02
    -22.889 -0.1330E+00 -0.1617E-01
    -22.776 -0.7673E+00 -0.1021E+00
    -22.663 -0.1550E+01 -0.2754E+00
    -22.550  0.2622E+01  0.1922E-01
    -22.437  0.1795E+02  0.2029E+01
    -22.324  0.3977E+02  0.6478E+01
    -22.211  0.6370E+02  0.1360E+02
    -22.098  0.9499E+02  0.2422E+02
    -21.985  0.1327E+03  0.3906E+02
    -21.872  0.1720E+03  0.5830E+02
    -21.759  0.2155E+03  0.8242E+02
    -21.646  0.2624E+03  0.1118E+03
    -21.533  0.2965E+03  0.1450E+03
    -21.420  0.3030E+03  0.1790E+03
    -21.307  0.2807E+03  0.2104E+03
    -21.194  0.2312E+03  0.2364E+03
    -21.081  0.1648E+03  0.2548E+03
    -20.968  0.1069E+03  0.2669E+03
    -20.855  0.7208E+02  0.2750E+03
    -20.742  0.5180E+02  0.2808E+03
    -20.629  0.3420E+02  0.2846E+03
    -20.516  0.1938E+02  0.2868E+03
    -20.403  0.9111E+01  0.2878E+03
    -20.290  0.2419E+01  0.2881E+03
    -20.177 -0.3127E+00  0.2881E+03
    -20.064 -0.4170E+00  0.2880E+03
    -19.951 -0.1113E+00  0.2880E+03
    -19.838 -0.1342E-01  0.2880E+03
    -19.725 -0.8135E-03  0.2880E+03
    -19.612 -0.2564E-04  0.2880E+03
    -19.499 -0.4253E-06  0.2880E+03
    -19.386 -0.3737E-08  0.2880E+03
    -19.273 -0.1743E-10  0.2880E+03
    -19.160 -0.4320E-13  0.2880E+03
    -19.047  0.0000E+00  0.2880E+03
    -18.934  0.0000E+00  0.2880E+03
    -18.821  0.0000E+00  0.2880E+03
    -18.708  0.0000E+00  0.2880E+03
    -18.595  0.0000E+00  0.2880E+03
    -18.482  0.0000E+00  0.2880E+03
    -18.369  0.0000E+00  0.2880E+03
    -18.256  0.0000E+00  0.2880E+03
    -18.143  0.0000E+00  0.2880E+03
    -18.030  0.0000E+00  0.2880E+03
    -17.917  0.0000E+00  0.2880E+03
    -17.804  0.0000E+00  0.2880E+03
    -17.691  0.0000E+00  0.2880E+03
    -17.578  0.0000E+00  0.2880E+03
    -17.465  0.0000E+00  0.2880E+03
    -17.352  0.0000E+00  0.2880E+03
    -17.239  0.0000E+00  0.2880E+03
    -17.126  0.0000E+00  0.2880E+03
    -17.013  0.0000E+00  0.2880E+03
    -16.900  0.0000E+00  0.2880E+03
    -16.787  0.0000E+00  0.2880E+03
    -16.674  0.0000E+00  0.2880E+03
    -16.561  0.0000E+00  0.2880E+03
    -16.448  0.0000E+00  0.2880E+03
    -16.335  0.0000E+00  0.2880E+03
    -16.222  0.0000E+00  0.2880E+03
    -16.109  0.0000E+00  0.2880E+03
    -15.996  0.0000E+00  0.2880E+03
    -15.883  0.0000E+00  0.2880E+03
    -15.770  0.0000E+00  0.2880E+03
    -15.657  0.0000E+00  0.2880E+03
    -15.544  0.0000E+00  0.2880E+03
    -15.431  0.0000E+00  0.2880E+03
    -15.318  0.0000E+00  0.2880E+03
    -15.205  0.0000E+00  0.2880E+03
    -15.092  0.0000E+00  0.2880E+03
    -14.979  0.0000E+00  0.2880E+03
    -14.866  0.0000E+00  0.2880E+03
    -14.753  0.0000E+00  0.2880E+03
    -14.640  0.0000E+00  0.2880E+03
    -14.527  0.0000E+00  0.2880E+03
    -14.414  0.0000E+00  0.2880E+03
    -14.301  0.0000E+00  0.2880E+03
    -14.188  0.0000E+00  0.2880E+03
    -14.075  0.0000E+00  0.2880E+03
    -13.962  0.0000E+00  0.2880E+03
    -13.849  0.0000E+00  0.2880E+03
    -13.736  0.0000E+00  0.2880E+03
    -13.623 -0.1234E-31  0.2880E+03
    -13.510 -0.1231E-27  0.2880E+03
    -13.397 -0.6437E-24  0.2880E+03
    -13.284 -0.1783E-20  0.2880E+03
    -13.171 -0.2613E-17  0.2880E+03
    -13.058 -0.1966E-14  0.2880E+03
    -12.945 -0.7994E-12  0.2880E+03
    -12.832 -0.1713E-09  0.2880E+03
    -12.719 -0.1927E-07  0.2880E+03
    -12.606 -0.1133E-05  0.2880E+03
    -12.493 -0.3454E-04  0.2880E+03
    -12.380 -0.5381E-03  0.2880E+03
    -12.267 -0.4159E-02  0.2880E+03
    -12.154 -0.1461E-01  0.2880E+03
    -12.041 -0.1203E-01  0.2880E+03
    -11.928  0.7667E-01  0.2880E+03
    -11.815  0.3322E+00  0.2880E+03
    -11.702  0.7106E+00  0.2881E+03
    -11.589  0.1146E+01  0.2882E+03
    -11.476  0.2062E+01  0.2885E+03
    -11.363  0.3820E+01  0.2889E+03
    -11.250  0.6025E+01  0.2896E+03
    -11.137  0.9453E+01  0.2906E+03
    -11.024  0.1521E+02  0.2923E+03
    -10.911  0.2076E+02  0.2947E+03
    -10.798  0.2370E+02  0.2973E+03
    -10.685  0.2501E+02  0.3001E+03
    -10.572  0.2408E+02  0.3028E+03
    -10.459  0.1946E+02  0.3050E+03
    -10.346  0.1544E+02  0.3067E+03
    -10.233  0.2023E+02  0.3090E+03
    -10.120  0.3366E+02  0.3128E+03
    -10.007  0.4575E+02  0.3179E+03
     -9.894  0.5329E+02  0.3239E+03
     -9.781  0.6049E+02  0.3306E+03
     -9.668  0.6583E+02  0.3380E+03
     -9.555  0.6560E+02  0.3454E+03
     -9.442  0.6192E+02  0.3523E+03
     -9.329  0.6023E+02  0.3590E+03
     -9.216  0.5967E+02  0.3657E+03
     -9.103  0.5391E+02  0.3718E+03
     -8.990  0.4261E+02  0.3766E+03
     -8.877  0.3058E+02  0.3800E+03
     -8.764  0.1982E+02  0.3822E+03
     -8.651  0.1072E+02  0.3834E+03
     -8.538  0.4459E+01  0.3839E+03
     -8.425  0.1137E+01  0.3840E+03
     -8.312 -0.9166E-01  0.3840E+03
     -8.199 -0.1956E+00  0.3840E+03
     -8.086 -0.6372E-01  0.3840E+03
     -7.973 -0.9442E-02  0.3840E+03
     -7.860 -0.7174E-03  0.3840E+03
     -7.747 -0.2905E-04  0.3840E+03
     -7.634 -0.6363E-06  0.3840E+03
     -7.521 -0.7576E-08  0.3840E+03
     -7.408 -0.4899E-10  0.3840E+03
     -7.295 -0.1717E-12  0.3840E+03
     -7.182 -0.2766E-15  0.3840E+03
     -7.069  0.0000E+00  0.3840E+03
     -6.956  0.0000E+00  0.3840E+03
     -6.843  0.0000E+00  0.3840E+03
     -6.730  0.0000E+00  0.3840E+03
     -6.617  0.0000E+00  0.3840E+03
     -6.504  0.0000E+00  0.3840E+03
     -6.391  0.0000E+00  0.3840E+03
     -6.278  0.0000E+00  0.3840E+03
     -6.165  0.0000E+00  0.3840E+03
     -6.052  0.0000E+00  0.3840E+03
     -5.939  0.0000E+00  0.3840E+03
     -5.826  0.0000E+00  0.3840E+03
     -5.713 -0.2722E-31  0.3840E+03
     -5.600 -0.2805E-27  0.3840E+03
     -5.487 -0.1399E-23  0.3840E+03
     -5.374 -0.3731E-20  0.3840E+03
     -5.261 -0.5319E-17  0.3840E+03
     -5.148 -0.3922E-14  0.3840E+03
     -5.035 -0.1587E-11  0.3840E+03
     -4.922 -0.3408E-09  0.3840E+03
     -4.809 -0.3882E-07  0.3840E+03
     -4.696 -0.2333E-05  0.3840E+03
     -4.583 -0.7337E-04  0.3840E+03
     -4.470 -0.1186E-02  0.3840E+03
     -4.357 -0.9482E-02  0.3840E+03
     -4.244 -0.3346E-01  0.3840E+03
     -4.131 -0.2300E-01  0.3840E+03
     -4.018  0.1643E+00  0.3840E+03
     -3.905  0.6191E+00  0.3841E+03
     -3.792  0.1527E+01  0.3843E+03
     -3.679  0.3184E+01  0.3846E+03
     -3.566  0.5611E+01  0.3852E+03
     -3.453  0.9600E+01  0.3863E+03
     -3.340  0.1650E+02  0.3882E+03
     -3.227  0.2572E+02  0.3910E+03
     -3.114  0.3551E+02  0.3950E+03
     -3.001  0.4449E+02  0.4000E+03
     -2.888  0.4880E+02  0.4055E+03
     -2.775  0.4320E+02  0.4103E+03
     -2.662  0.2889E+02  0.4136E+03
     -2.549  0.1414E+02  0.4151E+03
     -2.436  0.5576E+01  0.4158E+03
     -2.323  0.2473E+01  0.4160E+03
     -2.210  0.2398E+01  0.4163E+03
     -2.097  0.5794E+01  0.4170E+03
     -1.984  0.1228E+02  0.4183E+03
     -1.871  0.2127E+02  0.4207E+03
     -1.758  0.3350E+02  0.4245E+03
     -1.645  0.4552E+02  0.4296E+03
     -1.532  0.5333E+02  0.4355E+03
     -1.419  0.5867E+02  0.4421E+03
     -1.306  0.6301E+02  0.4492E+03
     -1.193  0.6411E+02  0.4564E+03
     -1.080  0.6099E+02  0.4632E+03
     -0.967  0.5791E+02  0.4697E+03
     -0.854  0.5929E+02  0.4763E+03
     -0.741  0.6361E+02  0.4834E+03
     -0.628  0.6741E+02  0.4910E+03
     -0.515  0.7131E+02  0.4990E+03
     -0.402  0.7762E+02  0.5077E+03
     -0.289  0.8448E+02  0.5171E+03
     -0.176  0.8840E+02  0.5270E+03
     -0.063  0.8756E+02  0.5369E+03
      0.050  0.8205E+02  0.5461E+03
      0.163  0.7595E+02  0.5546E+03
      0.276  0.7546E+02  0.5630E+03