       N       E                     dE             d eps       ncg     rms          rms(c)
DAV:   1     0.624563274660E+04    0.62456E+04   -0.26890E+05   872   0.139E+03
DAV:   2     0.431909703593E+03   -0.58137E+04   -0.55785E+04   896   0.389E+02
DAV:   3    -0.427713240172E+03   -0.85962E+03   -0.85034E+03   972   0.164E+02
DAV:   4    -0.477901183849E+03   -0.50188E+02   -0.49897E+02   936   0.374E+01
DAV:   5    -0.480284006192E+03   -0.23828E+01   -0.23801E+01  1152   0.841E+00    0.356E+01
RMM:   6    -0.456625979191E+03    0.23658E+02   -0.42281E+01   857   0.603E+00    0.237E+01
RMM:   7    -0.455522916259E+03    0.11031E+01   -0.57820E+01   863   0.597E+00    0.123E+01
RMM:   8    -0.455153728645E+03    0.36919E+00   -0.11112E+01   830   0.400E+00    0.437E+00
RMM:   9    -0.454668368437E+03    0.48536E+00   -0.10793E+00   934   0.189E+00    0.109E+00
RMM:  10    -0.454779501046E+03   -0.11113E+00   -0.92370E-01   941   0.956E-01    0.185E+00
RMM:  11    -0.454710101864E+03    0.69399E-01   -0.27346E-01   841   0.622E-01    0.216E-01
RMM:  12    -0.454714017012E+03   -0.39151E-02   -0.30252E-02  1136   0.310E-01    0.151E-01
RMM:  13    -0.454714900222E+03   -0.88321E-03   -0.18430E-02   964   0.147E-01    0.226E-01
RMM:  14    -0.454715292137E+03   -0.39191E-03   -0.22124E-03  1088   0.647E-02    0.273E-01
RMM:  15    -0.454715383035E+03   -0.90897E-04   -0.24408E-04   910   0.240E-02    0.350E-01
RMM:  16    -0.454715364443E+03    0.18592E-04   -0.30699E-05   591   0.930E-03    0.388E-01
RMM:  17    -0.454715274990E+03    0.89453E-04   -0.77463E-05   692   0.155E-02    0.393E-01
RMM:  18    -0.454714688798E+03    0.58619E-03   -0.28287E-03  1024   0.404E-02    0.274E-01
RMM:  19    -0.454714692220E+03   -0.34219E-05   -0.82828E-05   888   0.110E-02
      1 T=  1000. E= -.44036723E+03 F= -.45471469E+03 E0= -.45478829E+03  EK= 0.14347E+02 SP= 0.00E+00 SK= 0.00E+00
       N       E                     dE             d eps       ncg     rms          rms(c)
DAV:   1    -0.454345051208E+03    0.36964E+00   -0.10012E+02   904   0.149E+01    0.340E+00
RMM:   2    -0.454576512771E+03   -0.23146E+00   -0.25493E+00  1085   0.315E+00    0.111E+00
RMM:   3    -0.454606461308E+03   -0.29949E-01   -0.39056E-01   868   0.140E+00    0.791E-01
RMM:   4    -0.454613310531E+03   -0.68492E-02   -0.12658E-01  1143   0.687E-01    0.636E-01
RMM:   5    -0.454611381784E+03    0.19287E-02   -0.10351E-02   915   0.184E-01    0.451E-01
RMM:   6    -0.454611003877E+03    0.37791E-03   -0.77400E-03   894   0.120E-01    0.141E-01
RMM:   7    -0.454611111513E+03   -0.10764E-03   -0.15774E-03  1090   0.712E-02    0.826E-02
RMM:   8    -0.454611048265E+03    0.63248E-04   -0.41925E-04   844   0.303E-02    0.397E-02
RMM:   9    -0.454611042628E+03    0.56368E-05   -0.70131E-05   825   0.212E-02
      2 T=   993. E= -.44036690E+03 F= -.45461104E+03 E0= -.45468371E+03  EK= 0.14244E+02 SP= -.12E-04 SK= 0.81E-09
       N       E                     dE             d eps       ncg     rms          rms(c)
DAV:   1    -0.454293289753E+03    0.31776E+00   -0.72925E-01  1184   0.353E+00    0.106E+00
RMM:   2    -0.454308278107E+03   -0.14988E-01   -0.14951E-01   808   0.699E-01    0.250E-01
RMM:   3    -0.454311118809E+03   -0.28407E-02   -0.27706E-02  1107   0.322E-01    0.318E-01
RMM:   4    -0.454311436464E+03   -0.31765E-03   -0.46901E-03   912   0.144E-01    0.154E-01
RMM:   5    -0.454311585801E+03   -0.14934E-03   -0.17120E-03  1248   0.736E-02    0.116E-01
RMM:   6    -0.454311608017E+03   -0.22216E-04   -0.16476E-04   886   0.225E-02    0.966E-02
RMM:   7    -0.454311609110E+03   -0.10934E-05   -0.39642E-05   550   0.129E-02
      3 T=   972. E= -.44036637E+03 F= -.45431161E+03 E0= -.45438236E+03  EK= 0.13948E+02 SP= -.26E-02 SK= 0.37E-04
       N       E                     dE             d eps       ncg     rms          rms(c)
DAV:   1    -0.453803980164E+03    0.50763E+00   -0.11877E+00  1120   0.346E+00    0.165E+00
RMM:   2    -0.453829491289E+03   -0.25511E-01   -0.24900E-01   826   0.824E-01    0.333E-01
RMM:   3    -0.453834217976E+03   -0.47267E-02   -0.49275E-02  1096   0.410E-01    0.562E-01
RMM:   4    -0.453834775085E+03   -0.55711E-03   -0.77241E-03   955   0.171E-01    0.259E-01
RMM:   5    -0.453834917914E+03   -0.14283E-03   -0.21825E-03  1157   0.766E-02    0.825E-02
RMM:   6    -0.453834897655E+03    0.20258E-04   -0.17585E-04   974   0.254E-02    0.698E-02
RMM:   7    -0.453834899772E+03   -0.21166E-05   -0.11506E-04   814   0.161E-02    0.396E-02
RMM:   8    -0.453834895127E+03    0.46452E-05   -0.24287E-05   538   0.955E-03
      4 T=   940. E= -.44036453E+03 F= -.45383490E+03 E0= -.45390202E+03  EK= 0.13485E+02 SP= -.15E-01 SK= 0.55E-03
       N       E                     dE             d eps       ncg     rms          rms(c)
DAV:   1    -0.453193041429E+03    0.64186E+00   -0.29944E-01  1240   0.264E+00    0.830E-01
RMM:   2    -0.453205137293E+03   -0.12096E-01   -0.11569E-01   850   0.589E-01    0.132E-01
RMM:   3    -0.453207779798E+03   -0.26425E-02   -0.26116E-02  1096   0.293E-01    0.295E-01
RMM:   4    -0.453208176895E+03   -0.39710E-03   -0.43933E-03  1069   0.122E-01    0.206E-01
RMM:   5    -0.453208206417E+03   -0.29522E-04   -0.60416E-04  1183   0.402E-02    0.140E-01
RMM:   6    -0.453208201038E+03    0.53791E-05   -0.37211E-05   586   0.114E-02
      5 T=   898. E= -.44036200E+03 F= -.45320820E+03 E0= -.45326901E+03  EK= 0.12892E+02 SP= -.49E-01 SK= 0.32E-02
       N       E                     dE             d eps       ncg     rms          rms(c)
DAV:   1    -0.452454542383E+03    0.75366E+00   -0.18503E-01  1216   0.237E+00    0.548E-01
RMM:   2    -0.452464690017E+03   -0.10148E-01   -0.97016E-02   869   0.512E-01    0.132E-01
RMM:   3    -0.452466853433E+03   -0.21634E-02   -0.21876E-02  1096   0.263E-01    0.282E-01
RMM:   4    -0.452467168044E+03   -0.31461E-03   -0.35862E-03  1079   0.107E-01    0.212E-01
RMM:   5    -0.452467168319E+03   -0.27531E-06   -0.44181E-04  1106   0.326E-02    0.141E-01
RMM:   6    -0.452467157643E+03    0.10676E-04   -0.39134E-05   606   0.111E-02    0.101E-01
RMM:   7    -0.452467143680E+03    0.13963E-04   -0.30164E-05   607   0.750E-03    0.367E-02
RMM:   8    -0.452467137195E+03    0.64846E-05   -0.41729E-05   676   0.842E-03
      6 T=   851. E= -.44035909E+03 F= -.45246714E+03 E0= -.45251867E+03  EK= 0.12214E+02 SP= -.12E+00 SK= 0.12E-01
       N       E                     dE             d eps       ncg     rms          rms(c)
DAV:   1    -0.451648436463E+03    0.81871E+00   -0.98778E-02  1256   0.220E+00    0.617E-01
RMM:   2    -0.451656007030E+03   -0.75706E-02   -0.75485E-02   896   0.435E-01    0.886E-02
RMM:   3    -0.451657415858E+03   -0.14088E-02   -0.16728E-02  1096   0.226E-01    0.118E-01
RMM:   4    -0.451657608267E+03   -0.19241E-03   -0.29134E-03  1085   0.955E-02    0.785E-02
RMM:   5    -0.451657563868E+03    0.44399E-04   -0.41370E-04  1080   0.303E-02    0.491E-02
RMM:   6    -0.451657488524E+03    0.75345E-04   -0.11183E-04   815   0.131E-02    0.147E-02
RMM:   7    -0.451657460620E+03    0.27903E-04   -0.10248E-04   752   0.105E-02    0.195E-02
RMM:   8    -0.451657459194E+03    0.14263E-05   -0.22016E-05   589   0.651E-03
      7 T=   802. E= -.44035666E+03 F= -.45165746E+03 E0= -.45170210E+03  EK= 0.11508E+02 SP= -.24E+00 SK= 0.33E-01
       N       E                     dE             d eps       ncg     rms          rms(c)
DAV:   1    -0.450820631811E+03    0.83683E+00   -0.72550E-02  1264   0.206E+00    0.308E-01
RMM:   2    -0.450827279655E+03   -0.66478E-02   -0.61745E-02   928   0.382E-01    0.134E-01
RMM:   3    -0.450828417508E+03   -0.11379E-02   -0.11445E-02  1096   0.189E-01    0.190E-01
RMM:   4    -0.450828629194E+03   -0.21169E-03   -0.22579E-03  1116   0.818E-02    0.156E-01
RMM:   5    -0.450828626488E+03    0.27058E-05   -0.21209E-04  1027   0.220E-02    0.107E-01
RMM:   6    -0.450828608969E+03    0.17519E-04   -0.42847E-05   693   0.988E-03    0.359E-02
RMM:   7    -0.450828603761E+03    0.52075E-05   -0.38711E-05   675   0.742E-03
      8 T=   755. E= -.44035485E+03 F= -.45082860E+03 E0= -.45086979E+03  EK= 0.10830E+02 SP= -.43E+00 SK= 0.75E-01
       N       E                     dE             d eps       ncg     rms          rms(c)
DAV:   1    -0.450014451801E+03    0.81416E+00   -0.64441E-02  1272   0.195E+00    0.493E-01
RMM:   2    -0.450019923459E+03   -0.54717E-02   -0.51656E-02   947   0.346E-01    0.558E-02
RMM:   3    -0.450020868600E+03   -0.94514E-03   -0.94872E-03  1099   0.170E-01    0.858E-02
RMM:   4    -0.450021056712E+03   -0.18811E-03   -0.19329E-03  1131   0.733E-02    0.620E-02
RMM:   5    -0.450021063868E+03   -0.71559E-05   -0.11284E-04   916   0.171E-02    0.446E-02
RMM:   6    -0.450021062070E+03    0.17979E-05   -0.11650E-05   477   0.691E-03
      9 T=   713. E= -.44035313E+03 F= -.45002106E+03 E0= -.45006061E+03  EK= 0.10228E+02 SP= -.71E+00 SK= 0.15E+00
       N       E                     dE             d eps       ncg     rms          rms(c)
DAV:   1    -0.449258801818E+03    0.76226E+00   -0.60553E-02  1264   0.188E+00    0.282E-01
RMM:   2    -0.449263762050E+03   -0.49602E-02   -0.45877E-02   947   0.326E-01    0.107E-01
RMM:   3    -0.449264564265E+03   -0.80221E-03   -0.80956E-03  1099   0.157E-01    0.158E-01
RMM:   4    -0.449264715681E+03   -0.15142E-03   -0.15518E-03  1127   0.662E-02    0.137E-01
RMM:   5    -0.449264719943E+03   -0.42621E-05   -0.11206E-04   846   0.162E-02    0.108E-01
RMM:   6    -0.449264715054E+03    0.48885E-05   -0.24008E-05   504   0.824E-03
     10 T=   679. E= -.44035177E+03 F= -.44926472E+03 E0= -.44930347E+03  EK= 0.97364E+01 SP= -.11E+01 SK= 0.27E+00
       N       E                     dE             d eps       ncg     rms          rms(c)
DAV:   1    -0.448572194310E+03    0.69253E+00   -0.44267E-02  1288   0.184E+00    0.386E-01
RMM:   2    -0.448576182609E+03   -0.39883E-02   -0.36842E-02   960   0.291E-01    0.467E-02
RMM:   3    -0.448576835745E+03   -0.65314E-03   -0.65135E-03  1105   0.140E-01    0.752E-02
RMM:   4    -0.448576954951E+03   -0.11921E-03   -0.12025E-03  1131   0.580E-02    0.528E-02
RMM:   5    -0.448576961418E+03   -0.64671E-05   -0.83929E-05   774   0.144E-02
     11 T=   654. E= -.44035108E+03 F= -.44857696E+03 E0= -.44861552E+03  EK= 0.93768E+01 SP= -.16E+01 SK= 0.43E+00
       N       E                     dE             d eps       ncg     rms          rms(c)
DAV:   1    -0.447956226149E+03    0.62073E+00   -0.27879E-02  1296   0.181E+00    0.140E-01
RMM:   2    -0.447959890552E+03   -0.36644E-02   -0.33259E-02   961   0.267E-01    0.126E-01
RMM:   3    -0.447960453343E+03   -0.56279E-03   -0.56827E-03  1102   0.129E-01    0.153E-01
RMM:   4    -0.447960560467E+03   -0.10712E-03   -0.10755E-03  1137   0.546E-02    0.148E-01
RMM:   5    -0.447960563811E+03   -0.33436E-05   -0.61562E-05   708   0.126E-02
     12 T=   638. E= -.44035093E+03 F= -.44796056E+03 E0= -.44799937E+03  EK= 0.91570E+01 SP= -.22E+01 SK= 0.65E+00
       N       E                     dE             d eps       ncg     rms          rms(c)
DAV:   1    -0.447402566300E+03    0.55799E+00   -0.30072E-02  1280   0.180E+00    0.126E-01
RMM:   2    -0.447405779776E+03   -0.32135E-02   -0.29200E-02   961   0.258E-01    0.253E-01
RMM:   3    -0.447406338953E+03   -0.55918E-03   -0.52359E-03  1097   0.122E-01    0.345E-01
RMM:   4    -0.447406357191E+03   -0.18238E-04   -0.86419E-04  1046   0.544E-02    0.259E-01
RMM:   5    -0.447406355997E+03    0.11943E-05   -0.23120E-04   929   0.251E-02    0.158E-01
RMM:   6    -0.447406344640E+03    0.11356E-04   -0.43322E-05   639   0.128E-02    0.130E-01
RMM:   7    -0.447406343984E+03    0.65608E-06   -0.11769E-05   484   0.633E-03
     13 T=   632. E= -.44035053E+03 F= -.44740634E+03 E0= -.44744577E+03  EK= 0.90741E+01 SP= -.29E+01 SK= 0.92E+00
       N       E                     dE             d eps       ncg     rms          rms(c)
DAV:   1    -0.446897521140E+03    0.50882E+00   -0.27411E-02  1284   0.182E+00    0.323E-01
RMM:   2    -0.446900275216E+03   -0.27541E-02   -0.28737E-02   950   0.271E-01    0.897E-02
RMM:   3    -0.446900791920E+03   -0.51670E-03   -0.52952E-03  1098   0.123E-01    0.993E-02
RMM:   4    -0.446900862650E+03   -0.70729E-04   -0.82125E-04  1068   0.519E-02    0.734E-02
RMM:   5    -0.446900870109E+03   -0.74589E-05   -0.15758E-04   854   0.193E-02    0.198E-02
RMM:   6    -0.446900870260E+03   -0.15159E-06   -0.28891E-05   562   0.101E-02
     14 T=   636. E= -.44035001E+03 F= -.44690087E+03 E0= -.44694102E+03  EK= 0.91213E+01 SP= -.38E+01 SK= 0.12E+01
       N       E                     dE             d eps       ncg     rms          rms(c)
DAV:   1    -0.446425424326E+03    0.47545E+00   -0.29729E-02  1280   0.180E+00    0.504E-01
RMM:   2    -0.446428413026E+03   -0.29887E-02   -0.29583E-02   954   0.255E-01    0.141E-01
RMM:   3    -0.446428898339E+03   -0.48531E-03   -0.52739E-03  1102   0.127E-01    0.517E-02
RMM:   4    -0.446428982570E+03   -0.84230E-04   -0.89955E-04  1098   0.518E-02    0.286E-02
RMM:   5    -0.446428980014E+03    0.25558E-05   -0.87749E-05   831   0.144E-02
     15 T=   648. E= -.44034955E+03 F= -.44642898E+03 E0= -.44646999E+03  EK= 0.92910E+01 SP= -.48E+01 SK= 0.16E+01
       N       E                     dE             d eps       ncg     rms          rms(c)
DAV:   1    -0.445971916270E+03    0.45707E+00   -0.25599E-02  1280   0.184E+00    0.130E-01
RMM:   2    -0.445975075747E+03   -0.31595E-02   -0.29490E-02   960   0.260E-01    0.134E-01
RMM:   3    -0.445975561790E+03   -0.48604E-03   -0.50425E-03  1097   0.121E-01    0.159E-01
RMM:   4    -0.445975651569E+03   -0.89779E-04   -0.88799E-04  1136   0.513E-02    0.162E-01
RMM:   5    -0.445975654946E+03   -0.33774E-05   -0.55137E-05   697   0.121E-02
     16 T=   667. E= -.44034894E+03 F= -.44597565E+03 E0= -.44601772E+03  EK= 0.95772E+01 SP= -.59E+01 SK= 0.20E+01
       N       E                     dE             d eps       ncg     rms          rms(c)
DAV:   1    -0.445522466829E+03    0.45318E+00   -0.34167E-02  1264   0.189E+00    0.249E-01
RMM:   2    -0.445525677218E+03   -0.32104E-02   -0.30598E-02   960   0.265E-01    0.329E-01
RMM:   3    -0.445526329997E+03   -0.65278E-03   -0.54027E-03  1096   0.124E-01    0.444E-01
RMM:   4    -0.445526280102E+03    0.49895E-04   -0.10385E-03   924   0.602E-02    0.240E-01
RMM:   5    -0.445526152582E+03    0.12752E-03   -0.46584E-04   999   0.307E-02    0.149E-01
RMM:   6    -0.445526153620E+03   -0.10382E-05   -0.67984E-05   720   0.140E-02
     17 T=   695. E= -.44034800E+03 F= -.44552615E+03 E0= -.44556939E+03  EK= 0.99742E+01 SP= -.72E+01 SK= 0.24E+01
       N       E                     dE             d eps       ncg     rms          rms(c)
DAV:   1    -0.445061382267E+03    0.46477E+00   -0.31670E-02  1280   0.194E+00    0.408E-01
RMM:   2    -0.445064326344E+03   -0.29441E-02   -0.33023E-02   944   0.282E-01    0.119E-01
RMM:   3    -0.445064894741E+03   -0.56840E-03   -0.58305E-03  1097   0.128E-01    0.109E-01
RMM:   4    -0.445064950787E+03   -0.56046E-04   -0.84345E-04  1048   0.537E-02    0.862E-02
RMM:   5    -0.445064948048E+03    0.27387E-05   -0.18792E-04   845   0.223E-02    0.219E-02
RMM:   6    -0.445064944842E+03    0.32064E-05   -0.45424E-05   754   0.123E-02
     18 T=   730. E= -.44034712E+03 F= -.44506494E+03 E0= -.44510853E+03  EK= 0.10475E+02 SP= -.85E+01 SK= 0.28E+01
       N       E                     dE             d eps       ncg     rms          rms(c)
DAV:   1    -0.444573819924E+03    0.49113E+00   -0.45916E-02  1272   0.195E+00    0.550E-01
RMM:   2    -0.444577859598E+03   -0.40397E-02   -0.40928E-02   954   0.287E-01    0.159E-01
RMM:   3    -0.444578569670E+03   -0.71007E-03   -0.67480E-03  1095   0.138E-01    0.108E-01
RMM:   4    -0.444578463602E+03    0.10607E-03   -0.11935E-03  1063   0.587E-02    0.599E-02
RMM:   5    -0.444578435996E+03    0.27605E-04   -0.20020E-04   947   0.212E-02    0.217E-02
RMM:   6    -0.444578435526E+03    0.47050E-06   -0.40608E-05   657   0.972E-03
     19 T=   772. E= -.44034621E+03 F= -.44457844E+03 E0= -.44462123E+03  EK= 0.11074E+02 SP= -.10E+02 SK= 0.31E+01
       N       E                     dE             d eps       ncg     rms          rms(c)
DAV:   1    -0.444051170699E+03    0.52727E+00   -0.42746E-02  1264   0.202E+00    0.199E-01
RMM:   2    -0.444055324570E+03   -0.41539E-02   -0.39694E-02   950   0.296E-01    0.133E-01
RMM:   3    -0.444055936806E+03   -0.61224E-03   -0.66246E-03  1097   0.137E-01    0.171E-01
RMM:   4    -0.444056022041E+03   -0.85235E-04   -0.93894E-04  1106   0.559E-02    0.163E-01
RMM:   5    -0.444056022106E+03   -0.65273E-07   -0.12988E-04   887   0.181E-02    0.146E-01
RMM:   6    -0.444056010866E+03    0.11241E-04   -0.39479E-05   642   0.855E-03    0.112E-01
RMM:   7    -0.444055985357E+03    0.25509E-04   -0.19879E-04   786   0.133E-02    0.701E-02
RMM:   8    -0.444055984663E+03    0.69354E-06   -0.31682E-05   629   0.811E-03
     20 T=   820. E= -.44034611E+03 F= -.44405598E+03 E0= -.44409780E+03  EK= 0.11765E+02 SP= -.11E+02 SK= 0.34E+01
       N       E                     dE             d eps       ncg     rms          rms(c)
DAV:   1    -0.443481717225E+03    0.57427E+00   -0.33089E-02  1288   0.209E+00    0.454E-01
RMM:   2    -0.443485884587E+03   -0.41674E-02   -0.41705E-02   950   0.298E-01    0.115E-01
RMM:   3    -0.443486613955E+03   -0.72937E-03   -0.69899E-03  1098   0.142E-01    0.104E-01
RMM:   4    -0.443486628339E+03   -0.14384E-04   -0.11172E-03  1030   0.599E-02    0.734E-02
RMM:   5    -0.443486611840E+03    0.16499E-04   -0.20934E-04   977   0.237E-02    0.310E-02
RMM:   6    -0.443486611129E+03    0.71080E-06   -0.48684E-05   672   0.111E-02
     21 T=   874. E= -.44034552E+03 F= -.44348661E+03 E0= -.44352766E+03  EK= 0.12542E+02 SP= -.13E+02 SK= 0.37E+01
       N       E                     dE             d eps       ncg     rms          rms(c)
DAV:   1    -0.442858964529E+03    0.62765E+00   -0.45424E-02  1280   0.220E+00    0.228E-01
RMM:   2    -0.442863873228E+03   -0.49087E-02   -0.45079E-02   947   0.317E-01    0.153E-01
RMM:   3    -0.442864585366E+03   -0.71214E-03   -0.76018E-03  1099   0.150E-01    0.193E-01
RMM:   4    -0.442864677707E+03   -0.92342E-04   -0.11145E-03  1099   0.611E-02    0.191E-01
RMM:   5    -0.442864717185E+03   -0.39478E-04   -0.15661E-04   952   0.193E-02    0.233E-01
RMM:   6    -0.442864648909E+03    0.68276E-04   -0.31818E-04   766   0.246E-02    0.280E-02
RMM:   7    -0.442864656325E+03   -0.74155E-05   -0.15451E-04   890   0.132E-02    0.497E-02
RMM:   8    -0.442864657183E+03   -0.85804E-06   -0.90166E-06   490   0.550E-03
     22 T=   934. E= -.44034475E+03 F= -.44286466E+03 E0= -.44290518E+03  EK= 0.13397E+02 SP= -.15E+02 SK= 0.38E+01
       N       E                     dE             d eps       ncg     rms          rms(c)
DAV:   1    -0.442186260352E+03    0.67840E+00   -0.58070E-02  1296   0.227E+00    0.573E-01
RMM:   2    -0.442191311372E+03   -0.50510E-02   -0.50395E-02   942   0.346E-01    0.108E-01
RMM:   3    -0.442192266161E+03   -0.95479E-03   -0.91284E-03  1099   0.164E-01    0.962E-02
RMM:   4    -0.442192331431E+03   -0.65269E-04   -0.13501E-03  1036   0.675E-02    0.706E-02
RMM:   5    -0.442192321076E+03    0.10354E-04   -0.24461E-04   996   0.257E-02    0.325E-02
RMM:   6    -0.442192323228E+03   -0.21511E-05   -0.47097E-05   619   0.118E-02
     23 T=   998. E= -.44034415E+03 F= -.44219232E+03 E0= -.44223269E+03  EK= 0.14325E+02 SP= -.16E+02 SK= 0.39E+01
       N       E                     dE             d eps       ncg     rms          rms(c)
DAV:   1    -0.441472684087E+03    0.71964E+00   -0.72703E-02  1256   0.240E+00    0.260E-01
RMM:   2    -0.441479202881E+03   -0.65188E-02   -0.58698E-02   939   0.376E-01    0.162E-01
RMM:   3    -0.441480234771E+03   -0.10319E-02   -0.10756E-02  1099   0.182E-01    0.222E-01
RMM:   4    -0.441480394414E+03   -0.15964E-03   -0.17364E-03  1114   0.742E-02    0.203E-01
RMM:   5    -0.441480397785E+03   -0.33708E-05   -0.19772E-04   977   0.208E-02    0.183E-01
RMM:   6    -0.441480391551E+03    0.62336E-05   -0.26029E-05   545   0.858E-03
     24 T=  1068. E= -.44034272E+03 F= -.44148039E+03 E0= -.44152102E+03  EK= 0.15326E+02 SP= -.18E+02 SK= 0.38E+01
       N       E                     dE             d eps       ncg     rms          rms(c)
DAV:   1    -0.440742574619E+03    0.73782E+00   -0.62573E-02  1288   0.248E+00    0.546E-01
RMM:   2    -0.440749750851E+03   -0.71762E-02   -0.64416E-02   956   0.390E-01    0.106E-01
RMM:   3    -0.440750910597E+03   -0.11597E-02   -0.11338E-02  1098   0.186E-01    0.119E-01
RMM:   4    -0.440751143718E+03   -0.23312E-03   -0.21703E-03  1087   0.814E-02    0.999E-02
RMM:   5    -0.440751113581E+03    0.30137E-04   -0.27255E-04  1031   0.261E-02    0.531E-02
RMM:   6    -0.440751112835E+03    0.74679E-06   -0.43235E-05   589   0.108E-02
     25 T=  1143. E= -.44034165E+03 F= -.44075111E+03 E0= -.44079230E+03  EK= 0.16402E+02 SP= -.20E+02 SK= 0.37E+01
       N       E                     dE             d eps       ncg     rms          rms(c)
DAV:   1    -0.440024785585E+03    0.72633E+00   -0.81091E-02  1304   0.257E+00    0.408E-01
RMM:   2    -0.440033269461E+03   -0.84839E-02   -0.76349E-02   934   0.428E-01    0.118E-01
RMM:   3    -0.440034661444E+03   -0.13920E-02   -0.13950E-02  1098   0.209E-01    0.196E-01
RMM:   4    -0.440034892343E+03   -0.23090E-03   -0.25338E-03  1119   0.873E-02    0.185E-01
RMM:   5    -0.440034919351E+03   -0.27009E-04   -0.22088E-04  1040   0.228E-02    0.197E-01
RMM:   6    -0.440034876559E+03    0.42792E-04   -0.62737E-05   720   0.116E-02    0.141E-01
RMM:   7    -0.440034851508E+03    0.25052E-04   -0.18253E-04   701   0.139E-02    0.415E-02
RMM:   8    -0.440034855294E+03   -0.37868E-05   -0.39539E-05   696   0.792E-03
     26 T=  1224. E= -.44034132E+03 F= -.44003486E+03 E0= -.44007644E+03  EK= 0.17556E+02 SP= -.21E+02 SK= 0.34E+01
       N       E                     dE             d eps       ncg     rms          rms(c)
DAV:   1    -0.439357316471E+03    0.67754E+00   -0.75268E-02  1336   0.266E+00    0.508E-01
RMM:   2    -0.439365427058E+03   -0.81106E-02   -0.71184E-02   936   0.435E-01    0.902E-02
RMM:   3    -0.439367023966E+03   -0.15969E-02   -0.14763E-02  1102   0.213E-01    0.169E-01
RMM:   4    -0.439367167280E+03   -0.14331E-03   -0.28411E-03  1084   0.907E-02    0.143E-01
RMM:   5    -0.439367179645E+03   -0.12365E-04   -0.25276E-04  1069   0.253E-02    0.115E-01
RMM:   6    -0.439367174753E+03    0.48916E-05   -0.36045E-05   513   0.981E-03
     27 T=  1310. E= -.44034156E+03 F= -.43936717E+03 E0= -.43940894E+03  EK= 0.18789E+02 SP= -.23E+02 SK= 0.30E+01
       N       E                     dE             d eps       ncg     rms          rms(c)
DAV:   1    -0.438770755959E+03    0.59642E+00   -0.86703E-02  1320   0.276E+00    0.573E-01
RMM:   2    -0.438779805119E+03   -0.90492E-02   -0.76883E-02   940   0.453E-01    0.135E-01
RMM:   3    -0.438781349189E+03   -0.15441E-02   -0.15865E-02  1103   0.225E-01    0.156E-01
RMM:   4    -0.438781656516E+03   -0.30733E-03   -0.35278E-03  1111   0.981E-02    0.130E-01
RMM:   5    -0.438781541143E+03    0.11537E-03   -0.27912E-04  1009   0.261E-02    0.662E-02
RMM:   6    -0.438781465144E+03    0.75999E-04   -0.14395E-04   850   0.157E-02    0.320E-02
RMM:   7    -0.438781358748E+03    0.10640E-03   -0.15699E-04   774   0.123E-02    0.190E-02
RMM:   8    -0.438781285794E+03    0.72954E-04   -0.11339E-04   742   0.958E-03    0.201E-02
RMM:   9    -0.438781248422E+03    0.37372E-04   -0.39941E-05   691   0.651E-03    0.192E-02
RMM:  10    -0.438781162619E+03    0.85804E-04   -0.10415E-04   769   0.847E-03    0.171E-02
RMM:  11    -0.438780788878E+03    0.37374E-03   -0.27641E-03  1113   0.353E-02    0.237E-02
RMM:  12    -0.438780905126E+03   -0.11625E-03   -0.34527E-04   844   0.159E-02    0.164E-02
RMM:  13    -0.438780813206E+03    0.91920E-04   -0.19938E-04   880   0.119E-02    0.207E-02
RMM:  14    -0.438780707956E+03    0.10525E-03   -0.81964E-04   996   0.201E-02    0.110E-02
RMM:  15    -0.438780699630E+03    0.83261E-05   -0.26065E-04   884   0.130E-02    0.969E-03
RMM:  16    -0.438780697875E+03    0.17553E-05   -0.36007E-05   577   0.573E-03
     28 T=  1400. E= -.44034459E+03 F= -.43878070E+03 E0= -.43881086E+03  EK= 0.20083E+02 SP= -.24E+02 SK= 0.25E+01
       N       E                     dE             d eps       ncg     rms          rms(c)
DAV:   1    -0.438302113572E+03    0.47859E+00   -0.10796E-01  1312   0.293E+00    0.550E-01
RMM:   2    -0.438298800155E+03    0.33134E-02   -0.10137E-01   929   0.502E-01    0.225E-01
RMM:   3    -0.438296715469E+03    0.20847E-02   -0.27285E-02  1104   0.262E-01    0.259E-01
RMM:   4    -0.438295097587E+03    0.16179E-02   -0.47134E-03   934   0.125E-01    0.114E-01
RMM:   5    -0.438293853179E+03    0.12444E-02   -0.39029E-03   945   0.832E-02    0.103E-01
RMM:   6    -0.438293729768E+03    0.12341E-03   -0.98509E-04  1116   0.407E-02    0.876E-02
RMM:   7    -0.438293693800E+03    0.35968E-04   -0.20921E-04   836   0.210E-02    0.370E-02
RMM:   8    -0.438293628057E+03    0.65743E-04   -0.21105E-04   792   0.184E-02    0.133E-02
RMM:   9    -0.438293628057E+03   -0.59663E-09   -0.73263E-05   773   0.106E-02
     29 T=  1491. E= -.44034991E+03 F= -.43829363E+03 E0= -.43831250E+03  EK= 0.21395E+02 SP= -.25E+02 SK= 0.19E+01
       N       E                     dE             d eps       ncg     rms          rms(c)
DAV:   1    -0.437898376687E+03    0.39525E+00   -0.11378E-01  1304   0.299E+00    0.591E-01
RMM:   2    -0.437905831987E+03   -0.74553E-02   -0.95105E-02   921   0.512E-01    0.139E-01
RMM:   3    -0.437906836526E+03   -0.10045E-02   -0.23547E-02  1105   0.263E-01    0.210E-01
RMM:   4    -0.437906793508E+03    0.43018E-04   -0.42402E-03  1071   0.115E-01    0.138E-01
RMM:   5    -0.437906242134E+03    0.55137E-03   -0.12333E-03   939   0.502E-02    0.438E-02
RMM:   6    -0.437905930894E+03    0.31124E-03   -0.84969E-04   871   0.296E-02    0.546E-02
RMM:   7    -0.437905832777E+03    0.98117E-04   -0.38641E-04   997   0.208E-02    0.465E-02
RMM:   8    -0.437905749706E+03    0.83071E-04   -0.14390E-04   789   0.131E-02    0.240E-02
RMM:   9    -0.437905617873E+03    0.13183E-03   -0.44517E-04   927   0.171E-02    0.161E-02
RMM:  10    -0.437905567904E+03    0.49969E-04   -0.14372E-04   814   0.112E-02    0.162E-02
RMM:  11    -0.437905486219E+03    0.81685E-04   -0.23722E-04   890   0.122E-02    0.176E-02
RMM:  12    -0.437905353333E+03    0.13289E-03   -0.68143E-04   980   0.185E-02    0.178E-02
RMM:  13    -0.437905359903E+03   -0.65707E-05   -0.31999E-05   654   0.718E-03
     30 T=  1578. E= -.44035861E+03 F= -.43790536E+03 E0= -.43792732E+03  EK= 0.22647E+02 SP= -.26E+02 SK= 0.13E+01
       N       E                     dE             d eps       ncg     rms          rms(c)
DAV:   1    -0.437576963549E+03    0.32839E+00   -0.22055E-01  1304   0.315E+00    0.809E-01
RMM:   2    -0.437582659520E+03   -0.56960E-02   -0.13318E-01   923   0.565E-01    0.265E-01
RMM:   3    -0.437583799345E+03   -0.11398E-02   -0.27345E-02  1077   0.291E-01    0.268E-01
RMM:   4    -0.437583509340E+03    0.29000E-03   -0.60876E-03  1043   0.128E-01    0.197E-01
RMM:   5    -0.437583356566E+03    0.15277E-03   -0.72901E-04  1098   0.373E-02    0.139E-01
RMM:   6    -0.437583300695E+03    0.55871E-04   -0.15016E-04   832   0.165E-02    0.701E-02
RMM:   7    -0.437583268956E+03    0.31739E-04   -0.14358E-04   762   0.128E-02    0.158E-02
RMM:   8    -0.437583267982E+03    0.97461E-06   -0.29075E-05   616   0.780E-03
     31 T=  1653. E= -.44036867E+03 F= -.43758327E+03 E0= -.43761316E+03  EK= 0.23718E+02 SP= -.27E+02 SK= 0.80E+00
       N       E                     dE             d eps       ncg     rms          rms(c)
DAV:   1    -0.437271512505E+03    0.31176E+00   -0.22304E-01  1312   0.321E+00    0.704E-01
RMM:   2    -0.437277345113E+03   -0.58326E-02   -0.13359E-01   912   0.572E-01    0.259E-01
RMM:   3    -0.437278340353E+03   -0.99524E-03   -0.27049E-02  1086   0.291E-01    0.267E-01
RMM:   4    -0.437278656796E+03   -0.31644E-03   -0.56303E-03  1112   0.123E-01    0.230E-01
RMM:   5    -0.437278579215E+03    0.77581E-04   -0.47454E-04  1093   0.331E-02    0.185E-01
RMM:   6    -0.437278395693E+03    0.18352E-03   -0.28235E-04   795   0.219E-02    0.967E-02
RMM:   7    -0.437278271215E+03    0.12448E-03   -0.44921E-04   776   0.205E-02    0.378E-02
RMM:   8    -0.437278243763E+03    0.27452E-04   -0.10132E-04   854   0.131E-02    0.258E-02
RMM:   9    -0.437278211899E+03    0.31864E-04   -0.10692E-04   757   0.116E-02    0.214E-02
RMM:  10    -0.437278197837E+03    0.14063E-04   -0.44817E-05   699   0.810E-03    0.769E-03
RMM:  11    -0.437278193544E+03    0.42929E-05   -0.21227E-05   560   0.587E-03
     32 T=  1706. E= -.44037838E+03 F= -.43727819E+03 E0= -.43730878E+03  EK= 0.24471E+02 SP= -.28E+02 SK= 0.37E+00
       N       E                     dE             d eps       ncg     rms          rms(c)
DAV:   1    -0.436924247980E+03    0.35395E+00   -0.16254E-01  1304   0.319E+00    0.660E-01
RMM:   2    -0.436935777606E+03   -0.11530E-01   -0.11190E-01   898   0.556E-01    0.113E-01
RMM:   3    -0.436938381453E+03   -0.26038E-02   -0.26550E-02  1101   0.287E-01    0.217E-01
RMM:   4    -0.436938839843E+03   -0.45839E-03   -0.51337E-03  1117   0.119E-01    0.179E-01
RMM:   5    -0.436938805096E+03    0.34747E-04   -0.34316E-04  1107   0.304E-02    0.139E-01
RMM:   6    -0.436938732682E+03    0.72414E-04   -0.10751E-04   769   0.141E-02    0.723E-02
RMM:   7    -0.436938664323E+03    0.68359E-04   -0.15407E-04   737   0.127E-02    0.266E-02
RMM:   8    -0.436938644716E+03    0.19607E-04   -0.81140E-05   825   0.963E-03    0.337E-02
RMM:   9    -0.436938636819E+03    0.78971E-05   -0.12187E-05   487   0.544E-03
     33 T=  1727. E= -.44038498E+03 F= -.43693864E+03 E0= -.43697028E+03  EK= 0.24785E+02 SP= -.28E+02 SK= 0.91E-01
       N       E                     dE             d eps       ncg     rms          rms(c)
DAV:   1    -0.436505763904E+03    0.43288E+00   -0.15439E-01  1296   0.318E+00    0.532E-01
RMM:   2    -0.436519630170E+03   -0.13866E-01   -0.11124E-01   906   0.552E-01    0.126E-01
RMM:   3    -0.436522386835E+03   -0.27567E-02   -0.26622E-02  1104   0.287E-01    0.259E-01
RMM:   4    -0.436522864194E+03   -0.47736E-03   -0.50485E-03  1122   0.118E-01    0.222E-01
RMM:   5    -0.436522870945E+03   -0.67518E-05   -0.28877E-04  1138   0.282E-02    0.209E-01
RMM:   6    -0.436522864232E+03    0.67138E-05   -0.18221E-05   501   0.820E-03
     34 T=  1713. E= -.44038485E+03 F= -.43652286E+03 E0= -.43655896E+03  EK= 0.24584E+02 SP= -.28E+02 SK= 0.48E-04
       N       E                     dE             d eps       ncg     rms          rms(c)
DAV:   1    -0.436004272600E+03    0.51860E+00   -0.17506E-01  1296   0.316E+00    0.642E-01
RMM:   2    -0.436015041300E+03   -0.10769E-01   -0.12364E-01   911   0.553E-01    0.284E-01
RMM:   3    -0.436016349260E+03   -0.13080E-02   -0.26314E-02  1093   0.287E-01    0.319E-01
RMM:   4    -0.436016541846E+03   -0.19259E-03   -0.55757E-03  1108   0.121E-01    0.271E-01
RMM:   5    -0.436016346541E+03    0.19530E-03   -0.55999E-04  1025   0.326E-02    0.188E-01
RMM:   6    -0.436016255899E+03    0.90642E-04   -0.39999E-04   864   0.224E-02    0.584E-02
RMM:   7    -0.436016258741E+03   -0.28418E-05   -0.11898E-04   852   0.123E-02    0.285E-02
RMM:   8    -0.436016251196E+03    0.75453E-05   -0.13780E-05   492   0.614E-03
     35 T=  1663. E= -.44037984E+03 F= -.43601625E+03 E0= -.43605418E+03  EK= 0.23862E+02 SP= -.28E+02 SK= 0.91E-01
       N       E                     dE             d eps       ncg     rms          rms(c)
DAV:   1    -0.435414854246E+03    0.60140E+00   -0.12229E-01  1304   0.303E+00    0.729E-01
RMM:   2    -0.435427383558E+03   -0.12529E-01   -0.10798E-01   911   0.529E-01    0.852E-02
RMM:   3    -0.435429832595E+03   -0.24490E-02   -0.23489E-02  1107   0.268E-01    0.176E-01
RMM:   4    -0.435430242356E+03   -0.40976E-03   -0.46673E-03  1089   0.111E-01    0.154E-01
RMM:   5    -0.435430249840E+03   -0.74842E-05   -0.28186E-04  1104   0.273E-02    0.143E-01
RMM:   6    -0.435430243642E+03    0.61986E-05   -0.20008E-05   513   0.836E-03
     36 T=  1581. E= -.44037159E+03 F= -.43543024E+03 E0= -.43546895E+03  EK= 0.22688E+02 SP= -.28E+02 SK= 0.32E+00
       N       E                     dE             d eps       ncg     rms          rms(c)
DAV:   1    -0.434783314691E+03    0.64694E+00   -0.10511E-01  1336   0.293E+00    0.501E-01
RMM:   2    -0.434794448642E+03   -0.11134E-01   -0.87178E-02   905   0.489E-01    0.151E-01
RMM:   3    -0.434796596903E+03   -0.21483E-02   -0.20334E-02  1109   0.247E-01    0.233E-01
RMM:   4    -0.434796945500E+03   -0.34860E-03   -0.38391E-03  1099   0.999E-02    0.199E-01
RMM:   5    -0.434796960476E+03   -0.14977E-04   -0.26798E-04  1088   0.259E-02    0.127E-01
RMM:   6    -0.434796944515E+03    0.15961E-04   -0.57697E-05   734   0.112E-02    0.530E-02
RMM:   7    -0.434796943064E+03    0.14513E-05   -0.26339E-05   554   0.763E-03
     37 T=  1477. E= -.44036235E+03 F= -.43479694E+03 E0= -.43483578E+03  EK= 0.21186E+02 SP= -.27E+02 SK= 0.63E+00
       N       E                     dE             d eps       ncg     rms          rms(c)
DAV:   1    -0.434143962918E+03    0.65298E+00   -0.10306E-01  1320   0.284E+00    0.640E-01
RMM:   2    -0.434155011213E+03   -0.11048E-01   -0.91996E-02   922   0.490E-01    0.794E-02
RMM:   3    -0.434157182543E+03   -0.21713E-02   -0.20302E-02  1104   0.250E-01    0.180E-01
RMM:   4    -0.434157489752E+03   -0.30721E-03   -0.41326E-03  1075   0.103E-01    0.153E-01
RMM:   5    -0.434157475799E+03    0.13953E-04   -0.26493E-04  1101   0.270E-02    0.121E-01
RMM:   6    -0.434157455226E+03    0.20572E-04   -0.57629E-05   744   0.108E-02    0.781E-02
RMM:   7    -0.434157443496E+03    0.11730E-04   -0.71955E-05   692   0.933E-03    0.162E-02
RMM:   8    -0.434157443934E+03   -0.43731E-06   -0.30733E-05   650   0.664E-03
     38 T=  1359. E= -.44035434E+03 F= -.43415744E+03 E0= -.43419628E+03  EK= 0.19500E+02 SP= -.27E+02 SK= 0.94E+00
       N       E                     dE             d eps       ncg     rms          rms(c)
DAV:   1    -0.433539988122E+03    0.61746E+00   -0.79848E-02  1344   0.273E+00    0.390E-01
RMM:   2    -0.433549330457E+03   -0.93423E-02   -0.74947E-02   913   0.449E-01    0.129E-01
RMM:   3    -0.433551130266E+03   -0.17998E-02   -0.16850E-02  1104   0.227E-01    0.211E-01
RMM:   4    -0.433551473328E+03   -0.34306E-03   -0.35412E-03  1094   0.946E-02    0.189E-01
RMM:   5    -0.433551474370E+03   -0.10419E-05   -0.21005E-04  1064   0.242E-02    0.157E-01
RMM:   6    -0.433551464044E+03    0.10325E-04   -0.33022E-05   552   0.957E-03    0.119E-01
RMM:   7    -0.433551455481E+03    0.85635E-05   -0.70031E-05   658   0.953E-03
     39 T=  1238. E= -.44034849E+03 F= -.43355146E+03 E0= -.43358992E+03  EK= 0.17768E+02 SP= -.26E+02 SK= 0.12E+01
       N       E                     dE             d eps       ncg     rms          rms(c)
DAV:   1    -0.432999338284E+03    0.55213E+00   -0.70611E-02  1304   0.261E+00    0.541E-01
RMM:   2    -0.433007394284E+03   -0.80560E-02   -0.66371E-02   919   0.432E-01    0.779E-02
RMM:   3    -0.433009106575E+03   -0.17123E-02   -0.15933E-02  1105   0.220E-01    0.146E-01
RMM:   4    -0.433009422436E+03   -0.31586E-03   -0.33368E-03  1092   0.914E-02    0.114E-01
RMM:   5    -0.433009423897E+03   -0.14614E-05   -0.23141E-04  1027   0.251E-02    0.705E-02
RMM:   6    -0.433009421661E+03    0.22360E-05   -0.39889E-05   575   0.107E-02
     40 T=  1122. E= -.44034577E+03 F= -.43300942E+03 E0= -.43304674E+03  EK= 0.16100E+02 SP= -.25E+02 SK= 0.14E+01
       N       E                     dE             d eps       ncg     rms          rms(c)
DAV:   1    -0.432541564769E+03    0.46786E+00   -0.58963E-02  1312   0.248E+00    0.301E-01
RMM:   2    -0.432548503813E+03   -0.69390E-02   -0.56965E-02   919   0.402E-01    0.137E-01
RMM:   3    -0.432549916861E+03   -0.14130E-02   -0.13401E-02  1101   0.205E-01    0.222E-01
RMM:   4    -0.432550191638E+03   -0.27478E-03   -0.28464E-03  1108   0.853E-02    0.200E-01
RMM:   5    -0.432550201413E+03   -0.97750E-05   -0.16209E-04   913   0.216E-02    0.197E-01
RMM:   6    -0.432550201206E+03    0.20765E-06   -0.17397E-05   493   0.806E-03
     41 T=  1016. E= -.44034464E+03 F= -.43255020E+03 E0= -.43258540E+03  EK= 0.14573E+02 SP= -.24E+02 SK= 0.14E+01
       N       E                     dE             d eps       ncg     rms          rms(c)
DAV:   1    -0.432182808742E+03    0.36739E+00   -0.51410E-02  1320   0.238E+00    0.156E-01
RMM:   2    -0.432188443087E+03   -0.56343E-02   -0.48437E-02   904   0.368E-01    0.313E-01
RMM:   3    -0.432189682238E+03   -0.12392E-02   -0.11519E-02  1097   0.185E-01    0.424E-01
RMM:   4    -0.432189803816E+03   -0.12158E-03   -0.22793E-03  1114   0.782E-02    0.430E-01
RMM:   5    -0.432189887844E+03   -0.84029E-04   -0.67237E-04   990   0.476E-02    0.452E-01
RMM:   6    -0.432189908732E+03   -0.20888E-04   -0.24033E-04  1007   0.272E-02    0.483E-01
RMM:   7    -0.432189922746E+03   -0.14014E-04   -0.55568E-05   707   0.108E-02    0.504E-01
RMM:   8    -0.432189940993E+03   -0.18246E-04   -0.23405E-05   553   0.686E-03    0.532E-01
RMM:   9    -0.432189988193E+03   -0.47200E-04   -0.23963E-05   573   0.644E-03    0.575E-01
RMM:  10    -0.432190034251E+03   -0.46058E-04   -0.12530E-05   476   0.642E-03    0.605E-01
RMM:  11    -0.432190078028E+03   -0.43777E-04   -0.11934E-05   471   0.622E-03    0.632E-01
RMM:  12    -0.432190080003E+03   -0.19746E-05   -0.54506E-06   424   0.422E-03
     42 T=   923. E= -.44034558E+03 F= -.43219008E+03 E0= -.43222384E+03  EK= 0.13238E+02 SP= -.23E+02 SK= 0.14E+01
       N       E                     dE             d eps       ncg     rms          rms(c)
DAV:   1    -0.431937713000E+03    0.25237E+00   -0.39470E-02  1328   0.232E+00    0.116E+00
RMM:   2    -0.431939263856E+03   -0.15509E-02   -0.52416E-02   920   0.430E-01    0.924E-01
RMM:   3    -0.431942521402E+03   -0.32575E-02   -0.18359E-02  1070   0.219E-01    0.345E-01
RMM:   4    -0.431940975324E+03    0.15461E-02   -0.72961E-03   910   0.115E-01    0.194E-01
RMM:   5    -0.431940094788E+03    0.88054E-03   -0.10564E-03   942   0.628E-02    0.811E-02
RMM:   6    -0.431940092798E+03    0.19900E-05   -0.46781E-04  1015   0.288E-02    0.539E-02
RMM:   7    -0.431940092348E+03    0.45049E-06   -0.65658E-05   752   0.122E-02
     43 T=   845. E= -.44034574E+03 F= -.43194009E+03 E0= -.43197290E+03  EK= 0.12122E+02 SP= -.22E+02 SK= 0.13E+01
       N       E                     dE             d eps       ncg     rms          rms(c)
DAV:   1    -0.431810668892E+03    0.12942E+00   -0.34543E-02  1312   0.226E+00    0.210E+00
RMM:   2    -0.431811200659E+03   -0.53177E-03   -0.48983E-02   910   0.364E-01    0.990E-01
RMM:   3    -0.431813144321E+03   -0.19437E-02   -0.17377E-02  1091   0.215E-01    0.274E-01
RMM:   4    -0.431812154542E+03    0.98978E-03   -0.38069E-03   909   0.980E-02    0.132E-01
RMM:   5    -0.431812111482E+03    0.43060E-04   -0.92237E-04  1000   0.462E-02    0.582E-02
RMM:   6    -0.431812069304E+03    0.42178E-04   -0.24178E-04   924   0.214E-02    0.282E-02
RMM:   7    -0.431812064152E+03    0.51522E-05   -0.30792E-05   624   0.997E-03
     44 T=   783. E= -.44034663E+03 F= -.43181206E+03 E0= -.43184464E+03  EK= 0.11241E+02 SP= -.21E+02 SK= 0.11E+01
       N       E                     dE             d eps       ncg     rms          rms(c)
DAV:   1    -0.431806823458E+03    0.52458E-02   -0.28431E-02  1328   0.214E+00    0.399E-01
RMM:   2    -0.431810309722E+03   -0.34863E-02   -0.34855E-02   898   0.331E-01    0.398E-01
RMM:   3    -0.431811123539E+03   -0.81382E-03   -0.84909E-03  1097   0.158E-01    0.408E-01
RMM:   4    -0.431811240125E+03   -0.11659E-03   -0.14259E-03  1034   0.652E-02    0.363E-01
RMM:   5    -0.431811293898E+03   -0.53773E-04   -0.11702E-03   842   0.432E-02    0.955E-02
RMM:   6    -0.431811263804E+03    0.30094E-04   -0.37888E-04   999   0.260E-02    0.113E-01
RMM:   7    -0.431811222070E+03    0.41734E-04   -0.45495E-05   646   0.112E-02    0.975E-02
RMM:   8    -0.431811196346E+03    0.25724E-04   -0.45484E-05   659   0.793E-03    0.587E-02
RMM:   9    -0.431811194406E+03    0.19398E-05   -0.17609E-04   883   0.118E-02    0.230E-02
RMM:  10    -0.431811190962E+03    0.34439E-05   -0.59840E-05   680   0.681E-03
     45 T=   738. E= -.44034838E+03 F= -.43181119E+03 E0= -.43184420E+03  EK= 0.10592E+02 SP= -.20E+02 SK= 0.92E+00
       N       E                     dE             d eps       ncg     rms          rms(c)
DAV:   1    -0.431932970291E+03   -0.12178E+00   -0.26006E-02  1312   0.205E+00    0.357E-01
RMM:   2    -0.431936372634E+03   -0.34023E-02   -0.31288E-02   902   0.290E-01    0.449E-02
RMM:   3    -0.431937110627E+03   -0.73799E-03   -0.72560E-03  1101   0.146E-01    0.967E-02
RMM:   4    -0.431937230394E+03   -0.11977E-03   -0.13258E-03  1035   0.610E-02    0.719E-02
RMM:   5    -0.431937239050E+03   -0.86557E-05   -0.19952E-04   916   0.221E-02    0.490E-02
RMM:   6    -0.431937238113E+03    0.93669E-06   -0.15483E-05   489   0.759E-03
     46 T=   709. E= -.44035041E+03 F= -.43193724E+03 E0= -.43197178E+03  EK= 0.10168E+02 SP= -.19E+02 SK= 0.71E+00
       N       E                     dE             d eps       ncg     rms          rms(c)
DAV:   1    -0.432176866048E+03   -0.23963E+00   -0.27934E-02  1304   0.200E+00    0.168E-01
RMM:   2    -0.432180222821E+03   -0.33568E-02   -0.30356E-02   917   0.282E-01    0.121E-01
RMM:   3    -0.432180870098E+03   -0.64728E-03   -0.65448E-03  1100   0.139E-01    0.167E-01
RMM:   4    -0.432180976922E+03   -0.10682E-03   -0.11444E-03  1076   0.577E-02    0.151E-01
RMM:   5    -0.432180975152E+03    0.17698E-05   -0.15981E-04   886   0.199E-02    0.125E-01
RMM:   6    -0.432180963555E+03    0.11597E-04   -0.36543E-05   652   0.891E-03    0.753E-02
RMM:   7    -0.432180958592E+03    0.49631E-05   -0.76039E-05   666   0.886E-03
     47 T=   693. E= -.44035247E+03 F= -.43218096E+03 E0= -.43221879E+03  EK= 0.99503E+01 SP= -.19E+02 SK= 0.51E+00
       N       E                     dE             d eps       ncg     rms          rms(c)
DAV:   1    -0.432519828000E+03   -0.33886E+00   -0.33159E-02  1304   0.199E+00    0.463E-01
RMM:   2    -0.432522844751E+03   -0.30168E-02   -0.32647E-02   902   0.284E-01    0.102E-01
RMM:   3    -0.432523523292E+03   -0.67854E-03   -0.69822E-03  1098   0.142E-01    0.809E-02
RMM:   4    -0.432523562357E+03   -0.39065E-04   -0.11906E-03  1028   0.595E-02    0.508E-02
RMM:   5    -0.432523561067E+03    0.12900E-05   -0.19229E-04   985   0.218E-02    0.218E-02
RMM:   6    -0.432523560054E+03    0.10122E-05   -0.27868E-05   551   0.869E-03
     48 T=   691. E= -.44035416E+03 F= -.43252356E+03 E0= -.43256533E+03  EK= 0.99117E+01 SP= -.18E+02 SK= 0.34E+00
       N       E                     dE             d eps       ncg     rms          rms(c)
DAV:   1    -0.432940192247E+03   -0.41663E+00   -0.42351E-02  1312   0.198E+00    0.261E-01
RMM:   2    -0.432941866683E+03   -0.16744E-02   -0.34175E-02   900   0.281E-01    0.151E-01
RMM:   3    -0.432942232046E+03   -0.36536E-03   -0.69961E-03  1098   0.141E-01    0.164E-01
RMM:   4    -0.432942255251E+03   -0.23205E-04   -0.10639E-03  1055   0.571E-02    0.145E-01
RMM:   5    -0.432942233894E+03    0.21357E-04   -0.16610E-04   954   0.196E-02    0.116E-01
RMM:   6    -0.432942189471E+03    0.44423E-04   -0.19327E-04   714   0.150E-02    0.263E-02
RMM:   7    -0.432942184732E+03    0.47390E-05   -0.67400E-05   793   0.944E-03
     49 T=   699. E= -.44035563E+03 F= -.43294218E+03 E0= -.43298581E+03  EK= 0.10023E+02 SP= -.18E+02 SK= 0.21E+00
       N       E                     dE             d eps       ncg     rms          rms(c)
DAV:   1    -0.433409800524E+03   -0.46761E+00   -0.26631E-02  1304   0.199E+00    0.314E-01
RMM:   2    -0.433412580195E+03   -0.27797E-02   -0.30380E-02   912   0.268E-01    0.765E-02
RMM:   3    -0.433413153048E+03   -0.57285E-03   -0.61017E-03  1097   0.132E-01    0.106E-01
RMM:   4    -0.433413210804E+03   -0.57756E-04   -0.89416E-04  1054   0.542E-02    0.851E-02
RMM:   5    -0.433413207199E+03    0.36049E-05   -0.18174E-04   951   0.207E-02    0.484E-02
RMM:   6    -0.433413203705E+03    0.34938E-05   -0.40278E-05   629   0.932E-03
     50 T=   715. E= -.44035629E+03 F= -.43341320E+03 E0= -.43345778E+03  EK= 0.10258E+02 SP= -.17E+02 SK= 0.11E+00
       N       E                     dE             d eps       ncg     rms          rms(c)
DAV:   1    -0.433911278668E+03   -0.49807E+00   -0.17225E-02  1312   0.202E+00    0.275E-01
RMM:   2    -0.433913896328E+03   -0.26177E-02   -0.27102E-02   910   0.252E-01    0.734E-02
RMM:   3    -0.433914374628E+03   -0.47830E-03   -0.53588E-03  1099   0.124E-01    0.102E-01
RMM:   4    -0.433914428127E+03   -0.53499E-04   -0.83897E-04  1062   0.523E-02    0.878E-02
RMM:   5    -0.433914431811E+03   -0.36840E-05   -0.15262E-04   904   0.188E-02    0.708E-02
RMM:   6    -0.433914423383E+03    0.84283E-05   -0.24732E-05   524   0.746E-03
     51 T=   738. E= -.44035702E+03 F= -.43391442E+03 E0= -.43395919E+03  EK= 0.10588E+02 SP= -.17E+02 SK= 0.49E-01
       N       E                     dE             d eps       ncg     rms          rms(c)
DAV:   1    -0.434420536443E+03   -0.50610E+00   -0.19868E-02  1288   0.203E+00    0.286E-01
RMM:   2    -0.434423093951E+03   -0.25575E-02   -0.26546E-02   911   0.253E-01    0.729E-02
RMM:   3    -0.434423517214E+03   -0.42326E-03   -0.55351E-03  1101   0.123E-01    0.104E-01
RMM:   4    -0.434423548371E+03   -0.31157E-04   -0.80362E-04  1041   0.522E-02    0.731E-02
RMM:   5    -0.434423499069E+03    0.49302E-04   -0.24303E-04   958   0.239E-02    0.348E-02
RMM:   6    -0.434423428285E+03    0.70783E-04   -0.14202E-04   794   0.131E-02    0.144E-02
RMM:   7    -0.434423383249E+03    0.45037E-04   -0.15268E-04   771   0.111E-02    0.258E-02
RMM:   8    -0.434423369226E+03    0.14023E-04   -0.65114E-05   798   0.791E-03    0.196E-02
RMM:   9    -0.434423361817E+03    0.74085E-05   -0.24676E-05   580   0.534E-03
     52 T=   766. E= -.44035840E+03 F= -.43442336E+03 E0= -.43446425E+03  EK= 0.10989E+02 SP= -.17E+02 SK= 0.14E-01
       N       E                     dE             d eps       ncg     rms          rms(c)
DAV:   1    -0.434913734865E+03   -0.49037E+00   -0.11656E-02  1312   0.214E+00    0.256E-01
RMM:   2    -0.434915397302E+03   -0.16624E-02   -0.29174E-02   910   0.270E-01    0.110E-01
RMM:   3    -0.434915564068E+03   -0.16677E-03   -0.66423E-03  1101   0.132E-01    0.145E-01
RMM:   4    -0.434915467082E+03    0.96986E-04   -0.85686E-04   991   0.550E-02    0.954E-02
RMM:   5    -0.434915172868E+03    0.29421E-03   -0.84685E-04   851   0.398E-02    0.444E-02
RMM:   6    -0.434915138072E+03    0.34797E-04   -0.38415E-04  1012   0.230E-02    0.454E-02
RMM:   7    -0.434915125344E+03    0.12728E-04   -0.44259E-05   687   0.998E-03    0.253E-02
RMM:   8    -0.434915109923E+03    0.15421E-04   -0.80470E-05   722   0.937E-03    0.135E-02
RMM:   9    -0.434915099351E+03    0.10571E-04   -0.31849E-05   640   0.637E-03    0.712E-03
RMM:  10    -0.434915096675E+03    0.26764E-05   -0.84933E-06   467   0.431E-03
     53 T=   797. E= -.44035855E+03 F= -.43491510E+03 E0= -.43494672E+03  EK= 0.11434E+02 SP= -.17E+02 SK= 0.62E-03
       N       E                     dE             d eps       ncg     rms          rms(c)
DAV:   1    -0.435373243226E+03   -0.45814E+00   -0.17481E-02  1304   0.222E+00    0.346E-01
RMM:   2    -0.435373129815E+03    0.11341E-03   -0.34462E-02   925   0.277E-01    0.129E-01
RMM:   3    -0.435372746457E+03    0.38336E-03   -0.84897E-03  1099   0.138E-01    0.128E-01
RMM:   4    -0.435372542889E+03    0.20357E-03   -0.13191E-03  1022   0.616E-02    0.101E-01
RMM:   5    -0.435372095659E+03    0.44723E-03   -0.68528E-04   849   0.370E-02    0.290E-02
RMM:   6    -0.435371973377E+03    0.12228E-03   -0.57275E-04   881   0.257E-02    0.375E-02
RMM:   7    -0.435371968906E+03    0.44709E-05   -0.12279E-04   930   0.148E-02    0.196E-02
RMM:   8    -0.435371952808E+03    0.16098E-04   -0.44706E-05   630   0.937E-03    0.677E-03
RMM:   9    -0.435371951788E+03    0.10203E-05   -0.28977E-05   596   0.622E-03
     54 T=   829. E= -.44035931E+03 F= -.43537195E+03 E0= -.43539937E+03  EK= 0.11900E+02 SP= -.17E+02 SK= 0.28E-02
       N       E                     dE             d eps       ncg     rms          rms(c)
DAV:   1    -0.435772679636E+03   -0.40073E+00   -0.23743E-02  1320   0.222E+00    0.302E-01
RMM:   2    -0.435775742158E+03   -0.30625E-02   -0.33685E-02   925   0.281E-01    0.796E-02
RMM:   3    -0.435776250214E+03   -0.50806E-03   -0.66857E-03  1102   0.135E-01    0.114E-01
RMM:   4    -0.435776289999E+03   -0.39786E-04   -0.91237E-04  1043   0.555E-02    0.805E-02
RMM:   5    -0.435776264450E+03    0.25550E-04   -0.29941E-04   993   0.262E-02    0.362E-02
RMM:   6    -0.435776239404E+03    0.25046E-04   -0.69555E-05   812   0.110E-02    0.146E-02
RMM:   7    -0.435776227629E+03    0.11774E-04   -0.23176E-05   559   0.653E-03    0.120E-02
RMM:   8    -0.435776224155E+03    0.34739E-05   -0.12335E-05   481   0.524E-03
     55 T=   862. E= -.44036049E+03 F= -.43577622E+03 E0= -.43580131E+03  EK= 0.12364E+02 SP= -.17E+02 SK= 0.14E-01
       N       E                     dE             d eps       ncg     rms          rms(c)
DAV:   1    -0.436103092165E+03   -0.32686E+00   -0.28119E-02  1312   0.224E+00    0.297E-01
RMM:   2    -0.436106786379E+03   -0.36942E-02   -0.37183E-02   930   0.291E-01    0.847E-02
RMM:   3    -0.436107265654E+03   -0.47927E-03   -0.71983E-03  1100   0.140E-01    0.127E-01
RMM:   4    -0.436107264010E+03    0.16439E-05   -0.11042E-03  1079   0.575E-02    0.109E-01
RMM:   5    -0.436107197637E+03    0.66373E-04   -0.20722E-04  1004   0.216E-02    0.977E-02
RMM:   6    -0.436107175988E+03    0.21649E-04   -0.15608E-05   503   0.697E-03    0.969E-02
RMM:   7    -0.436107502238E+03   -0.32625E-03   -0.24532E-04   812   0.138E-02    0.118E-01
RMM:   8    -0.436108123396E+03   -0.62116E-03   -0.19260E-03  1086   0.308E-02    0.162E-01
RMM:   9    -0.436108065339E+03    0.58057E-04   -0.68921E-05   696   0.110E-02    0.163E-01
RMM:  10    -0.436107941106E+03    0.12423E-03   -0.10639E-04   826   0.875E-03    0.178E-01
RMM:  11    -0.436111168576E+03   -0.32275E-02   -0.10568E-02  1328   0.736E-02    0.193E-01
RMM:  12    -0.436108436254E+03    0.27323E-02   -0.27600E-03  1130   0.416E-02    0.865E-02
RMM:  13    -0.436108114577E+03    0.32168E-03   -0.77926E-04   976   0.196E-02    0.512E-02
RMM:  14    -0.436107923586E+03    0.19099E-03   -0.35468E-04   932   0.161E-02    0.306E-02
RMM:  15    -0.436107630506E+03    0.29308E-03   -0.52187E-04   958   0.168E-02    0.430E-02
RMM:  16    -0.436107454897E+03    0.17561E-03   -0.18035E-04   831   0.111E-02    0.479E-02
RMM:  17    -0.436107383233E+03    0.71664E-04   -0.30661E-05   607   0.612E-03    0.460E-02
RMM:  18    -0.436107140725E+03    0.24251E-03   -0.17397E-04   815   0.982E-03    0.489E-02
RMM:  19    -0.436106961770E+03    0.17895E-03   -0.10814E-04   771   0.827E-03    0.523E-02
RMM:  20    -0.436107012342E+03   -0.50572E-04   -0.73857E-06   468   0.373E-03    0.520E-02
RMM:  21    -0.436106958613E+03    0.53728E-04   -0.62417E-06   445   0.291E-03    0.530E-02
RMM:  22    -0.436106819508E+03    0.13911E-03   -0.51387E-05   681   0.524E-03    0.551E-02
RMM:  23    -0.436106733747E+03    0.85762E-04   -0.24422E-05   588   0.415E-03    0.562E-02
RMM:  24    -0.436106802860E+03   -0.69114E-04   -0.79919E-06   422   0.317E-03    0.556E-02
RMM:  25    -0.436107066670E+03   -0.26381E-03   -0.16595E-04   786   0.867E-03    0.504E-02
RMM:  26    -0.436108075218E+03   -0.10085E-02   -0.40979E-03  1198   0.438E-02    0.324E-02
RMM:  27    -0.436108360473E+03   -0.28526E-03   -0.70629E-04   987   0.204E-02    0.459E-02
RMM:  28    -0.436108229831E+03    0.13064E-03   -0.74789E-05   664   0.764E-03    0.420E-02
RMM:  29    -0.436108179691E+03    0.50140E-04   -0.19895E-05   522   0.373E-03    0.403E-02
RMM:  30    -0.436108100457E+03    0.79234E-04   -0.44893E-05   685   0.484E-03    0.385E-02
RMM:  31    -0.436107610965E+03    0.48949E-03   -0.12023E-03  1035   0.238E-02    0.421E-02
RMM:  32    -0.436107558362E+03    0.52603E-04   -0.92412E-05   799   0.940E-03    0.415E-02
RMM:  33    -0.436107502843E+03    0.55519E-04   -0.22093E-05   573   0.495E-03    0.430E-02
RMM:  34    -0.436107309106E+03    0.19374E-03   -0.14352E-04   774   0.874E-03    0.471E-02
RMM:  35    -0.436106725382E+03    0.58372E-03   -0.84406E-04  1002   0.203E-02    0.558E-02
RMM:  36    -0.436106507834E+03    0.21755E-03   -0.19756E-04   836   0.113E-02    0.553E-02
RMM:  37    -0.436106499248E+03    0.85860E-05   -0.80463E-06   478   0.437E-03
     56 T=   892. E= -.44036048E+03 F= -.43610650E+03 E0= -.43612495E+03  EK= 0.12800E+02 SP= -.17E+02 SK= 0.28E-01
       N       E                     dE             d eps       ncg     rms          rms(c)
DAV:   1    -0.436342876650E+03   -0.23637E+00   -0.26866E-02  1304   0.234E+00    0.368E-01
RMM:   2    -0.436346221573E+03   -0.33449E-02   -0.44368E-02   940   0.312E-01    0.948E-02
RMM:   3    -0.436346573003E+03   -0.35143E-03   -0.83964E-03  1097   0.149E-01    0.123E-01
RMM:   4    -0.436346519480E+03    0.53523E-04   -0.12354E-03  1028   0.640E-02    0.758E-02
RMM:   5    -0.436346346981E+03    0.17250E-03   -0.55301E-04   898   0.353E-02    0.203E-02
RMM:   6    -0.436346317029E+03    0.29952E-04   -0.21420E-04   982   0.185E-02    0.256E-02
RMM:   7    -0.436346310454E+03    0.65749E-05   -0.31161E-05   580   0.867E-03
     57 T=   919. E= -.44035919E+03 F= -.43634631E+03 E0= -.43636056E+03  EK= 0.13184E+02 SP= -.17E+02 SK= 0.43E-01
       N       E                     dE             d eps       ncg     rms          rms(c)
DAV:   1    -0.436491187228E+03   -0.14487E+00   -0.23532E-02  1304   0.231E+00    0.341E-01
RMM:   2    -0.436492363390E+03   -0.11762E-02   -0.42679E-02   931   0.305E-01    0.120E-01
RMM:   3    -0.436492281263E+03    0.82127E-04   -0.89494E-03  1100   0.149E-01    0.140E-01
RMM:   4    -0.436492010949E+03    0.27031E-03   -0.13706E-03   993   0.667E-02    0.797E-02
RMM:   5    -0.436491620325E+03    0.39062E-03   -0.10066E-03   896   0.445E-02    0.411E-02
RMM:   6    -0.436491594856E+03    0.25468E-04   -0.37759E-04  1074   0.246E-02    0.388E-02
RMM:   7    -0.436491586418E+03    0.84382E-05   -0.47502E-05   675   0.108E-02
     58 T=   941. E= -.44035913E+03 F= -.43649159E+03 E0= -.43650542E+03  EK= 0.13503E+02 SP= -.17E+02 SK= 0.55E-01
       N       E                     dE             d eps       ncg     rms          rms(c)
DAV:   1    -0.436540224598E+03   -0.48630E-01   -0.29141E-02  1304   0.232E+00    0.357E-01
RMM:   2    -0.436543834147E+03   -0.36095E-02   -0.42407E-02   932   0.308E-01    0.979E-02
RMM:   3    -0.436544089411E+03   -0.25526E-03   -0.85761E-03  1099   0.151E-01    0.137E-01
RMM:   4    -0.436543916749E+03    0.17266E-03   -0.13736E-03  1027   0.644E-02    0.873E-02
RMM:   5    -0.436543531677E+03    0.38507E-03   -0.86682E-04   916   0.387E-02    0.278E-02
RMM:   6    -0.436543436643E+03    0.95035E-04   -0.47952E-04   905   0.240E-02    0.377E-02
RMM:   7    -0.436543430384E+03    0.62585E-05   -0.86815E-05   870   0.147E-02
     59 T=   959. E= -.44035796E+03 F= -.43654343E+03 E0= -.43655679E+03  EK= 0.13753E+02 SP= -.18E+02 SK= 0.65E-01
       N       E                     dE             d eps       ncg     rms          rms(c)
DAV:   1    -0.436513052837E+03    0.30384E-01   -0.24245E-02  1304   0.230E+00    0.299E-01
RMM:   2    -0.436517317349E+03   -0.42645E-02   -0.37902E-02   919   0.305E-01    0.810E-02
RMM:   3    -0.436518116872E+03   -0.79952E-03   -0.81308E-03  1108   0.150E-01    0.140E-01
RMM:   4    -0.436518213240E+03   -0.96368E-04   -0.11006E-03  1068   0.582E-02    0.117E-01
RMM:   5    -0.436518218952E+03   -0.57129E-05   -0.15510E-04   949   0.207E-02    0.994E-02
RMM:   6    -0.436518210831E+03    0.81214E-05   -0.27588E-05   589   0.841E-03
     60 T=   972. E= -.44035670E+03 F= -.43651821E+03 E0= -.43653035E+03  EK= 0.13943E+02 SP= -.18E+02 SK= 0.72E-01
       N       E                     dE             d eps       ncg     rms          rms(c)
DAV:   1    -0.436435964985E+03    0.82254E-01   -0.30718E-02  1328   0.232E+00    0.440E-01
RMM:   2    -0.436440565067E+03   -0.46001E-02   -0.41505E-02   937   0.310E-01    0.725E-02
RMM:   3    -0.436441373050E+03   -0.80798E-03   -0.82262E-03  1108   0.150E-01    0.934E-02
RMM:   4    -0.436441480977E+03   -0.10793E-03   -0.11684E-03  1056   0.602E-02    0.572E-02
RMM:   5    -0.436441492398E+03   -0.11421E-04   -0.18193E-04   989   0.225E-02    0.243E-02
RMM:   6    -0.436441490827E+03    0.15712E-05   -0.14983E-05   487   0.754E-03
     61 T=   982. E= -.44035514E+03 F= -.43644149E+03 E0= -.43645244E+03  EK= 0.14093E+02 SP= -.18E+02 SK= 0.77E-01
       N       E                     dE             d eps       ncg     rms          rms(c)
DAV:   1    -0.436336322557E+03    0.10517E+00   -0.44518E-02  1304   0.233E+00    0.318E-01
RMM:   2    -0.436341807768E+03   -0.54852E-02   -0.49285E-02   932   0.335E-01    0.114E-01
RMM:   3    -0.436342606637E+03   -0.79887E-03   -0.88974E-03  1103   0.161E-01    0.173E-01
RMM:   4    -0.436342710928E+03   -0.10429E-03   -0.14684E-03  1088   0.649E-02    0.145E-01
RMM:   5    -0.436342682431E+03    0.28496E-04   -0.19033E-04   997   0.208E-02    0.111E-01
RMM:   6    -0.436342588802E+03    0.93629E-04   -0.13637E-04   744   0.125E-02    0.366E-02
RMM:   7    -0.436342509838E+03    0.78965E-04   -0.17404E-04   718   0.116E-02    0.269E-02
RMM:   8    -0.436342664402E+03   -0.15456E-03   -0.29996E-04   905   0.139E-02    0.770E-02
RMM:   9    -0.436342802568E+03   -0.13817E-03   -0.43589E-04   904   0.144E-02    0.640E-02
RMM:  10    -0.436342680807E+03    0.12176E-03   -0.22389E-04   839   0.112E-02    0.702E-02
RMM:  11    -0.436342750053E+03   -0.69246E-04   -0.46550E-05   675   0.635E-03    0.778E-02
RMM:  12    -0.436342859025E+03   -0.10897E-03   -0.21972E-04   810   0.961E-03    0.803E-02
RMM:  13    -0.436342340404E+03    0.51862E-03   -0.28339E-03  1084   0.347E-02    0.855E-02
RMM:  14    -0.436343073287E+03   -0.73288E-03   -0.44689E-03  1138   0.447E-02    0.707E-02
RMM:  15    -0.436343364050E+03   -0.29076E-03   -0.44941E-04   903   0.157E-02    0.885E-02
RMM:  16    -0.436342985251E+03    0.37880E-03   -0.25355E-04   823   0.112E-02    0.620E-02
RMM:  17    -0.436342308062E+03    0.67719E-03   -0.46900E-03  1161   0.439E-02    0.396E-02
RMM:  18    -0.436342443486E+03   -0.13542E-03   -0.18338E-04   852   0.138E-02    0.300E-02
RMM:  19    -0.436342434575E+03    0.89113E-05   -0.12433E-05   498   0.406E-03
     62 T=   992. E= -.44035324E+03 F= -.43634243E+03 E0= -.43635064E+03  EK= 0.14228E+02 SP= -.18E+02 SK= 0.80E-01
       N       E                     dE             d eps       ncg     rms          rms(c)
DAV:   1    -0.436239272113E+03    0.10317E+00   -0.48672E-02  1280   0.233E+00    0.397E-01
RMM:   2    -0.436244593930E+03   -0.53218E-02   -0.50708E-02   942   0.340E-01    0.800E-02
RMM:   3    -0.436245401512E+03   -0.80758E-03   -0.93310E-03  1101   0.161E-01    0.131E-01
RMM:   4    -0.436245479607E+03   -0.78094E-04   -0.13163E-03  1057   0.654E-02    0.858E-02
RMM:   5    -0.436245441681E+03    0.37926E-04   -0.31032E-04   969   0.272E-02    0.202E-02
RMM:   6    -0.436245424219E+03    0.17462E-04   -0.74447E-05   831   0.123E-02    0.137E-02
RMM:   7    -0.436245415469E+03    0.87501E-05   -0.25834E-05   564   0.700E-03
     63 T=  1002. E= -.44034980E+03 F= -.43624542E+03 E0= -.43624963E+03  EK= 0.14372E+02 SP= -.19E+02 SK= 0.80E-01
       N       E                     dE             d eps       ncg     rms          rms(c)
DAV:   1    -0.436178526381E+03    0.66898E-01   -0.32679E-02  1296   0.243E+00    0.420E-01
RMM:   2    -0.436176905890E+03    0.16205E-02   -0.51567E-02   935   0.339E-01    0.165E-01
RMM:   3    -0.436175624703E+03    0.12812E-02   -0.13613E-02  1102   0.174E-01    0.170E-01
RMM:   4    -0.436174741808E+03    0.88290E-03   -0.22857E-03   967   0.805E-02    0.637E-02
RMM:   5    -0.436174205346E+03    0.53646E-03   -0.15163E-03   944   0.520E-02    0.560E-02
RMM:   6    -0.436174202941E+03    0.24049E-05   -0.37367E-04  1094   0.276E-02    0.339E-02
RMM:   7    -0.436174175043E+03    0.27898E-04   -0.69548E-05   729   0.137E-02    0.115E-02
RMM:   8    -0.436174166656E+03    0.83865E-05   -0.68606E-05   670   0.980E-03
     64 T=  1013. E= -.44034938E+03 F= -.43617417E+03 E0= -.43617816E+03  EK= 0.14540E+02 SP= -.19E+02 SK= 0.78E-01
       N       E                     dE             d eps       ncg     rms          rms(c)
DAV:   1    -0.436133164746E+03    0.41010E-01   -0.46503E-02  1304   0.235E+00    0.398E-01
RMM:   2    -0.436136818832E+03   -0.36541E-02   -0.52128E-02   938   0.351E-01    0.124E-01
RMM:   3    -0.436137166577E+03   -0.34775E-03   -0.10303E-02  1098   0.169E-01    0.162E-01
RMM:   4    -0.436137025096E+03    0.14148E-03   -0.16710E-03   992   0.747E-02    0.782E-02
RMM:   5    -0.436136785496E+03    0.23960E-03   -0.77696E-04   924   0.424E-02    0.426E-02
RMM:   6    -0.436136771691E+03    0.13805E-04   -0.26176E-04  1044   0.212E-02    0.293E-02
RMM:   7    -0.436136766136E+03    0.55544E-05   -0.37765E-05   615   0.982E-03
     65 T=  1027. E= -.44034919E+03 F= -.43613677E+03 E0= -.43614070E+03  EK= 0.14739E+02 SP= -.19E+02 SK= 0.73E-01
       N       E                     dE             d eps       ncg     rms          rms(c)
DAV:   1    -0.436126286710E+03    0.10485E-01   -0.34336E-02  1312   0.236E+00    0.347E-01
RMM:   2    -0.436131583537E+03   -0.52968E-02   -0.46161E-02   930   0.342E-01    0.902E-02
RMM:   3    -0.436132451545E+03   -0.86801E-03   -0.88754E-03  1106   0.165E-01    0.143E-01
RMM:   4    -0.436132585932E+03   -0.13439E-03   -0.15533E-03  1091   0.679E-02    0.110E-01
RMM:   5    -0.436132586591E+03   -0.65874E-06   -0.16723E-04   993   0.211E-02    0.800E-02
RMM:   6    -0.436132581142E+03    0.54487E-05   -0.32313E-05   597   0.853E-03
     66 T=  1043. E= -.44034931E+03 F= -.43613258E+03 E0= -.43613649E+03  EK= 0.14964E+02 SP= -.19E+02 SK= 0.65E-01
       N       E                     dE             d eps       ncg     rms          rms(c)
DAV:   1    -0.436147752486E+03   -0.15166E-01   -0.35826E-02  1304   0.240E+00    0.410E-01
RMM:   2    -0.436152949661E+03   -0.51972E-02   -0.45658E-02   923   0.344E-01    0.664E-02
RMM:   3    -0.436153871185E+03   -0.92152E-03   -0.91451E-03  1106   0.166E-01    0.106E-01
RMM:   4    -0.436154009256E+03   -0.13807E-03   -0.14734E-03  1079   0.681E-02    0.705E-02
RMM:   5    -0.436154020763E+03   -0.11507E-04   -0.17683E-04  1006   0.224E-02    0.459E-02
RMM:   6    -0.436154019847E+03    0.91616E-06   -0.11670E-05   473   0.709E-03
     67 T=  1059. E= -.44034983E+03 F= -.43615402E+03 E0= -.43615792E+03  EK= 0.15200E+02 SP= -.19E+02 SK= 0.54E-01
       N       E                     dE             d eps       ncg     rms          rms(c)
DAV:   1    -0.436182844981E+03   -0.28824E-01   -0.34365E-02  1288   0.245E+00    0.296E-01
RMM:   2    -0.436188329087E+03   -0.54841E-02   -0.47722E-02   922   0.349E-01    0.972E-02
RMM:   3    -0.436189217517E+03   -0.88843E-03   -0.91442E-03  1101   0.168E-01    0.140E-01
RMM:   4    -0.436189358355E+03   -0.14084E-03   -0.16662E-03  1081   0.706E-02    0.114E-01
RMM:   5    -0.436189351337E+03    0.70178E-05   -0.17676E-04  1003   0.218E-02    0.859E-02
RMM:   6    -0.436189338833E+03    0.12504E-04   -0.41071E-05   661   0.889E-03    0.430E-02
RMM:   7    -0.436189338166E+03    0.66757E-06   -0.47769E-05   657   0.753E-03
     68 T=  1075. E= -.44035067E+03 F= -.43618934E+03 E0= -.43619324E+03  EK= 0.15430E+02 SP= -.20E+02 SK= 0.41E-01
       N       E                     dE             d eps       ncg     rms          rms(c)
DAV:   1    -0.436218389961E+03   -0.29051E-01   -0.36631E-02  1280   0.244E+00    0.314E-01
RMM:   2    -0.436223704147E+03   -0.53142E-02   -0.46612E-02   919   0.348E-01    0.757E-02
RMM:   3    -0.436224659911E+03   -0.95576E-03   -0.95902E-03  1110   0.169E-01    0.126E-01
RMM:   4    -0.436224776726E+03   -0.11681E-03   -0.13648E-03  1066   0.661E-02    0.966E-02
RMM:   5    -0.436224782619E+03   -0.58938E-05   -0.19624E-04  1015   0.229E-02    0.749E-02
RMM:   6    -0.436224778585E+03    0.40348E-05   -0.12347E-05   475   0.681E-03
     69 T=  1090. E= -.44035195E+03 F= -.43622478E+03 E0= -.43622869E+03  EK= 0.15633E+02 SP= -.20E+02 SK= 0.28E-01
       N       E                     dE             d eps       ncg     rms          rms(c)
DAV:   1    -0.436240559245E+03   -0.15777E-01   -0.36760E-02  1280   0.245E+00    0.335E-01
RMM:   2    -0.436245730018E+03   -0.51708E-02   -0.44201E-02   929   0.343E-01    0.782E-02
RMM:   3    -0.436246639525E+03   -0.90951E-03   -0.89628E-03  1109   0.164E-01    0.112E-01
RMM:   4    -0.436246756682E+03   -0.11716E-03   -0.12687E-03  1077   0.647E-02    0.758E-02
RMM:   5    -0.436246767700E+03   -0.11018E-04   -0.18672E-04   997   0.228E-02    0.473E-02
RMM:   6    -0.436246767102E+03    0.59798E-06   -0.13214E-05   480   0.692E-03
     70 T=  1100. E= -.44035291E+03 F= -.43624677E+03 E0= -.43625070E+03  EK= 0.15790E+02 SP= -.20E+02 SK= 0.16E-01
       N       E                     dE             d eps       ncg     rms          rms(c)
DAV:   1    -0.436235483464E+03    0.11284E-01   -0.43126E-02  1280   0.247E+00    0.336E-01
RMM:   2    -0.436241068637E+03   -0.55852E-02   -0.49252E-02   924   0.353E-01    0.683E-02
RMM:   3    -0.436242042051E+03   -0.97341E-03   -0.98510E-03  1107   0.171E-01    0.124E-01
RMM:   4    -0.436242164638E+03   -0.12259E-03   -0.14430E-03  1100   0.673E-02    0.972E-02
RMM:   5    -0.436242165691E+03   -0.10526E-05   -0.14293E-04   976   0.197E-02    0.804E-02
RMM:   6    -0.436242159575E+03    0.61158E-05   -0.12576E-05   472   0.676E-03
     71 T=  1107. E= -.44035340E+03 F= -.43624216E+03 E0= -.43624616E+03  EK= 0.15881E+02 SP= -.20E+02 SK= 0.65E-02
       N       E                     dE             d eps       ncg     rms          rms(c)
DAV:   1    -0.436195411470E+03    0.46754E-01   -0.49158E-02  1280   0.247E+00    0.339E-01
RMM:   2    -0.436200942163E+03   -0.55307E-02   -0.48059E-02   927   0.351E-01    0.799E-02
RMM:   3    -0.436201951861E+03   -0.10097E-02   -0.10038E-02  1102   0.173E-01    0.139E-01
RMM:   4    -0.436202094700E+03   -0.14284E-03   -0.15392E-03  1099   0.697E-02    0.992E-02
RMM:   5    -0.436202103599E+03   -0.88990E-05   -0.18183E-04  1000   0.218E-02    0.649E-02
RMM:   6    -0.436202102022E+03    0.15768E-05   -0.15023E-05   487   0.722E-03
     72 T=  1108. E= -.44035368E+03 F= -.43620210E+03 E0= -.43620637E+03  EK= 0.15894E+02 SP= -.20E+02 SK= 0.12E-02
       N       E                     dE             d eps       ncg     rms          rms(c)
DAV:   1    -0.436117215828E+03    0.84888E-01   -0.38269E-02  1336   0.250E+00    0.368E-01
RMM:   2    -0.436122818976E+03   -0.56031E-02   -0.50703E-02   934   0.345E-01    0.703E-02
RMM:   3    -0.436123716008E+03   -0.89703E-03   -0.93605E-03  1102   0.167E-01    0.117E-01
RMM:   4    -0.436123840475E+03   -0.12447E-03   -0.15434E-03  1107   0.684E-02    0.906E-02
RMM:   5    -0.436123833775E+03    0.66996E-05   -0.13763E-04   981   0.190E-02    0.696E-02
RMM:   6    -0.436123812100E+03    0.21675E-04   -0.32749E-05   618   0.803E-03    0.354E-02
RMM:   7    -0.436123791336E+03    0.20764E-04   -0.76530E-05   691   0.892E-03    0.205E-02
RMM:   8    -0.436123789194E+03    0.21417E-05   -0.14831E-05   507   0.538E-03
     73 T=  1103. E= -.44035349E+03 F= -.43612379E+03 E0= -.43613023E+03  EK= 0.15827E+02 SP= -.20E+02 SK= 0.13E-03
       N       E                     dE             d eps       ncg     rms          rms(c)
DAV:   1    -0.435996417248E+03    0.12737E+00   -0.37567E-02  1320   0.249E+00    0.420E-01
RMM:   2    -0.435999456101E+03   -0.30389E-02   -0.62436E-02   937   0.359E-01    0.179E-01
RMM:   3    -0.435999725489E+03   -0.26939E-03   -0.10403E-02  1080   0.177E-01    0.152E-01
RMM:   4    -0.435999775151E+03   -0.49663E-04   -0.19916E-03  1103   0.733E-02    0.135E-01
RMM:   5    -0.435999648989E+03    0.12616E-03   -0.23720E-04   928   0.227E-02    0.865E-02
RMM:   6    -0.435999449483E+03    0.19951E-03   -0.41848E-04   767   0.212E-02    0.329E-02
RMM:   7    -0.435999425395E+03    0.24088E-04   -0.18948E-04   886   0.142E-02    0.304E-02
RMM:   8    -0.435999411073E+03    0.14322E-04   -0.23981E-05   550   0.656E-03    0.223E-02
RMM:   9    -0.435999364860E+03    0.46212E-04   -0.17360E-04   848   0.117E-02    0.100E-02
RMM:  10    -0.435999353012E+03    0.11849E-04   -0.45405E-05   694   0.693E-03    0.973E-03
RMM:  11    -0.435999347393E+03    0.56185E-05   -0.15479E-05   484   0.472E-03
     74 T=  1093. E= -.44034288E+03 F= -.43599935E+03 E0= -.43602247E+03  EK= 0.15683E+02 SP= -.20E+02 SK= 0.29E-02
       N       E                     dE             d eps       ncg     rms          rms(c)
DAV:   1    -0.435926289494E+03    0.73064E-01   -0.51992E-01  1280   0.256E+00    0.788E-01
RMM:   2    -0.435874629450E+03    0.51660E-01   -0.10873E-01   905   0.415E-01    0.499E-01
RMM:   3    -0.435874087402E+03    0.54205E-03   -0.60110E-02  1076   0.257E-01    0.546E-01
RMM:   4    -0.435868011840E+03    0.60756E-02   -0.13122E-02   901   0.134E-01    0.266E-01
RMM:   5    -0.435866953546E+03    0.10583E-02   -0.27617E-03  1090   0.687E-02    0.160E-01
RMM:   6    -0.435866669862E+03    0.28368E-03   -0.18684E-03   803   0.416E-02    0.118E-01
RMM:   7    -0.435866039961E+03    0.62990E-03   -0.56964E-04   826   0.288E-02    0.636E-02
RMM:   8    -0.435866066971E+03   -0.27011E-04   -0.48737E-04   878   0.214E-02    0.743E-02
RMM:   9    -0.435865924524E+03    0.14245E-03   -0.40197E-04   848   0.178E-02    0.366E-02
RMM:  10    -0.435865881663E+03    0.42861E-04   -0.12692E-04   827   0.113E-02    0.292E-02
RMM:  11    -0.435865843181E+03    0.38482E-04   -0.89380E-05   781   0.893E-03    0.241E-02
RMM:  12    -0.435865800117E+03    0.43064E-04   -0.97236E-05   781   0.868E-03    0.168E-02
RMM:  13    -0.435865771631E+03    0.28486E-04   -0.11341E-04   793   0.896E-03    0.123E-02
RMM:  14    -0.435865757993E+03    0.13638E-04   -0.12280E-04   794   0.925E-03    0.588E-03
RMM:  15    -0.435865757827E+03    0.16673E-06   -0.73548E-06   471   0.481E-03
     75 T=  1079. E= -.44034067E+03 F= -.43586576E+03 E0= -.43588991E+03  EK= 0.15485E+02 SP= -.20E+02 SK= 0.83E-02
       N       E                     dE             d eps       ncg     rms          rms(c)
DAV:   1    -0.435768703181E+03    0.97055E-01   -0.73306E-02  1280   0.244E+00    0.587E-01
RMM:   2    -0.435747475953E+03    0.21227E-01   -0.79024E-02   931   0.393E-01    0.282E-01
RMM:   3    -0.435748986215E+03   -0.15103E-02   -0.32210E-02  1097   0.220E-01    0.425E-01
RMM:   4    -0.435747147792E+03    0.18384E-02   -0.11664E-02   886   0.122E-01    0.272E-01
RMM:   5    -0.435747415269E+03   -0.26748E-03   -0.47829E-03  1018   0.716E-02    0.268E-01
RMM:   6    -0.435745163668E+03    0.22516E-02   -0.54615E-04   937   0.314E-02    0.145E-01
RMM:   7    -0.435744574735E+03    0.58893E-03   -0.38391E-04   841   0.195E-02    0.820E-02
RMM:   8    -0.435744318670E+03    0.25606E-03   -0.28794E-04   859   0.161E-02    0.396E-02
RMM:   9    -0.435744249067E+03    0.69603E-04   -0.25349E-04   853   0.138E-02    0.207E-02
RMM:  10    -0.435744237266E+03    0.11801E-04   -0.31841E-05   668   0.753E-03    0.928E-03
RMM:  11    -0.435744229170E+03    0.80959E-05   -0.30522E-05   634   0.622E-03
     76 T=  1064. E= -.44033890E+03 F= -.43574423E+03 E0= -.43576830E+03  EK= 0.15269E+02 SP= -.20E+02 SK= 0.15E-01
       N       E                     dE             d eps       ncg     rms          rms(c)
DAV:   1    -0.435649328144E+03    0.94909E-01   -0.73038E-02  1264   0.239E+00    0.424E-01
RMM:   2    -0.435656022586E+03   -0.66944E-02   -0.61553E-02   952   0.380E-01    0.884E-02
RMM:   3    -0.435657061437E+03   -0.10389E-02   -0.10888E-02  1099   0.182E-01    0.156E-01
RMM:   4    -0.435657218389E+03   -0.15695E-03   -0.19162E-03  1100   0.752E-02    0.137E-01
RMM:   5    -0.435657221152E+03   -0.27635E-05   -0.19155E-04   999   0.212E-02    0.109E-01
RMM:   6    -0.435657213090E+03    0.80621E-05   -0.22986E-05   512   0.804E-03
     77 T=  1050. E= -.44033729E+03 F= -.43565721E+03 E0= -.43568199E+03  EK= 0.15064E+02 SP= -.20E+02 SK= 0.22E-01
       N       E                     dE             d eps       ncg     rms          rms(c)
DAV:   1    -0.435613885493E+03    0.43336E-01   -0.71022E-02  1264   0.237E+00    0.355E-01
RMM:   2    -0.435620044918E+03   -0.61594E-02   -0.56157E-02   943   0.363E-01    0.110E-01
RMM:   3    -0.435621031089E+03   -0.98617E-03   -0.10291E-02  1102   0.176E-01    0.175E-01
RMM:   4    -0.435621187322E+03   -0.15623E-03   -0.17869E-03  1117   0.722E-02    0.155E-01
RMM:   5    -0.435621178510E+03    0.88121E-05   -0.16345E-04   973   0.192E-02    0.117E-01
RMM:   6    -0.435621156870E+03    0.21640E-04   -0.29197E-05   564   0.841E-03    0.754E-02
RMM:   7    -0.435621110978E+03    0.45891E-04   -0.10991E-04   713   0.105E-02    0.364E-02
RMM:   8    -0.435621099047E+03    0.11931E-04   -0.62958E-05   726   0.758E-03    0.567E-02
RMM:   9    -0.435621088612E+03    0.10435E-04   -0.16583E-05   537   0.507E-03    0.349E-02
RMM:  10    -0.435621076891E+03    0.11721E-04   -0.89948E-05   808   0.783E-03    0.232E-02
RMM:  11    -0.435621075148E+03    0.17421E-05   -0.60944E-06   468   0.396E-03
     78 T=  1038. E= -.44033729E+03 F= -.43562108E+03 E0= -.43565004E+03  EK= 0.14891E+02 SP= -.20E+02 SK= 0.27E-01
       N       E                     dE             d eps       ncg     rms          rms(c)
DAV:   1    -0.435634834910E+03   -0.13758E-01   -0.45269E-02  1272   0.237E+00    0.507E-01
RMM:   2    -0.435638239235E+03   -0.34043E-02   -0.57311E-02   934   0.349E-01    0.145E-01
RMM:   3    -0.435639065359E+03   -0.82612E-03   -0.11543E-02  1087   0.179E-01    0.170E-01
RMM:   4    -0.435638773784E+03    0.29157E-03   -0.21201E-03  1016   0.772E-02    0.970E-02
RMM:   5    -0.435638734013E+03    0.39772E-04   -0.31823E-04  1051   0.257E-02    0.717E-02
RMM:   6    -0.435638669043E+03    0.64969E-04   -0.88929E-05   760   0.121E-02    0.326E-02
RMM:   7    -0.435638624515E+03    0.44528E-04   -0.94982E-05   736   0.106E-02    0.131E-02
RMM:   8    -0.435638613221E+03    0.11294E-04   -0.46700E-05   737   0.750E-03    0.118E-02
RMM:   9    -0.435638607574E+03    0.56465E-05   -0.22139E-05   564   0.579E-03
     79 T=  1029. E= -.44033730E+03 F= -.43563861E+03 E0= -.43566978E+03  EK= 0.14757E+02 SP= -.19E+02 SK= 0.33E-01
       N       E                     dE             d eps       ncg     rms          rms(c)
DAV:   1    -0.435696765312E+03   -0.58152E-01   -0.39922E-02  1280   0.232E+00    0.320E-01
RMM:   2    -0.435701814753E+03   -0.50494E-02   -0.45559E-02   934   0.328E-01    0.949E-02
RMM:   3    -0.435702675351E+03   -0.86060E-03   -0.89654E-03  1109   0.163E-01    0.155E-01
RMM:   4    -0.435702785475E+03   -0.11012E-03   -0.13318E-03  1089   0.631E-02    0.138E-01
RMM:   5    -0.435702784714E+03    0.76087E-06   -0.14465E-04   934   0.186E-02    0.117E-01
RMM:   6    -0.435702777204E+03    0.75105E-05   -0.17634E-05   488   0.745E-03
     80 T=  1022. E= -.44033810E+03 F= -.43570278E+03 E0= -.43573402E+03  EK= 0.14660E+02 SP= -.19E+02 SK= 0.37E-01
       N       E                     dE             d eps       ncg     rms          rms(c)
DAV:   1    -0.435793905490E+03   -0.91121E-01   -0.33740E-02  1312   0.231E+00    0.396E-01
RMM:   2    -0.435797787695E+03   -0.38822E-02   -0.40232E-02   924   0.317E-01    0.943E-02
RMM:   3    -0.435798512108E+03   -0.72441E-03   -0.86090E-03  1117   0.158E-01    0.121E-01
RMM:   4    -0.435798585287E+03   -0.73180E-04   -0.11555E-03  1058   0.609E-02    0.838E-02
RMM:   5    -0.435798555156E+03    0.30132E-04   -0.22161E-04   997   0.225E-02    0.523E-02
RMM:   6    -0.435798514345E+03    0.40811E-04   -0.48941E-05   692   0.100E-02    0.281E-02
RMM:   7    -0.435798458863E+03    0.55482E-04   -0.10078E-04   713   0.962E-03    0.165E-02
RMM:   8    -0.435798437741E+03    0.21121E-04   -0.84766E-05   737   0.807E-03    0.188E-02
RMM:   9    -0.435798425683E+03    0.12059E-04   -0.53529E-05   745   0.691E-03    0.808E-03
RMM:  10    -0.435798420696E+03    0.49866E-05   -0.19876E-05   551   0.497E-03
     81 T=  1017. E= -.44033943E+03 F= -.43579842E+03 E0= -.43582735E+03  EK= 0.14586E+02 SP= -.19E+02 SK= 0.40E-01
       N       E                     dE             d eps       ncg     rms          rms(c)
DAV:   1    -0.435904580049E+03   -0.10615E+00   -0.13905E-02  1304   0.235E+00    0.343E-01
RMM:   2    -0.435908605017E+03   -0.40250E-02   -0.47025E-02   918   0.329E-01    0.113E-01
RMM:   3    -0.435908990694E+03   -0.38568E-03   -0.10003E-02  1104   0.163E-01    0.164E-01
RMM:   4    -0.435908920429E+03    0.70265E-04   -0.13509E-03  1050   0.653E-02    0.136E-01
RMM:   5    -0.435908511928E+03    0.40850E-03   -0.55737E-04   882   0.303E-02    0.689E-02
RMM:   6    -0.435907912937E+03    0.59899E-03   -0.20134E-03   909   0.346E-02    0.564E-02
RMM:   7    -0.435907845508E+03    0.67429E-04   -0.25713E-04   959   0.191E-02    0.332E-02
RMM:   8    -0.435907734269E+03    0.11124E-03   -0.27156E-04   831   0.160E-02    0.187E-02
RMM:   9    -0.435907696502E+03    0.37767E-04   -0.17133E-04   818   0.127E-02    0.194E-02
RMM:  10    -0.435907689918E+03    0.65837E-05   -0.44432E-05   768   0.832E-03
     82 T=  1012. E= -.44033815E+03 F= -.43590769E+03 E0= -.43592538E+03  EK= 0.14523E+02 SP= -.19E+02 SK= 0.43E-01
       N       E                     dE             d eps       ncg     rms          rms(c)
DAV:   1    -0.436044568298E+03   -0.13687E+00   -0.33307E-02  1288   0.253E+00    0.510E-01
RMM:   2    -0.436033850755E+03    0.10718E-01   -0.62772E-02   915   0.357E-01    0.237E-01
RMM:   3    -0.436028340558E+03    0.55102E-02   -0.25794E-02  1097   0.199E-01    0.241E-01
RMM:   4    -0.436024898806E+03    0.34418E-02   -0.48464E-03   963   0.978E-02    0.156E-01
RMM:   5    -0.436021018383E+03    0.38804E-02   -0.79021E-03   930   0.827E-02    0.102E-01
RMM:   6    -0.436020248534E+03    0.76985E-03   -0.21500E-03  1035   0.523E-02    0.623E-02
RMM:   7    -0.436019810302E+03    0.43823E-03   -0.97192E-04   909   0.378E-02    0.431E-02
RMM:   8    -0.436019795880E+03    0.14422E-04   -0.30398E-04   971   0.232E-02    0.337E-02
RMM:   9    -0.436019800872E+03   -0.49914E-05   -0.73777E-05   756   0.136E-02
     83 T=  1008. E= -.44033386E+03 F= -.43601980E+03 E0= -.43602441E+03  EK= 0.14461E+02 SP= -.19E+02 SK= 0.45E-01
       N       E                     dE             d eps       ncg     rms          rms(c)
DAV:   1    -0.436191089168E+03   -0.17129E+00   -0.61959E-02  1280   0.259E+00    0.739E-01
RMM:   2    -0.436155164286E+03    0.35925E-01   -0.99185E-02   912   0.404E-01    0.367E-01
RMM:   3    -0.436142595371E+03    0.12569E-01   -0.58960E-02  1066   0.243E-01    0.320E-01
RMM:   4    -0.436138844882E+03    0.37505E-02   -0.78623E-03   944   0.125E-01    0.115E-01
RMM:   5    -0.436136913209E+03    0.19317E-02   -0.60316E-03   935   0.909E-02    0.152E-01
RMM:   6    -0.436136928041E+03   -0.14832E-04   -0.12127E-03  1188   0.492E-02    0.111E-01
[...]
RMM:  16    -0.438686351054E+03    0.11795E-02   -0.20230E-03  1158   0.533E-02    0.222E-01
RMM:  17    -0.438686182421E+03    0.16863E-03   -0.32970E-04  1013   0.262E-02    0.148E-01
RMM:  18    -0.438685828432E+03    0.35399E-03   -0.26578E-04   953   0.167E-02    0.116E-01
RMM:  19    -0.438685284655E+03    0.54378E-03   -0.64009E-04  1036   0.250E-02    0.121E-01
RMM:  20    -0.438684971036E+03    0.31362E-03   -0.22428E-04   878   0.129E-02    0.112E-01
RMM:  21    -0.438684973604E+03   -0.25678E-05   -0.98549E-06   488   0.499E-03
   4196 T=   954. E= -.43902435E+03 F= -.43868497E+03 E0= -.43869236E+03  EK= 0.13681E+02 SP= -.14E+02 SK= 0.33E-01
       N       E                     dE             d eps       ncg     rms          rms(c)
DAV:   1    -0.438741989874E+03   -0.57019E-01   -0.31882E-02  1288   0.243E+00    0.546E-01
RMM:   2    -0.438741807059E+03    0.18281E-03   -0.58156E-02   924   0.369E-01    0.222E-01
RMM:   3    -0.438741085387E+03    0.72167E-03   -0.14620E-02  1098   0.182E-01    0.210E-01
RMM:   4    -0.438740386290E+03    0.69910E-03   -0.21628E-03   934   0.830E-02    0.670E-02
RMM:   5    -0.438740036038E+03    0.35025E-03   -0.13924E-03   979   0.523E-02    0.584E-02
RMM:   6    -0.438740020046E+03    0.15991E-04   -0.30429E-04  1064   0.248E-02    0.300E-02
RMM:   7    -0.438739989550E+03    0.30496E-04   -0.78034E-05   736   0.138E-02    0.139E-02
RMM:   8    -0.438739981476E+03    0.80744E-05   -0.60356E-05   677   0.945E-03
   4197 T=   968. E= -.43902191E+03 F= -.43873998E+03 E0= -.43874446E+03  EK= 0.13893E+02 SP= -.14E+02 SK= 0.39E-01
       N       E                     dE             d eps       ncg     rms          rms(c)
DAV:   1    -0.438836814442E+03   -0.96825E-01   -0.36373E-02  1288   0.243E+00    0.571E-01
RMM:   2    -0.438837404111E+03   -0.58967E-03   -0.56330E-02   915   0.359E-01    0.198E-01
RMM:   3    -0.438836984681E+03    0.41943E-03   -0.13877E-02  1098   0.184E-01    0.174E-01
RMM:   4    -0.438836502207E+03    0.48247E-03   -0.21271E-03   962   0.838E-02    0.667E-02
RMM:   5    -0.438836231104E+03    0.27110E-03   -0.12267E-03   957   0.507E-02    0.525E-02
RMM:   6    -0.438836219995E+03    0.11108E-04   -0.27629E-04  1067   0.241E-02    0.323E-02
RMM:   7    -0.438836199542E+03    0.20453E-04   -0.82940E-05   757   0.128E-02    0.121E-02
RMM:   8    -0.438836195420E+03    0.41228E-05   -0.27483E-05   567   0.700E-03
   4198 T=   987. E= -.43902140E+03 F= -.43883620E+03 E0= -.43884048E+03  EK= 0.14157E+02 SP= -.14E+02 SK= 0.43E-01
       N       E                     dE             d eps       ncg     rms          rms(c)
DAV:   1    -0.438971382641E+03   -0.13518E+00   -0.39967E-02  1312   0.232E+00    0.423E-01
RMM:   2    -0.438975733462E+03   -0.43508E-02   -0.52886E-02   928   0.354E-01    0.133E-01
RMM:   3    -0.438976300470E+03   -0.56701E-03   -0.10440E-02  1099   0.171E-01    0.183E-01
RMM:   4    -0.438976238103E+03    0.62366E-04   -0.15150E-03  1007   0.737E-02    0.951E-02
RMM:   5    -0.438976065892E+03    0.17221E-03   -0.73499E-04   926   0.415E-02    0.357E-02
RMM:   6    -0.438976036171E+03    0.29721E-04   -0.24939E-04  1024   0.202E-02    0.347E-02
RMM:   7    -0.438976028878E+03    0.72937E-05   -0.40037E-05   649   0.959E-03
   4199 T=  1009. E= -.43902149E+03 F= -.43897603E+03 E0= -.43898027E+03  EK= 0.14471E+02 SP= -.15E+02 SK= 0.43E-01
       N       E                     dE             d eps       ncg     rms          rms(c)
DAV:   1    -0.439151700027E+03   -0.17566E+00   -0.42011E-02  1296   0.235E+00    0.400E-01
RMM:   2    -0.439157543153E+03   -0.58431E-02   -0.51803E-02   922   0.355E-01    0.786E-02
RMM:   3    -0.439158513505E+03   -0.97035E-03   -0.99462E-03  1099   0.172E-01    0.151E-01
RMM:   4    -0.439158674547E+03   -0.16104E-03   -0.18234E-03  1100   0.725E-02    0.117E-01
RMM:   5    -0.439158676673E+03   -0.21258E-05   -0.16629E-04   994   0.209E-02    0.905E-02
RMM:   6    -0.439158669495E+03    0.71775E-05   -0.24533E-05   526   0.808E-03
   4200 T=  1033. E= -.43902197E+03 F= -.43915867E+03 E0= -.43916289E+03  EK= 0.14828E+02 SP= -.15E+02 SK= 0.39E-01
       N       E                     dE             d eps       ncg     rms          rms(c)
DAV:   1    -0.439368163650E+03   -0.20949E+00   -0.38022E-02  1344   0.241E+00    0.439E-01
RMM:   2    -0.439373698750E+03   -0.55351E-02   -0.48756E-02   922   0.346E-01    0.655E-02
RMM:   3    -0.439374685200E+03   -0.98645E-03   -0.98435E-03  1103   0.168E-01    0.117E-01
RMM:   4    -0.439374854046E+03   -0.16885E-03   -0.17504E-03  1086   0.706E-02    0.824E-02
RMM:   5    -0.439374868402E+03   -0.14356E-04   -0.19437E-04  1009   0.227E-02    0.569E-02
RMM:   6    -0.439374868040E+03    0.36209E-06   -0.15773E-05   484   0.734E-03
   4201 T=  1060. E= -.43902291E+03 F= -.43937487E+03 E0= -.43937913E+03  EK= 0.15209E+02 SP= -.15E+02 SK= 0.32E-01
       N       E                     dE             d eps       ncg     rms          rms(c)
DAV:   1    -0.439598369396E+03   -0.22350E+00   -0.47273E-02  1296   0.238E+00    0.372E-01
RMM:   2    -0.439604680248E+03   -0.63109E-02   -0.55648E-02   927   0.358E-01    0.804E-02
RMM:   3    -0.439605720823E+03   -0.10406E-02   -0.10567E-02  1102   0.177E-01    0.142E-01
RMM:   4    -0.439605881897E+03   -0.16107E-03   -0.18431E-03  1092   0.730E-02    0.115E-01
RMM:   5    -0.439605886031E+03   -0.41339E-05   -0.19102E-04  1031   0.223E-02    0.933E-02
RMM:   6    -0.439605878005E+03    0.80254E-05   -0.19044E-05   480   0.767E-03
   4202 T=  1086. E= -.43902521E+03 F= -.43960588E+03 E0= -.43961029E+03  EK= 0.15585E+02 SP= -.15E+02 SK= 0.21E-01
       N       E                     dE             d eps       ncg     rms          rms(c)
DAV:   1    -0.439815205538E+03   -0.20932E+00   -0.44391E-02  1280   0.243E+00    0.395E-01
RMM:   2    -0.439821282012E+03   -0.60765E-02   -0.53030E-02   924   0.359E-01    0.773E-02
RMM:   3    -0.439822376578E+03   -0.10946E-02   -0.10857E-02  1104   0.178E-01    0.127E-01
RMM:   4    -0.439822545655E+03   -0.16908E-03   -0.17745E-03  1086   0.733E-02    0.942E-02
RMM:   5    -0.439822563971E+03   -0.18316E-04   -0.25032E-04  1020   0.241E-02    0.673E-02
RMM:   6    -0.439822562906E+03    0.10651E-05   -0.13046E-05   485   0.722E-03
   4203 T=  1109. E= -.43902763E+03 F= -.43982256E+03 E0= -.43982735E+03  EK= 0.15915E+02 SP= -.15E+02 SK= 0.11E-01
       N       E                     dE             d eps       ncg     rms          rms(c)
DAV:   1    -0.439986629011E+03   -0.16407E+00   -0.60599E-02  1272   0.247E+00    0.439E-01
RMM:   2    -0.439993463422E+03   -0.68344E-02   -0.60864E-02   931   0.382E-01    0.715E-02
RMM:   3    -0.439994600384E+03   -0.11370E-02   -0.11662E-02  1101   0.186E-01    0.141E-01
RMM:   4    -0.439994786614E+03   -0.18623E-03   -0.21004E-03  1093   0.774E-02    0.112E-01
RMM:   5    -0.439994793643E+03   -0.70294E-05   -0.20426E-04  1022   0.228E-02    0.912E-02
RMM:   6    -0.439994787010E+03    0.66325E-05   -0.16656E-05   487   0.750E-03
   4204 T=  1126. E= -.43902990E+03 F= -.43999479E+03 E0= -.44000082E+03  EK= 0.16158E+02 SP= -.15E+02 SK= 0.28E-02
       N       E                     dE             d eps       ncg     rms          rms(c)
DAV:   1    -0.440086083692E+03   -0.91290E-01   -0.69933E-02  1264   0.251E+00    0.467E-01
RMM:   2    -0.440091755098E+03   -0.56714E-02   -0.62456E-02   930   0.387E-01    0.155E-01
RMM:   3    -0.440090227624E+03    0.15275E-02   -0.14716E-02  1102   0.192E-01    0.258E-01
RMM:   4    -0.440094158739E+03   -0.39311E-02   -0.43270E-03   918   0.906E-02    0.255E-01
RMM:   5    -0.440095106484E+03   -0.94774E-03   -0.40244E-03   877   0.534E-02    0.194E-01
RMM:   6    -0.440095426996E+03   -0.32051E-03   -0.10967E-03  1014   0.325E-02    0.152E-01
RMM:   7    -0.440095720572E+03   -0.29358E-03   -0.25522E-04   820   0.157E-02    0.127E-01
RMM:   8    -0.440096236174E+03   -0.51560E-03   -0.55289E-04   867   0.182E-02    0.109E-01
RMM:   9    -0.440095777484E+03    0.45869E-03   -0.27225E-04   777   0.139E-02    0.106E-01
RMM:  10    -0.440094882701E+03    0.89478E-03   -0.19953E-03  1060   0.286E-02    0.972E-02
RMM:  11    -0.440091987663E+03    0.28950E-02   -0.39901E-03  1195   0.442E-02    0.183E-01
RMM:  12    -0.440094343728E+03   -0.23561E-02   -0.13693E-03  1017   0.282E-02    0.865E-02
RMM:  13    -0.440094574875E+03   -0.23115E-03   -0.19056E-04   783   0.107E-02    0.697E-02
RMM:  14    -0.440095488219E+03   -0.91334E-03   -0.17846E-03  1103   0.286E-02    0.468E-02
RMM:  15    -0.440096113878E+03   -0.62566E-03   -0.10116E-03  1051   0.234E-02    0.563E-02
RMM:  16    -0.440096505496E+03   -0.39162E-03   -0.28324E-04   921   0.139E-02    0.658E-02
RMM:  17    -0.440096456743E+03    0.48753E-04   -0.13053E-05   486   0.533E-03    0.652E-02
RMM:  18    -0.440096667097E+03   -0.21035E-03   -0.48642E-05   644   0.578E-03    0.703E-02
RMM:  19    -0.440095927197E+03    0.73990E-03   -0.59685E-04   960   0.171E-02    0.527E-02
RMM:  20    -0.440095675657E+03    0.25154E-03   -0.21146E-04   851   0.109E-02    0.459E-02
RMM:  21    -0.440095404560E+03    0.27110E-03   -0.19465E-04   855   0.105E-02    0.433E-02
RMM:  22    -0.440094163247E+03    0.12413E-02   -0.22771E-03  1130   0.328E-02    0.832E-02
RMM:  23    -0.440094824297E+03   -0.66105E-03   -0.35090E-04   782   0.148E-02    0.524E-02
RMM:  24    -0.440094904699E+03   -0.80402E-04   -0.38214E-05   645   0.573E-03    0.498E-02
RMM:  25    -0.440095024995E+03   -0.12030E-03   -0.41139E-05   663   0.493E-03    0.466E-02
RMM:  26    -0.440095533290E+03   -0.50829E-03   -0.61861E-04   954   0.169E-02    0.423E-02
RMM:  27    -0.440095905010E+03   -0.37172E-03   -0.39339E-04   913   0.145E-02    0.499E-02
RMM:  28    -0.440096117207E+03   -0.21220E-03   -0.11686E-04   800   0.868E-03    0.559E-02
RMM:  29    -0.440096432497E+03   -0.31529E-03   -0.13520E-04   808   0.850E-03    0.641E-02
RMM:  30    -0.440096737929E+03   -0.30543E-03   -0.11303E-04   776   0.809E-03    0.724E-02
RMM:  31    -0.440096891752E+03   -0.15382E-03   -0.32698E-05   598   0.502E-03    0.769E-02
RMM:  32    -0.440096898270E+03   -0.65175E-05   -0.32096E-06   434   0.286E-03
   4205 T=  1135. E= -.43903176E+03 F= -.44009690E+03 E0= -.44010186E+03  EK= 0.16282E+02 SP= -.15E+02 SK= 0.17E-04
       N       E                     dE             d eps       ncg     rms          rms(c)
DAV:   1    -0.440112992788E+03   -0.16101E-01   -0.73986E-02  1272   0.253E+00    0.512E-01
RMM:   2    -0.440111574879E+03    0.14179E-02   -0.78204E-02   933   0.407E-01    0.180E-01
RMM:   3    -0.440110177917E+03    0.13970E-02   -0.19237E-02  1103   0.205E-01    0.222E-01
RMM:   4    -0.440108394404E+03    0.17835E-02   -0.30898E-03   960   0.924E-02    0.999E-02
RMM:   5    -0.440104357772E+03    0.40366E-02   -0.59985E-03   918   0.822E-02    0.186E-01
RMM:   6    -0.440108762813E+03   -0.44050E-02   -0.48395E-03   899   0.646E-02    0.924E-02
RMM:   7    -0.440125263171E+03   -0.16500E-01   -0.38702E-02  1116   0.128E-01    0.329E-01
RMM:   8    -0.440124961546E+03    0.30162E-03   -0.15743E-03  1068   0.471E-02    0.329E-01
RMM:   9    -0.440125272982E+03   -0.31144E-03   -0.24595E-04   935   0.179E-02    0.338E-01
RMM:  10    -0.440125228029E+03    0.44953E-04   -0.27227E-05   557   0.820E-03    0.338E-01
RMM:  11    -0.440125227012E+03    0.10169E-05   -0.64821E-06   477   0.516E-03
   4206 T=  1134. E= -.43904593E+03 F= -.44012523E+03 E0= -.44012915E+03  EK= 0.16264E+02 SP= -.15E+02 SK= 0.39E-02
       N       E                     dE             d eps       ncg     rms          rms(c)
DAV:   1    -0.440054589688E+03    0.70638E-01   -0.61906E-02  1272   0.251E+00    0.631E-01
RMM:   2    -0.440033981667E+03    0.20608E-01   -0.13974E-01   888   0.462E-01    0.392E-01
RMM:   3    -0.440029879544E+03    0.41021E-02   -0.60199E-02  1099   0.269E-01    0.417E-01
RMM:   4    -0.440026777196E+03    0.31023E-02   -0.52337E-03   904   0.117E-01    0.219E-01
RMM:   5    -0.440015812113E+03    0.10965E-01   -0.12576E-02   888   0.116E-01    0.354E-01
RMM:   6    -0.440024037365E+03   -0.82253E-02   -0.36578E-03   897   0.730E-02    0.250E-01
RMM:   7    -0.440025333699E+03   -0.12963E-02   -0.14099E-03   956   0.382E-02    0.247E-01
RMM:   8    -0.440025473079E+03   -0.13938E-03   -0.12188E-04   849   0.156E-02    0.251E-01
RMM:   9    -0.440025842240E+03   -0.36916E-03   -0.73260E-05   737   0.914E-03    0.264E-01
RMM:  10    -0.440033791044E+03   -0.79488E-02   -0.11177E-02  1412   0.102E-01    0.369E-01
RMM:  11    -0.440048453747E+03   -0.14663E-01   -0.14542E-02  1350   0.822E-02    0.574E-01
RMM:  12    -0.440044774199E+03    0.36795E-02   -0.10183E-03   968   0.284E-02    0.584E-01
RMM:  13    -0.440036741092E+03    0.80331E-02   -0.32273E-03  1194   0.432E-02    0.475E-01
RMM:  14    -0.440024858577E+03    0.11883E-01   -0.18847E-02  1429   0.102E-01    0.262E-01
RMM:  15    -0.440008425441E+03    0.16433E-01   -0.22062E-02  1417   0.106E-01    0.248E-01
RMM:  16    -0.440007713273E+03    0.71217E-03   -0.14287E-03   945   0.318E-02    0.227E-01
RMM:  17    -0.440008579076E+03   -0.86580E-03   -0.58195E-05   654   0.909E-03    0.257E-01
RMM:  18    -0.440011527643E+03   -0.29486E-02   -0.57828E-04   972   0.177E-02    0.325E-01
RMM:  19    -0.440016122476E+03   -0.45948E-02   -0.13617E-03  1055   0.246E-02    0.339E-01
RMM:  20    -0.440011883814E+03    0.42387E-02   -0.69014E-04   953   0.198E-02    0.325E-01
RMM:  21    -0.440006680691E+03    0.52031E-02   -0.24181E-03  1166   0.351E-02    0.160E-01
RMM:  22    -0.440007574516E+03   -0.89383E-03   -0.18248E-04   814   0.118E-02    0.203E-01
RMM:  23    -0.440018570137E+03   -0.10996E-01   -0.67249E-03  1232   0.552E-02    0.292E-01
RMM:  24    -0.440017416574E+03    0.11536E-02   -0.30417E-04   886   0.173E-02    0.307E-01
RMM:  25    -0.440017272097E+03    0.14448E-03   -0.25845E-05   552   0.496E-03    0.310E-01
RMM:  26    -0.440017376561E+03   -0.10446E-03   -0.41207E-06   402   0.282E-03    0.309E-01
RMM:  27    -0.440018085222E+03   -0.70866E-03   -0.30130E-05   643   0.516E-03    0.301E-01
RMM:  28    -0.440017084046E+03    0.10012E-02   -0.18020E-04   860   0.100E-02    0.327E-01
RMM:  29    -0.440017031960E+03    0.52086E-04   -0.94033E-06   454   0.374E-03    0.328E-01
RMM:  30    -0.440017197593E+03   -0.16563E-03   -0.42149E-06   379   0.298E-03    0.326E-01
RMM:  31    -0.440013007015E+03    0.41906E-02   -0.73949E-04  1000   0.204E-02    0.336E-01
RMM:  32    -0.440010236695E+03    0.27703E-02   -0.52123E-04   957   0.169E-02    0.301E-01
RMM:  33    -0.440010567388E+03   -0.33069E-03   -0.52799E-05   654   0.748E-03    0.305E-01
RMM:  34    -0.440007128941E+03    0.34384E-02   -0.81585E-04  1040   0.222E-02    0.205E-01
RMM:  35    -0.440005890068E+03    0.12389E-02   -0.44237E-04   924   0.156E-02    0.128E-01
RMM:  36    -0.440005643347E+03    0.24672E-03   -0.67887E-05   743   0.798E-03    0.103E-01
RMM:  37    -0.440006560403E+03   -0.91706E-03   -0.22411E-04   873   0.115E-02    0.168E-01
RMM:  38    -0.440006111043E+03    0.44936E-03   -0.46882E-05   638   0.532E-03    0.139E-01
RMM:  39    -0.440005648211E+03    0.46283E-03   -0.10253E-04   725   0.687E-03    0.974E-02
RMM:  40    -0.440005512050E+03    0.13616E-03   -0.31880E-05   584   0.481E-03    0.813E-02
RMM:  41    -0.440005225547E+03    0.28650E-03   -0.29934E-04   873   0.123E-02    0.219E-02
RMM:  42    -0.440005229716E+03   -0.41690E-05   -0.36789E-05   648   0.614E-03
   4207 T=  1122. E= -.43900751E+03 F= -.44000523E+03 E0= -.44002922E+03  EK= 0.16097E+02 SP= -.15E+02 SK= 0.14E-01
       N       E                     dE             d eps       ncg     rms          rms(c)
DAV:   1    -0.440146897463E+03   -0.14167E+00   -0.12475E+00  1272   0.337E+00    0.163E+00
RMM:   2    -0.439925569592E+03    0.22133E+00   -0.35678E-01   867   0.626E-01    0.829E-01
RMM:   3    -0.439855056757E+03    0.70513E-01   -0.35767E-01   920   0.462E-01    0.792E-01
RMM:   4    -0.439850564159E+03    0.44926E-02   -0.42775E-02   996   0.272E-01    0.512E-01
RMM:   5    -0.439839618322E+03    0.10946E-01   -0.39195E-02   932   0.212E-01    0.524E-01
RMM:   6    -0.439838348785E+03    0.12695E-02   -0.12071E-02   884   0.123E-01    0.284E-01
RMM:   7    -0.439834477101E+03    0.38717E-02   -0.31283E-03   984   0.785E-02    0.224E-01
RMM:   8    -0.439834604204E+03   -0.12710E-03   -0.20969E-03   888   0.538E-02    0.908E-02
RMM:   9    -0.439834282694E+03    0.32151E-03   -0.73084E-04  1002   0.325E-02    0.527E-02
RMM:  10    -0.439834250252E+03    0.32442E-04   -0.32651E-04   920   0.211E-02    0.330E-02
RMM:  11    -0.439834264334E+03   -0.14082E-04   -0.80437E-05   807   0.128E-02    0.214E-02
RMM:  12    -0.439834256173E+03    0.81614E-05   -0.23227E-05   553   0.785E-03
   4208 T=  1101. E= -.43900615E+03 F= -.43983426E+03 E0= -.43985795E+03  EK= 0.15794E+02 SP= -.15E+02 SK= 0.28E-01
       N       E                     dE             d eps       ncg     rms          rms(c)
DAV:   1    -0.439644505255E+03    0.18976E+00   -0.26100E-01  1272   0.275E+00    0.548E-01
RMM:   2    -0.439632855555E+03    0.11650E-01   -0.88531E-02   923   0.415E-01    0.288E-01
RMM:   3    -0.439625342360E+03    0.75132E-02   -0.31596E-02  1098   0.222E-01    0.364E-01
RMM:   4    -0.439642638647E+03   -0.17296E-01   -0.17422E-02   859   0.136E-01    0.549E-01
RMM:   5    -0.439604434577E+03    0.38204E-01   -0.65252E-02  1039   0.199E-01    0.336E-01
RMM:   6    -0.439603731220E+03    0.70336E-03   -0.42125E-03  1008   0.846E-02    0.305E-01
RMM:   7    -0.439610277995E+03   -0.65468E-02   -0.21050E-02  1057   0.110E-01    0.510E-01
RMM:   8    -0.439600615327E+03    0.96627E-02   -0.58170E-03   898   0.654E-02    0.196E-01
RMM:   9    -0.439605493619E+03   -0.48783E-02   -0.10527E-02  1003   0.638E-02    0.322E-01
RMM:  10    -0.439601041129E+03    0.44525E-02   -0.14480E-03   846   0.368E-02    0.166E-01
RMM:  11    -0.439600422062E+03    0.61907E-03   -0.69003E-04   848   0.229E-02    0.122E-01
RMM:  12    -0.439599920091E+03    0.50197E-03   -0.10981E-03   974   0.260E-02    0.455E-02
RMM:  13    -0.439599979809E+03   -0.59717E-04   -0.10572E-04   886   0.125E-02    0.558E-02
RMM:  14    -0.439599973096E+03    0.67130E-05   -0.95440E-06   483   0.524E-03
   4209 T=  1073. E= -.43900402E+03 F= -.43959997E+03 E0= -.43962367E+03  EK= 0.15392E+02 SP= -.15E+02 SK= 0.42E-01
       N       E                     dE             d eps       ncg     rms          rms(c)
DAV:   1    -0.439322960542E+03    0.27702E+00   -0.77121E-02  1280   0.243E+00    0.576E-01
RMM:   2    -0.439330617017E+03   -0.76565E-02   -0.69814E-02   943   0.406E-01    0.101E-01
RMM:   3    -0.439331791728E+03   -0.11747E-02   -0.12173E-02  1099   0.188E-01    0.202E-01
RMM:   4    -0.439331975835E+03   -0.18411E-03   -0.20759E-03  1093   0.772E-02    0.171E-01
RMM:   5    -0.439331974591E+03    0.12438E-05   -0.20854E-04  1039   0.232E-02    0.130E-01
RMM:   6    -0.439331969442E+03    0.51491E-05   -0.23697E-05   512   0.848E-03
   4210 T=  1041. E= -.43900144E+03 F= -.43933197E+03 E0= -.43935634E+03  EK= 0.14933E+02 SP= -.15E+02 SK= 0.53E-01
       N       E                     dE             d eps       ncg     rms          rms(c)
DAV:   1    -0.439055458458E+03    0.27652E+00   -0.58284E-02  1288   0.240E+00    0.434E-01
RMM:   2    -0.439061966452E+03   -0.65080E-02   -0.58087E-02   936   0.374E-01    0.146E-01
RMM:   3    -0.439062993816E+03   -0.10274E-02   -0.11670E-02  1102   0.181E-01    0.215E-01
RMM:   4    -0.439063083247E+03   -0.89431E-04   -0.18849E-03  1073   0.734E-02    0.191E-01
RMM:   5    -0.439063085161E+03   -0.19138E-05   -0.19264E-04  1024   0.215E-02    0.144E-01
RMM:   6    -0.439063077325E+03    0.78360E-05   -0.24625E-05   522   0.808E-03
   4211 T=  1008. E= -.43899927E+03 F= -.43906308E+03 E0= -.43908880E+03  EK= 0.14464E+02 SP= -.14E+02 SK= 0.58E-01
