  80  80   0   0
  0.2284454E+02  0.1201930E-08  0.7052360E-09  0.2156050E-08  0.5000000E-15
   1.0000000000000000E-004
  CAR 
 unknown system                          
      9.54931048    -23.30301683  301      1.24040937      1.00000000
    -23.303  0.0000E+00  0.0000E+00
    -23.194  0.0000E+00  0.0000E+00
    -23.084  0.0000E+00  0.0000E+00
    -22.974  0.0000E+00  0.0000E+00
    -22.865  0.0000E+00  0.0000E+00
    -22.755  0.0000E+00  0.0000E+00
    -22.646  0.0000E+00  0.0000E+00
    -22.536  0.0000E+00  0.0000E+00
    -22.427  0.0000E+00  0.0000E+00
    -22.317  0.0000E+00  0.0000E+00
    -22.208  0.0000E+00  0.0000E+00
    -22.098  0.1960E-15  0.2146E-16
    -21.989  0.2565E-06  0.2809E-07
    -21.879  0.4135E-01  0.4528E-02
    -21.770  0.2770E+01  0.3079E+00
    -21.660  0.2002E+01  0.5271E+00
    -21.551  0.7292E+01  0.1326E+01
    -21.441  0.5267E+01  0.1902E+01
    -21.332  0.3282E+01  0.2262E+01
    -21.222  0.1260E+01  0.2400E+01
    -21.113  0.1556E-02  0.2400E+01
    -21.003  0.5542E-09  0.2400E+01
    -20.894  0.0000E+00  0.2400E+01
    -20.784  0.0000E+00  0.2400E+01
    -20.675  0.0000E+00  0.2400E+01
    -20.565  0.0000E+00  0.2400E+01
    -20.456  0.0000E+00  0.2400E+01
    -20.346  0.0000E+00  0.2400E+01
    -20.237  0.0000E+00  0.2400E+01
    -20.127  0.0000E+00  0.2400E+01
    -20.018  0.0000E+00  0.2400E+01
    -19.908  0.0000E+00  0.2400E+01
    -19.799  0.0000E+00  0.2400E+01
    -19.689  0.0000E+00  0.2400E+01
    -19.580  0.0000E+00  0.2400E+01
    -19.470  0.0000E+00  0.2400E+01
    -19.361  0.0000E+00  0.2400E+01
    -19.251  0.0000E+00  0.2400E+01
    -19.142  0.0000E+00  0.2400E+01
    -19.032  0.0000E+00  0.2400E+01
    -18.923  0.0000E+00  0.2400E+01
    -18.813  0.0000E+00  0.2400E+01
    -18.704  0.0000E+00  0.2400E+01
    -18.594  0.0000E+00  0.2400E+01
    -18.485  0.0000E+00  0.2400E+01
    -18.375  0.0000E+00  0.2400E+01
    -18.266  0.0000E+00  0.2400E+01
    -18.156  0.0000E+00  0.2400E+01
    -18.047  0.0000E+00  0.2400E+01
    -17.937  0.0000E+00  0.2400E+01
    -17.828  0.0000E+00  0.2400E+01
    -17.718  0.0000E+00  0.2400E+01
    -17.609  0.0000E+00  0.2400E+01
    -17.499  0.0000E+00  0.2400E+01
    -17.390  0.0000E+00  0.2400E+01
    -17.280  0.0000E+00  0.2400E+01
    -17.171  0.0000E+00  0.2400E+01
    -17.061  0.0000E+00  0.2400E+01
    -16.952  0.0000E+00  0.2400E+01
    -16.842  0.0000E+00  0.2400E+01
    -16.733  0.0000E+00  0.2400E+01
    -16.623  0.0000E+00  0.2400E+01
    -16.514  0.0000E+00  0.2400E+01
    -16.404  0.0000E+00  0.2400E+01
    -16.295  0.0000E+00  0.2400E+01
    -16.185  0.0000E+00  0.2400E+01
    -16.076  0.0000E+00  0.2400E+01
    -15.966  0.0000E+00  0.2400E+01
    -15.856  0.0000E+00  0.2400E+01
    -15.747  0.0000E+00  0.2400E+01
    -15.637  0.0000E+00  0.2400E+01
    -15.528  0.0000E+00  0.2400E+01
    -15.418  0.0000E+00  0.2400E+01
    -15.309  0.0000E+00  0.2400E+01
    -15.199  0.0000E+00  0.2400E+01
    -15.090  0.0000E+00  0.2400E+01
    -14.980  0.0000E+00  0.2400E+01
    -14.871  0.0000E+00  0.2400E+01
    -14.761  0.0000E+00  0.2400E+01
    -14.652  0.0000E+00  0.2400E+01
    -14.542  0.0000E+00  0.2400E+01
    -14.433  0.0000E+00  0.2400E+01
    -14.323  0.0000E+00  0.2400E+01
    -14.214  0.0000E+00  0.2400E+01
    -14.104  0.0000E+00  0.2400E+01
    -13.995  0.0000E+00  0.2400E+01
    -13.885  0.0000E+00  0.2400E+01
    -13.776  0.0000E+00  0.2400E+01
    -13.666  0.0000E+00  0.2400E+01
    -13.557  0.0000E+00  0.2400E+01
    -13.447  0.0000E+00  0.2400E+01
    -13.338  0.0000E+00  0.2400E+01
    -13.228  0.0000E+00  0.2400E+01
    -13.119  0.0000E+00  0.2400E+01
    -13.009  0.0000E+00  0.2400E+01
    -12.900  0.0000E+00  0.2400E+01
    -12.790  0.0000E+00  0.2400E+01
    -12.681  0.0000E+00  0.2400E+01
    -12.571  0.0000E+00  0.2400E+01
    -12.462  0.0000E+00  0.2400E+01
    -12.352  0.0000E+00  0.2400E+01
    -12.243  0.0000E+00  0.2400E+01
    -12.133  0.0000E+00  0.2400E+01
    -12.024  0.0000E+00  0.2400E+01
    -11.914  0.0000E+00  0.2400E+01
    -11.805  0.0000E+00  0.2400E+01
    -11.695  0.0000E+00  0.2400E+01
    -11.586  0.0000E+00  0.2400E+01
    -11.476  0.0000E+00  0.2400E+01
    -11.367  0.0000E+00  0.2400E+01
    -11.257  0.0000E+00  0.2400E+01
    -11.148  0.0000E+00  0.2400E+01
    -11.038  0.0000E+00  0.2400E+01
    -10.929  0.0000E+00  0.2400E+01
    -10.819  0.0000E+00  0.2400E+01
    -10.710  0.1468E-12  0.2400E+01
    -10.600  0.4175E-05  0.2400E+01
    -10.491  0.1589E-01  0.2402E+01
    -10.381  0.2901E+00  0.2434E+01
    -10.272  0.9469E+00  0.2537E+01
    -10.162  0.2080E+00  0.2560E+01
    -10.053  0.1976E-03  0.2560E+01
     -9.943  0.6731E-06  0.2560E+01
     -9.834  0.1391E-01  0.2562E+01
     -9.724  0.6066E+00  0.2628E+01
     -9.615  0.1320E+01  0.2773E+01
     -9.505  0.1715E+01  0.2960E+01
     -9.396  0.7251E+00  0.3040E+01
     -9.286  0.2541E-02  0.3040E+01
     -9.177  0.3659E-08  0.3040E+01
     -9.067  0.0000E+00  0.3040E+01
     -8.958  0.0000E+00  0.3040E+01
     -8.848  0.0000E+00  0.3040E+01
     -8.738  0.0000E+00  0.3040E+01
     -8.629  0.0000E+00  0.3040E+01
     -8.519  0.0000E+00  0.3040E+01
     -8.410  0.0000E+00  0.3040E+01
     -8.300  0.0000E+00  0.3040E+01
     -8.191  0.0000E+00  0.3040E+01
     -8.081  0.0000E+00  0.3040E+01
     -7.972  0.0000E+00  0.3040E+01
     -7.862  0.0000E+00  0.3040E+01
     -7.753  0.0000E+00  0.3040E+01
     -7.643  0.0000E+00  0.3040E+01
     -7.534  0.0000E+00  0.3040E+01
     -7.424  0.0000E+00  0.3040E+01
     -7.315  0.0000E+00  0.3040E+01
     -7.205  0.0000E+00  0.3040E+01
     -7.096  0.0000E+00  0.3040E+01
     -6.986  0.0000E+00  0.3040E+01
     -6.877  0.0000E+00  0.3040E+01
     -6.767  0.0000E+00  0.3040E+01
     -6.658  0.0000E+00  0.3040E+01
     -6.548  0.0000E+00  0.3040E+01
     -6.439  0.0000E+00  0.3040E+01
     -6.329  0.0000E+00  0.3040E+01
     -6.220  0.0000E+00  0.3040E+01
     -6.110  0.0000E+00  0.3040E+01
     -6.001  0.0000E+00  0.3040E+01
     -5.891  0.0000E+00  0.3040E+01
     -5.782  0.0000E+00  0.3040E+01
     -5.672  0.0000E+00  0.3040E+01
     -5.563  0.0000E+00  0.3040E+01
     -5.453  0.0000E+00  0.3040E+01
     -5.344  0.0000E+00  0.3040E+01
     -5.234  0.0000E+00  0.3040E+01
     -5.125  0.0000E+00  0.3040E+01
     -5.015  0.0000E+00  0.3040E+01
     -4.906  0.0000E+00  0.3040E+01
     -4.796  0.0000E+00  0.3040E+01
     -4.687  0.0000E+00  0.3040E+01
     -4.577  0.0000E+00  0.3040E+01
     -4.468  0.0000E+00  0.3040E+01
     -4.358  0.0000E+00  0.3040E+01
     -4.249  0.0000E+00  0.3040E+01
     -4.139  0.0000E+00  0.3040E+01
     -4.030  0.0000E+00  0.3040E+01
     -3.920  0.0000E+00  0.3040E+01
     -3.811  0.0000E+00  0.3040E+01
     -3.701  0.0000E+00  0.3040E+01
     -3.592  0.0000E+00  0.3040E+01
     -3.482  0.1014E-16  0.3040E+01
     -3.373  0.1328E-07  0.3040E+01
     -3.263  0.2220E-02  0.3040E+01
     -3.154  0.1618E+00  0.3058E+01
     -3.044  0.6361E+00  0.3128E+01
     -2.935  0.6317E+00  0.3197E+01
     -2.825  0.2931E-01  0.3200E+01
     -2.716  0.1567E-05  0.3200E+01
     -2.606  0.1430E-13  0.3200E+01
     -2.497  0.0000E+00  0.3200E+01
     -2.387  0.0000E+00  0.3200E+01
     -2.278  0.0000E+00  0.3200E+01
     -2.168  0.0000E+00  0.3200E+01
     -2.059  0.0000E+00  0.3200E+01
     -1.949  0.0000E+00  0.3200E+01
     -1.839  0.1298E-09  0.3200E+01
     -1.730  0.1685E-03  0.3200E+01
     -1.620  0.5637E-01  0.3206E+01
     -1.511  0.6367E+00  0.3276E+01
     -1.401  0.1124E+01  0.3399E+01
     -1.292  0.8347E+00  0.3490E+01
     -1.182  0.7010E+00  0.3567E+01
     -1.073  0.7080E+00  0.3645E+01
     -0.963  0.3116E+00  0.3679E+01
     -0.854  0.1188E-01  0.3680E+01
     -0.744  0.2119E+00  0.3703E+01
     -0.635  0.4823E+00  0.3756E+01
     -0.525  0.6860E+00  0.3831E+01
     -0.416  0.7321E+00  0.3911E+01
     -0.306  0.4540E+00  0.3961E+01
     -0.197  0.5666E+00  0.4023E+01
     -0.087  0.6243E+00  0.4092E+01
      0.022  0.7602E+00  0.4175E+01
      0.132  0.5722E+00  0.4237E+01
      0.241  0.6728E+00  0.4311E+01
      0.351  0.9741E+00  0.4418E+01
      0.460  0.9830E+00  0.4525E+01
      0.570  0.8596E+00  0.4620E+01
      0.679  0.1207E+01  0.4752E+01
      0.789  0.9500E+00  0.4856E+01
      0.898  0.6408E+00  0.4926E+01
      1.008  0.3057E+00  0.4960E+01
      1.117  0.4242E-02  0.4960E+01
      1.227  0.2384E-07  0.4960E+01
      1.336  0.1352E-16  0.4960E+01
      1.446  0.0000E+00  0.4960E+01
      1.555  0.0000E+00  0.4960E+01
      1.665  0.0000E+00  0.4960E+01
      1.774  0.0000E+00  0.4960E+01
      1.884  0.0000E+00  0.4960E+01
      1.993  0.0000E+00  0.4960E+01
      2.103  0.0000E+00  0.4960E+01
      2.212  0.0000E+00  0.4960E+01
      2.322  0.0000E+00  0.4960E+01
      2.431  0.0000E+00  0.4960E+01
      2.541  0.0000E+00  0.4960E+01
      2.650  0.0000E+00  0.4960E+01
      2.760  0.0000E+00  0.4960E+01
      2.869  0.0000E+00  0.4960E+01
      2.979  0.0000E+00  0.4960E+01
      3.088  0.0000E+00  0.4960E+01
      3.198  0.0000E+00  0.4960E+01
      3.307  0.8787E-16  0.4960E+01
      3.417  0.4859E-07  0.4960E+01
      3.526  0.2705E-02  0.4960E+01
      3.636  0.5322E-01  0.4966E+01
      3.745  0.4954E-02  0.4967E+01
      3.855  0.2135E-06  0.4967E+01
      3.964  0.9733E-15  0.4967E+01
      4.074  0.5880E-14  0.4967E+01
      4.183  0.8358E-06  0.4967E+01
      4.293  0.1301E-01  0.4968E+01
      4.402  0.1705E+00  0.4987E+01
      4.512  0.5996E-01  0.4993E+01
      4.621  0.8505E-04  0.4993E+01
      4.731  0.2030E-04  0.4993E+01
      4.840  0.4239E-01  0.4998E+01
      4.950  0.2380E+00  0.5024E+01
      5.059  0.1115E+00  0.5036E+01
      5.169  0.2822E+00  0.5067E+01
      5.279  0.1738E+00  0.5086E+01
      5.388  0.5391E+00  0.5145E+01
      5.498  0.5005E+00  0.5200E+01
      5.607  0.3398E+00  0.5237E+01
      5.717  0.4483E+00  0.5286E+01
      5.826  0.7263E+00  0.5366E+01
      5.936  0.5158E+00  0.5422E+01
      6.045  0.5167E+00  0.5479E+01
      6.155  0.4196E+00  0.5525E+01
      6.264  0.4859E+00  0.5578E+01
      6.374  0.5022E+00  0.5633E+01
      6.483  0.3565E+00  0.5672E+01
      6.593  0.3271E+00  0.5708E+01
      6.702  0.3942E+00  0.5751E+01
      6.812  0.5141E+00  0.5807E+01
      6.921  0.4922E+00  0.5861E+01
      7.031  0.6119E+00  0.5928E+01
      7.140  0.5969E+00  0.5994E+01
      7.250  0.5027E+00  0.6049E+01
      7.359  0.4375E+00  0.6097E+01
      7.469  0.3673E+00  0.6137E+01
      7.578  0.6353E+00  0.6206E+01
      7.688  0.4940E+00  0.6261E+01
      7.797  0.4356E+00  0.6308E+01
      7.907  0.4977E+00  0.6363E+01
      8.016  0.2636E+00  0.6392E+01
      8.126  0.7519E-01  0.6400E+01
      8.235  0.1488E-02  0.6400E+01
      8.345  0.1221E-07  0.6400E+01
      8.454  0.1352E-16  0.6400E+01
      8.564  0.0000E+00  0.6400E+01
      8.673  0.0000E+00  0.6400E+01
      8.783  0.0000E+00  0.6400E+01
      8.892  0.0000E+00  0.6400E+01
      9.002  0.0000E+00  0.6400E+01
      9.111  0.0000E+00  0.6400E+01
      9.221  0.0000E+00  0.6400E+01
      9.330  0.0000E+00  0.6400E+01
      9.440  0.0000E+00  0.6400E+01
      9.549  0.0000E+00  0.6400E+01
