 vasp.6.3.2 27Jun22 (build Jun 14 2024 17:29:11) complex                         
 executed on             LinuxGNU date 2026.03.29  21:16:44
 running on   32 total cores
 distrk:  each k-point on   32 cores,    1 groups
 distr:  one band on NCORE=   1 cores,   32 groups


--------------------------------------------------------------------------------------------------------


 INCAR:
   EDIFF = 1e-05
   EDIFFG = -0.05
   ENCUT = 400.0
   IBRION = 2
   ISIF = 3
   ISMEAR = 0
   LCHARG = False
   LREAL = Auto
   LWAVE = False
   NSW = 100
   SIGMA = 0.05

 POTCAR:    PAW_PBE Na_pv 19Sep2006               
 POTCAR:    PAW_PBE Al 04Jan2001                  
 POTCAR:    PAW_PBE S 06Sep2000                   
 -----------------------------------------------------------------------------
|                                                                             |
|           W    W    AA    RRRRR   N    N  II  N    N   GGGG   !!!           |
|           W    W   A  A   R    R  NN   N  II  NN   N  G    G  !!!           |
|           W    W  A    A  R    R  N N  N  II  N N  N  G       !!!           |
|           W WW W  AAAAAA  RRRRR   N  N N  II  N  N N  G  GGG   !            |
|           WW  WW  A    A  R   R   N   NN  II  N   NN  G    G                |
|           W    W  A    A  R    R  N    N  II  N    N   GGGG   !!!           |
|                                                                             |
|     For optimal performance we recommend to set                             |
|       NCORE = 2 up to number-of-cores-per-socket                            |
|     NCORE specifies how many cores store one orbital (NPAR=cpu/NCORE).      |
|     This setting can greatly improve the performance of VASP for DFT.       |
|     The default, NCORE=1 might be grossly inefficient on modern             |
|     multi-core architectures or massively parallel machines. Do your        |
|     own testing! More info at https://www.vasp.at/wiki/index.php/NCORE      |
|     Unfortunately you need to use the default for GW and RPA                |
|     calculations (for HF NCORE is supported but not extensively tested      |
|     yet).                                                                   |
|                                                                             |
 -----------------------------------------------------------------------------

 POTCAR:    PAW_PBE Na_pv 19Sep2006               
   SHA256 =  6a2f546d9e11350984debacf3dc457d8cffc0868e817d445faca461816a32b94 Na_pv/POTCAR          
   COPYR  = (c) Copyright 19Sep2006 Georg Kresse                                                    
   COPYR  = This file is part of the software VASP. Any use, copying, and all other rights are regul
   COPYR  = If you do not have a valid VASP license, you may not use, copy or distribute this file. 
   VRHFIN =Na: p6s1                                                                                 
   LEXCH  = PE                                                                                      
   EATOM  =   766.0439 eV,   56.3026 Ry                                                             
                                                                                                    
   TITEL  = PAW_PBE Na_pv 19Sep2006                                                                 
   LULTRA =        F    use ultrasoft PP ?                                                          
   IUNSCR =        1    unscreen: 0-lin 1-nonlin 2-no                                               
   RPACOR =    1.800    partial core radius                                                         
   POMASS =   22.990; ZVAL   =    7.000    mass and valenz                                          
   RCORE  =    2.200    outmost cutoff radius                                                       
   RWIGS  =    2.200; RWIGS  =    1.164    wigner-seitz radius (au A)                               
   ENMAX  =  259.561; ENMIN  =  194.671 eV                                                          
   ICORE  =        2    local potential                                                             
   LCOR   =        T    correct aug charges                                                         
   LPAW   =        T    paw PP                                                                      
   EAUG   =  368.056                                                                                
   DEXC   =    0.000                                                                                
   RMAX   =    2.245    core radius for proj-oper                                                   
   RAUG   =    1.300    factor for augmentation sphere                                              
   RDEP   =    2.259    radius for radial grids                                                     
   RDEPT  =    1.738    core radius for aug-charge                                                  
                                                                                                    
   Atomic configuration                                                                             
    5 entries                                                                                       
     n  l   j            E        occ.                                                              
     1  0  0.50     -1033.6933   2.0000                                                             
     2  0  0.50       -56.7526   2.0000                                                             
     2  1  1.50       -28.6721   6.0000                                                             
     3  0  0.50        -2.7440   1.0000                                                             
     3  2  1.50        -1.3606   0.0000                                                             
   Description                                                                                      
     l       E           TYP  RCUT    TYP  RCUT                                                     
     1    -28.6720912     23  2.000                                                                 
     1      6.8029130     23  2.000                                                                 
     0     -2.7439560     23  2.200                                                                 
     0     34.0145650     23  2.200                                                                 
     2     -1.3605826     23  2.200                                                                 
  local pseudopotential read in
  partial core-charges read in
  partial kinetic energy density read in
  atomic valenz-charges read in
  non local Contribution for L=           1  read in
    real space projection operators read in
  non local Contribution for L=           1  read in
    real space projection operators read in
  non local Contribution for L=           0  read in
    real space projection operators read in
  non local Contribution for L=           0  read in
    real space projection operators read in
    PAW grid and wavefunctions read in

   number of l-projection  operators is LMAX  =           4
   number of lm-projection operators is LMMAX =           8

 POTCAR:    PAW_PBE Al 04Jan2001                  
   SHA256 =  17880443556af62b473fe41b62a467bd001ad55d2cabe504a3f22e34d4e9db96 Al/POTCAR             
   COPYR  = (c) Copyright 04Jan2001 Georg Kresse                                                    
   COPYR  = This file is part of the software VASP. Any use, copying, and all other rights are regul
   COPYR  = If you do not have a valid VASP license, you may not use, copy or distribute this file. 
   VRHFIN =Al: s2p1                                                                                 
   LEXCH  = PE                                                                                      
   EATOM  =    53.5387 eV,    3.9350 Ry                                                             
                                                                                                    
   TITEL  = PAW_PBE Al 04Jan2001                                                                    
   LULTRA =        F    use ultrasoft PP ?                                                          
   IUNSCR =        1    unscreen: 0-lin 1-nonlin 2-no                                               
   RPACOR =    1.500    partial core radius                                                         
   POMASS =   26.981; ZVAL   =    3.000    mass and valenz                                          
   RCORE  =    1.900    outmost cutoff radius                                                       
   RWIGS  =    2.650; RWIGS  =    1.402    wigner-seitz radius (au A)                               
   ENMAX  =  240.300; ENMIN  =  180.225 eV                                                          
   ICORE  =        2    local potential                                                             
   LCOR   =        T    correct aug charges                                                         
   LPAW   =        T    paw PP                                                                      
   EAUG   =  291.052                                                                                
   DEXC   =    0.000                                                                                
   RMAX   =    1.939    core radius for proj-oper                                                   
   RAUG   =    1.300    factor for augmentation sphere                                              
   RDEP   =    1.966    radius for radial grids                                                     
   RDEPT  =    1.856    core radius for aug-charge                                                  
                                                                                                    
   Atomic configuration                                                                             
    6 entries                                                                                       
     n  l   j            E        occ.                                                              
     1  0  0.50     -1511.1048   2.0000                                                             
     2  0  0.50      -108.1629   2.0000                                                             
     2  1  1.50       -69.6402   6.0000                                                             
     3  0  0.50        -7.7528   2.0000                                                             
     3  1  1.50        -2.7121   1.0000                                                             
     3  2  2.50        -2.7212   0.0000                                                             
   Description                                                                                      
     l       E           TYP  RCUT    TYP  RCUT                                                     
     0     -7.7528455     23  1.900                                                                 
     0     -3.3096929     23  1.900                                                                 
     1     -2.7120682     23  1.900                                                                 
     1     13.6058260     23  1.900                                                                 
     2     -2.7211652      7  1.900                                                                 
  local pseudopotential read in
  partial core-charges read in
  partial kinetic energy density read in
  atomic valenz-charges read in
  non local Contribution for L=           0  read in
    real space projection operators read in
  non local Contribution for L=           0  read in
    real space projection operators read in
  non local Contribution for L=           1  read in
    real space projection operators read in
  non local Contribution for L=           1  read in
    real space projection operators read in
    PAW grid and wavefunctions read in

   number of l-projection  operators is LMAX  =           4
   number of lm-projection operators is LMMAX =           8

 POTCAR:    PAW_PBE S 06Sep2000                   
   SHA256 =  0fc7481fb0695f01bdc6462160264c5c84044ae9ec85a907d398b887a2bc3132 S/POTCAR              
   COPYR  = (c) Copyright 06Sep2000 Georg Kresse                                                    
   COPYR  = This file is part of the software VASP. Any use, copying, and all other rights are regul
   COPYR  = If you do not have a valid VASP license, you may not use, copy or distribute this file. 
   VRHFIN =S : s2p4                                                                                 
   LEXCH  = PE                                                                                      
   EATOM  =   276.8230 eV,   20.3459 Ry                                                             
                                                                                                    
   TITEL  = PAW_PBE S 06Sep2000                                                                     
   LULTRA =        F    use ultrasoft PP ?                                                          
   IUNSCR =        1    unscreen: 0-lin 1-nonlin 2-no                                               
   RPACOR =    1.500    partial core radius                                                         
   POMASS =   32.066; ZVAL   =    6.000    mass and valenz                                          
   RCORE  =    1.900    outmost cutoff radius                                                       
   RWIGS  =    2.200; RWIGS  =    1.164    wigner-seitz radius (au A)                               
   ENMAX  =  258.689; ENMIN  =  194.016 eV                                                          
   ICORE  =        2    local potential                                                             
   LCOR   =        T    correct aug charges                                                         
   LPAW   =        T    paw PP                                                                      
   EAUG   =  335.092                                                                                
   DEXC   =    0.000                                                                                
   RMAX   =    1.942    core radius for proj-oper                                                   
   RAUG   =    1.300    factor for augmentation sphere                                              
   RDEP   =    1.954    radius for radial grids                                                     
   RDEPT  =    1.744    core radius for aug-charge                                                  
                                                                                                    
   Atomic configuration                                                                             
    6 entries                                                                                       
     n  l   j            E        occ.                                                              
     1  0  0.50     -2405.8406   2.0000                                                             
     2  0  0.50      -211.7007   2.0000                                                             
     2  1  1.50      -156.4958   6.0000                                                             
     3  0  0.50       -17.2562   2.0000                                                             
     3  1  0.50        -7.0085   4.0000                                                             
     3  2  1.50        -6.8029   0.0000                                                             
   Description                                                                                      
     l       E           TYP  RCUT    TYP  RCUT                                                     
     0    -17.2561641     23  1.900                                                                 
     0    -15.8743224     23  1.900                                                                 
     1     -7.0085400     23  1.900                                                                 
     1     -2.7779785     23  1.900                                                                 
     2     -6.8029130     23  1.900                                                                 
  local pseudopotential read in
  partial core-charges read in
  partial kinetic energy density read in
  atomic valenz-charges read in
  non local Contribution for L=           0  read in
    real space projection operators read in
  non local Contribution for L=           0  read in
    real space projection operators read in
  non local Contribution for L=           1  read in
    real space projection operators read in
  non local Contribution for L=           1  read in
    real space projection operators read in
    PAW grid and wavefunctions read in

   number of l-projection  operators is LMAX  =           4
   number of lm-projection operators is LMMAX =           8

 Optimization of the real space projectors (new method)

 maximal supplied QI-value         = 17.01
 optimisation between [QCUT,QGAM] = [ 10.20, 20.41] = [ 29.16,116.64] Ry 
 Optimized for a Real-space Cutoff    1.30 Angstroem

   l    n(q)    QCUT    max X(q) W(low)/X(q) W(high)/X(q)  e(spline) 
   1      7    10.205     4.940    0.23E-03    0.84E-03    0.11E-06
   1      7    10.205     6.253    0.40E-03    0.13E-02    0.18E-06
   0      8    10.205    37.438    0.23E-03    0.37E-03    0.42E-07
   0      8    10.205     9.606    0.16E-03    0.26E-03    0.31E-07
 Optimization of the real space projectors (new method)

 maximal supplied QI-value         = 19.84
 optimisation between [QCUT,QGAM] = [ 10.12, 20.44] = [ 28.68,116.96] Ry 
 Optimized for a Real-space Cutoff    1.23 Angstroem

   l    n(q)    QCUT    max X(q) W(low)/X(q) W(high)/X(q)  e(spline) 
   0      7    10.119   176.870    0.49E-04    0.18E-03    0.39E-07
   0      7    10.119   105.762    0.46E-04    0.18E-03    0.38E-07
   1      7    10.119    55.370    0.30E-03    0.37E-03    0.12E-06
   1      7    10.119    20.208    0.27E-03    0.35E-03    0.11E-06
 Optimization of the real space projectors (new method)

 maximal supplied QI-value         = 19.84
 optimisation between [QCUT,QGAM] = [ 10.12, 20.44] = [ 28.68,116.96] Ry 
 Optimized for a Real-space Cutoff    1.23 Angstroem

   l    n(q)    QCUT    max X(q) W(low)/X(q) W(high)/X(q)  e(spline) 
   0      7    10.119   187.594    0.62E-04    0.28E-03    0.52E-07
   0      7    10.119   164.243    0.61E-04    0.28E-03    0.52E-07
   1      7    10.119    67.533    0.45E-03    0.63E-03    0.13E-06
   1      7    10.119    50.729    0.44E-03    0.62E-03    0.12E-06
  PAW_PBE Na_pv 19Sep2006               :
 energy of atom  1       EATOM= -766.0439
 kinetic energy error for atom=    0.0103 (will be added to EATOM!!)
  PAW_PBE Al 04Jan2001                  :
 energy of atom  2       EATOM=  -53.5387
 kinetic energy error for atom=    0.0005 (will be added to EATOM!!)
  PAW_PBE S 06Sep2000                   :
 energy of atom  3       EATOM= -276.8230
 kinetic energy error for atom=    0.0046 (will be added to EATOM!!)


 POSCAR: Na40 Al8 S32
  positions in direct lattice
  No initial velocities read in
 exchange correlation table for  LEXCH =        8
   RHO(1)=    0.500       N(1)  =     2000
   RHO(2)=  100.500       N(2)  =     4000



--------------------------------------------------------------------------------------------------------


 ion  position               nearest neighbor table
   1  0.352  0.908  0.501-
   2  0.648  0.408  0.999-
   3  0.148  0.092  0.001-
   4  0.148  0.408  0.501-
   5  0.352  0.592  0.001-
   6  0.648  0.092  0.499-
   7  0.852  0.592  0.499-
   8  0.852  0.908  0.999-
   9  0.287  0.553  0.366-
  10  0.713  0.053  0.134-
  11  0.213  0.447  0.866-
  12  0.213  0.053  0.366-
  13  0.287  0.947  0.866-
  14  0.713  0.447  0.634-
  15  0.787  0.947  0.634-
  16  0.787  0.553  0.134-
  17  0.558  0.566  0.433-  71 2.67  57 2.69  50 2.70
  18  0.442  0.066  0.067-  67 2.67  58 2.69  49 2.70
  19  0.942  0.434  0.933-  66 2.67  59 2.69  55 2.70
  20  0.942  0.066  0.433-  70 2.67  60 2.69  56 2.70
  21  0.558  0.934  0.933-  72 2.67  61 2.69  54 2.70
  22  0.442  0.434  0.567-  68 2.67  62 2.69  53 2.70
  23  0.058  0.934  0.567-  65 2.67  63 2.69  51 2.70
  24  0.058  0.566  0.067-  69 2.67  64 2.69  52 2.70
  25  0.586  0.381  0.250-
  26  0.414  0.881  0.250-
  27  0.914  0.619  0.750-
  28  0.914  0.881  0.250-
  29  0.586  0.119  0.750-
  30  0.414  0.619  0.750-
  31  0.086  0.119  0.750-
  32  0.086  0.381  0.250-
  33  0.837  0.108  0.829-  75 2.73  72 2.76  66 2.79
  34  0.163  0.608  0.671-  79 2.73  68 2.76  65 2.79
  35  0.663  0.892  0.329-  73 2.73  70 2.76  71 2.79
  36  0.663  0.608  0.829-  77 2.73  66 2.76  72 2.79
  37  0.837  0.392  0.329-  76 2.73  71 2.76  70 2.79
  38  0.163  0.892  0.171-  80 2.73  67 2.76  69 2.79
  39  0.337  0.392  0.171-  74 2.73  69 2.76  67 2.79
  40  0.337  0.108  0.671-  78 2.73  65 2.76  68 2.79
  41  0.040  0.831  0.874-  79 2.24  59 2.24  66 2.25  52 2.27
  42  0.960  0.331  0.626-  75 2.24  63 2.24  65 2.25  56 2.27
  43  0.460  0.169  0.374-  74 2.24  57 2.24  71 2.25  53 2.27
  44  0.460  0.331  0.874-  78 2.24  61 2.24  72 2.25  49 2.27
  45  0.040  0.669  0.374-  80 2.24  60 2.24  70 2.25  51 2.27
  46  0.960  0.169  0.126-  76 2.24  64 2.24  69 2.25  55 2.27
  47  0.540  0.669  0.126-  73 2.24  58 2.24  67 2.25  54 2.27
  48  0.540  0.831  0.626-  77 2.24  62 2.24  68 2.25  50 2.27
  49  0.371  0.205  0.957-  44 2.27  18 2.70
  50  0.629  0.705  0.543-  48 2.27  17 2.70
  51  0.129  0.795  0.457-  45 2.27  23 2.70
  52  0.129  0.705  0.957-  41 2.27  24 2.70
  53  0.371  0.295  0.457-  43 2.27  22 2.70
  54  0.629  0.795  0.043-  47 2.27  21 2.70
  55  0.871  0.295  0.043-  46 2.27  19 2.70
  56  0.871  0.205  0.543-  42 2.27  20 2.70
  57  0.448  0.852  0.378-  43 2.24  17 2.69
  58  0.552  0.352  0.122-  47 2.24  18 2.69
  59  0.052  0.148  0.878-  41 2.24  19 2.69
  60  0.052  0.352  0.378-  45 2.24  20 2.69
  61  0.448  0.648  0.878-  44 2.24  21 2.69
  62  0.552  0.148  0.622-  48 2.24  22 2.69
  63  0.948  0.648  0.622-  42 2.24  23 2.69
  64  0.948  0.852  0.122-  46 2.24  24 2.69
  65  0.140  0.243  0.622-  42 2.25  23 2.67  40 2.76  34 2.79
  66  0.860  0.743  0.878-  41 2.25  19 2.67  36 2.76  33 2.79
  67  0.360  0.757  0.122-  47 2.25  18 2.67  38 2.76  39 2.79
  68  0.360  0.743  0.622-  48 2.25  22 2.67  34 2.76  40 2.79
  69  0.140  0.257  0.122-  46 2.25  24 2.67  39 2.76  38 2.79
  70  0.860  0.757  0.378-  45 2.25  20 2.67  35 2.76  37 2.79
  71  0.640  0.257  0.378-  43 2.25  17 2.67  37 2.76  35 2.79
  72  0.640  0.243  0.878-  44 2.25  21 2.67  33 2.76  36 2.79
  73  0.632  0.761  0.211-  47 2.24  35 2.73
  74  0.368  0.261  0.289-  43 2.24  39 2.73
  75  0.868  0.239  0.711-  42 2.24  33 2.73
  76  0.868  0.261  0.211-  46 2.24  37 2.73
  77  0.632  0.739  0.711-  48 2.24  36 2.73
  78  0.368  0.239  0.789-  44 2.24  40 2.73
  79  0.132  0.739  0.789-  41 2.24  34 2.73
  80  0.132  0.761  0.289-  45 2.24  38 2.73

  LATTYP: Found a simple orthorhombic cell.
 ALAT       =     7.0523600000
 B/A-ratio  =     1.7042947325
 C/A-ratio  =     3.0572035460
  
  Lattice vectors:
  
 A1 = (   0.0000000000,  -7.0523600000,   0.0000000000)
 A2 = (  12.0193000000,   0.0000000000,   0.0000000000)
 A3 = (   0.0000000000,   0.0000000000,  21.5605000000)


Analysis of symmetry for initial positions (statically):
=====================================================================
 Subroutine PRICEL returns:
 Original cell was already a primitive cell.
 

 Routine SETGRP: Setting up the symmetry group for a 
 simple orthorhombic supercell.


 Subroutine GETGRP returns: Found  8 space group operations
 (whereof  2 operations were pure point group operations)
 out of a pool of  8 trial point group operations.


The static configuration has the point symmetry S_2 .
 The point group associated with its full space group is D_2h.


Analysis of symmetry for dynamics (positions and initial velocities):
=====================================================================
 Subroutine PRICEL returns:
 Original cell was already a primitive cell.
 

 Routine SETGRP: Setting up the symmetry group for a 
 simple orthorhombic supercell.


 Subroutine GETGRP returns: Found  8 space group operations
 (whereof  2 operations were pure point group operations)
 out of a pool of  8 trial point group operations.


The dynamic configuration has the point symmetry S_2 .
 The point group associated with its full space group is D_2h.


 Subroutine INISYM returns: Found  8 space group operations
 (whereof  2 operations are pure point group operations),
 and found     1 'primitive' translations


----------------------------------------------------------------------------------------

                                     Primitive cell                                     

  volume of cell :    1827.5635

  direct lattice vectors                    reciprocal lattice vectors
    12.019300000  0.000000000  0.000000000     0.083199521  0.000000000 -0.000000000
    -0.000000000  7.052360000  0.000000000     0.000000000  0.141796505  0.000000000
     0.000000000  0.000000000 21.560500000    -0.000000000 -0.000000000  0.046381114

  length of vectors
    12.019300000  7.052360000 21.560500000     0.083199521  0.141796505  0.046381114

  position of ions in fractional coordinates (direct lattice)
     0.352100000  0.908000000  0.501300000
     0.647900000  0.408000000  0.998700000
     0.147900000  0.092000000  0.001300000
     0.147900000  0.408000000  0.501300000
     0.352100000  0.592000000  0.001300000
     0.647900000  0.092000000  0.498700000
     0.852100000  0.592000000  0.498700000
     0.852100000  0.908000000  0.998700000
     0.286900000  0.553100000  0.365800000
     0.713100000  0.053100000  0.134200000
     0.213100000  0.446900000  0.865800000
     0.213100000  0.053100000  0.365800000
     0.286900000  0.946900000  0.865800000
     0.713100000  0.446900000  0.634200000
     0.786900000  0.946900000  0.634200000
     0.786900000  0.553100000  0.134200000
     0.557900000  0.565800000  0.433200000
     0.442100000  0.065800000  0.066800000
     0.942100000  0.434200000  0.933200000
     0.942100000  0.065800000  0.433200000
     0.557900000  0.934200000  0.933200000
     0.442100000  0.434200000  0.566800000
     0.057900000  0.934200000  0.566800000
     0.057900000  0.565800000  0.066800000
     0.586300000  0.380900000  0.250100000
     0.413700000  0.880900000  0.249900000
     0.913700000  0.619100000  0.750100000
     0.913700000  0.880900000  0.250100000
     0.586300000  0.119100000  0.750100000
     0.413700000  0.619100000  0.749900000
     0.086300000  0.119100000  0.749900000
     0.086300000  0.380900000  0.249900000
     0.837300000  0.107700000  0.829400000
     0.162700000  0.607700000  0.670600000
     0.662700000  0.892300000  0.329400000
     0.662700000  0.607700000  0.829400000
     0.837300000  0.392300000  0.329400000
     0.162700000  0.892300000  0.170600000
     0.337300000  0.392300000  0.170600000
     0.337300000  0.107700000  0.670600000
     0.039900000  0.831200000  0.873700000
     0.960100000  0.331200000  0.626300000
     0.460100000  0.168800000  0.373700000
     0.460100000  0.331200000  0.873700000
     0.039900000  0.668800000  0.373700000
     0.960100000  0.168800000  0.126300000
     0.539900000  0.668800000  0.126300000
     0.539900000  0.831200000  0.626300000
     0.371300000  0.204600000  0.957100000
     0.628700000  0.704600000  0.542900000
     0.128700000  0.795400000  0.457100000
     0.128700000  0.704600000  0.957100000
     0.371300000  0.295400000  0.457100000
     0.628700000  0.795400000  0.042900000
     0.871300000  0.295400000  0.042900000
     0.871300000  0.204600000  0.542900000
     0.447700000  0.852000000  0.378300000
     0.552300000  0.352000000  0.121700000
     0.052300000  0.148000000  0.878300000
     0.052300000  0.352000000  0.378300000
     0.447700000  0.648000000  0.878300000
     0.552300000  0.148000000  0.621700000
     0.947700000  0.648000000  0.621700000
     0.947700000  0.852000000  0.121700000
     0.140200000  0.242600000  0.622200000
     0.859800000  0.742600000  0.877800000
     0.359800000  0.757400000  0.122200000
     0.359800000  0.742600000  0.622200000
     0.140200000  0.257400000  0.122200000
     0.859800000  0.757400000  0.377800000
     0.640200000  0.257400000  0.377800000
     0.640200000  0.242600000  0.877800000
     0.631700000  0.761000000  0.211300000
     0.368300000  0.261000000  0.288700000
     0.868300000  0.239000000  0.711300000
     0.868300000  0.261000000  0.211300000
     0.631700000  0.739000000  0.711300000
     0.368300000  0.239000000  0.788700000
     0.131700000  0.739000000  0.788700000
     0.131700000  0.761000000  0.288700000

  ion indices of the primitive-cell ions
   primitive index   ion index
                 1           1
                 2           2
                 3           3
                 4           4
                 5           5
                 6           6
                 7           7
                 8           8
                 9           9
                10          10
                11          11
                12          12
                13          13
                14          14
                15          15
                16          16
                17          17
                18          18
                19          19
                20          20
                21          21
                22          22
                23          23
                24          24
                25          25
                26          26
                27          27
                28          28
                29          29
                30          30
                31          31
                32          32
                33          33
                34          34
                35          35
                36          36
                37          37
                38          38
                39          39
                40          40
                41          41
                42          42
                43          43
                44          44
                45          45
                46          46
                47          47
                48          48
                49          49
                50          50
                51          51
                52          52
                53          53
                54          54
                55          55
                56          56
                57          57
                58          58
                59          59
                60          60
                61          61
                62          62
                63          63
                64          64
                65          65
                66          66
                67          67
                68          68
                69          69
                70          70
                71          71
                72          72
                73          73
                74          74
                75          75
                76          76
                77          77
                78          78
                79          79
                80          80

----------------------------------------------------------------------------------------



 KPOINTS: pymatgen with grid density = 500 / numbe

Automatic generation of k-mesh.
 Grid dimensions read from file:
 generate k-points for:    1    3    1

 Generating k-lattice:

  Cartesian coordinates                     Fractional coordinates (reciprocal lattice)
     0.083199521  0.000000000 -0.000000000     1.000000000 -0.000000000  0.000000000
     0.000000000  0.047265502  0.000000000     0.000000000  0.333333333  0.000000000
    -0.000000000 -0.000000000  0.046381114    -0.000000000 -0.000000000  1.000000000

  Length of vectors
     0.083199521  0.047265502  0.046381114

  Shift w.r.t. Gamma in fractional coordinates (k-lattice)
     0.000000000  0.000000000  0.000000000

 
 Subroutine IBZKPT returns following result:
 ===========================================
 
 Found      2 irreducible k-points:
 
 Following reciprocal coordinates:
            Coordinates               Weight
  0.000000  0.000000  0.000000      1.000000
  0.000000  0.333333  0.000000      2.000000
 
 Following cartesian coordinates:
            Coordinates               Weight
  0.000000  0.000000  0.000000      1.000000
  0.000000  0.047266  0.000000      2.000000
 


--------------------------------------------------------------------------------------------------------




 Dimension of arrays:
   k-points           NKPTS =      2   k-points in BZ     NKDIM =      2   number of bands    NBANDS=    320
   number of dos      NEDOS =    301   number of ions     NIONS =     80
   non local maximal  LDIM  =      4   non local SUM 2l+1 LMDIM =      8
   total plane-waves  NPLWV = 233280
   max r-space proj   IRMAX =   1228   max aug-charges    IRDMAX=   5167
   dimension x,y,z NGX =    60 NGY =   36 NGZ =  108
   dimension x,y,z NGXF=   120 NGYF=   72 NGZF=  216
   support grid    NGXF=   120 NGYF=   72 NGZF=  216
   ions per type =              40   8  32
   NGX,Y,Z   is equivalent  to a cutoff of   8.30,  8.49,  8.33 a.u.
   NGXF,Y,Z  is equivalent  to a cutoff of  16.60, 16.97, 16.66 a.u.

 SYSTEM =  unknown system                          
 POSCAR =  Na40 Al8 S32                            

 Startparameter for this run:
   NWRITE =      2    write-flag & timer
   PREC   = normal    normal or accurate (medium, high low for compatibility)
   ISTART =      0    job   : 0-new  1-cont  2-samecut
   ICHARG =      2    charge: 1-file 2-atom 10-const
   ISPIN  =      1    spin polarized calculation?
   LNONCOLLINEAR =      F non collinear calculations
   LSORBIT =      F    spin-orbit coupling
   INIWAV =      1    electr: 0-lowe 1-rand  2-diag
   LASPH  =      F    aspherical Exc in radial PAW
 Electronic Relaxation 1
   ENCUT  =  400.0 eV  29.40 Ry    5.42 a.u.  19.60 11.50 35.16*2*pi/ulx,y,z
   ENINI  =  400.0     initial cutoff
   ENAUG  =  368.1 eV  augmentation charge cutoff
   NELM   =     60;   NELMIN=  2; NELMDL= -5     # of ELM steps 
   EDIFF  = 0.1E-04   stopping-criterion for ELM
   LREAL  =      T    real-space projection
   NLSPLINE    = F    spline interpolate recip. space projectors
   LCOMPAT=      F    compatible to vasp.4.4
   GGA_COMPAT  = T    GGA compatible to vasp.4.4-vasp.4.6
   LMAXPAW     = -100 max onsite density
   LMAXMIX     =    2 max onsite mixed and CHGCAR
   VOSKOWN=      0    Vosko Wilk Nusair interpolation
   ROPT   =   -0.00050  -0.00050  -0.00050
 Ionic relaxation
   EDIFFG = -.5E-01   stopping-criterion for IOM
   NSW    =    100    number of steps for IOM
   NBLOCK =      1;   KBLOCK =    100    inner block; outer block 
   IBRION =      2    ionic relax: 0-MD 1-quasi-New 2-CG
   NFREE  =      1    steps in history (QN), initial steepest desc. (CG)
   ISIF   =      3    stress and relaxation
   IWAVPR =     11    prediction:  0-non 1-charg 2-wave 3-comb
   ISYM   =      2    0-nonsym 1-usesym 2-fastsym
   LCORR  =      T    Harris-Foulkes like correction to forces

   POTIM  = 0.5000    time-step for ionic-motion
   TEIN   =    0.0    initial temperature
   TEBEG  =    0.0;   TEEND  =   0.0 temperature during run
   SMASS  =  -3.00    Nose mass-parameter (am)
   estimated Nose-frequenzy (Omega)   =  0.10E-29 period in steps = 0.13E+47 mass=  -0.330E-26a.u.
   SCALEE = 1.0000    scale energy and forces
   NPACO  =    256;   APACO  = 10.0  distance and # of slots for P.C.
   PSTRESS=    0.0 pullay stress

  Mass of Ions in am
   POMASS =  22.99 26.98 32.07
  Ionic Valenz
   ZVAL   =   7.00  3.00  6.00
  Atomic Wigner-Seitz radii
   RWIGS  =  -1.00 -1.00 -1.00
  virtual crystal weights 
   VCA    =   1.00  1.00  1.00
   NELECT =     496.0000    total number of electrons
   NUPDOWN=      -1.0000    fix difference up-down

 DOS related values:
   EMIN   =  10.00;   EMAX   =-10.00  energy-range for DOS
   EFERMI =   0.00
   ISMEAR =     0;   SIGMA  =   0.05  broadening in eV -4-tet -1-fermi 0-gaus

 Electronic relaxation 2 (details)
   IALGO  =     38    algorithm
   LDIAG  =      T    sub-space diagonalisation (order eigenvalues)
   LSUBROT=      F    optimize rotation matrix (better conditioning)
   TURBO    =      0    0=normal 1=particle mesh
   IRESTART =      0    0=no restart 2=restart with 2 vectors
   NREBOOT  =      0    no. of reboots
   NMIN     =      0    reboot dimension
   EREF     =   0.00    reference energy to select bands
   IMIX   =      4    mixing-type and parameters
     AMIX     =   0.40;   BMIX     =  1.00
     AMIX_MAG =   1.60;   BMIX_MAG =  1.00
     AMIN     =   0.10
     WC   =   100.;   INIMIX=   1;  MIXPRE=   1;  MAXMIX= -45

 Intra band minimization:
   WEIMIN = 0.0010     energy-eigenvalue tresh-hold
   EBREAK =  0.78E-08  absolut break condition
   DEPER  =   0.30     relativ break condition  

   TIME   =   0.40     timestep for ELM

  volume/ion in A,a.u.               =      22.84       154.16
  Fermi-wavevector in a.u.,A,eV,Ry     =   1.059932  2.002981 15.285537  1.123455
  Thomas-Fermi vector in A             =   2.195295

 Write flags
   LWAVE        =      F    write WAVECAR
   LDOWNSAMPLE  =      F    k-point downsampling of WAVECAR
   LCHARG       =      F    write CHGCAR
   LVTOT        =      F    write LOCPOT, total local potential
   LVHAR        =      F    write LOCPOT, Hartree potential only
   LELF         =      F    write electronic localiz. function (ELF)
   LORBIT       =      0    0 simple, 1 ext, 2 COOP (PROOUT), +10 PAW based schemes


 Dipole corrections
   LMONO  =      F    monopole corrections only (constant potential shift)
   LDIPOL =      F    correct potential (dipole corrections)
   IDIPOL =      0    1-x, 2-y, 3-z, 4-all directions 
   EPSILON=  1.0000000 bulk dielectric constant

 Exchange correlation treatment:
   GGA     =    --    GGA type
   LEXCH   =     8    internal setting for exchange type
   LIBXC   =     F    Libxc                    
   VOSKOWN =     0    Vosko Wilk Nusair interpolation
   LHFCALC =     F    Hartree Fock is set to
   LHFONE  =     F    Hartree Fock one center treatment
   AEXX    =    0.0000 exact exchange contribution

 Linear response parameters
   LEPSILON=     F    determine dielectric tensor
   LRPA    =     F    only Hartree local field effects (RPA)
   LNABLA  =     F    use nabla operator in PAW spheres
   LVEL    =     F    velocity operator in full k-point grid
   CSHIFT  =0.1000    complex shift for real part using Kramers Kronig
   OMEGAMAX=  -1.0    maximum frequency
   DEG_THRESHOLD= 0.2000000E-02 threshold for treating states as degnerate
   RTIME   =   -0.100 relaxation time in fs
  (WPLASMAI=    0.000 imaginary part of plasma frequency in eV, 0.658/RTIME)
   DFIELD  = 0.0000000 0.0000000 0.0000000 field for delta impulse in time

  Optional k-point grid parameters
   LKPOINTS_OPT  =     F    use optional k-point grid
   KPOINTS_OPT_MODE=     1    mode for optional k-point grid

 Orbital magnetization related:
   ORBITALMAG=     F  switch on orbital magnetization
   LCHIMAG   =     F  perturbation theory with respect to B field
   DQ        =  0.001000  dq finite difference perturbation B field
   LLRAUG    =     F  two centre corrections for induced B field



--------------------------------------------------------------------------------------------------------


 conjugate gradient relaxation of ions
 charge density and potential will be updated during run
 non-spin polarized calculation
 Variant of blocked Davidson
 Davidson routine will perform the subspace rotation
 perform sub-space diagonalisation
    after iterative eigenvector-optimisation
 modified Broyden-mixing scheme, WC =      100.0
 initial mixing is a Kerker type mixing with AMIX =  0.4000 and BMIX =      1.0000
 Hartree-type preconditioning will be used
 using additional bands           72
 real space projection scheme for non local part
 use partial core corrections
 calculate Harris-corrections to forces   (improved forces if not selfconsistent)
 use gradient corrections 
 use of overlap-Matrix (Vanderbilt PP)
 Gauss-broadening in eV      SIGMA  =   0.05


--------------------------------------------------------------------------------------------------------


  energy-cutoff  :      400.00
  volume of cell :     1827.56
      direct lattice vectors                 reciprocal lattice vectors
    12.019300000  0.000000000  0.000000000     0.083199521  0.000000000 -0.000000000
    -0.000000000  7.052360000  0.000000000     0.000000000  0.141796505  0.000000000
     0.000000000  0.000000000 21.560500000    -0.000000000 -0.000000000  0.046381114

  length of vectors
    12.019300000  7.052360000 21.560500000     0.083199521  0.141796505  0.046381114



 k-points in units of 2pi/SCALE and weight: pymatgen with grid density = 500 / numbe
   0.00000000  0.00000000  0.00000000       0.333
   0.00000000  0.04726550  0.00000000       0.667

 k-points in reciprocal lattice and weights: pymatgen with grid density = 500 / numbe
   0.00000000  0.00000000  0.00000000       0.333
   0.00000000  0.33333333  0.00000000       0.667

 position of ions in fractional coordinates (direct lattice) 
   0.35210000  0.90800000  0.50130000
   0.64790000  0.40800000  0.99870000
   0.14790000  0.09200000  0.00130000
   0.14790000  0.40800000  0.50130000
   0.35210000  0.59200000  0.00130000
   0.64790000  0.09200000  0.49870000
   0.85210000  0.59200000  0.49870000
   0.85210000  0.90800000  0.99870000
   0.28690000  0.55310000  0.36580000
   0.71310000  0.05310000  0.13420000
   0.21310000  0.44690000  0.86580000
   0.21310000  0.05310000  0.36580000
   0.28690000  0.94690000  0.86580000
   0.71310000  0.44690000  0.63420000
   0.78690000  0.94690000  0.63420000
   0.78690000  0.55310000  0.13420000
   0.55790000  0.56580000  0.43320000
   0.44210000  0.06580000  0.06680000
   0.94210000  0.43420000  0.93320000
   0.94210000  0.06580000  0.43320000
   0.55790000  0.93420000  0.93320000
   0.44210000  0.43420000  0.56680000
   0.05790000  0.93420000  0.56680000
   0.05790000  0.56580000  0.06680000
   0.58630000  0.38090000  0.25010000
   0.41370000  0.88090000  0.24990000
   0.91370000  0.61910000  0.75010000
   0.91370000  0.88090000  0.25010000
   0.58630000  0.11910000  0.75010000
   0.41370000  0.61910000  0.74990000
   0.08630000  0.11910000  0.74990000
   0.08630000  0.38090000  0.24990000
   0.83730000  0.10770000  0.82940000
   0.16270000  0.60770000  0.67060000
   0.66270000  0.89230000  0.32940000
   0.66270000  0.60770000  0.82940000
   0.83730000  0.39230000  0.32940000
   0.16270000  0.89230000  0.17060000
   0.33730000  0.39230000  0.17060000
   0.33730000  0.10770000  0.67060000
   0.03990000  0.83120000  0.87370000
   0.96010000  0.33120000  0.62630000
   0.46010000  0.16880000  0.37370000
   0.46010000  0.33120000  0.87370000
   0.03990000  0.66880000  0.37370000
   0.96010000  0.16880000  0.12630000
   0.53990000  0.66880000  0.12630000
   0.53990000  0.83120000  0.62630000
   0.37130000  0.20460000  0.95710000
   0.62870000  0.70460000  0.54290000
   0.12870000  0.79540000  0.45710000
   0.12870000  0.70460000  0.95710000
   0.37130000  0.29540000  0.45710000
   0.62870000  0.79540000  0.04290000
   0.87130000  0.29540000  0.04290000
   0.87130000  0.20460000  0.54290000
   0.44770000  0.85200000  0.37830000
   0.55230000  0.35200000  0.12170000
   0.05230000  0.14800000  0.87830000
   0.05230000  0.35200000  0.37830000
   0.44770000  0.64800000  0.87830000
   0.55230000  0.14800000  0.62170000
   0.94770000  0.64800000  0.62170000
   0.94770000  0.85200000  0.12170000
   0.14020000  0.24260000  0.62220000
   0.85980000  0.74260000  0.87780000
   0.35980000  0.75740000  0.12220000
   0.35980000  0.74260000  0.62220000
   0.14020000  0.25740000  0.12220000
   0.85980000  0.75740000  0.37780000
   0.64020000  0.25740000  0.37780000
   0.64020000  0.24260000  0.87780000
   0.63170000  0.76100000  0.21130000
   0.36830000  0.26100000  0.28870000
   0.86830000  0.23900000  0.71130000
   0.86830000  0.26100000  0.21130000
   0.63170000  0.73900000  0.71130000
   0.36830000  0.23900000  0.78870000
   0.13170000  0.73900000  0.78870000
   0.13170000  0.76100000  0.28870000

 position of ions in cartesian coordinates  (Angst):
   4.23199553  6.40354288 10.80827865
   7.78730447  2.87736288 21.53247135
   1.77765447  0.64881712  0.02802865
   1.77765447  2.87736288 10.80827865
   4.23199553  4.17499712  0.02802865
   7.78730447  0.64881712 10.75222135
  10.24164553  4.17499712 10.75222135
  10.24164553  6.40354288 21.53247135
   3.44833717  3.90066032  7.88683090
   8.57096283  0.37448032  2.89341910
   2.56131283  3.15169968 18.66708090
   2.56131283  0.37448032  7.88683090
   3.44833717  6.67787968 18.66708090
   8.57096283  3.15169968 13.67366910
   9.45798717  6.67787968 13.67366910
   9.45798717  3.90066032  2.89341910
   6.70556747  3.99022529  9.34000860
   5.31373253  0.46404529  1.44024140
  11.32338253  3.06213471 20.12025860
  11.32338253  0.46404529  9.34000860
   6.70556747  6.58831471 20.12025860
   5.31373253  3.06213471 12.22049140
   0.69591747  6.58831471 12.22049140
   0.69591747  3.99022529  1.44024140
   7.04691559  2.68624392  5.39228105
   4.97238441  6.21242392  5.38796895
  10.98203441  4.36611608 16.17253105
  10.98203441  6.21242392  5.39228105
   7.04691559  0.83993608 16.17253105
   4.97238441  4.36611608 16.16821895
   1.03726559  0.83993608 16.16821895
   1.03726559  2.68624392  5.38796895
  10.06375989  0.75953917 17.88227870
   1.95554011  4.28571917 14.45847130
   7.96519011  6.29282083  7.10202870
   7.96519011  4.28571917 17.88227870
  10.06375989  2.76664083  7.10202870
   1.95554011  6.29282083  3.67822130
   4.05410989  2.76664083  3.67822130
   4.05410989  0.75953917 14.45847130
   0.47957007  5.86192163 18.83740885
  11.53972993  2.33574163 13.50334115
   5.53007993  1.19043837  8.05715885
   5.53007993  2.33574163 18.83740885
   0.47957007  4.71661837  8.05715885
  11.53972993  1.19043837  2.72309115
   6.48922007  4.71661837  2.72309115
   6.48922007  5.86192163 13.50334115
   4.46276609  1.44291286 20.63555455
   7.55653391  4.96909286 11.70519545
   1.54688391  5.60944714  9.85530455
   1.54688391  4.96909286 20.63555455
   4.46276609  2.08326714  9.85530455
   7.55653391  5.60944714  0.92494545
  10.47241609  2.08326714  0.92494545
  10.47241609  1.44291286 11.70519545
   5.38104061  6.00861072  8.15633715
   6.63825939  2.48243072  2.62391285
   0.62860939  1.04374928 18.93658715
   0.62860939  2.48243072  8.15633715
   5.38104061  4.56992928 18.93658715
   6.63825939  1.04374928 13.40416285
  11.39069061  4.56992928 13.40416285
  11.39069061  6.00861072  2.62391285
   1.68510586  1.71090254 13.41494310
  10.33419414  5.23708254 18.92580690
   4.32454414  5.34145746  2.63469310
   4.32454414  5.23708254 13.41494310
   1.68510586  1.81527746  2.63469310
  10.33419414  5.34145746  8.14555690
   7.69475586  1.81527746  8.14555690
   7.69475586  1.71090254 18.92580690
   7.59259181  5.36684596  4.55573365
   4.42670819  1.84066596  6.22451635
  10.43635819  1.68551404 15.33598365
  10.43635819  1.84066596  4.55573365
   7.59259181  5.21169404 15.33598365
   4.42670819  1.68551404 17.00476635
   1.58294181  5.21169404 17.00476635
   1.58294181  5.36684596  6.22451635



--------------------------------------------------------------------------------------------------------


 k-point   1 :   0.0000 0.0000 0.0000  plane waves:   33179
 k-point   2 :   0.0000 0.3333 0.0000  plane waves:   33213

 maximum and minimum number of plane-waves per node :     33213    33179

 maximum number of plane-waves:     33213
 maximum index in each direction: 
   IXMAX=   19   IYMAX=   11   IZMAX=   35
   IXMIN=  -19   IYMIN=  -11   IZMIN=  -35


 serial   3D FFT for wavefunctions
 parallel 3D FFT for charge:
    minimum data exchange during FFTs selected (reduces bandwidth)


 total amount of memory used by VASP MPI-rank0    65025. kBytes
=======================================================================

   base      :      30000. kBytes
   nonlr-proj:       7547. kBytes
   fftplans  :       3026. kBytes
   grid      :      13374. kBytes
   one-center:        245. kBytes
   wavefun   :      10833. kBytes

     INWAV:  cpu time      0.0000: real time      0.0002
 Broyden mixing: mesh for mixing (old mesh)
   NGX = 39   NGY = 23   NGZ = 71
  (NGX  =120   NGY  = 72   NGZ  =216)
  gives a total of  63687 points

 initial charge density was supplied:
 charge density of overlapping atoms calculated
 number of electron     496.0000000 magnetization 
 keeping initial charge density in first step


--------------------------------------------------------------------------------------------------------


 Maximum index for non-local projection operator         1151
 Maximum index for augmentation-charges          344 (set IRDMAX)


--------------------------------------------------------------------------------------------------------


 First call to EWALD:  gamma=   0.145
 Maximum number of real-space cells 3x 4x 2
 Maximum number of reciprocal cells 3x 2x 4

    FEWALD:  cpu time      0.0037: real time      0.0039


--------------------------------------- Iteration      1(   1)  ---------------------------------------


    POTLOK:  cpu time      0.0491: real time      0.0493
    SETDIJ:  cpu time      0.0048: real time      0.0052
     EDDAV:  cpu time      2.2058: real time      2.2148
       DOS:  cpu time      0.0006: real time      0.0006
    --------------------------------------------
      LOOP:  cpu time      2.2603: real time      2.2699

 eigenvalue-minimisations  :  1312
 total energy-change (2. order) : 0.4593674E+04  (-0.2046348E+05)
 number of electron     496.0000000 magnetization 
 augmentation part      496.0000000 magnetization 

 Free energy of the ion-electron system (eV)
  ---------------------------------------------------
  alpha Z        PSCENC =       688.91409866
  Ewald energy   TEWEN  =    -22234.64823398
  -Hartree energ DENC   =    -10688.78245931
  -exchange      EXHF   =         0.00000000
  -V(xc)+E(xc)   XCENC  =      1165.65697545
  PAW double counting   =     27583.00782613   -30768.19514509
  entropy T*S    EENTRO =        -0.03089047
  eigenvalues    EBANDS =     -1080.08555245
  atomic energy  EATOM  =     39927.83723125
  Solvation  Ediel_sol  =         0.00000000
  ---------------------------------------------------
  free energy    TOTEN  =      4593.67385018 eV

  energy without entropy =     4593.70474065  energy(sigma->0) =     4593.68929542


--------------------------------------------------------------------------------------------------------




--------------------------------------- Iteration      1(   2)  ---------------------------------------


     EDDAV:  cpu time      2.2213: real time      2.2262
       DOS:  cpu time      0.0002: real time      0.0003
    --------------------------------------------
      LOOP:  cpu time      2.2215: real time      2.2265

 eigenvalue-minimisations  :  1408
 total energy-change (2. order) :-0.4321677E+04  (-0.4129606E+04)
 number of electron     496.0000000 magnetization 
 augmentation part      496.0000000 magnetization 

 Free energy of the ion-electron system (eV)
  ---------------------------------------------------
  alpha Z        PSCENC =       688.91409866
  Ewald energy   TEWEN  =    -22234.64823398
  -Hartree energ DENC   =    -10688.78245931
  -exchange      EXHF   =         0.00000000
  -V(xc)+E(xc)   XCENC  =      1165.65697545
  PAW double counting   =     27583.00782613   -30768.19514509
  entropy T*S    EENTRO =        -0.00000000
  eigenvalues    EBANDS =     -5401.79386089
  atomic energy  EATOM  =     39927.83723125
  Solvation  Ediel_sol  =         0.00000000
  ---------------------------------------------------
  free energy    TOTEN  =       271.99643221 eV

  energy without entropy =      271.99643221  energy(sigma->0) =      271.99643221


--------------------------------------------------------------------------------------------------------




--------------------------------------- Iteration      1(   3)  ---------------------------------------


     EDDAV:  cpu time      2.4151: real time      2.4160
       DOS:  cpu time      0.0002: real time      0.0003
    --------------------------------------------
      LOOP:  cpu time      2.4153: real time      2.4163

 eigenvalue-minimisations  :  1536
 total energy-change (2. order) :-0.5708017E+03  (-0.5644283E+03)
 number of electron     496.0000000 magnetization 
 augmentation part      496.0000000 magnetization 

 Free energy of the ion-electron system (eV)
  ---------------------------------------------------
  alpha Z        PSCENC =       688.91409866
  Ewald energy   TEWEN  =    -22234.64823398
  -Hartree energ DENC   =    -10688.78245931
  -exchange      EXHF   =         0.00000000
  -V(xc)+E(xc)   XCENC  =      1165.65697545
  PAW double counting   =     27583.00782613   -30768.19514509
  entropy T*S    EENTRO =        -0.00000000
  eigenvalues    EBANDS =     -5972.59555289
  atomic energy  EATOM  =     39927.83723125
  Solvation  Ediel_sol  =         0.00000000
  ---------------------------------------------------
  free energy    TOTEN  =      -298.80525979 eV

  energy without entropy =     -298.80525979  energy(sigma->0) =     -298.80525979


--------------------------------------------------------------------------------------------------------




--------------------------------------- Iteration      1(   4)  ---------------------------------------


     EDDAV:  cpu time      2.3714: real time      2.3728
       DOS:  cpu time      0.0002: real time      0.0003
    --------------------------------------------
      LOOP:  cpu time      2.3716: real time      2.3731

 eigenvalue-minimisations  :  1504
 total energy-change (2. order) :-0.2838903E+02  (-0.2822523E+02)
 number of electron     496.0000000 magnetization 
 augmentation part      496.0000000 magnetization 

 Free energy of the ion-electron system (eV)
  ---------------------------------------------------
  alpha Z        PSCENC =       688.91409866
  Ewald energy   TEWEN  =    -22234.64823398
  -Hartree energ DENC   =    -10688.78245931
  -exchange      EXHF   =         0.00000000
  -V(xc)+E(xc)   XCENC  =      1165.65697545
  PAW double counting   =     27583.00782613   -30768.19514509
  entropy T*S    EENTRO =        -0.00000000
  eigenvalues    EBANDS =     -6000.98458072
  atomic energy  EATOM  =     39927.83723125
  Solvation  Ediel_sol  =         0.00000000
  ---------------------------------------------------
  free energy    TOTEN  =      -327.19428762 eV

  energy without entropy =     -327.19428762  energy(sigma->0) =     -327.19428762


--------------------------------------------------------------------------------------------------------




--------------------------------------- Iteration      1(   5)  ---------------------------------------


     EDDAV:  cpu time      2.7138: real time      2.7174
       DOS:  cpu time      0.0002: real time      0.0003
    CHARGE:  cpu time      0.1238: real time      0.1238
    MIXING:  cpu time      0.0019: real time      0.0020
    --------------------------------------------
      LOOP:  cpu time      2.8398: real time      2.8437

 eigenvalue-minimisations  :  1728
 total energy-change (2. order) :-0.1111315E+01  (-0.1109308E+01)
 number of electron     495.9999379 magnetization 
 augmentation part      150.4182489 magnetization 

 Broyden mixing:
  rms(total) = 0.27475E+01    rms(broyden)= 0.27474E+01
  rms(prec ) = 0.29439E+01
  weight for this iteration     100.00

 Free energy of the ion-electron system (eV)
  ---------------------------------------------------
  alpha Z        PSCENC =       688.91409866
  Ewald energy   TEWEN  =    -22234.64823398
  -Hartree energ DENC   =    -10688.78245931
  -exchange      EXHF   =         0.00000000
  -V(xc)+E(xc)   XCENC  =      1165.65697545
  PAW double counting   =     27583.00782613   -30768.19514509
  entropy T*S    EENTRO =        -0.00000000
  eigenvalues    EBANDS =     -6002.09589536
  atomic energy  EATOM  =     39927.83723125
  Solvation  Ediel_sol  =         0.00000000
  ---------------------------------------------------
  free energy    TOTEN  =      -328.30560226 eV

  energy without entropy =     -328.30560226  energy(sigma->0) =     -328.30560226


--------------------------------------------------------------------------------------------------------




--------------------------------------- Iteration      1(   6)  ---------------------------------------


    POTLOK:  cpu time      0.0464: real time      0.0466
    SETDIJ:  cpu time      0.0040: real time      0.0039
     EDDAV:  cpu time      2.4171: real time      2.4195
       DOS:  cpu time      0.0002: real time      0.0004
    CHARGE:  cpu time      0.1204: real time      0.1206
    MIXING:  cpu time      0.0015: real time      0.0016
    --------------------------------------------
      LOOP:  cpu time      2.5896: real time      2.5927

 eigenvalue-minimisations  :  1536
 total energy-change (2. order) : 0.1848041E+02  (-0.3255658E+01)
 number of electron     495.9999385 magnetization 
 augmentation part      151.9710545 magnetization 

 Broyden mixing:
  rms(total) = 0.18431E+01    rms(broyden)= 0.18431E+01
  rms(prec ) = 0.18953E+01
  weight for this iteration     100.00

 eigenvalues of (default mixing * dielectric matrix)
  average eigenvalue GAMMA=   1.6558
  1.6558

 Free energy of the ion-electron system (eV)
  ---------------------------------------------------
  alpha Z        PSCENC =       688.91409866
  Ewald energy   TEWEN  =    -22234.64823398
  -Hartree energ DENC   =    -10795.33702697
  -exchange      EXHF   =         0.00000000
  -V(xc)+E(xc)   XCENC  =      1180.09840238
  PAW double counting   =     30654.69352505   -33836.51920534
  entropy T*S    EENTRO =        -0.00000000
  eigenvalues    EBANDS =     -5894.86397901
  atomic energy  EATOM  =     39927.83723125
  Solvation  Ediel_sol  =         0.00000000
  ---------------------------------------------------
  free energy    TOTEN  =      -309.82518797 eV

  energy without entropy =     -309.82518797  energy(sigma->0) =     -309.82518797


--------------------------------------------------------------------------------------------------------




--------------------------------------- Iteration      1(   7)  ---------------------------------------


    POTLOK:  cpu time      0.0445: real time      0.0448
    SETDIJ:  cpu time      0.0041: real time      0.0041
     EDDAV:  cpu time      2.9568: real time      2.9577
       DOS:  cpu time      0.0002: real time      0.0005
    CHARGE:  cpu time      0.1211: real time      0.1211
    MIXING:  cpu time      0.0014: real time      0.0014
    --------------------------------------------
      LOOP:  cpu time      3.1281: real time      3.1295

 eigenvalue-minimisations  :  1728
 total energy-change (2. order) : 0.2112810E+01  (-0.1167146E+01)
 number of electron     495.9999390 magnetization 
 augmentation part      152.7986322 magnetization 

 Broyden mixing:
  rms(total) = 0.11187E+01    rms(broyden)= 0.11187E+01
  rms(prec ) = 0.11284E+01
  weight for this iteration     100.00

 eigenvalues of (default mixing * dielectric matrix)
  average eigenvalue GAMMA=   2.3920
  1.3522  3.4317

 Free energy of the ion-electron system (eV)
  ---------------------------------------------------
  alpha Z        PSCENC =       688.91409866
  Ewald energy   TEWEN  =    -22234.64823398
  -Hartree energ DENC   =    -10848.97518953
  -exchange      EXHF   =         0.00000000
  -V(xc)+E(xc)   XCENC  =      1190.28208438
  PAW double counting   =     35515.71687874   -38705.02323822
  entropy T*S    EENTRO =        -0.00000000
  eigenvalues    EBANDS =     -5841.81600944
  atomic energy  EATOM  =     39927.83723125
  Solvation  Ediel_sol  =         0.00000000
  ---------------------------------------------------
  free energy    TOTEN  =      -307.71237816 eV

  energy without entropy =     -307.71237816  energy(sigma->0) =     -307.71237816


--------------------------------------------------------------------------------------------------------




--------------------------------------- Iteration      1(   8)  ---------------------------------------


    POTLOK:  cpu time      0.0401: real time      0.0403
    SETDIJ:  cpu time      0.0040: real time      0.0040
     EDDAV:  cpu time      2.9459: real time      2.9468
       DOS:  cpu time      0.0002: real time      0.0005
    CHARGE:  cpu time      0.1218: real time      0.1218
    MIXING:  cpu time      0.0015: real time      0.0015
    --------------------------------------------
      LOOP:  cpu time      3.1135: real time      3.1149

 eigenvalue-minimisations  :  1472
 total energy-change (2. order) :-0.1765913E+00  (-0.1283415E+00)
 number of electron     495.9999389 magnetization 
 augmentation part      152.5970232 magnetization 

 Broyden mixing:
  rms(total) = 0.53978E+00    rms(broyden)= 0.53978E+00
  rms(prec ) = 0.54084E+00
  weight for this iteration     100.00

 eigenvalues of (default mixing * dielectric matrix)
  average eigenvalue GAMMA=   1.5720
  2.3728  1.1716  1.1716

 Free energy of the ion-electron system (eV)
  ---------------------------------------------------
  alpha Z        PSCENC =       688.91409866
  Ewald energy   TEWEN  =    -22234.64823398
  -Hartree energ DENC   =    -10830.49673282
  -exchange      EXHF   =         0.00000000
  -V(xc)+E(xc)   XCENC  =      1193.82987776
  PAW double counting   =     41887.33277999   -45089.59907903
  entropy T*S    EENTRO =        -0.00000000
  eigenvalues    EBANDS =     -5851.05891124
  atomic energy  EATOM  =     39927.83723125
  Solvation  Ediel_sol  =         0.00000000
  ---------------------------------------------------
  free energy    TOTEN  =      -307.88896942 eV

  energy without entropy =     -307.88896942  energy(sigma->0) =     -307.88896942


--------------------------------------------------------------------------------------------------------




--------------------------------------- Iteration      1(   9)  ---------------------------------------


    POTLOK:  cpu time      0.0398: real time      0.0401
    SETDIJ:  cpu time      0.0041: real time      0.0041
     EDDAV:  cpu time      2.2589: real time      2.2598
       DOS:  cpu time      0.0002: real time      0.0004
    CHARGE:  cpu time      0.1208: real time      0.1209
    MIXING:  cpu time      0.0015: real time      0.0015
    --------------------------------------------
      LOOP:  cpu time      2.4253: real time      2.4268

 eigenvalue-minimisations  :  1440
 total energy-change (2. order) : 0.3397580E-01  (-0.1445177E-01)
 number of electron     495.9999389 magnetization 
 augmentation part      152.6419599 magnetization 

 Broyden mixing:
  rms(total) = 0.15347E+00    rms(broyden)= 0.15347E+00
  rms(prec ) = 0.15573E+00
  weight for this iteration     100.00

 eigenvalues of (default mixing * dielectric matrix)
  average eigenvalue GAMMA=   1.2289
  2.3950  1.1619  1.1619  0.1968

 Free energy of the ion-electron system (eV)
  ---------------------------------------------------
  alpha Z        PSCENC =       688.91409866
  Ewald energy   TEWEN  =    -22234.64823398
  -Hartree energ DENC   =    -10835.84803660
  -exchange      EXHF   =         0.00000000
  -V(xc)+E(xc)   XCENC  =      1192.80769450
  PAW double counting   =     39608.08362157   -42806.25346499
  entropy T*S    EENTRO =        -0.00000000
  eigenvalues    EBANDS =     -5848.74790401
  atomic energy  EATOM  =     39927.83723125
  Solvation  Ediel_sol  =         0.00000000
  ---------------------------------------------------
  free energy    TOTEN  =      -307.85499362 eV

  energy without entropy =     -307.85499362  energy(sigma->0) =     -307.85499362


--------------------------------------------------------------------------------------------------------




--------------------------------------- Iteration      1(  10)  ---------------------------------------


    POTLOK:  cpu time      0.0391: real time      0.0394
    SETDIJ:  cpu time      0.0041: real time      0.0041
     EDDAV:  cpu time      2.4959: real time      2.4969
       DOS:  cpu time      0.0002: real time      0.0004
    CHARGE:  cpu time      0.1192: real time      0.1193
    MIXING:  cpu time      0.0015: real time      0.0015
    --------------------------------------------
      LOOP:  cpu time      2.6601: real time      2.6615

 eigenvalue-minimisations  :  1600
 total energy-change (2. order) :-0.3874436E-02  (-0.8322880E-03)
 number of electron     495.9999389 magnetization 
 augmentation part      152.6553963 magnetization 

 Broyden mixing:
  rms(total) = 0.13436E+00    rms(broyden)= 0.13436E+00
  rms(prec ) = 0.13646E+00
  weight for this iteration     100.00

 eigenvalues of (default mixing * dielectric matrix)
  average eigenvalue GAMMA=   1.5173
  2.7265  1.4825  0.9910  1.1932  1.1932

 Free energy of the ion-electron system (eV)
  ---------------------------------------------------
  alpha Z        PSCENC =       688.91409866
  Ewald energy   TEWEN  =    -22234.64823398
  -Hartree energ DENC   =    -10835.95461121
  -exchange      EXHF   =         0.00000000
  -V(xc)+E(xc)   XCENC  =      1192.86411646
  PAW double counting   =     39602.13223965   -42800.36998306
  entropy T*S    EENTRO =        -0.00000000
  eigenvalues    EBANDS =     -5848.63372582
  atomic energy  EATOM  =     39927.83723125
  Solvation  Ediel_sol  =         0.00000000
  ---------------------------------------------------
  free energy    TOTEN  =      -307.85886805 eV

  energy without entropy =     -307.85886805  energy(sigma->0) =     -307.85886805


--------------------------------------------------------------------------------------------------------




--------------------------------------- Iteration      1(  11)  ---------------------------------------


    POTLOK:  cpu time      0.0389: real time      0.0392
    SETDIJ:  cpu time      0.0040: real time      0.0040
     EDDAV:  cpu time      2.2223: real time      2.2296
       DOS:  cpu time      0.0002: real time      0.0004
    CHARGE:  cpu time      0.1238: real time      0.1238
    MIXING:  cpu time      0.0015: real time      0.0015
    --------------------------------------------
      LOOP:  cpu time      2.3907: real time      2.3984

 eigenvalue-minimisations  :  1408
 total energy-change (2. order) :-0.2345360E-01  (-0.3607458E-02)
 number of electron     495.9999389 magnetization 
 augmentation part      152.6215115 magnetization 

 Broyden mixing:
  rms(total) = 0.11777E+00    rms(broyden)= 0.11777E+00
  rms(prec ) = 0.11845E+00
  weight for this iteration     100.00

 eigenvalues of (default mixing * dielectric matrix)
  average eigenvalue GAMMA=   1.5448
  2.7901  2.4011  1.2730  1.2730  0.7658  0.7658

 Free energy of the ion-electron system (eV)
  ---------------------------------------------------
  alpha Z        PSCENC =       688.91409866
  Ewald energy   TEWEN  =    -22234.64823398
  -Hartree energ DENC   =    -10833.49554085
  -exchange      EXHF   =         0.00000000
  -V(xc)+E(xc)   XCENC  =      1193.04288197
  PAW double counting   =     39802.34671791   -43001.60913998
  entropy T*S    EENTRO =        -0.00000000
  eigenvalues    EBANDS =     -5850.27033663
  atomic energy  EATOM  =     39927.83723125
  Solvation  Ediel_sol  =         0.00000000
  ---------------------------------------------------
  free energy    TOTEN  =      -307.88232166 eV

  energy without entropy =     -307.88232166  energy(sigma->0) =     -307.88232166


--------------------------------------------------------------------------------------------------------




--------------------------------------- Iteration      1(  12)  ---------------------------------------


    POTLOK:  cpu time      0.0391: real time      0.0394
    SETDIJ:  cpu time      0.0041: real time      0.0041
     EDDAV:  cpu time      2.3858: real time      2.3866
       DOS:  cpu time      0.0003: real time      0.0005
    CHARGE:  cpu time      0.1214: real time      0.1214
    MIXING:  cpu time      0.0016: real time      0.0015
    --------------------------------------------
      LOOP:  cpu time      2.5522: real time      2.5534

 eigenvalue-minimisations  :  1504
 total energy-change (2. order) :-0.7551551E-03  (-0.6607786E-03)
 number of electron     495.9999389 magnetization 
 augmentation part      152.6359582 magnetization 

 Broyden mixing:
  rms(total) = 0.53345E-01    rms(broyden)= 0.53345E-01
  rms(prec ) = 0.53686E-01
  weight for this iteration     100.00

 eigenvalues of (default mixing * dielectric matrix)
  average eigenvalue GAMMA=   1.4550
  2.8127  2.4282  1.2840  1.2840  0.7562  0.8098  0.8098

 Free energy of the ion-electron system (eV)
  ---------------------------------------------------
  alpha Z        PSCENC =       688.91409866
  Ewald energy   TEWEN  =    -22234.64823398
  -Hartree energ DENC   =    -10834.94707768
  -exchange      EXHF   =         0.00000000
  -V(xc)+E(xc)   XCENC  =      1193.12765790
  PAW double counting   =     39496.63773867   -42695.67984348
  entropy T*S    EENTRO =        -0.00000000
  eigenvalues    EBANDS =     -5849.12464814
  atomic energy  EATOM  =     39927.83723125
  Solvation  Ediel_sol  =         0.00000000
  ---------------------------------------------------
  free energy    TOTEN  =      -307.88307681 eV

  energy without entropy =     -307.88307681  energy(sigma->0) =     -307.88307681


--------------------------------------------------------------------------------------------------------




--------------------------------------- Iteration      1(  13)  ---------------------------------------


    POTLOK:  cpu time      0.0391: real time      0.0393
    SETDIJ:  cpu time      0.0041: real time      0.0041
     EDDAV:  cpu time      2.6562: real time      2.6573
       DOS:  cpu time      0.0002: real time      0.0005
    CHARGE:  cpu time      0.1204: real time      0.1204
    MIXING:  cpu time      0.0016: real time      0.0016
    --------------------------------------------
      LOOP:  cpu time      2.8216: real time      2.8232

 eigenvalue-minimisations  :  1728
 total energy-change (2. order) : 0.1474282E-03  (-0.1188096E-03)
 number of electron     495.9999389 magnetization 
 augmentation part      152.6430240 magnetization 

 Broyden mixing:
  rms(total) = 0.41011E-01    rms(broyden)= 0.41011E-01
  rms(prec ) = 0.41205E-01
  weight for this iteration     100.00

 eigenvalues of (default mixing * dielectric matrix)
  average eigenvalue GAMMA=   1.4076
  2.9428  2.3656  1.0503  1.0503  1.2388  1.2388  0.6872  0.6872

 Free energy of the ion-electron system (eV)
  ---------------------------------------------------
  alpha Z        PSCENC =       688.91409866
  Ewald energy   TEWEN  =    -22234.64823398
  -Hartree energ DENC   =    -10835.42897511
  -exchange      EXHF   =         0.00000000
  -V(xc)+E(xc)   XCENC  =      1193.15673047
  PAW double counting   =     39434.69423438   -42633.72355251
  entropy T*S    EENTRO =        -0.00000000
  eigenvalues    EBANDS =     -5848.68446253
  atomic energy  EATOM  =     39927.83723125
  Solvation  Ediel_sol  =         0.00000000
  ---------------------------------------------------
  free energy    TOTEN  =      -307.88292939 eV

  energy without entropy =     -307.88292939  energy(sigma->0) =     -307.88292939


--------------------------------------------------------------------------------------------------------




--------------------------------------- Iteration      1(  14)  ---------------------------------------


    POTLOK:  cpu time      0.0411: real time      0.0413
    SETDIJ:  cpu time      0.0040: real time      0.0040
     EDDAV:  cpu time      2.0814: real time      2.0821
       DOS:  cpu time      0.0002: real time      0.0005
    CHARGE:  cpu time      0.1209: real time      0.1209
    MIXING:  cpu time      0.0016: real time      0.0016
    --------------------------------------------
      LOOP:  cpu time      2.2492: real time      2.2504

 eigenvalue-minimisations  :  1280
 total energy-change (2. order) : 0.2294534E-04  (-0.2141992E-04)
 number of electron     495.9999389 magnetization 
 augmentation part      152.6463884 magnetization 

 Broyden mixing:
  rms(total) = 0.29856E-01    rms(broyden)= 0.29856E-01
  rms(prec ) = 0.29996E-01
  weight for this iteration     100.00

 eigenvalues of (default mixing * dielectric matrix)
  average eigenvalue GAMMA=   1.5029
  2.8534  2.5121  1.6559  1.6559  1.1813  1.1813  0.8694  0.8082  0.8082

 Free energy of the ion-electron system (eV)
  ---------------------------------------------------
  alpha Z        PSCENC =       688.91409866
  Ewald energy   TEWEN  =    -22234.64823398
  -Hartree energ DENC   =    -10835.70994903
  -exchange      EXHF   =         0.00000000
  -V(xc)+E(xc)   XCENC  =      1193.17523672
  PAW double counting   =     39397.38187385   -42596.41432492
  entropy T*S    EENTRO =        -0.00000000
  eigenvalues    EBANDS =     -5848.41883897
  atomic energy  EATOM  =     39927.83723125
  Solvation  Ediel_sol  =         0.00000000
  ---------------------------------------------------
  free energy    TOTEN  =      -307.88290644 eV

  energy without entropy =     -307.88290644  energy(sigma->0) =     -307.88290644


--------------------------------------------------------------------------------------------------------




--------------------------------------- Iteration      1(  15)  ---------------------------------------


    POTLOK:  cpu time      0.0392: real time      0.0395
    SETDIJ:  cpu time      0.0040: real time      0.0040
     EDDAV:  cpu time      2.1629: real time      2.1637
       DOS:  cpu time      0.0003: real time      0.0005
    CHARGE:  cpu time      0.1205: real time      0.1207
    MIXING:  cpu time      0.0018: real time      0.0018
    --------------------------------------------
      LOOP:  cpu time      2.3287: real time      2.3302

 eigenvalue-minimisations  :  1344
 total energy-change (2. order) :-0.8512696E-05  (-0.3959783E-04)
 number of electron     495.9999389 magnetization 
 augmentation part      152.6507825 magnetization 

 Broyden mixing:
  rms(total) = 0.11458E-01    rms(broyden)= 0.11458E-01
  rms(prec ) = 0.11566E-01
  weight for this iteration     100.00

 eigenvalues of (default mixing * dielectric matrix)
  average eigenvalue GAMMA=   1.4983
  3.0639  2.5291  1.8212  1.8212  0.9727  0.9727  1.0803  1.0803  0.8209  0.8209

 Free energy of the ion-electron system (eV)
  ---------------------------------------------------
  alpha Z        PSCENC =       688.91409866
  Ewald energy   TEWEN  =    -22234.64823398
  -Hartree energ DENC   =    -10836.17521733
  -exchange      EXHF   =         0.00000000
  -V(xc)+E(xc)   XCENC  =      1193.18919808
  PAW double counting   =     39332.75925053   -42531.76431034
  entropy T*S    EENTRO =        -0.00000000
  eigenvalues    EBANDS =     -5847.99493181
  atomic energy  EATOM  =     39927.83723125
  Solvation  Ediel_sol  =         0.00000000
  ---------------------------------------------------
  free energy    TOTEN  =      -307.88291495 eV

  energy without entropy =     -307.88291495  energy(sigma->0) =     -307.88291495


--------------------------------------------------------------------------------------------------------




--------------------------------------- Iteration      1(  16)  ---------------------------------------


    POTLOK:  cpu time      0.0398: real time      0.0400
    SETDIJ:  cpu time      0.0040: real time      0.0040
     EDDAV:  cpu time      2.4932: real time      2.4938
       DOS:  cpu time      0.0004: real time      0.0007
    CHARGE:  cpu time      0.1204: real time      0.1204
    MIXING:  cpu time      0.0019: real time      0.0019
    --------------------------------------------
      LOOP:  cpu time      2.6596: real time      2.6607

 eigenvalue-minimisations  :  1600
 total energy-change (2. order) :-0.7800576E-04  (-0.2987841E-04)
 number of electron     495.9999389 magnetization 
 augmentation part      152.6536560 magnetization 

 Broyden mixing:
  rms(total) = 0.13437E-01    rms(broyden)= 0.13437E-01
  rms(prec ) = 0.13532E-01
  weight for this iteration     100.00

 eigenvalues of (default mixing * dielectric matrix)
  average eigenvalue GAMMA=   1.3724
  3.0760  2.5092  1.8168  1.8168  0.9954  0.9954  1.0918  1.0453  0.8125  0.8125
  0.1252

 Free energy of the ion-electron system (eV)
  ---------------------------------------------------
  alpha Z        PSCENC =       688.91409866
  Ewald energy   TEWEN  =    -22234.64823398
  -Hartree energ DENC   =    -10836.44960251
  -exchange      EXHF   =         0.00000000
  -V(xc)+E(xc)   XCENC  =      1193.19890001
  PAW double counting   =     39298.92592712   -42497.93159863
  entropy T*S    EENTRO =        -0.00000000
  eigenvalues    EBANDS =     -5847.72971487
  atomic energy  EATOM  =     39927.83723125
  Solvation  Ediel_sol  =         0.00000000
  ---------------------------------------------------
  free energy    TOTEN  =      -307.88299296 eV

  energy without entropy =     -307.88299296  energy(sigma->0) =     -307.88299296


--------------------------------------------------------------------------------------------------------




--------------------------------------- Iteration      1(  17)  ---------------------------------------


    POTLOK:  cpu time      0.0392: real time      0.0395
    SETDIJ:  cpu time      0.0041: real time      0.0041
     EDDAV:  cpu time      2.1522: real time      2.1527
       DOS:  cpu time      0.0003: real time      0.0004
    --------------------------------------------
      LOOP:  cpu time      2.1958: real time      2.1967

 eigenvalue-minimisations  :  1280
 total energy-change (2. order) : 0.2363180E-05  (-0.5156296E-05)
 number of electron     495.9999389 magnetization 
 augmentation part      152.6536560 magnetization 

 Free energy of the ion-electron system (eV)
  ---------------------------------------------------
  alpha Z        PSCENC =       688.91409866
  Ewald energy   TEWEN  =    -22234.64823398
  -Hartree energ DENC   =    -10836.43466032
  -exchange      EXHF   =         0.00000000
  -V(xc)+E(xc)   XCENC  =      1193.19826707
  PAW double counting   =     39302.30411065   -42501.31198499
  entropy T*S    EENTRO =        -0.00000000
  eigenvalues    EBANDS =     -5847.74181891
  atomic energy  EATOM  =     39927.83723125
  Solvation  Ediel_sol  =         0.00000000
  ---------------------------------------------------
  free energy    TOTEN  =      -307.88299060 eV

  energy without entropy =     -307.88299060  energy(sigma->0) =     -307.88299060


--------------------------------------------------------------------------------------------------------




 average (electrostatic) potential at core
  the test charge radii are     0.9254  1.0406  0.9698
  (the norm of the test charge is              1.0000)
       1 -47.4127       2 -47.4127       3 -47.4127       4 -47.4127       5 -47.4127
       6 -47.4127       7 -47.4127       8 -47.4127       9 -47.0113      10 -47.0113
[...]
   -.681E+01 -.271E+01 -.389E+02   0.715E+01 0.215E+01 0.372E+02   -.326E+00 0.555E+00 0.172E+01   -.109E-03 0.260E-03 0.143E-02
   -.681E+01 0.271E+01 -.389E+02   0.715E+01 -.215E+01 0.372E+02   -.326E+00 -.555E+00 0.172E+01   -.109E-03 -.260E-03 0.143E-02
   0.681E+01 -.271E+01 -.389E+02   -.715E+01 0.215E+01 0.372E+02   0.326E+00 0.555E+00 0.172E+01   0.109E-03 0.260E-03 0.143E-02
   -.681E+01 -.271E+01 0.389E+02   0.715E+01 0.215E+01 -.372E+02   -.326E+00 0.555E+00 -.172E+01   -.109E-03 0.260E-03 -.143E-02
   0.681E+01 -.271E+01 0.389E+02   -.715E+01 0.215E+01 -.372E+02   0.326E+00 0.555E+00 -.172E+01   0.109E-03 0.260E-03 -.143E-02
   0.681E+01 0.271E+01 0.389E+02   -.715E+01 -.215E+01 -.372E+02   0.326E+00 -.555E+00 -.172E+01   0.109E-03 -.260E-03 -.143E-02
   -.148E+02 -.695E+01 0.160E+02   0.152E+02 0.625E+01 -.165E+02   -.483E+00 0.702E+00 0.479E+00   -.523E-05 -.805E-04 -.317E-02
   0.148E+02 -.695E+01 -.160E+02   -.152E+02 0.625E+01 0.165E+02   0.483E+00 0.702E+00 -.479E+00   0.523E-05 -.805E-04 0.317E-02
   0.148E+02 0.695E+01 0.160E+02   -.152E+02 -.625E+01 -.165E+02   0.483E+00 -.702E+00 0.479E+00   0.523E-05 0.805E-04 -.317E-02
   0.148E+02 -.695E+01 0.160E+02   -.152E+02 0.625E+01 -.165E+02   0.483E+00 0.702E+00 0.479E+00   0.523E-05 -.805E-04 -.317E-02
   -.148E+02 0.695E+01 0.160E+02   0.152E+02 -.625E+01 -.165E+02   -.483E+00 -.702E+00 0.479E+00   -.523E-05 0.805E-04 -.317E-02
   0.148E+02 0.695E+01 -.160E+02   -.152E+02 -.625E+01 0.165E+02   0.483E+00 -.702E+00 -.479E+00   0.523E-05 0.805E-04 0.317E-02
   -.148E+02 0.695E+01 -.160E+02   0.152E+02 -.625E+01 0.165E+02   -.483E+00 -.702E+00 -.479E+00   -.523E-05 0.805E-04 0.317E-02
   -.148E+02 -.695E+01 -.160E+02   0.152E+02 0.625E+01 0.165E+02   -.483E+00 0.702E+00 -.479E+00   -.523E-05 -.805E-04 0.317E-02
   -.353E+02 -.539E+01 0.129E+02   0.344E+02 0.555E+01 -.125E+02   0.895E+00 -.197E+00 -.467E+00   0.975E-03 -.214E-03 -.228E-02
   0.353E+02 -.539E+01 -.129E+02   -.344E+02 0.555E+01 0.125E+02   -.895E+00 -.197E+00 0.467E+00   -.975E-03 -.214E-03 0.228E-02
   0.353E+02 0.539E+01 0.129E+02   -.344E+02 -.555E+01 -.125E+02   -.895E+00 0.197E+00 -.467E+00   -.975E-03 0.214E-03 -.228E-02
   0.353E+02 -.539E+01 0.129E+02   -.344E+02 0.555E+01 -.125E+02   -.895E+00 -.197E+00 -.467E+00   -.975E-03 -.214E-03 -.228E-02
   -.353E+02 0.539E+01 0.129E+02   0.344E+02 -.555E+01 -.125E+02   0.895E+00 0.197E+00 -.467E+00   0.975E-03 0.214E-03 -.228E-02
   0.353E+02 0.539E+01 -.129E+02   -.344E+02 -.555E+01 0.125E+02   -.895E+00 0.197E+00 0.467E+00   -.975E-03 0.214E-03 0.228E-02
   -.353E+02 0.539E+01 -.129E+02   0.344E+02 -.555E+01 0.125E+02   0.895E+00 0.197E+00 0.467E+00   0.975E-03 0.214E-03 0.228E-02
   -.353E+02 -.539E+01 -.129E+02   0.344E+02 0.555E+01 0.125E+02   0.895E+00 -.197E+00 0.467E+00   0.975E-03 -.214E-03 0.228E-02
   -.164E+02 0.764E+01 -.234E+02   0.144E+02 -.671E+01 0.225E+02   0.200E+01 -.926E+00 0.908E+00   0.558E-03 0.277E-03 0.263E-03
   0.164E+02 0.764E+01 0.234E+02   -.144E+02 -.671E+01 -.225E+02   -.200E+01 -.926E+00 -.908E+00   -.558E-03 0.277E-03 -.263E-03
   0.164E+02 -.764E+01 -.234E+02   -.144E+02 0.671E+01 0.225E+02   -.200E+01 0.926E+00 0.908E+00   -.558E-03 -.277E-03 0.263E-03
   0.164E+02 0.764E+01 -.234E+02   -.144E+02 -.671E+01 0.225E+02   -.200E+01 -.926E+00 0.908E+00   -.558E-03 0.277E-03 0.263E-03
   -.164E+02 -.764E+01 -.234E+02   0.144E+02 0.671E+01 0.225E+02   0.200E+01 0.926E+00 0.908E+00   0.558E-03 -.277E-03 0.263E-03
   0.164E+02 -.764E+01 0.234E+02   -.144E+02 0.671E+01 -.225E+02   -.200E+01 0.926E+00 -.908E+00   -.558E-03 -.277E-03 -.263E-03
   -.164E+02 -.764E+01 0.234E+02   0.144E+02 0.671E+01 -.225E+02   0.200E+01 0.926E+00 -.908E+00   0.558E-03 -.277E-03 -.263E-03
   -.164E+02 0.764E+01 0.234E+02   0.144E+02 -.671E+01 -.225E+02   0.200E+01 -.926E+00 -.908E+00   0.558E-03 0.277E-03 -.263E-03
   0.269E+02 -.764E+01 -.660E-01   -.257E+02 0.676E+01 0.389E+00   -.120E+01 0.888E+00 -.319E+00   -.729E-03 0.163E-03 -.114E-02
   -.269E+02 -.764E+01 0.660E-01   0.257E+02 0.676E+01 -.389E+00   0.120E+01 0.888E+00 0.319E+00   0.729E-03 0.163E-03 0.114E-02
   -.269E+02 0.764E+01 -.660E-01   0.257E+02 -.676E+01 0.389E+00   0.120E+01 -.888E+00 -.319E+00   0.729E-03 -.163E-03 -.114E-02
   -.269E+02 -.764E+01 -.659E-01   0.257E+02 0.676E+01 0.389E+00   0.120E+01 0.888E+00 -.319E+00   0.729E-03 0.163E-03 -.114E-02
   0.269E+02 0.764E+01 -.660E-01   -.257E+02 -.676E+01 0.389E+00   -.120E+01 -.888E+00 -.319E+00   -.729E-03 -.163E-03 -.114E-02
   -.269E+02 0.764E+01 0.660E-01   0.257E+02 -.676E+01 -.389E+00   0.120E+01 -.888E+00 0.319E+00   0.729E-03 -.163E-03 0.114E-02
   0.269E+02 0.764E+01 0.659E-01   -.257E+02 -.676E+01 -.389E+00   -.120E+01 -.888E+00 0.319E+00   -.729E-03 -.163E-03 0.114E-02
   0.269E+02 -.764E+01 0.660E-01   -.257E+02 0.676E+01 -.389E+00   -.120E+01 0.888E+00 0.319E+00   -.729E-03 0.163E-03 0.114E-02
   0.111E+02 0.404E+01 -.921E+00   -.106E+02 -.369E+01 0.744E+00   -.444E+00 -.329E+00 0.181E+00   -.117E-03 -.350E-04 -.675E-03
   -.111E+02 0.404E+01 0.921E+00   0.106E+02 -.369E+01 -.744E+00   0.444E+00 -.329E+00 -.181E+00   0.117E-03 -.350E-04 0.675E-03
   -.111E+02 -.404E+01 -.921E+00   0.106E+02 0.369E+01 0.744E+00   0.444E+00 0.329E+00 0.181E+00   0.117E-03 0.350E-04 -.675E-03
   -.111E+02 0.404E+01 -.921E+00   0.106E+02 -.369E+01 0.744E+00   0.444E+00 -.329E+00 0.181E+00   0.117E-03 -.350E-04 -.675E-03
   0.111E+02 -.404E+01 -.921E+00   -.106E+02 0.369E+01 0.744E+00   -.444E+00 0.329E+00 0.181E+00   -.117E-03 0.350E-04 -.675E-03
   -.111E+02 -.404E+01 0.921E+00   0.106E+02 0.369E+01 -.744E+00   0.444E+00 0.329E+00 -.181E+00   0.117E-03 0.350E-04 0.675E-03
   0.111E+02 -.404E+01 0.921E+00   -.106E+02 0.369E+01 -.744E+00   -.444E+00 0.329E+00 -.181E+00   -.117E-03 0.350E-04 0.675E-03
   0.111E+02 0.404E+01 0.921E+00   -.106E+02 -.369E+01 -.744E+00   -.444E+00 -.329E+00 -.181E+00   -.117E-03 -.350E-04 0.675E-03
   0.103E+02 -.190E+01 -.310E+02   -.108E+02 0.171E+01 0.317E+02   0.526E+00 0.193E+00 -.731E+00   0.835E-03 0.406E-03 -.126E-02
   -.103E+02 -.190E+01 0.310E+02   0.108E+02 0.171E+01 -.317E+02   -.526E+00 0.193E+00 0.731E+00   -.835E-03 0.406E-03 0.126E-02
   -.103E+02 0.190E+01 -.310E+02   0.108E+02 -.171E+01 0.317E+02   -.526E+00 -.193E+00 -.731E+00   -.835E-03 -.406E-03 -.126E-02
   -.103E+02 -.190E+01 -.310E+02   0.108E+02 0.171E+01 0.317E+02   -.526E+00 0.193E+00 -.731E+00   -.835E-03 0.406E-03 -.126E-02
   0.103E+02 0.190E+01 -.310E+02   -.108E+02 -.171E+01 0.317E+02   0.526E+00 -.193E+00 -.731E+00   0.835E-03 -.406E-03 -.126E-02
   -.103E+02 0.190E+01 0.310E+02   0.108E+02 -.171E+01 -.317E+02   -.526E+00 -.193E+00 0.731E+00   -.835E-03 -.406E-03 0.126E-02
   0.103E+02 0.190E+01 0.310E+02   -.108E+02 -.171E+01 -.317E+02   0.526E+00 -.193E+00 0.731E+00   0.835E-03 -.406E-03 0.126E-02
   0.103E+02 -.190E+01 0.310E+02   -.108E+02 0.171E+01 -.317E+02   0.526E+00 0.193E+00 0.731E+00   0.835E-03 0.406E-03 0.126E-02
   -.113E+02 0.174E+02 -.225E+01   0.111E+02 -.182E+02 0.216E+01   0.182E+00 0.769E+00 0.106E+00   0.995E-03 0.117E-03 -.230E-02
   0.113E+02 0.174E+02 0.225E+01   -.111E+02 -.182E+02 -.216E+01   -.182E+00 0.769E+00 -.106E+00   -.995E-03 0.117E-03 0.230E-02
   0.113E+02 -.174E+02 -.225E+01   -.111E+02 0.182E+02 0.216E+01   -.182E+00 -.769E+00 0.106E+00   -.995E-03 -.117E-03 -.230E-02
   0.113E+02 0.174E+02 -.225E+01   -.111E+02 -.182E+02 0.216E+01   -.182E+00 0.769E+00 0.106E+00   -.995E-03 0.117E-03 -.230E-02
   -.113E+02 -.174E+02 -.225E+01   0.111E+02 0.182E+02 0.216E+01   0.182E+00 -.769E+00 0.106E+00   0.995E-03 -.117E-03 -.230E-02
   0.113E+02 -.174E+02 0.225E+01   -.111E+02 0.182E+02 -.216E+01   -.182E+00 -.769E+00 -.106E+00   -.995E-03 -.117E-03 0.230E-02
   -.113E+02 -.174E+02 0.225E+01   0.111E+02 0.182E+02 -.216E+01   0.182E+00 -.769E+00 -.106E+00   0.995E-03 -.117E-03 0.230E-02
   -.113E+02 0.174E+02 0.225E+01   0.111E+02 -.182E+02 -.216E+01   0.182E+00 0.769E+00 -.106E+00   0.995E-03 0.117E-03 0.230E-02
   -.376E+02 0.709E+01 0.709E+01   0.384E+02 -.723E+01 -.731E+01   -.779E+00 0.102E+00 0.203E+00   0.132E-02 -.373E-03 0.377E-03
   0.376E+02 0.709E+01 -.709E+01   -.384E+02 -.723E+01 0.731E+01   0.779E+00 0.102E+00 -.203E+00   -.132E-02 -.373E-03 -.377E-03
   0.376E+02 -.709E+01 0.709E+01   -.384E+02 0.723E+01 -.731E+01   0.779E+00 -.102E+00 0.203E+00   -.132E-02 0.373E-03 0.377E-03
   0.376E+02 0.709E+01 0.709E+01   -.384E+02 -.723E+01 -.731E+01   0.779E+00 0.102E+00 0.203E+00   -.132E-02 -.373E-03 0.377E-03
   -.376E+02 -.709E+01 0.709E+01   0.384E+02 0.723E+01 -.731E+01   -.779E+00 -.102E+00 0.203E+00   0.132E-02 0.373E-03 0.377E-03
   0.376E+02 -.709E+01 -.709E+01   -.384E+02 0.723E+01 0.731E+01   0.779E+00 -.102E+00 -.203E+00   -.132E-02 0.373E-03 -.377E-03
   -.376E+02 -.709E+01 -.709E+01   0.384E+02 0.723E+01 0.731E+01   -.779E+00 -.102E+00 -.203E+00   0.132E-02 0.373E-03 -.377E-03
   -.376E+02 0.709E+01 -.709E+01   0.384E+02 -.723E+01 0.731E+01   -.779E+00 0.102E+00 -.203E+00   0.132E-02 -.373E-03 -.377E-03
   -.118E+02 -.120E+02 -.332E+02   0.123E+02 0.121E+02 0.338E+02   -.532E+00 -.103E+00 -.583E+00   0.111E-02 0.142E-03 0.878E-03
   0.118E+02 -.120E+02 0.332E+02   -.123E+02 0.121E+02 -.338E+02   0.532E+00 -.103E+00 0.583E+00   -.111E-02 0.142E-03 -.878E-03
   0.118E+02 0.120E+02 -.332E+02   -.123E+02 -.121E+02 0.338E+02   0.532E+00 0.103E+00 -.583E+00   -.111E-02 -.142E-03 0.878E-03
   0.118E+02 -.120E+02 -.332E+02   -.123E+02 0.121E+02 0.338E+02   0.532E+00 -.103E+00 -.583E+00   -.111E-02 0.142E-03 0.878E-03
   -.118E+02 0.120E+02 -.332E+02   0.123E+02 -.121E+02 0.338E+02   -.532E+00 0.103E+00 -.583E+00   0.111E-02 -.142E-03 0.878E-03
   0.118E+02 0.120E+02 0.332E+02   -.123E+02 -.121E+02 -.338E+02   0.532E+00 0.103E+00 0.583E+00   -.111E-02 -.142E-03 -.878E-03
   -.118E+02 0.120E+02 0.332E+02   0.123E+02 -.121E+02 -.338E+02   -.532E+00 0.103E+00 0.583E+00   0.111E-02 -.142E-03 -.878E-03
   -.118E+02 -.120E+02 0.332E+02   0.123E+02 0.121E+02 -.338E+02   -.532E+00 -.103E+00 0.583E+00   0.111E-02 0.142E-03 -.878E-03
 -----------------------------------------------------------------------------------------------
   -.508E-11 0.563E-10 0.150E-10   -.284E-13 -.480E-13 0.568E-13   0.999E-15 0.222E-15 0.000E+00   0.458E-12 -.193E-12 0.245E-12


 POSITION                                       TOTAL-FORCE (eV/Angst)
 -----------------------------------------------------------------------------------
      4.25410      6.44530     10.82278        -0.018851      0.001108     -0.034295
      7.84854      2.89839      0.00273         0.018851      0.001108      0.034295
      1.79722      0.64852     -0.00273         0.018851     -0.001108     -0.034295
      1.79722      2.89839     10.82278         0.018851      0.001108     -0.034295
      4.25410      4.19542     -0.00273        -0.018851     -0.001108     -0.034295
      7.84854      0.64852     10.82823         0.018851     -0.001108      0.034295
     10.30542      4.19542     10.82823        -0.018851     -0.001108      0.034295
     10.30542      6.44530      0.00273        -0.018851      0.001108      0.034295
      3.47391      3.92743      7.91786        -0.001105      0.004248     -0.032453
      8.62873      0.38052      2.90764         0.001105      0.004248      0.032453
      2.57741      3.16639     18.74337         0.001105     -0.004248     -0.032453
      2.57741      0.38052      7.91786         0.001105      0.004248     -0.032453
      3.47391      6.71329     18.74337        -0.001105     -0.004248     -0.032453
      8.62873      3.16639     13.73315         0.001105     -0.004248      0.032453
      9.52523      6.71329     13.73315        -0.001105     -0.004248      0.032453
      9.52523      3.92743      2.90764        -0.001105      0.004248      0.032453
      6.73382      4.00918      9.39898        -0.028227     -0.039843     -0.009206
      5.36882      0.46228      1.42653         0.028227     -0.039843      0.009206
     11.42013      3.08463     20.22449         0.028227      0.039843     -0.009206
     11.42013      0.46228      9.39898         0.028227     -0.039843     -0.009206
      6.73382      6.63154     20.22449        -0.028227      0.039843     -0.009206
      5.36882      3.08463     12.25204         0.028227      0.039843      0.009206
      0.68250      6.63154     12.25204        -0.028227      0.039843      0.009206
      0.68250      4.00918      1.42653        -0.028227     -0.039843      0.009206
      7.09551      2.70187      5.42653        -0.004890      0.006484      0.003634
      5.00713      6.24878      5.39898         0.004890      0.006484     -0.003634
     11.05845      4.39195     16.25203         0.004890     -0.006484      0.003634
     11.05845      6.24878      5.42653         0.004890      0.006484      0.003634
      7.09551      0.84504     16.25203        -0.004890     -0.006484      0.003634
      5.00713      4.39195     16.22449         0.004890     -0.006484     -0.003634
      1.04419      0.84504     16.22449        -0.004890     -0.006484     -0.003634
      1.04419      2.70187      5.39898        -0.004890      0.006484     -0.003634
     10.13227      0.75719     17.96439         0.012896      0.011432      0.002400
      1.97037      4.30410     14.51213        -0.012896      0.011432     -0.002400
      8.02169      6.33663      7.13888        -0.012896     -0.011432      0.002400
      8.02169      4.30410     17.96439        -0.012896      0.011432      0.002400
     10.13227      2.78972      7.13888         0.012896     -0.011432      0.002400
      1.97037      6.33663      3.68663        -0.012896     -0.011432     -0.002400
      4.08095      2.78972      3.68663         0.012896     -0.011432     -0.002400
      4.08095      0.75719     14.51213         0.012896      0.011432     -0.002400
      0.48429      5.88744     18.93554         0.017829      0.021718      0.003175
     11.61835      2.34053     13.54099        -0.017829      0.021718     -0.003175
      5.56703      1.20638      8.11003        -0.017829     -0.021718      0.003175
      5.56703      2.34053     18.93554        -0.017829      0.021718      0.003175
      0.48429      4.75328      8.11003         0.017829     -0.021718      0.003175
     11.61835      1.20638      2.71548        -0.017829     -0.021718     -0.003175
      6.53561      4.75328      2.71548         0.017829     -0.021718     -0.003175
      6.53561      5.88744     13.54099         0.017829      0.021718     -0.003175
      4.48099      1.45235     20.72807         0.019930      0.000879     -0.044337
      7.62165      4.99925     11.74845        -0.019930      0.000879      0.044337
      1.57033      5.64147      9.90256        -0.019930     -0.000879     -0.044337
      1.57033      4.99925     20.72807        -0.019930      0.000879     -0.044337
      4.48099      2.09456      9.90256         0.019930     -0.000879     -0.044337
      7.62165      5.64147      0.92294        -0.019930     -0.000879      0.044337
     10.53231      2.09456      0.92294         0.019930     -0.000879      0.044337
     10.53231      1.45235     11.74845         0.019930      0.000879      0.044337
      5.40854      6.03856      8.19442        -0.015456     -0.000085      0.016447
      6.69409      2.49165      2.63108         0.015456     -0.000085     -0.016447
      0.64278      1.05526     19.01993         0.015456      0.000085      0.016447
      0.64278      2.49165      8.19442         0.015456     -0.000085      0.016447
      5.40854      4.60217     19.01993        -0.015456      0.000085      0.016447
      6.69409      1.05526     13.45659         0.015456      0.000085     -0.016447
     11.45986      4.60217     13.45659        -0.015456      0.000085     -0.016447
     11.45986      6.03856      2.63108        -0.015456     -0.000085     -0.016447
      1.71048      1.74001     13.52090        -0.018732     -0.029811     -0.016284
     10.39216      5.28692     18.95562         0.018732     -0.029811      0.016284
      4.34084      5.35380      2.69540         0.018732      0.029811     -0.016284
      4.34084      5.28692     13.52090         0.018732     -0.029811     -0.016284
      1.71048      1.80690      2.69540        -0.018732      0.029811     -0.016284
     10.39216      5.35380      8.13011         0.018732      0.029811      0.016284
      7.76180      1.80690      8.13011        -0.018732      0.029811      0.016284
      7.76180      1.74001     18.95562        -0.018732     -0.029811      0.016284
      7.62579      5.39847      4.60107        -0.004575      0.012880      0.020456
      4.47685      1.85156      6.22443         0.004575      0.012880     -0.020456
     10.52816      1.69535     15.42658         0.004575     -0.012880      0.020456
     10.52816      1.85156      4.60107         0.004575      0.012880      0.020456
      7.62579      5.24226     15.42658        -0.004575     -0.012880      0.020456
      4.47685      1.69535     17.04994         0.004575     -0.012880     -0.020456
      1.57447      5.24226     17.04994        -0.004575     -0.012880     -0.020456
      1.57447      5.39847      6.22443        -0.004575      0.012880     -0.020456
 -----------------------------------------------------------------------------------
    total drift:                               -0.000000      0.000000      0.000000


--------------------------------------------------------------------------------------------------------



  FREE ENERGIE OF THE ION-ELECTRON SYSTEM (eV)
  ---------------------------------------------------
  free  energy   TOTEN  =      -308.15341404 eV

  energy  without entropy=     -308.15341404  energy(sigma->0) =     -308.15341404

 d Force = 0.1070461E-01[ 0.315E-02, 0.183E-01]  d Energy = 0.1177568E-01-0.107E-02
 d Force =-0.2660146E+01[-0.278E+01,-0.254E+01]  d Ewald  =-0.2031471E+02 0.177E+02


--------------------------------------------------------------------------------------------------------


    POTLOK:  cpu time      0.0450: real time      0.0450


--------------------------------------------------------------------------------------------------------


 Conjugate gradient step on ions:
 trial-energy change:   -0.011776  1 .order   -0.011999   -0.021046   -0.002953
  (g-gl).g = 0.142E-01      g.g   = 0.142E-01  gl.gl    = 0.331E-01
 g(Force)  = 0.120E-01   g(Stress)= 0.218E-02 ortho     = 0.122E-03
 gamma     =   0.43054
 trial     =   1.47845
 opt step  =   1.74290  (harmonic =   1.71977) maximal distance =0.00781658
 next E    =  -308.153677   (d E  =  -0.01204)


--------------------------------------------------------------------------------------------------------


  
 reached required accuracy - stopping structural energy minimisation
     LOOP+:  cpu time     21.2242: real time     21.2561
    4ORBIT:  cpu time      0.0000: real time      0.0000

 total amount of memory used by VASP MPI-rank0    65025. kBytes
=======================================================================

   base      :      30000. kBytes
   nonlr-proj:       7547. kBytes
   fftplans  :       3026. kBytes
   grid      :      13374. kBytes
   one-center:        245. kBytes
   wavefun   :      10833. kBytes

  
  
 General timing and accounting informations for this job:
 ========================================================
  
                  Total CPU time used (sec):      167.108
                            User time (sec):      159.099
                          System time (sec):        8.008
                         Elapsed time (sec):      168.194
  
                   Maximum memory used (kb):      163296.
                   Average memory used (kb):          N/A
  
                          Minor page faults:       603882
                          Major page faults:          238
                 Voluntary context switches:         1761
