  55  55   0   0
  0.2301251E+02  0.1218282E-08  0.7661564E-09  0.1373046E-08  0.0000000E+00
   1.0000000000000000E-004
  CAR 
 NEB                                     
      9.38645212    -23.52150130  301      1.27032713      1.00000000
    -23.522  0.0000E+00  0.0000E+00
    -23.412  0.0000E+00  0.0000E+00
    -23.302  0.0000E+00  0.0000E+00
    -23.192 -0.1679E-30 -0.1841E-31
    -23.083 -0.1221E-26 -0.1339E-27
    -22.973 -0.4717E-23 -0.5176E-24
    -22.863 -0.9991E-20 -0.1096E-20
    -22.754 -0.1160E-16 -0.1273E-17
    -22.644 -0.7162E-14 -0.7869E-15
    -22.534 -0.2476E-11 -0.2724E-12
    -22.425 -0.4679E-09 -0.5160E-10
    -22.315 -0.4815E-07 -0.5333E-08
    -22.205 -0.2685E-05 -0.2999E-06
    -22.095 -0.8037E-04 -0.9116E-05
    -21.986 -0.1266E-02 -0.1480E-03
    -21.876 -0.1002E-01 -0.1248E-02
    -21.766 -0.3423E-01 -0.5003E-02
    -21.657 -0.5642E-02 -0.5621E-02
    -21.547  0.2725E+00  0.2427E-01
    -21.437  0.7927E+00  0.1112E+00
    -21.328  0.1166E+01  0.2392E+00
    -21.218  0.1096E+01  0.3593E+00
    -21.108  0.6300E+00  0.4285E+00
    -20.999  0.1575E+00  0.4457E+00
    -20.889 -0.3251E-02  0.4454E+00
    -20.779  0.4326E-01  0.4501E+00
    -20.669  0.6771E-01  0.4575E+00
    -20.560  0.2771E-01  0.4606E+00
    -20.450 -0.1172E-02  0.4605E+00
    -20.340 -0.3282E-02  0.4601E+00
    -20.231 -0.7912E-03  0.4600E+00
    -20.121 -0.8087E-04  0.4600E+00
    -20.011 -0.4082E-05  0.4600E+00
    -19.902 -0.1069E-06  0.4600E+00
    -19.792 -0.1486E-08  0.4600E+00
    -19.682 -0.1109E-10  0.4600E+00
    -19.573 -0.4475E-13  0.4600E+00
    -19.463 -0.1080E-15  0.4600E+00
    -19.353  0.0000E+00  0.4600E+00
    -19.243  0.0000E+00  0.4600E+00
    -19.134  0.0000E+00  0.4600E+00
    -19.024  0.0000E+00  0.4600E+00
    -18.914  0.0000E+00  0.4600E+00
    -18.805  0.0000E+00  0.4600E+00
    -18.695  0.0000E+00  0.4600E+00
    -18.585  0.0000E+00  0.4600E+00
    -18.476  0.0000E+00  0.4600E+00
    -18.366  0.0000E+00  0.4600E+00
    -18.256  0.0000E+00  0.4600E+00
    -18.147  0.0000E+00  0.4600E+00
    -18.037  0.0000E+00  0.4600E+00
    -17.927  0.0000E+00  0.4600E+00
    -17.817  0.0000E+00  0.4600E+00
    -17.708  0.0000E+00  0.4600E+00
    -17.598  0.0000E+00  0.4600E+00
    -17.488  0.0000E+00  0.4600E+00
    -17.379  0.0000E+00  0.4600E+00
    -17.269  0.0000E+00  0.4600E+00
    -17.159  0.0000E+00  0.4600E+00
    -17.050  0.0000E+00  0.4600E+00
    -16.940  0.0000E+00  0.4600E+00
    -16.830  0.0000E+00  0.4600E+00
    -16.721  0.0000E+00  0.4600E+00
    -16.611  0.0000E+00  0.4600E+00
    -16.501  0.0000E+00  0.4600E+00
    -16.391  0.0000E+00  0.4600E+00
    -16.282  0.0000E+00  0.4600E+00
    -16.172  0.0000E+00  0.4600E+00
    -16.062  0.0000E+00  0.4600E+00
    -15.953  0.0000E+00  0.4600E+00
    -15.843  0.0000E+00  0.4600E+00
    -15.733  0.0000E+00  0.4600E+00
    -15.624  0.0000E+00  0.4600E+00
    -15.514  0.0000E+00  0.4600E+00
    -15.404  0.0000E+00  0.4600E+00
    -15.295  0.0000E+00  0.4600E+00
    -15.185  0.0000E+00  0.4600E+00
    -15.075  0.0000E+00  0.4600E+00
    -14.965  0.0000E+00  0.4600E+00
    -14.856  0.0000E+00  0.4600E+00
    -14.746  0.0000E+00  0.4600E+00
    -14.636  0.0000E+00  0.4600E+00
    -14.527  0.0000E+00  0.4600E+00
    -14.417  0.0000E+00  0.4600E+00
    -14.307  0.0000E+00  0.4600E+00
    -14.198  0.0000E+00  0.4600E+00
    -14.088  0.0000E+00  0.4600E+00
    -13.978  0.0000E+00  0.4600E+00
    -13.869  0.0000E+00  0.4600E+00
    -13.759  0.0000E+00  0.4600E+00
    -13.649  0.0000E+00  0.4600E+00
    -13.539  0.0000E+00  0.4600E+00
    -13.430  0.0000E+00  0.4600E+00
    -13.320  0.0000E+00  0.4600E+00
    -13.210  0.0000E+00  0.4600E+00
    -13.101  0.0000E+00  0.4600E+00
    -12.991  0.0000E+00  0.4600E+00
    -12.881  0.0000E+00  0.4600E+00
    -12.772  0.0000E+00  0.4600E+00
    -12.662  0.0000E+00  0.4600E+00
    -12.552 -0.4614E-30  0.4600E+00
    -12.442 -0.2685E-26  0.4600E+00
    -12.333 -0.8514E-23  0.4600E+00
    -12.223 -0.1471E-19  0.4600E+00
    -12.113 -0.1382E-16  0.4600E+00
    -12.004 -0.6830E-14  0.4600E+00
    -11.894 -0.1877E-11  0.4600E+00
    -11.784 -0.2782E-09  0.4600E+00
    -11.675 -0.2212E-07  0.4600E+00
    -11.565 -0.9356E-06  0.4600E+00
    -11.455 -0.2074E-04  0.4600E+00
    -11.346 -0.2338E-03  0.4600E+00
    -11.236 -0.1241E-02  0.4598E+00
    -11.126 -0.2152E-02  0.4596E+00
    -11.016  0.5352E-02  0.4602E+00
    -10.907  0.3043E-01  0.4635E+00
    -10.797  0.6108E-01  0.4702E+00
    -10.687  0.7168E-01  0.4781E+00
    -10.578  0.5411E-01  0.4840E+00
    -10.468  0.2386E-01  0.4866E+00
    -10.358  0.1755E-02  0.4868E+00
    -10.249 -0.4194E-02  0.4864E+00
    -10.139  0.4754E-02  0.4869E+00
    -10.029  0.2882E-01  0.4901E+00
     -9.920  0.6452E-01  0.4971E+00
     -9.810  0.1111E+00  0.5093E+00
     -9.700  0.1534E+00  0.5262E+00
     -9.590  0.1651E+00  0.5443E+00
     -9.481  0.1712E+00  0.5630E+00
     -9.371  0.1963E+00  0.5846E+00
     -9.261  0.1889E+00  0.6053E+00
     -9.152  0.1149E+00  0.6179E+00
     -9.042  0.3021E-01  0.6212E+00
     -8.932 -0.4875E-02  0.6207E+00
     -8.823 -0.4894E-02  0.6201E+00
     -8.713 -0.1129E-02  0.6200E+00
     -8.603 -0.1187E-03  0.6200E+00
     -8.494 -0.6340E-05  0.6200E+00
     -8.384 -0.1780E-06  0.6200E+00
     -8.274 -0.2672E-08  0.6200E+00
     -8.164 -0.2162E-10  0.6200E+00
     -8.055 -0.9473E-13  0.6200E+00
     -7.945 -0.2294E-15  0.6200E+00
     -7.835  0.0000E+00  0.6200E+00
     -7.726  0.0000E+00  0.6200E+00
     -7.616  0.0000E+00  0.6200E+00
     -7.506  0.0000E+00  0.6200E+00
     -7.397  0.0000E+00  0.6200E+00
     -7.287  0.0000E+00  0.6200E+00
     -7.177  0.0000E+00  0.6200E+00
     -7.068  0.0000E+00  0.6200E+00
     -6.958  0.0000E+00  0.6200E+00
     -6.848  0.0000E+00  0.6200E+00
     -6.738  0.0000E+00  0.6200E+00
     -6.629  0.0000E+00  0.6200E+00
     -6.519  0.0000E+00  0.6200E+00
     -6.409  0.0000E+00  0.6200E+00
     -6.300  0.0000E+00  0.6200E+00
     -6.190  0.0000E+00  0.6200E+00
     -6.080  0.0000E+00  0.6200E+00
     -5.971  0.0000E+00  0.6200E+00
     -5.861  0.0000E+00  0.6200E+00
     -5.751  0.0000E+00  0.6200E+00
     -5.642  0.0000E+00  0.6200E+00
     -5.532  0.0000E+00  0.6200E+00
     -5.422  0.0000E+00  0.6200E+00
     -5.312  0.0000E+00  0.6200E+00
     -5.203  0.0000E+00  0.6200E+00
     -5.093  0.0000E+00  0.6200E+00
     -4.983  0.0000E+00  0.6200E+00
     -4.874 -0.1680E-30  0.6200E+00
     -4.764 -0.1056E-26  0.6200E+00
     -4.654 -0.3596E-23  0.6200E+00
     -4.545 -0.6683E-20  0.6200E+00
     -4.435 -0.6770E-17  0.6200E+00
     -4.325 -0.3618E-14  0.6200E+00
     -4.216 -0.1078E-11  0.6200E+00
     -4.106 -0.1742E-09  0.6200E+00
     -3.996 -0.1519E-07  0.6200E+00
     -3.886 -0.7108E-06  0.6200E+00
     -3.777 -0.1761E-04  0.6200E+00
     -3.667 -0.2255E-03  0.6200E+00
     -3.557 -0.1401E-02  0.6198E+00
     -3.448 -0.3332E-02  0.6195E+00
     -3.338  0.3257E-02  0.6198E+00
     -3.228  0.3354E-01  0.6235E+00
     -3.119  0.8265E-01  0.6326E+00
     -3.009  0.1239E+00  0.6461E+00
     -2.899  0.1231E+00  0.6597E+00
     -2.789  0.7997E-01  0.6684E+00
     -2.680  0.3689E-01  0.6725E+00
     -2.570  0.1089E-01  0.6737E+00
     -2.460 -0.6500E-03  0.6736E+00
     -2.351 -0.1828E-02  0.6734E+00
     -2.241 -0.9845E-03  0.6733E+00
     -2.131 -0.2032E-02  0.6731E+00
     -2.022 -0.2369E-02  0.6728E+00
     -1.912  0.9930E-02  0.6739E+00
     -1.802  0.4558E-01  0.6789E+00
     -1.693  0.9087E-01  0.6889E+00
     -1.583  0.1142E+00  0.7014E+00
     -1.473  0.1101E+00  0.7135E+00
     -1.363  0.1086E+00  0.7254E+00
     -1.254  0.1112E+00  0.7376E+00
     -1.144  0.9791E-01  0.7483E+00
     -1.034  0.8492E-01  0.7576E+00
     -0.925  0.8188E-01  0.7666E+00
     -0.815  0.7583E-01  0.7749E+00
     -0.705  0.6583E-01  0.7822E+00
     -0.596  0.6793E-01  0.7896E+00
     -0.486  0.1112E+00  0.8018E+00
     -0.376  0.1806E+00  0.8216E+00
     -0.267  0.2118E+00  0.8448E+00
     -0.157  0.1949E+00  0.8662E+00
     -0.047  0.1620E+00  0.8840E+00
      0.063  0.1371E+00  0.8990E+00
      0.172  0.1312E+00  0.9134E+00
      0.282  0.1214E+00  0.9268E+00
      0.392  0.1057E+00  0.9383E+00
      0.501  0.1128E+00  0.9507E+00
      0.611  0.1607E+00  0.9684E+00
      0.721  0.2126E+00  0.9917E+00
      0.830  0.2329E+00  0.1017E+01
      0.940  0.2273E+00  0.1042E+01
      1.050  0.2085E+00  0.1065E+01
      1.159  0.1755E+00  0.1084E+01
      1.269  0.1122E+00  0.1097E+01
      1.379  0.3819E-01  0.1101E+01
      1.489 -0.4369E-03  0.1101E+01
      1.598 -0.4834E-02  0.1100E+01
      1.708 -0.1534E-02  0.1100E+01
      1.818 -0.2136E-03  0.1100E+01
      1.927 -0.1513E-04  0.1100E+01
      2.037 -0.5668E-06  0.1100E+01
      2.147 -0.1141E-07  0.1100E+01
      2.256 -0.1240E-09  0.1100E+01
      2.366 -0.7315E-12  0.1100E+01
      2.476 -0.2348E-14  0.1100E+01
      2.585 -0.8010E-29  0.1100E+01
      2.695 -0.3834E-25  0.1100E+01
      2.805 -0.1000E-21  0.1100E+01
      2.915 -0.1420E-18  0.1100E+01
      3.024 -0.1063E-15  0.1100E+01
      3.134 -0.4439E-13  0.1100E+01
      3.244 -0.9993E-11  0.1100E+01
      3.353 -0.1210E-08  0.1100E+01
      3.463 -0.7816E-07  0.1100E+01
      3.573 -0.2659E-05  0.1100E+01
      3.682 -0.4642E-04  0.1100E+01
      3.792 -0.3909E-03  0.1100E+01
      3.902 -0.1289E-02  0.1100E+01
      4.011  0.7113E-03  0.1100E+01
      4.121  0.1314E-01  0.1101E+01
      4.231  0.2655E-01  0.1104E+01
      4.341  0.1991E-01  0.1106E+01
      4.450  0.4330E-02  0.1107E+01
      4.560 -0.1287E-02  0.1107E+01
      4.670 -0.7293E-03  0.1107E+01
      4.779 -0.1757E-03  0.1107E+01
      4.889 -0.5330E-03  0.1107E+01
      4.999 -0.2288E-02  0.1106E+01
      5.108 -0.2414E-02  0.1106E+01
      5.218  0.1388E-01  0.1108E+01
      5.328  0.5400E-01  0.1114E+01
      5.437  0.8850E-01  0.1123E+01
      5.547  0.9554E-01  0.1134E+01
      5.657  0.9454E-01  0.1144E+01
      5.767  0.9213E-01  0.1154E+01
      5.876  0.8203E-01  0.1163E+01
      5.986  0.7372E-01  0.1171E+01
      6.096  0.7089E-01  0.1179E+01
      6.205  0.8742E-01  0.1189E+01
      6.315  0.1274E+00  0.1203E+01
      6.425  0.1550E+00  0.1220E+01
      6.534  0.1426E+00  0.1235E+01
      6.644  0.1044E+00  0.1247E+01
      6.754  0.8166E-01  0.1256E+01
      6.864  0.8074E-01  0.1265E+01
      6.973  0.7451E-01  0.1273E+01
      7.083  0.8115E-01  0.1282E+01
      7.193  0.1045E+00  0.1293E+01
      7.302  0.1116E+00  0.1305E+01
      7.412  0.9130E-01  0.1315E+01
      7.522  0.4394E-01  0.1320E+01
      7.631  0.4805E-02  0.1321E+01
      7.741 -0.4165E-02  0.1320E+01
      7.851 -0.1661E-02  0.1320E+01
      7.960 -0.2472E-03  0.1320E+01
      8.070 -0.1773E-04  0.1320E+01
      8.180 -0.6560E-06  0.1320E+01
      8.290 -0.1286E-07  0.1320E+01
      8.399 -0.1355E-09  0.1320E+01
      8.509 -0.7715E-12  0.1320E+01
      8.619 -0.2375E-14  0.1320E+01
      8.728  0.0000E+00  0.1320E+01
      8.838  0.0000E+00  0.1320E+01
      8.948  0.0000E+00  0.1320E+01
      9.057  0.0000E+00  0.1320E+01
      9.167  0.0000E+00  0.1320E+01
      9.277  0.0000E+00  0.1320E+01
      9.386  0.0000E+00  0.1320E+01
