 vasp.6.3.2 27Jun22 (build Jun 14 2024 17:29:11) complex                         
 POSCAR found type information on POSCAR NaAlS 
 04/POSCAR found :  3 types and      55 ions
 -----------------------------------------------------------------------------
|                                                                             |
|           W    W    AA    RRRRR   N    N  II  N    N   GGGG   !!!           |
|           W    W   A  A   R    R  NN   N  II  NN   N  G    G  !!!           |
|           W    W  A    A  R    R  N N  N  II  N N  N  G       !!!           |
|           W WW W  AAAAAA  RRRRR   N  N N  II  N  N N  G  GGG   !            |
|           WW  WW  A    A  R   R   N   NN  II  N   NN  G    G                |
|           W    W  A    A  R    R  N    N  II  N    N   GGGG   !!!           |
|                                                                             |
|     The value NPAR = 5 specified in the INCAR file was overwritten,         |
|     because it was not compatible with the 6 processes available:           |
|     NPAR = 6                                                                |
|     was used instead, please check that this makes sense for your           |
|     machine.                                                                |
|                                                                             |
 -----------------------------------------------------------------------------

 -----------------------------------------------------------------------------
|                                                                             |
|           W    W    AA    RRRRR   N    N  II  N    N   GGGG   !!!           |
|           W    W   A  A   R    R  NN   N  II  NN   N  G    G  !!!           |
|           W    W  A    A  R    R  N N  N  II  N N  N  G       !!!           |
|           W WW W  AAAAAA  RRRRR   N  N N  II  N  N N  G  GGG   !            |
|           WW  WW  A    A  R   R   N   NN  II  N   NN  G    G                |
|           W    W  A    A  R    R  N    N  II  N    N   GGGG   !!!           |
|                                                                             |
|     For optimal performance we recommend to set                             |
|       NCORE = 2 up to number-of-cores-per-socket                            |
|     NCORE specifies how many cores store one orbital (NPAR=cpu/NCORE).      |
|     This setting can greatly improve the performance of VASP for DFT.       |
|     The default, NCORE=1 might be grossly inefficient on modern             |
|     multi-core architectures or massively parallel machines. Do your        |
|     own testing! More info at https://www.vasp.at/wiki/index.php/NCORE      |
|     Unfortunately you need to use the default for GW and RPA                |
|     calculations (for HF NCORE is supported but not extensively tested      |
|     yet).                                                                   |
|                                                                             |
 -----------------------------------------------------------------------------

 LDA part: xc-table for Pade appr. of Perdew
 POSCAR found type information on POSCAR NaAlS 
 00/POSCAR found :  3 types and      55 ions
 POSCAR found type information on POSCAR NaAlS 
 06/POSCAR found :  3 types and      55 ions
 POSCAR, INCAR and KPOINTS ok, starting setup
 FFT: planning ... GRIDC
 FFT: planning ... GRID_SOFT
 FFT: planning ... GRID
 WAVECAR not read
 entering main loop
       N       E                     dE             d eps       ncg     rms          rms(c)
DAV:   1     0.294775727900E+04    0.29478E+04   -0.13337E+05   432   0.137E+03
DAV:   2     0.178011970557E+03   -0.27697E+04   -0.26713E+04   432   0.380E+02
DAV:   3    -0.214090243372E+03   -0.39210E+03   -0.38864E+03   486   0.155E+02
DAV:   4    -0.233674304634E+03   -0.19584E+02   -0.19485E+02   468   0.337E+01
DAV:   5    -0.234442781509E+03   -0.76848E+00   -0.76775E+00   564   0.705E+00    0.249E+01
RMM:   6    -0.222988213360E+03    0.11455E+02   -0.20728E+01   424   0.598E+00    0.165E+01
RMM:   7    -0.222435868044E+03    0.55235E+00   -0.24681E+01   409   0.568E+00    0.945E+00
RMM:   8    -0.222164106859E+03    0.27176E+00   -0.20141E+00   506   0.299E+00    0.579E+00
RMM:   9    -0.222097596169E+03    0.66511E-01   -0.10771E+00   429   0.164E+00    0.189E+00
RMM:  10    -0.222025307520E+03    0.72289E-01   -0.34063E-01   521   0.105E+00    0.168E+00
RMM:  11    -0.221981815850E+03    0.43492E-01   -0.47701E-02   470   0.431E-01    0.113E+00
RMM:  12    -0.221976152045E+03    0.56638E-02   -0.51492E-02   446   0.305E-01    0.519E-01
RMM:  13    -0.221983060269E+03   -0.69082E-02   -0.22104E-02   512   0.220E-01    0.493E-01
RMM:  14    -0.221980246667E+03    0.28136E-02   -0.98997E-03   425   0.141E-01    0.234E-01
RMM:  15    -0.221981325496E+03   -0.10788E-02   -0.40365E-03   503   0.104E-01    0.274E-01
RMM:  16    -0.221980291838E+03    0.10337E-02   -0.93322E-04   417   0.547E-02    0.119E-01
RMM:  17    -0.221980275637E+03    0.16201E-04   -0.58554E-04   420   0.378E-02    0.510E-02
RMM:  18    -0.221980306231E+03   -0.30593E-04   -0.26523E-04   388   0.251E-02    0.465E-02
RMM:  19    -0.221980281644E+03    0.24587E-04   -0.34424E-05   308   0.127E-02    0.136E-02
RMM:  20    -0.221980282166E+03   -0.52181E-06   -0.16368E-05   253   0.880E-03
   1 F= -.22198028E+03 E0= -.22199677E+03  d E =-.221980E+03
quench:  g(F)=  0.000E+00 g(S)=  0.000E+00 dE (1.order)= 0.000E+00
 bond charge predicted
       N       E                     dE             d eps       ncg     rms          rms(c)
DAV:   1    -0.221980281738E+03   -0.93689E-07   -0.38857E-06   252   0.632E-03    0.398E-03
RMM:   2    -0.221980281907E+03   -0.16952E-06   -0.13236E-06   222   0.360E-03
   2 F= -.22198028E+03 E0= -.22199676E+03  d E =0.258606E-06
quench:  g(F)=  0.000E+00 g(S)=  0.000E+00 dE (1.order)= 0.000E+00
 bond charge predicted
       N       E                     dE             d eps       ncg     rms          rms(c)
DAV:   1    -0.221980281911E+03   -0.17354E-06   -0.10113E-06   276   0.311E-03    0.321E-03
RMM:   2    -0.221980281981E+03   -0.70071E-07   -0.63885E-08    95   0.144E-03
   3 F= -.22198028E+03 E0= -.22199676E+03  d E =-.740874E-07
quench:  g(F)=  0.000E+00 g(S)=  0.000E+00 dE (1.order)= 0.000E+00
 bond charge predicted
       N       E                     dE             d eps       ncg     rms          rms(c)
DAV:   1    -0.221980282019E+03   -0.10819E-06   -0.72177E-07   276   0.160E-03    0.193E-03
RMM:   2    -0.221980282064E+03   -0.44809E-07    0.20941-183    50   0.102E-03
   4 F= -.22198028E+03 E0= -.22199675E+03  d E =-.829277E-07
quench:  g(F)=  0.000E+00 g(S)=  0.000E+00 dE (1.order)= 0.000E+00
 bond charge predicted
       N       E                     dE             d eps       ncg     rms          rms(c)
DAV:   1    -0.221980281980E+03    0.39592E-07   -0.66081E-07   276   0.131E-03    0.903E-04
RMM:   2    -0.221980281963E+03    0.16418E-07    0.11460-183    35   0.744E-04
   5 F= -.22198028E+03 E0= -.22199676E+03  d E =0.100819E-06
quench:  g(F)=  0.000E+00 g(S)=  0.000E+00 dE (1.order)= 0.000E+00
 bond charge predicted
       N       E                     dE             d eps       ncg     rms          rms(c)
DAV:   1    -0.221980281962E+03    0.18110E-07   -0.12327E-07   252   0.797E-04    0.683E-04
RMM:   2    -0.221980281947E+03    0.14195E-07    0.57618-191    26   0.537E-04
   6 F= -.22198028E+03 E0= -.22199676E+03  d E =0.158871E-07
quench:  g(F)=  0.000E+00 g(S)=  0.000E+00 dE (1.order)= 0.000E+00
 bond charge predicted
       N       E                     dE             d eps       ncg     rms          rms(c)
DAV:   1    -0.221980281936E+03    0.25200E-07   -0.72744E-08   252   0.623E-04    0.327E-04
RMM:   2    -0.221980281927E+03    0.98626E-08    0.39469-184    20   0.312E-04
   7 F= -.22198028E+03 E0= -.22199676E+03  d E =0.208674E-07
quench:  g(F)=  0.000E+00 g(S)=  0.000E+00 dE (1.order)= 0.000E+00
 bond charge predicted
       N       E                     dE             d eps       ncg     rms          rms(c)
DAV:   1    -0.221980281924E+03    0.12540E-07   -0.16603E-08   252   0.340E-04    0.297E-04
RMM:   2    -0.221980281924E+03   -0.24738E-09    0.14521-279    16   0.244E-04
   8 F= -.22198028E+03 E0= -.22199676E+03  d E =0.243017E-08
quench:  g(F)=  0.000E+00 g(S)=  0.000E+00 dE (1.order)= 0.000E+00
 bond charge predicted
       N       E                     dE             d eps       ncg     rms          rms(c)
DAV:   1    -0.221980281924E+03   -0.31287E-09   -0.11604E-08   252   0.284E-04    0.137E-04
RMM:   2    -0.221980281922E+03    0.20991E-08    0.10722-279    15   0.152E-04
   9 F= -.22198028E+03 E0= -.22199676E+03  d E =0.203363E-08
quench:  g(F)=  0.000E+00 g(S)=  0.000E+00 dE (1.order)= 0.000E+00
 bond charge predicted
       N       E                     dE             d eps       ncg     rms          rms(c)
DAV:   1    -0.221980281922E+03    0.25648E-08   -0.35460E-09   252   0.166E-04    0.103E-04
RMM:   2    -0.221980281920E+03    0.16844E-08    0.00000E+00    14   0.122E-04
  10 F= -.22198028E+03 E0= -.22199676E+03  d E =0.215005E-08
quench:  g(F)=  0.000E+00 g(S)=  0.000E+00 dE (1.order)= 0.000E+00
 bond charge predicted
       N       E                     dE             d eps       ncg     rms          rms(c)
DAV:   1    -0.221980281921E+03    0.11205E-08   -0.17013E-09   216   0.136E-04    0.640E-05
RMM:   2    -0.221980281918E+03    0.21464E-08    0.00000E+00    13   0.819E-05
  11 F= -.22198028E+03 E0= -.22199676E+03  d E =0.158252E-08
quench:  g(F)=  0.000E+00 g(S)=  0.000E+00 dE (1.order)= 0.000E+00
 bond charge predicted
       N       E                     dE             d eps       ncg     rms          rms(c)
DAV:   1    -0.221980281919E+03    0.19973E-08   -0.64530E-10   216   0.902E-05    0.416E-05
RMM:   2    -0.221980281918E+03    0.56389E-09    0.00000E+00    12   0.660E-05
  12 F= -.22198028E+03 E0= -.22199676E+03  d E =0.414730E-09
quench:  g(F)=  0.000E+00 g(S)=  0.000E+00 dE (1.order)= 0.000E+00
 bond charge predicted
       N       E                     dE             d eps       ncg     rms          rms(c)
DAV:   1    -0.221980281918E+03    0.26193E-09   -0.32762E-10   216   0.728E-05    0.317E-05
RMM:   2    -0.221980281918E+03    0.68758E-09    0.00000E+00    12   0.491E-05
  13 F= -.22198028E+03 E0= -.22199676E+03  d E =0.385626E-09
quench:  g(F)=  0.000E+00 g(S)=  0.000E+00 dE (1.order)= 0.000E+00
 bond charge predicted
       N       E                     dE             d eps       ncg     rms          rms(c)
DAV:   1    -0.221980281918E+03   -0.40018E-10   -0.16545E-10   216   0.537E-05    0.188E-05
RMM:   2    -0.221980281918E+03    0.78217E-09    0.00000E+00    12   0.369E-05
  14 F= -.22198028E+03 E0= -.22199676E+03  d E =0.545697E-10
quench:  g(F)=  0.000E+00 g(S)=  0.000E+00 dE (1.order)= 0.000E+00
 bond charge predicted
       N       E                     dE             d eps       ncg     rms          rms(c)
DAV:   1    -0.221980281918E+03    0.25830E-09   -0.39005E-11   216   0.404E-05    0.146E-05
RMM:   2    -0.221980281917E+03    0.72396E-09    0.00000E+00    12   0.285E-05
  15 F= -.22198028E+03 E0= -.22199676E+03  d E =0.200089E-09
quench:  g(F)=  0.000E+00 g(S)=  0.000E+00 dE (1.order)= 0.000E+00
 bond charge predicted
       N       E                     dE             d eps       ncg     rms          rms(c)
DAV:   1    -0.221980281918E+03    0.38926E-09    0.44105E-11   216   0.312E-05    0.941E-06
RMM:   2    -0.221980281917E+03    0.27285E-09    0.00000E+00    10   0.212E-05
  16 F= -.22198028E+03 E0= -.22199676E+03  d E =-.618456E-10
quench:  g(F)=  0.000E+00 g(S)=  0.000E+00 dE (1.order)= 0.000E+00
 bond charge predicted
       N       E                     dE             d eps       ncg     rms          rms(c)
DAV:   1    -0.221980281917E+03    0.76398E-09   -0.67413E-11   216   0.234E-05    0.637E-06
RMM:   2    -0.221980281917E+03   -0.20736E-09    0.00000E+00    10   0.164E-05
  17 F= -.22198028E+03 E0= -.22199676E+03  d E =0.283762E-09
quench:  g(F)=  0.000E+00 g(S)=  0.000E+00 dE (1.order)= 0.000E+00
 bond charge predicted
       N       E                     dE             d eps       ncg     rms          rms(c)
DAV:   1    -0.221980281917E+03   -0.23647E-09    0.97179E-11   216   0.180E-05    0.470E-06
RMM:   2    -0.221980281917E+03    0.98225E-10    0.00000E+00     9   0.127E-05
  18 F= -.22198028E+03 E0= -.22199676E+03  d E =0.691216E-10
quench:  g(F)=  0.000E+00 g(S)=  0.000E+00 dE (1.order)= 0.000E+00
 bond charge predicted
       N       E                     dE             d eps       ncg     rms          rms(c)
DAV:   1    -0.221980281918E+03   -0.41109E-09   -0.14754E-10   216   0.140E-05    0.297E-06
RMM:   2    -0.221980281917E+03    0.49477E-09    0.00000E+00     9   0.957E-06
  19 F= -.22198028E+03 E0= -.22199676E+03  d E =-.145519E-10
quench:  g(F)=  0.000E+00 g(S)=  0.000E+00 dE (1.order)= 0.000E+00
 bond charge predicted
       N       E                     dE             d eps       ncg     rms          rms(c)
DAV:   1    -0.221980281917E+03    0.31650E-09    0.62223E-11   216   0.105E-05    0.257E-06
RMM:   2    -0.221980281917E+03    0.10186E-09    0.00000E+00     8   0.767E-06
  20 F= -.22198028E+03 E0= -.22199676E+03  d E =-.763976E-10
quench:  g(F)=  0.000E+00 g(S)=  0.000E+00 dE (1.order)= 0.000E+00
 bond charge predicted
       N       E                     dE             d eps       ncg     rms          rms(c)
DAV:   1    -0.221980281918E+03   -0.69122E-09   -0.31683E-12   216   0.850E-06    0.161E-06
RMM:   2    -0.221980281917E+03    0.89494E-09    0.00000E+00     8   0.569E-06
  21 F= -.22198028E+03 E0= -.22199676E+03  d E =0.101863E-09
quench:  g(F)=  0.000E+00 g(S)=  0.000E+00 dE (1.order)= 0.000E+00
 bond charge predicted
       N       E                     dE             d eps       ncg     rms          rms(c)
DAV:   1    -0.221980281916E+03    0.21828E-08    0.42339E-11   216   0.620E-06    0.124E-06
RMM:   2    -0.221980281917E+03   -0.12806E-08    0.00000E+00     7   0.456E-06
  22 F= -.22198028E+03 E0= -.22199676E+03  d E =0.727596E-11
quench:  g(F)=  0.000E+00 g(S)=  0.000E+00 dE (1.order)= 0.000E+00
 bond charge predicted
       N       E                     dE             d eps       ncg     rms          rms(c)
DAV:   1    -0.221980281917E+03   -0.91313E-09    0.20800E-10   216   0.508E-06    0.907E-07
RMM:   2    -0.221980281917E+03   -0.29831E-09    0.00000E+00     7   0.346E-06
  23 F= -.22198028E+03 E0= -.22199676E+03  d E =0.691216E-10
quench:  g(F)=  0.000E+00 g(S)=  0.000E+00 dE (1.order)= 0.000E+00
 bond charge predicted
       N       E                     dE             d eps       ncg     rms          rms(c)
DAV:   1    -0.221980281917E+03   -0.17462E-09   -0.12987E-10   216   0.379E-06    0.637E-07
RMM:   2    -0.221980281917E+03   -0.14552E-09    0.00000E+00     6   0.272E-06
  24 F= -.22198028E+03 E0= -.22199676E+03  d E =-.218279E-10
quench:  g(F)=  0.000E+00 g(S)=  0.000E+00 dE (1.order)= 0.000E+00
 bond charge predicted
       N       E                     dE             d eps       ncg     rms          rms(c)
DAV:   1    -0.221980281917E+03   -0.24738E-09    0.41688E-11   216   0.302E-06    0.518E-07
RMM:   2    -0.221980281917E+03   -0.11642E-09    0.00000E+00     6   0.214E-06
  25 F= -.22198028E+03 E0= -.22199676E+03  d E =-.218279E-09
quench:  g(F)=  0.000E+00 g(S)=  0.000E+00 dE (1.order)= 0.000E+00
 bond charge predicted
       N       E                     dE             d eps       ncg     rms          rms(c)
DAV:   1    -0.221980281916E+03    0.95679E-09   -0.16919E-11   216   0.235E-06    0.364E-07
RMM:   2    -0.221980281917E+03   -0.10659E-08    0.00000E+00     6   0.164E-06
  26 F= -.22198028E+03 E0= -.22199676E+03  d E =0.727596E-11
quench:  g(F)=  0.000E+00 g(S)=  0.000E+00 dE (1.order)= 0.000E+00
 bond charge predicted
       N       E                     dE             d eps       ncg     rms          rms(c)
DAV:   1    -0.221980281917E+03   -0.56752E-09   -0.95450E-11   216   0.182E-06    0.306E-07
RMM:   2    -0.221980281917E+03   -0.27649E-09    0.00000E+00     6   0.130E-06
  27 F= -.22198028E+03 E0= -.22199676E+03  d E =0.221917E-09
quench:  g(F)=  0.000E+00 g(S)=  0.000E+00 dE (1.order)= 0.000E+00
 bond charge predicted
       N       E                     dE             d eps       ncg     rms          rms(c)
DAV:   1    -0.221980281917E+03   -0.59299E-09   -0.17379E-12   216   0.145E-06    0.222E-07
RMM:   2    -0.221980281917E+03    0.18917E-09    0.00000E+00     5   0.101E-06
  28 F= -.22198028E+03 E0= -.22199676E+03  d E =-.127329E-09
quench:  g(F)=  0.000E+00 g(S)=  0.000E+00 dE (1.order)= 0.000E+00
 bond charge predicted
       N       E                     dE             d eps       ncg     rms          rms(c)
DAV:   1    -0.221980281916E+03    0.85856E-09    0.91906E-12   216   0.111E-06    0.168E-07
RMM:   2    -0.221980281917E+03   -0.49840E-09    0.00000E+00     5   0.793E-07
  29 F= -.22198028E+03 E0= -.22199676E+03  d E =0.170985E-09
quench:  g(F)=  0.000E+00 g(S)=  0.000E+00 dE (1.order)= 0.000E+00
 bond charge predicted
       N       E                     dE             d eps       ncg     rms          rms(c)
DAV:   1    -0.221980281918E+03   -0.12260E-08    0.50734E-11   216   0.881E-07    0.135E-07
RMM:   2    -0.221980281917E+03    0.48021E-09    0.00000E+00     4   0.622E-07
  30 F= -.22198028E+03 E0= -.22199676E+03  d E =-.247383E-09
quench:  g(F)=  0.000E+00 g(S)=  0.000E+00 dE (1.order)= 0.000E+00
 bond charge predicted
       N       E                     dE             d eps       ncg     rms          rms(c)
DAV:   1    -0.221980281917E+03    0.45111E-09    0.87825E-11   216   0.693E-07    0.101E-07
RMM:   2    -0.221980281917E+03    0.14188E-09    0.00000E+00     4   0.484E-07
  31 F= -.22198028E+03 E0= -.22199676E+03  d E =0.112777E-09
quench:  g(F)=  0.000E+00 g(S)=  0.000E+00 dE (1.order)= 0.000E+00
 bond charge predicted
       N       E                     dE             d eps       ncg     rms          rms(c)
DAV:   1    -0.221980281916E+03    0.72760E-09   -0.22994E-11   216   0.537E-07    0.813E-08
RMM:   2    -0.221980281917E+03   -0.57116E-09    0.00000E+00     4   0.384E-07
  32 F= -.22198028E+03 E0= -.22199676E+03  d E =0.145519E-10
quench:  g(F)=  0.000E+00 g(S)=  0.000E+00 dE (1.order)= 0.000E+00
 bond charge predicted
       N       E                     dE             d eps       ncg     rms          rms(c)
DAV:   1    -0.221980281917E+03   -0.14188E-09    0.12169E-10   216   0.429E-07    0.622E-08
RMM:   2    -0.221980281917E+03   -0.37107E-09    0.00000E+00     4   0.298E-07
  33 F= -.22198028E+03 E0= -.22199676E+03  d E =0.582077E-10
quench:  g(F)=  0.000E+00 g(S)=  0.000E+00 dE (1.order)= 0.000E+00
 bond charge predicted
       N       E                     dE             d eps       ncg     rms          rms(c)
DAV:   1    -0.221980281917E+03   -0.68394E-09   -0.63253E-11   216   0.331E-07    0.494E-08
RMM:   2    -0.221980281917E+03    0.26193E-09    0.00000E+00     3   0.236E-07
  34 F= -.22198028E+03 E0= -.22199676E+03  d E =-.509317E-10
quench:  g(F)=  0.000E+00 g(S)=  0.000E+00 dE (1.order)= 0.000E+00
 bond charge predicted
       N       E                     dE             d eps       ncg     rms          rms(c)
DAV:   1    -0.221980281917E+03   -0.40018E-10    0.13446E-10   216   0.264E-07    0.385E-08
RMM:   2    -0.221980281917E+03    0.31287E-09    0.00000E+00     3   0.184E-07
  35 F= -.22198028E+03 E0= -.22199676E+03  d E =0.109139E-10
quench:  g(F)=  0.000E+00 g(S)=  0.000E+00 dE (1.order)= 0.000E+00
 bond charge predicted
       N       E                     dE             d eps       ncg     rms          rms(c)
DAV:   1    -0.221980281918E+03   -0.31650E-09    0.12654E-10   216   0.205E-07    0.302E-08
RMM:   2    -0.221980281917E+03    0.50204E-09    0.00000E+00     3   0.145E-07
  36 F= -.22198028E+03 E0= -.22199676E+03  d E =-.127329E-09
quench:  g(F)=  0.000E+00 g(S)=  0.000E+00 dE (1.order)= 0.000E+00
 bond charge predicted
       N       E                     dE             d eps       ncg     rms          rms(c)
DAV:   1    -0.221980281917E+03    0.90586E-09   -0.12888E-10   216   0.163E-07    0.236E-08
RMM:   2    -0.221980281917E+03   -0.31287E-09    0.00000E+00     3   0.114E-07
  37 F= -.22198028E+03 E0= -.22199676E+03  d E =0.909495E-10
quench:  g(F)=  0.000E+00 g(S)=  0.000E+00 dE (1.order)= 0.000E+00
 bond charge predicted
       N       E                     dE             d eps       ncg     rms          rms(c)
DAV:   1    -0.221980281917E+03   -0.22919E-09   -0.50896E-11   216   0.127E-07    0.189E-08
RMM:   2    -0.221980281917E+03   -0.13097E-09    0.00000E+00     3   0.899E-08
  38 F= -.22198028E+03 E0= -.22199676E+03  d E =-.472937E-10
quench:  g(F)=  0.000E+00 g(S)=  0.000E+00 dE (1.order)= 0.000E+00
 bond charge predicted
       N       E                     dE             d eps       ncg     rms          rms(c)
DAV:   1    -0.221980281918E+03   -0.11569E-08   -0.13250E-10   216   0.100E-07    0.143E-08
RMM:   2    -0.221980281917E+03    0.10950E-08    0.00000E+00     3   0.703E-08
  39 F= -.22198028E+03 E0= -.22199676E+03  d E =0.691216E-10
quench:  g(F)=  0.000E+00 g(S)=  0.000E+00 dE (1.order)= 0.000E+00
 bond charge predicted
       N       E                     dE             d eps       ncg     rms          rms(c)
DAV:   1    -0.221980281916E+03    0.20082E-08    0.10628E-10   216   0.787E-08    0.119E-08
RMM:   2    -0.221980281917E+03   -0.97862E-09    0.00000E+00     2   0.558E-08
  40 F= -.22198028E+03 E0= -.22199676E+03  d E =-.654836E-10
quench:  g(F)=  0.000E+00 g(S)=  0.000E+00 dE (1.order)= 0.000E+00
 bond charge predicted
       N       E                     dE             d eps       ncg     rms          rms(c)
DAV:   1    -0.221980281918E+03   -0.21719E-08    0.31238E-12   216   0.629E-08    0.895E-09
RMM:   2    -0.221980281917E+03    0.11169E-08    0.00000E+00     3   0.435E-08
  41 F= -.22198028E+03 E0= -.22199676E+03  d E =-.763976E-10
quench:  g(F)=  0.000E+00 g(S)=  0.000E+00 dE (1.order)= 0.000E+00
 bond charge predicted
       N       E                     dE             d eps       ncg     rms          rms(c)
DAV:   1    -0.221980281918E+03    0.60027E-09   -0.64819E-11   216   0.487E-08    0.735E-09
RMM:   2    -0.221980281917E+03    0.64756E-09    0.00000E+00     2   0.346E-08
  42 F= -.22198028E+03 E0= -.22199676E+03  d E =0.130967E-09
quench:  g(F)=  0.000E+00 g(S)=  0.000E+00 dE (1.order)= 0.000E+00
 bond charge predicted
       N       E                     dE             d eps       ncg     rms          rms(c)
DAV:   1    -0.221980281917E+03    0.73487E-09   -0.60011E-12   216   0.391E-08    0.560E-09
RMM:   2    -0.221980281917E+03   -0.32378E-09    0.00000E+00     2   0.270E-08
  43 F= -.22198028E+03 E0= -.22199676E+03  d E =-.236469E-09
quench:  g(F)=  0.000E+00 g(S)=  0.000E+00 dE (1.order)= 0.000E+00
 bond charge predicted
       N       E                     dE             d eps       ncg     rms          rms(c)
DAV:   1    -0.221980281917E+03   -0.29104E-09   -0.83628E-11   216   0.303E-08    0.460E-09
RMM:   2    -0.221980281917E+03    0.14552E-09    0.00000E+00     2   0.214E-08
  44 F= -.22198028E+03 E0= -.22199676E+03  d E =0.178261E-09
quench:  g(F)=  0.000E+00 g(S)=  0.000E+00 dE (1.order)= 0.000E+00
 bond charge predicted
       N       E                     dE             d eps       ncg     rms          rms(c)
DAV:   1    -0.221980281919E+03   -0.13461E-08   -0.97399E-13   216   0.238E-08    0.330E-09
RMM:   2    -0.221980281917E+03    0.15752E-08    0.00000E+00     2   0.167E-08
  45 F= -.22198028E+03 E0= -.22199676E+03  d E =0.836735E-10
quench:  g(F)=  0.000E+00 g(S)=  0.000E+00 dE (1.order)= 0.000E+00
 bond charge predicted
       N       E                     dE             d eps       ncg     rms          rms(c)
DAV:   1    -0.221980281917E+03    0.13242E-08   -0.34392E-11   216   0.192E-08    0.304E-09
RMM:   2    -0.221980281917E+03    0.18554E-09    0.00000E+00     2   0.135E-08
  46 F= -.22198028E+03 E0= -.22199676E+03  d E =-.654836E-10
quench:  g(F)=  0.000E+00 g(S)=  0.000E+00 dE (1.order)= 0.000E+00
 bond charge predicted
       N       E                     dE             d eps       ncg     rms          rms(c)
DAV:   1    -0.221980281917E+03   -0.18190E-09   -0.87439E-11   216   0.155E-08    0.223E-09
RMM:   2    -0.221980281917E+03    0.34925E-09    0.00000E+00     2   0.104E-08
  47 F= -.22198028E+03 E0= -.22199676E+03  d E =-.181899E-10
quench:  g(F)=  0.000E+00 g(S)=  0.000E+00 dE (1.order)= 0.000E+00
 bond charge predicted
       N       E                     dE             d eps       ncg     rms          rms(c)
DAV:   1    -0.221980281917E+03   -0.25466E-10   -0.45213E-11   204   0.114E-08    0.160E-09
RMM:   2    -0.221980281917E+03    0.31650E-09    0.00000E+00     1   0.826E-09
  48 F= -.22198028E+03 E0= -.22199676E+03  d E =-.582077E-10
quench:  g(F)=  0.000E+00 g(S)=  0.000E+00 dE (1.order)= 0.000E+00
 bond charge predicted
       N       E                     dE             d eps       ncg     rms          rms(c)
DAV:   1    -0.221980281918E+03   -0.70577E-09   -0.51227E-11   198   0.110E-08    0.177E-09
RMM:   2    -0.221980281917E+03    0.97498E-09    0.00000E+00     1   0.679E-09
  49 F= -.22198028E+03 E0= -.22199676E+03  d E =-.472937E-10
quench:  g(F)=  0.000E+00 g(S)=  0.000E+00 dE (1.order)= 0.000E+00
 bond charge predicted
       N       E                     dE             d eps       ncg     rms          rms(c)
DAV:   1    -0.221980281917E+03    0.13024E-08   -0.13493E-11   198   0.870E-09    0.115E-09
RMM:   2    -0.221980281917E+03   -0.28740E-09    0.00000E+00     1   0.520E-09
  50 F= -.22198028E+03 E0= -.22199676E+03  d E =0.400178E-10
quench:  g(F)=  0.000E+00 g(S)=  0.000E+00 dE (1.order)= 0.000E+00
 bond charge predicted
       N       E                     dE             d eps       ncg     rms          rms(c)
DAV:   1    -0.221980281917E+03   -0.46202E-09    0.44426E-11   198   0.573E-09    0.796E-10
RMM:   2    -0.221980281917E+03    0.13097E-09    0.00000E+00     1   0.423E-09
  51 F= -.22198028E+03 E0= -.22199676E+03  d E =-.436557E-10
quench:  g(F)=  0.000E+00 g(S)=  0.000E+00 dE (1.order)= 0.000E+00
 bond charge predicted
       N       E                     dE             d eps       ncg     rms          rms(c)
DAV:   1    -0.221980281917E+03   -0.50932E-10    0.39310E-11   198   0.470E-09    0.749E-10
RMM:   2    -0.221980281917E+03    0.32014E-09    0.00000E+00     1   0.330E-09
  52 F= -.22198028E+03 E0= -.22199676E+03  d E =0.138243E-09
quench:  g(F)=  0.000E+00 g(S)=  0.000E+00 dE (1.order)= 0.000E+00
 bond charge predicted
       N       E                     dE             d eps       ncg     rms          rms(c)
DAV:   1    -0.221980281916E+03    0.94951E-09   -0.87913E-12   198   0.397E-09    0.607E-10
RMM:   2    -0.221980281917E+03   -0.62937E-09    0.00000E+00     1   0.261E-09
  53 F= -.22198028E+03 E0= -.22199676E+03  d E =0.000000E+00
quench:  g(F)=  0.000E+00 g(S)=  0.000E+00 dE (1.order)= 0.000E+00
 bond charge predicted
       N       E                     dE             d eps       ncg     rms          rms(c)
DAV:   1    -0.221980281917E+03   -0.78944E-09   -0.65865E-11   198   0.301E-09    0.480E-10
RMM:   2    -0.221980281917E+03    0.22919E-09    0.00000E+00     1   0.207E-09
  54 F= -.22198028E+03 E0= -.22199676E+03  d E =0.691216E-10
quench:  g(F)=  0.000E+00 g(S)=  0.000E+00 dE (1.order)= 0.000E+00
 bond charge predicted
       N       E                     dE             d eps       ncg     rms          rms(c)
DAV:   1    -0.221980281916E+03    0.16298E-08    0.17570E-11   198   0.234E-09    0.407E-10
RMM:   2    -0.221980281917E+03   -0.16153E-08    0.00000E+00     1   0.165E-09
  55 F= -.22198028E+03 E0= -.22199676E+03  d E =-.214641E-09
quench:  g(F)=  0.000E+00 g(S)=  0.000E+00 dE (1.order)= 0.000E+00
 bond charge predicted
       N       E                     dE             d eps       ncg     rms          rms(c)
DAV:   1    -0.221980281917E+03   -0.14115E-08    0.61611E-11   198   0.184E-09    0.325E-10
RMM:   2    -0.221980281917E+03   -0.58208E-10    0.00000E+00     1   0.130E-09
  56 F= -.22198028E+03 E0= -.22199676E+03  d E =0.145519E-09
quench:  g(F)=  0.000E+00 g(S)=  0.000E+00 dE (1.order)= 0.000E+00
 bond charge predicted
       N       E                     dE             d eps       ncg     rms          rms(c)
DAV:   1    -0.221980281918E+03   -0.74942E-09    0.66584E-11   198   0.150E-09    0.441E-10
RMM:   2    -0.221980281917E+03    0.72396E-09    0.00000E+00     1   0.106E-09
  57 F= -.22198028E+03 E0= -.22199676E+03  d E =0.327418E-10
quench:  g(F)=  0.000E+00 g(S)=  0.000E+00 dE (1.order)= 0.000E+00
 bond charge predicted
       N       E                     dE             d eps       ncg     rms          rms(c)
DAV:   1    -0.221980281918E+03    0.12369E-09   -0.13907E-11   198   0.118E-09    0.228E-10
RMM:   2    -0.221980281917E+03    0.45475E-09    0.00000E+00     1   0.812E-10
  58 F= -.22198028E+03 E0= -.22199676E+03  d E =-.145519E-09
quench:  g(F)=  0.000E+00 g(S)=  0.000E+00 dE (1.order)= 0.000E+00
 bond charge predicted
       N       E                     dE             d eps       ncg     rms          rms(c)
DAV:   1    -0.221980281918E+03   -0.16735E-09    0.14009E-11   198   0.911E-10    0.391E-10
RMM:   2    -0.221980281917E+03    0.62209E-09    0.00000E+00     1   0.687E-10
  59 F= -.22198028E+03 E0= -.22199676E+03  d E =0.000000E+00
quench:  g(F)=  0.000E+00 g(S)=  0.000E+00 dE (1.order)= 0.000E+00
 bond charge predicted
       N       E                     dE             d eps       ncg     rms          rms(c)
DAV:   1    -0.221980281917E+03    0.11314E-08   -0.98670E-13   198   0.790E-10    0.256E-10
RMM:   2    -0.221980281917E+03   -0.40382E-09    0.00000E+00     1   0.527E-10
  60 F= -.22198028E+03 E0= -.22199676E+03  d E =0.105501E-09
quench:  g(F)=  0.000E+00 g(S)=  0.000E+00 dE (1.order)= 0.000E+00
 bond charge predicted
       N       E                     dE             d eps       ncg     rms          rms(c)
DAV:   1    -0.221980281917E+03   -0.81491E-09    0.65002E-11   198   0.588E-10    0.410E-10
RMM:   2    -0.221980281917E+03    0.44020E-09    0.00000E+00     1   0.487E-10
  61 F= -.22198028E+03 E0= -.22199676E+03  d E =0.291038E-10
quench:  g(F)=  0.000E+00 g(S)=  0.000E+00 dE (1.order)= 0.000E+00
 bond charge predicted
       N       E                     dE             d eps       ncg     rms          rms(c)
DAV:   1    -0.221980281917E+03    0.80036E-09   -0.19901E-11   198   0.565E-10    0.412E-10
RMM:   2    -0.221980281917E+03   -0.36016E-09    0.00000E+00     1   0.412E-10
  62 F= -.22198028E+03 E0= -.22199676E+03  d E =0.000000E+00
quench:  g(F)=  0.000E+00 g(S)=  0.000E+00 dE (1.order)= 0.000E+00
 bond charge predicted
       N       E                     dE             d eps       ncg     rms          rms(c)
DAV:   1    -0.221980281917E+03   -0.69122E-10   -0.20224E-12   198   0.495E-10    0.255E-10
RMM:   2    -0.221980281917E+03   -0.47294E-09    0.00000E+00     1   0.307E-10
  63 F= -.22198028E+03 E0= -.22199676E+03  d E =-.181899E-09
quench:  g(F)=  0.000E+00 g(S)=  0.000E+00 dE (1.order)= 0.000E+00
 bond charge predicted
       N       E                     dE             d eps       ncg     rms          rms(c)
DAV:   1    -0.221980281917E+03   -0.18190E-09   -0.36605E-11   198   0.353E-10    0.382E-10
RMM:   2    -0.221980281917E+03   -0.14188E-09    0.00000E+00     1   0.287E-10
  64 F= -.22198028E+03 E0= -.22199676E+03  d E =0.149157E-09
quench:  g(F)=  0.000E+00 g(S)=  0.000E+00 dE (1.order)= 0.000E+00
 bond charge predicted
       N       E                     dE             d eps       ncg     rms          rms(c)
DAV:   1    -0.221980281916E+03    0.88403E-09    0.74645E-11   198   0.393E-10    0.587E-10
RMM:   2    -0.221980281917E+03   -0.11132E-08    0.00000E+00     1   0.321E-10
  65 F= -.22198028E+03 E0= -.22199676E+03  d E =-.873115E-10
quench:  g(F)=  0.000E+00 g(S)=  0.000E+00 dE (1.order)= 0.000E+00
 bond charge predicted
       N       E                     dE             d eps       ncg     rms          rms(c)
DAV:   1    -0.221980281918E+03   -0.18808E-08   -0.90710E-11   198   0.478E-10    0.233E-10
RMM:   2    -0.221980281917E+03    0.74942E-09    0.00000E+00     1   0.200E-10
  66 F= -.22198028E+03 E0= -.22199676E+03  d E =-.181899E-10
quench:  g(F)=  0.000E+00 g(S)=  0.000E+00 dE (1.order)= 0.000E+00
 bond charge predicted
       N       E                     dE             d eps       ncg     rms          rms(c)
DAV:   1    -0.221980281917E+03    0.59299E-09    0.10119E-11   198   0.214E-10    0.249E-10
RMM:   2    -0.221980281917E+03    0.34197E-09    0.00000E+00     1   0.175E-10
  67 F= -.22198028E+03 E0= -.22199676E+03  d E =0.185537E-09
quench:  g(F)=  0.000E+00 g(S)=  0.000E+00 dE (1.order)= 0.000E+00
 bond charge predicted
       N       E                     dE             d eps       ncg     rms          rms(c)
DAV:   1    -0.221980281917E+03    0.74579E-09   -0.35846E-12   198   0.245E-10    0.158E-10
RMM:   2    -0.221980281917E+03   -0.42928E-09    0.00000E+00     1   0.139E-10
  68 F= -.22198028E+03 E0= -.22199676E+03  d E =-.254659E-10
quench:  g(F)=  0.000E+00 g(S)=  0.000E+00 dE (1.order)= 0.000E+00
 bond charge predicted
       N       E                     dE             d eps       ncg     rms          rms(c)
DAV:   1    -0.221980281918E+03   -0.13388E-08    0.93325E-11   198   0.152E-10    0.304E-10
RMM:   2    -0.221980281917E+03    0.70941E-09    0.00000E+00     1   0.143E-10
  69 F= -.22198028E+03 E0= -.22199676E+03  d E =-.200089E-09
quench:  g(F)=  0.000E+00 g(S)=  0.000E+00 dE (1.order)= 0.000E+00
 bond charge predicted
       N       E                     dE             d eps       ncg     rms          rms(c)
DAV:   1    -0.221980281918E+03    0.18917E-09    0.42155E-11   198   0.173E-10    0.359E-10
RMM:   2    -0.221980281917E+03    0.66211E-09    0.00000E+00     1   0.168E-10
  70 F= -.22198028E+03 E0= -.22199676E+03  d E =0.141881E-09
quench:  g(F)=  0.000E+00 g(S)=  0.000E+00 dE (1.order)= 0.000E+00
 bond charge predicted
       N       E                     dE             d eps       ncg     rms          rms(c)
DAV:   1    -0.221980281917E+03    0.30195E-09   -0.31933E-11   198   0.234E-10    0.307E-10
RMM:   2    -0.221980281917E+03    0.43292E-09    0.00000E+00     1   0.140E-10
  71 F= -.22198028E+03 E0= -.22199676E+03  d E =0.727596E-10
quench:  g(F)=  0.000E+00 g(S)=  0.000E+00 dE (1.order)= 0.000E+00
 bond charge predicted
       N       E                     dE             d eps       ncg     rms          rms(c)
DAV:   1    -0.221980281918E+03   -0.16735E-09   -0.60090E-11   198   0.189E-10    0.323E-10
RMM:   2    -0.221980281917E+03    0.53842E-09    0.00000E+00     1   0.138E-10
  72 F= -.22198028E+03 E0= -.22199676E+03  d E =-.618456E-10
quench:  g(F)=  0.000E+00 g(S)=  0.000E+00 dE (1.order)= 0.000E+00
 bond charge predicted
       N       E                     dE             d eps       ncg     rms          rms(c)
DAV:   1    -0.221980281917E+03    0.70213E-09   -0.66981E-12   198   0.204E-10    0.242E-10
RMM:   2    -0.221980281917E+03   -0.34561E-09    0.00000E+00     1   0.125E-10
  73 F= -.22198028E+03 E0= -.22199676E+03  d E =-.181899E-09
quench:  g(F)=  0.000E+00 g(S)=  0.000E+00 dE (1.order)= 0.000E+00
 bond charge predicted
       N       E                     dE             d eps       ncg     rms          rms(c)
DAV:   1    -0.221980281917E+03   -0.48021E-09    0.10753E-10   198   0.157E-10    0.348E-10
RMM:   2    -0.221980281917E+03    0.29831E-09    0.00000E+00     1   0.136E-10
  74 F= -.22198028E+03 E0= -.22199676E+03  d E =0.163709E-09
quench:  g(F)=  0.000E+00 g(S)=  0.000E+00 dE (1.order)= 0.000E+00
 bond charge predicted
       N       E                     dE             d eps       ncg     rms          rms(c)
DAV:   1    -0.221980281917E+03    0.76034E-09   -0.23592E-11   198   0.225E-10    0.399E-10
RMM:   2    -0.221980281917E+03   -0.55661E-09    0.00000E+00     1   0.165E-10
  75 F= -.22198028E+03 E0= -.22199676E+03  d E =-.945874E-10
quench:  g(F)=  0.000E+00 g(S)=  0.000E+00 dE (1.order)= 0.000E+00
 bond charge predicted
       N       E                     dE             d eps       ncg     rms          rms(c)
DAV:   1    -0.221980281918E+03   -0.14370E-08   -0.87032E-11   198   0.239E-10    0.319E-10
RMM:   2    -0.221980281917E+03    0.10259E-08    0.00000E+00     1   0.124E-10
  76 F= -.22198028E+03 E0= -.22199676E+03  d E =0.145519E-09
quench:  g(F)=  0.000E+00 g(S)=  0.000E+00 dE (1.order)= 0.000E+00
 bond charge predicted
       N       E                     dE             d eps       ncg     rms          rms(c)
DAV:   1    -0.221980281918E+03   -0.24738E-09    0.25917E-11   198   0.193E-10    0.240E-10
RMM:   2    -0.221980281917E+03    0.11823E-08    0.00000E+00     1   0.104E-10
  77 F= -.22198028E+03 E0= -.22199676E+03  d E =-.909495E-10
quench:  g(F)=  0.000E+00 g(S)=  0.000E+00 dE (1.order)= 0.000E+00
 bond charge predicted
       N       E                     dE             d eps       ncg     rms          rms(c)
DAV:   1    -0.221980281917E+03    0.14406E-08    0.74962E-11   198   0.126E-10    0.232E-10
RMM:   2    -0.221980281917E+03   -0.30195E-09    0.00000E+00     1   0.947E-11
  78 F= -.22198028E+03 E0= -.22199676E+03  d E =-.436557E-10
quench:  g(F)=  0.000E+00 g(S)=  0.000E+00 dE (1.order)= 0.000E+00
 bond charge predicted
       N       E                     dE             d eps       ncg     rms          rms(c)
DAV:   1    -0.221980281918E+03   -0.13497E-08   -0.83051E-12   198   0.121E-10    0.338E-10
RMM:   2    -0.221980281917E+03    0.10441E-08    0.00000E+00     1   0.122E-10
  79 F= -.22198028E+03 E0= -.22199676E+03  d E =-.363798E-11
quench:  g(F)=  0.000E+00 g(S)=  0.000E+00 dE (1.order)= 0.000E+00
 bond charge predicted
       N       E                     dE             d eps       ncg     rms          rms(c)
DAV:   1    -0.221980281917E+03    0.12151E-08   -0.86983E-11   198   0.190E-10    0.273E-10
RMM:   2    -0.221980281917E+03   -0.12733E-09    0.00000E+00     1   0.105E-10
  80 F= -.22198028E+03 E0= -.22199676E+03  d E =0.436557E-10
quench:  g(F)=  0.000E+00 g(S)=  0.000E+00 dE (1.order)= 0.000E+00
 bond charge predicted
       N       E                     dE             d eps       ncg     rms          rms(c)
DAV:   1    -0.221980281917E+03    0.30559E-09    0.13953E-10   198   0.180E-10    0.268E-10
RMM:   2    -0.221980281917E+03   -0.32742E-09    0.00000E+00     1   0.109E-10
  81 F= -.22198028E+03 E0= -.22199676E+03  d E =0.105501E-09
quench:  g(F)=  0.000E+00 g(S)=  0.000E+00 dE (1.order)= 0.000E+00
 bond charge predicted
       N       E                     dE             d eps       ncg     rms          rms(c)
DAV:   1    -0.221980281917E+03   -0.19281E-09    0.10675E-11   198   0.154E-10    0.286E-10
RMM:   2    -0.221980281917E+03   -0.19645E-09    0.00000E+00     1   0.102E-10
  82 F= -.22198028E+03 E0= -.22199676E+03  d E =-.618456E-10
quench:  g(F)=  0.000E+00 g(S)=  0.000E+00 dE (1.order)= 0.000E+00
 bond charge predicted
       N       E                     dE             d eps       ncg     rms          rms(c)
DAV:   1    -0.221980281917E+03   -0.29831E-09    0.21345E-11   198   0.146E-10    0.418E-10
RMM:   2    -0.221980281917E+03   -0.14552E-10    0.00000E+00     1   0.162E-10
  83 F= -.22198028E+03 E0= -.22199676E+03  d E =-.116415E-09
quench:  g(F)=  0.000E+00 g(S)=  0.000E+00 dE (1.order)= 0.000E+00
 bond charge predicted
       N       E                     dE             d eps       ncg     rms          rms(c)
DAV:   1    -0.221980281917E+03   -0.12005E-09   -0.56684E-11   198   0.263E-10    0.360E-10
RMM:   2    -0.221980281917E+03    0.32378E-09    0.00000E+00     1   0.142E-10
  84 F= -.22198028E+03 E0= -.22199676E+03  d E =0.218279E-09
quench:  g(F)=  0.000E+00 g(S)=  0.000E+00 dE (1.order)= 0.000E+00
 bond charge predicted
       N       E                     dE             d eps       ncg     rms          rms(c)
DAV:   1    -0.221980281917E+03    0.30923E-09    0.34162E-11   198   0.208E-10    0.331E-10
RMM:   2    -0.221980281917E+03   -0.32742E-10    0.00000E+00     1   0.129E-10
  85 F= -.22198028E+03 E0= -.22199676E+03  d E =-.472937E-10
quench:  g(F)=  0.000E+00 g(S)=  0.000E+00 dE (1.order)= 0.000E+00
 bond charge predicted
       N       E                     dE             d eps       ncg     rms          rms(c)
DAV:   1    -0.221980281917E+03    0.44020E-09    0.63410E-11   198   0.179E-10    0.392E-10
RMM:   2    -0.221980281917E+03   -0.58935E-09    0.00000E+00     1   0.149E-10
  86 F= -.22198028E+03 E0= -.22199676E+03  d E =-.116415E-09
quench:  g(F)=  0.000E+00 g(S)=  0.000E+00 dE (1.order)= 0.000E+00
 bond charge predicted
       N       E                     dE             d eps       ncg     rms          rms(c)
DAV:   1    -0.221980281918E+03   -0.14297E-08   -0.80867E-12   198   0.239E-10    0.224E-10
RMM:   2    -0.221980281917E+03    0.94224E-09    0.00000E+00     1   0.111E-10
  87 F= -.22198028E+03 E0= -.22199676E+03  d E =0.101863E-09
quench:  g(F)=  0.000E+00 g(S)=  0.000E+00 dE (1.order)= 0.000E+00
 bond charge predicted
       N       E                     dE             d eps       ncg     rms          rms(c)
DAV:   1    -0.221980281918E+03   -0.61846E-10   -0.41494E-11   198   0.131E-10    0.333E-10
RMM:   2    -0.221980281917E+03    0.89130E-09    0.00000E+00     1   0.127E-10
  88 F= -.22198028E+03 E0= -.22199676E+03  d E =-.112777E-09
quench:  g(F)=  0.000E+00 g(S)=  0.000E+00 dE (1.order)= 0.000E+00
 bond charge predicted
       N       E                     dE             d eps       ncg     rms          rms(c)
DAV:   1    -0.221980281917E+03    0.14479E-08    0.36319E-11   198   0.208E-10    0.436E-10
RMM:   2    -0.221980281917E+03   -0.54570E-09    0.00000E+00     1   0.158E-10
  89 F= -.22198028E+03 E0= -.22199676E+03  d E =0.109139E-10
quench:  g(F)=  0.000E+00 g(S)=  0.000E+00 dE (1.order)= 0.000E+00
 bond charge predicted
       N       E                     dE             d eps       ncg     rms          rms(c)
DAV:   1    -0.221980281918E+03   -0.96043E-09    0.11787E-10   198   0.264E-10    0.234E-10
RMM:   2    -0.221980281917E+03    0.58935E-09    0.00000E+00     1   0.961E-11
  90 F= -.22198028E+03 E0= -.22199676E+03  d E =0.174623E-09
quench:  g(F)=  0.000E+00 g(S)=  0.000E+00 dE (1.order)= 0.000E+00
 bond charge predicted
       N       E                     dE             d eps       ncg     rms          rms(c)
DAV:   1    -0.221980281918E+03   -0.90222E-09    0.35768E-11   198   0.140E-10    0.276E-10
RMM:   2    -0.221980281917E+03    0.13242E-08    0.00000E+00     1   0.122E-10
  91 F= -.22198028E+03 E0= -.22199676E+03  d E =-.167347E-09
quench:  g(F)=  0.000E+00 g(S)=  0.000E+00 dE (1.order)= 0.000E+00
 bond charge predicted
       N       E                     dE             d eps       ncg     rms          rms(c)
DAV:   1    -0.221980281917E+03    0.10987E-08   -0.38717E-11   198   0.179E-10    0.294E-10
RMM:   2    -0.221980281917E+03    0.24011E-09    0.00000E+00     1   0.120E-10
  92 F= -.22198028E+03 E0= -.22199676E+03  d E =0.145519E-10
quench:  g(F)=  0.000E+00 g(S)=  0.000E+00 dE (1.order)= 0.000E+00
 bond charge predicted
       N       E                     dE             d eps       ncg     rms          rms(c)
DAV:   1    -0.221980281916E+03    0.10368E-08    0.53723E-11   198   0.171E-10    0.180E-10
RMM:   2    -0.221980281917E+03   -0.83674E-09    0.00000E+00     1   0.813E-11
  93 F= -.22198028E+03 E0= -.22199676E+03  d E =-.400178E-10
quench:  g(F)=  0.000E+00 g(S)=  0.000E+00 dE (1.order)= 0.000E+00
 bond charge predicted
       N       E                     dE             d eps       ncg     rms          rms(c)
DAV:   1    -0.221980281918E+03   -0.12151E-08   -0.30612E-11   198   0.991E-11    0.302E-10
RMM:   2    -0.221980281917E+03    0.52751E-09    0.00000E+00     1   0.811E-11
  94 F= -.22198028E+03 E0= -.22199676E+03  d E =0.149157E-09
quench:  g(F)=  0.000E+00 g(S)=  0.000E+00 dE (1.order)= 0.000E+00
 bond charge predicted
       N       E                     dE             d eps       ncg     rms          rms(c)
DAV:   1    -0.221980281917E+03    0.24374E-09   -0.84430E-11   198   0.138E-10    0.368E-10
RMM:   2    -0.221980281917E+03    0.13824E-09    0.00000E+00     1   0.128E-10
  95 F= -.22198028E+03 E0= -.22199676E+03  d E =-.145519E-09
quench:  g(F)=  0.000E+00 g(S)=  0.000E+00 dE (1.order)= 0.000E+00
 bond charge predicted
       N       E                     dE             d eps       ncg     rms          rms(c)
DAV:   1    -0.221980281917E+03    0.23283E-09    0.25261E-11   198   0.222E-10    0.177E-10
RMM:   2    -0.221980281917E+03   -0.10186E-09    0.00000E+00     1   0.751E-11
  96 F= -.22198028E+03 E0= -.22199676E+03  d E =-.727596E-11
quench:  g(F)=  0.000E+00 g(S)=  0.000E+00 dE (1.order)= 0.000E+00
 bond charge predicted
       N       E                     dE             d eps       ncg     rms          rms(c)
DAV:   1    -0.221980281918E+03   -0.10805E-08    0.10852E-11   198   0.898E-11    0.511E-10
RMM:   2    -0.221980281917E+03    0.11678E-08    0.00000E+00     1   0.172E-10
  97 F= -.22198028E+03 E0= -.22199676E+03  d E =0.189175E-09
quench:  g(F)=  0.000E+00 g(S)=  0.000E+00 dE (1.order)= 0.000E+00
 bond charge predicted
       N       E                     dE             d eps       ncg     rms          rms(c)
DAV:   1    -0.221980281918E+03   -0.36380E-11   -0.27203E-11   198   0.307E-10    0.346E-10
RMM:   2    -0.221980281917E+03    0.10768E-08    0.00000E+00     1   0.138E-10
  98 F= -.22198028E+03 E0= -.22199676E+03  d E =-.945874E-10
quench:  g(F)=  0.000E+00 g(S)=  0.000E+00 dE (1.order)= 0.000E+00
 bond charge predicted
       N       E                     dE             d eps       ncg     rms          rms(c)
DAV:   1    -0.221980281918E+03    0.29831E-09    0.17824E-11   198   0.227E-10    0.244E-10
RMM:   2    -0.221980281917E+03    0.72396E-09    0.00000E+00     1   0.105E-10
  99 F= -.22198028E+03 E0= -.22199676E+03  d E =-.545697E-10
quench:  g(F)=  0.000E+00 g(S)=  0.000E+00 dE (1.order)= 0.000E+00
 bond charge predicted
       N       E                     dE             d eps       ncg     rms          rms(c)
DAV:   1    -0.221980281917E+03    0.56389E-09    0.14296E-10   198   0.145E-10    0.316E-10
RMM:   2    -0.221980281917E+03    0.22555E-09    0.00000E+00     1   0.116E-10
 100 F= -.22198028E+03 E0= -.22199676E+03  d E =0.654836E-10
quench:  g(F)=  0.000E+00 g(S)=  0.000E+00 dE (1.order)= 0.000E+00
 bond charge predicted
       N       E                     dE             d eps       ncg     rms          rms(c)
DAV:   1    -0.221980281918E+03   -0.40745E-09    0.83640E-11   198   0.168E-10    0.253E-10
RMM:   2    -0.221980281917E+03    0.53842E-09    0.00000E+00     1   0.947E-11
 101 F= -.22198028E+03 E0= -.22199676E+03  d E =-.945874E-10
quench:  g(F)=  0.000E+00 g(S)=  0.000E+00 dE (1.order)= 0.000E+00
 bond charge predicted
       N       E                     dE             d eps       ncg     rms          rms(c)
DAV:   1    -0.221980281918E+03   -0.22192E-09    0.96894E-11   198   0.151E-10    0.315E-10
RMM:   2    -0.221980281917E+03    0.68030E-09    0.00000E+00     1   0.969E-11
 102 F= -.22198028E+03 E0= -.22199676E+03  d E =-.800355E-10
quench:  g(F)=  0.000E+00 g(S)=  0.000E+00 dE (1.order)= 0.000E+00
 bond charge predicted
       N       E                     dE             d eps       ncg     rms          rms(c)
DAV:   1    -0.221980281916E+03    0.16043E-08   -0.70486E-11   198   0.164E-10    0.239E-10
RMM:   2    -0.221980281917E+03   -0.88403E-09    0.00000E+00     1   0.106E-10
 103 F= -.22198028E+03 E0= -.22199676E+03  d E =0.400178E-10
quench:  g(F)=  0.000E+00 g(S)=  0.000E+00 dE (1.order)= 0.000E+00
 bond charge predicted
       N       E                     dE             d eps       ncg     rms          rms(c)
DAV:   1    -0.221980281918E+03   -0.15134E-08    0.52895E-12   198   0.142E-10    0.270E-10
RMM:   2    -0.221980281917E+03    0.77125E-09    0.00000E+00     1   0.867E-11
 104 F= -.22198028E+03 E0= -.22199676E+03  d E =0.141881E-09
quench:  g(F)=  0.000E+00 g(S)=  0.000E+00 dE (1.order)= 0.000E+00
 bond charge predicted
       N       E                     dE             d eps       ncg     rms          rms(c)
DAV:   1    -0.221980281917E+03    0.58208E-09    0.40377E-11   198   0.131E-10    0.324E-10
RMM:   2    -0.221980281917E+03    0.13461E-09    0.00000E+00     1   0.101E-10
 105 F= -.22198028E+03 E0= -.22199676E+03  d E =-.545697E-10
quench:  g(F)=  0.000E+00 g(S)=  0.000E+00 dE (1.order)= 0.000E+00
 bond charge predicted
       N       E                     dE             d eps       ncg     rms          rms(c)
DAV:   1    -0.221980281916E+03    0.96406E-09   -0.31835E-11   198   0.151E-10    0.406E-10
RMM:   2    -0.221980281917E+03   -0.78944E-09    0.00000E+00     1   0.152E-10
 106 F= -.22198028E+03 E0= -.22199676E+03  d E =0.400178E-10
quench:  g(F)=  0.000E+00 g(S)=  0.000E+00 dE (1.order)= 0.000E+00
 bond charge predicted
       N       E                     dE             d eps       ncg     rms          rms(c)
DAV:   1    -0.221980281917E+03   -0.78944E-09   -0.32291E-11   198   0.235E-10    0.381E-10
RMM:   2    -0.221980281917E+03   -0.69122E-10    0.00000E+00     1   0.152E-10
 107 F= -.22198028E+03 E0= -.22199676E+03  d E =-.691216E-10
quench:  g(F)=  0.000E+00 g(S)=  0.000E+00 dE (1.order)= 0.000E+00
 bond charge predicted
       N       E                     dE             d eps       ncg     rms          rms(c)
DAV:   1    -0.221980281918E+03   -0.62209E-09    0.85065E-12   198   0.213E-10    0.286E-10
RMM:   2    -0.221980281917E+03    0.53114E-09    0.00000E+00     1   0.108E-10
 108 F= -.22198028E+03 E0= -.22199676E+03  d E =-.218279E-10
quench:  g(F)=  0.000E+00 g(S)=  0.000E+00 dE (1.order)= 0.000E+00
 bond charge predicted
       N       E                     dE             d eps       ncg     rms          rms(c)
DAV:   1    -0.221980281917E+03    0.32742E-09   -0.68510E-11   198   0.188E-10    0.292E-10
RMM:   2    -0.221980281917E+03    0.27285E-09    0.00000E+00     1   0.108E-10
 109 F= -.22198028E+03 E0= -.22199676E+03  d E =0.691216E-10
quench:  g(F)=  0.000E+00 g(S)=  0.000E+00 dE (1.order)= 0.000E+00
 bond charge predicted
       N       E                     dE             d eps       ncg     rms          rms(c)
DAV:   1    -0.221980281917E+03    0.49840E-09   -0.44471E-11   198   0.176E-10    0.314E-10
RMM:   2    -0.221980281917E+03   -0.26557E-09    0.00000E+00     1   0.114E-10
 110 F= -.22198028E+03 E0= -.22199676E+03  d E =-.400178E-10
quench:  g(F)=  0.000E+00 g(S)=  0.000E+00 dE (1.order)= 0.000E+00
 bond charge predicted
       N       E                     dE             d eps       ncg     rms          rms(c)
DAV:   1    -0.221980281917E+03   -0.47294E-09    0.59706E-11   198   0.175E-10    0.389E-10
RMM:   2    -0.221980281917E+03    0.27649E-09    0.00000E+00     1   0.155E-10
 111 F= -.22198028E+03 E0= -.22199676E+03  d E =0.691216E-10
quench:  g(F)=  0.000E+00 g(S)=  0.000E+00 dE (1.order)= 0.000E+00
 bond charge predicted
       N       E                     dE             d eps       ncg     rms          rms(c)
DAV:   1    -0.221980281917E+03   -0.11642E-09    0.35042E-12   198   0.257E-10    0.256E-10
RMM:   2    -0.221980281917E+03    0.44383E-09    0.00000E+00     1   0.117E-10
 112 F= -.22198028E+03 E0= -.22199676E+03  d E =0.509317E-10
quench:  g(F)=  0.000E+00 g(S)=  0.000E+00 dE (1.order)= 0.000E+00
 bond charge predicted
       N       E                     dE             d eps       ncg     rms          rms(c)
DAV:   1    -0.221980281917E+03    0.34561E-09    0.20063E-11   198   0.173E-10    0.255E-10
RMM:   2    -0.221980281917E+03    0.90949E-10    0.00000E+00     1   0.103E-10
 113 F= -.22198028E+03 E0= -.22199676E+03  d E =-.727596E-11
quench:  g(F)=  0.000E+00 g(S)=  0.000E+00 dE (1.order)= 0.000E+00
 bond charge predicted
       N       E                     dE             d eps       ncg     rms          rms(c)
DAV:   1    -0.221980281917E+03   -0.21464E-09   -0.43844E-11   198   0.152E-10    0.310E-10
RMM:   2    -0.221980281917E+03    0.32378E-09    0.00000E+00     1   0.128E-10
 114 F= -.22198028E+03 E0= -.22199676E+03  d E =0.181899E-10
quench:  g(F)=  0.000E+00 g(S)=  0.000E+00 dE (1.order)= 0.000E+00
 bond charge predicted
       N       E                     dE             d eps       ncg     rms          rms(c)
DAV:   1    -0.221980281917E+03    0.78580E-09    0.21382E-11   198   0.189E-10    0.236E-10
RMM:   2    -0.221980281917E+03   -0.69122E-09    0.00000E+00     1   0.940E-11
 115 F= -.22198028E+03 E0= -.22199676E+03  d E =-.229193E-09
quench:  g(F)=  0.000E+00 g(S)=  0.000E+00 dE (1.order)= 0.000E+00
 bond charge predicted
       N       E                     dE             d eps       ncg     rms          rms(c)
DAV:   1    -0.221980281917E+03    0.29104E-10    0.51765E-11   198   0.130E-10    0.370E-10
RMM:   2    -0.221980281917E+03   -0.65847E-09    0.00000E+00     1   0.120E-10
 116 F= -.22198028E+03 E0= -.22199676E+03  d E =0.618456E-10
quench:  g(F)=  0.000E+00 g(S)=  0.000E+00 dE (1.order)= 0.000E+00
 bond charge predicted
       N       E                     dE             d eps       ncg     rms          rms(c)
DAV:   1    -0.221980281918E+03   -0.11642E-08    0.12253E-10   198   0.217E-10    0.209E-10
RMM:   2    -0.221980281917E+03    0.60390E-09    0.00000E+00     1   0.899E-11
 117 F= -.22198028E+03 E0= -.22199676E+03  d E =0.982254E-10
quench:  g(F)=  0.000E+00 g(S)=  0.000E+00 dE (1.order)= 0.000E+00
 bond charge predicted
       N       E                     dE             d eps       ncg     rms          rms(c)
DAV:   1    -0.221980281917E+03    0.86948E-09    0.46537E-11   198   0.115E-10    0.443E-10
RMM:   2    -0.221980281917E+03   -0.27285E-09    0.00000E+00     1   0.126E-10
 118 F= -.22198028E+03 E0= -.22199676E+03  d E =-.727596E-11
quench:  g(F)=  0.000E+00 g(S)=  0.000E+00 dE (1.order)= 0.000E+00
 bond charge predicted
       N       E                     dE             d eps       ncg     rms          rms(c)
DAV:   1    -0.221980281916E+03    0.99317E-09   -0.23571E-11   198   0.227E-10    0.321E-10
RMM:   2    -0.221980281917E+03   -0.11860E-08    0.00000E+00     1   0.132E-10
 119 F= -.22198028E+03 E0= -.22199676E+03  d E =0.800355E-10
quench:  g(F)=  0.000E+00 g(S)=  0.000E+00 dE (1.order)= 0.000E+00
 bond charge predicted
       N       E                     dE             d eps       ncg     rms          rms(c)
DAV:   1    -0.221980281918E+03   -0.17244E-08    0.24924E-12   198   0.195E-10    0.327E-10
RMM:   2    -0.221980281917E+03    0.38926E-09    0.00000E+00     1   0.112E-10
 120 F= -.22198028E+03 E0= -.22199676E+03  d E =-.149157E-09
quench:  g(F)=  0.000E+00 g(S)=  0.000E+00 dE (1.order)= 0.000E+00
 bond charge predicted
       N       E                     dE             d eps       ncg     rms          rms(c)
DAV:   1    -0.221980281916E+03    0.10878E-08    0.22827E-11   198   0.157E-10    0.253E-10
RMM:   2    -0.221980281917E+03   -0.69122E-09    0.00000E+00     1   0.994E-11
 121 F= -.22198028E+03 E0= -.22199676E+03  d E =0.727596E-11
quench:  g(F)=  0.000E+00 g(S)=  0.000E+00 dE (1.order)= 0.000E+00
 bond charge predicted
       N       E                     dE             d eps       ncg     rms          rms(c)
DAV:   1    -0.221980281916E+03   -0.10914E-10   -0.16969E-11   198   0.155E-10    0.472E-10
RMM:   2    -0.221980281917E+03   -0.57116E-09    0.00000E+00     1   0.159E-10
 122 F= -.22198028E+03 E0= -.22199676E+03  d E =0.109139E-09
quench:  g(F)=  0.000E+00 g(S)=  0.000E+00 dE (1.order)= 0.000E+00
 bond charge predicted
       N       E                     dE             d eps       ncg     rms          rms(c)
DAV:   1    -0.221980281918E+03   -0.13424E-08   -0.13990E-11   198   0.282E-10    0.481E-10
RMM:   2    -0.221980281917E+03    0.68394E-09    0.00000E+00     0   0.171E-10
 123 F= -.22198028E+03 E0= -.22199676E+03  d E =-.873115E-10
quench:  g(F)=  0.000E+00 g(S)=  0.000E+00 dE (1.order)= 0.000E+00
 bond charge predicted
       N       E                     dE             d eps       ncg     rms          rms(c)
DAV:   1    -0.221980281917E+03    0.88403E-09   -0.12131E-10   198   0.304E-10    0.364E-10
RMM:   2    -0.221980281917E+03   -0.17099E-09    0.00000E+00     0   0.138E-10
 124 F= -.22198028E+03 E0= -.22199676E+03  d E =0.291038E-10
quench:  g(F)=  0.000E+00 g(S)=  0.000E+00 dE (1.order)= 0.000E+00
 bond charge predicted
       N       E                     dE             d eps       ncg     rms          rms(c)
DAV:   1    -0.221980281918E+03   -0.69122E-09    0.30073E-11   198   0.224E-10    0.303E-10
RMM:   2    -0.221980281917E+03    0.54206E-09    0.00000E+00     0   0.121E-10
 125 F= -.22198028E+03 E0= -.22199676E+03  d E =0.218279E-10
quench:  g(F)=  0.000E+00 g(S)=  0.000E+00 dE (1.order)= 0.000E+00
 bond charge predicted
       N       E                     dE             d eps       ncg     rms          rms(c)
DAV:   1    -0.221980281917E+03    0.30923E-09   -0.77820E-11   198   0.196E-10    0.270E-10
RMM:   2    -0.221980281917E+03    0.29104E-09    0.00000E+00     0   0.113E-10
 126 F= -.22198028E+03 E0= -.22199676E+03  d E =0.582077E-10
quench:  g(F)=  0.000E+00 g(S)=  0.000E+00 dE (1.order)= 0.000E+00
 bond charge predicted
       N       E                     dE             d eps       ncg     rms          rms(c)
DAV:   1    -0.221980281917E+03    0.72396E-09   -0.25173E-11   198   0.167E-10    0.277E-10
RMM:   2    -0.221980281917E+03   -0.65120E-09    0.00000E+00     0   0.932E-11
 127 F= -.22198028E+03 E0= -.22199676E+03  d E =-.218279E-09
quench:  g(F)=  0.000E+00 g(S)=  0.000E+00 dE (1.order)= 0.000E+00
 bond charge predicted
       N       E                     dE             d eps       ncg     rms          rms(c)
DAV:   1    -0.221980281917E+03   -0.43656E-10    0.13166E-10   198   0.143E-10    0.398E-10
RMM:   2    -0.221980281917E+03   -0.51659E-09    0.00000E+00     0   0.148E-10
 128 F= -.22198028E+03 E0= -.22199676E+03  d E =0.909495E-10
quench:  g(F)=  0.000E+00 g(S)=  0.000E+00 dE (1.order)= 0.000E+00
 bond charge predicted
       N       E                     dE             d eps       ncg     rms          rms(c)
DAV:   1    -0.221980281917E+03   -0.55297E-09   -0.15364E-10   198   0.210E-10    0.204E-10
RMM:   2    -0.221980281917E+03    0.69122E-10    0.00000E+00     0   0.958E-11
 129 F= -.22198028E+03 E0= -.22199676E+03  d E =0.327418E-10
quench:  g(F)=  0.000E+00 g(S)=  0.000E+00 dE (1.order)= 0.000E+00
 bond charge predicted
       N       E                     dE             d eps       ncg     rms          rms(c)
DAV:   1    -0.221980281916E+03    0.12624E-08    0.81534E-12   198   0.125E-10    0.324E-10
RMM:   2    -0.221980281917E+03   -0.11423E-08    0.00000E+00     0   0.116E-10
 130 F= -.22198028E+03 E0= -.22199676E+03  d E =0.509317E-10
quench:  g(F)=  0.000E+00 g(S)=  0.000E+00 dE (1.order)= 0.000E+00
 bond charge predicted
       N       E                     dE             d eps       ncg     rms          rms(c)
DAV:   1    -0.221980281917E+03   -0.93132E-09    0.99278E-11   198   0.162E-10    0.372E-10
RMM:   2    -0.221980281917E+03   -0.21464E-09    0.00000E+00     0   0.133E-10
 131 F= -.22198028E+03 E0= -.22199676E+03  d E =-.363798E-11
quench:  g(F)=  0.000E+00 g(S)=  0.000E+00 dE (1.order)= 0.000E+00
 bond charge predicted
       N       E                     dE             d eps       ncg     rms          rms(c)
DAV:   1    -0.221980281917E+03   -0.45111E-09   -0.11092E-11   198   0.197E-10    0.162E-10
RMM:   2    -0.221980281917E+03    0.27285E-09    0.00000E+00     0   0.797E-11
 132 F= -.22198028E+03 E0= -.22199676E+03  d E =0.363798E-10
quench:  g(F)=  0.000E+00 g(S)=  0.000E+00 dE (1.order)= 0.000E+00
 bond charge predicted
       N       E                     dE             d eps       ncg     rms          rms(c)
DAV:   1    -0.221980281917E+03    0.37107E-09   -0.11563E-12   198   0.103E-10    0.271E-10
RMM:   2    -0.221980281917E+03   -0.29468E-09    0.00000E+00     0   0.797E-11
 133 F= -.22198028E+03 E0= -.22199676E+03  d E =-.196451E-09
quench:  g(F)=  0.000E+00 g(S)=  0.000E+00 dE (1.order)= 0.000E+00
 bond charge predicted
       N       E                     dE             d eps       ncg     rms          rms(c)
DAV:   1    -0.221980281917E+03    0.80036E-10   -0.14199E-10   198   0.137E-10    0.407E-10
RMM:   2    -0.221980281917E+03   -0.30923E-09    0.00000E+00     0   0.150E-10
 134 F= -.22198028E+03 E0= -.22199676E+03  d E =0.654836E-10
quench:  g(F)=  0.000E+00 g(S)=  0.000E+00 dE (1.order)= 0.000E+00
 bond charge predicted
       N       E                     dE             d eps       ncg     rms          rms(c)
DAV:   1    -0.221980281917E+03   -0.39290E-09   -0.12856E-11   198   0.257E-10    0.317E-10
RMM:   2    -0.221980281917E+03    0.20009E-09    0.00000E+00     0   0.121E-10
 135 F= -.22198028E+03 E0= -.22199676E+03  d E =0.116415E-09
quench:  g(F)=  0.000E+00 g(S)=  0.000E+00 dE (1.order)= 0.000E+00
 bond charge predicted
       N       E                     dE             d eps       ncg     rms          rms(c)
DAV:   1    -0.221980281917E+03    0.13824E-09    0.77762E-11   198   0.199E-10    0.359E-10
RMM:   2    -0.221980281917E+03   -0.54570E-10    0.00000E+00     0   0.123E-10
 136 F= -.22198028E+03 E0= -.22199676E+03  d E =-.116415E-09
quench:  g(F)=  0.000E+00 g(S)=  0.000E+00 dE (1.order)= 0.000E+00
 bond charge predicted
       N       E                     dE             d eps       ncg     rms          rms(c)
DAV:   1    -0.221980281917E+03    0.21100E-09    0.28958E-11   198   0.212E-10    0.375E-10
RMM:   2    -0.221980281917E+03   -0.10914E-09    0.00000E+00     0   0.124E-10
 137 F= -.22198028E+03 E0= -.22199676E+03  d E =0.156433E-09
quench:  g(F)=  0.000E+00 g(S)=  0.000E+00 dE (1.order)= 0.000E+00
 bond charge predicted
       N       E                     dE             d eps       ncg     rms          rms(c)
DAV:   1    -0.221980281916E+03    0.64028E-09   -0.80410E-11   198   0.215E-10    0.295E-10
RMM:   2    -0.221980281917E+03   -0.82946E-09    0.00000E+00     0   0.117E-10
 138 F= -.22198028E+03 E0= -.22199676E+03  d E =-.800355E-10
quench:  g(F)=  0.000E+00 g(S)=  0.000E+00 dE (1.order)= 0.000E+00
 bond charge predicted
       N       E                     dE             d eps       ncg     rms          rms(c)
DAV:   1    -0.221980281917E+03   -0.88403E-09    0.10597E-10   198   0.175E-10    0.205E-10
RMM:   2    -0.221980281917E+03   -0.40018E-10    0.00000E+00     0   0.847E-11
 139 F= -.22198028E+03 E0= -.22199676E+03  d E =-.945874E-10
quench:  g(F)=  0.000E+00 g(S)=  0.000E+00 dE (1.order)= 0.000E+00
 bond charge predicted
       N       E                     dE             d eps       ncg     rms          rms(c)
DAV:   1    -0.221980281918E+03   -0.46930E-09    0.52060E-11   198   0.125E-10    0.223E-10
RMM:   2    -0.221980281917E+03    0.61846E-09    0.00000E+00     0   0.835E-11
 140 F= -.22198028E+03 E0= -.22199676E+03  d E =0.189175E-09
quench:  g(F)=  0.000E+00 g(S)=  0.000E+00 dE (1.order)= 0.000E+00
 bond charge predicted
       N       E                     dE             d eps       ncg     rms          rms(c)
DAV:   1    -0.221980281917E+03    0.89858E-09   -0.96646E-12   198   0.104E-10    0.235E-10
RMM:   2    -0.221980281917E+03   -0.48021E-09    0.00000E+00     0   0.874E-11
 141 F= -.22198028E+03 E0= -.22199676E+03  d E =-.200089E-09
quench:  g(F)=  0.000E+00 g(S)=  0.000E+00 dE (1.order)= 0.000E+00
 bond charge predicted
       N       E                     dE             d eps       ncg     rms          rms(c)
DAV:   1    -0.221980281917E+03   -0.59299E-09   -0.61084E-11   198   0.122E-10    0.241E-10
RMM:   2    -0.221980281917E+03    0.22919E-09    0.00000E+00     0   0.870E-11
 142 F= -.22198028E+03 E0= -.22199676E+03  d E =0.116415E-09
quench:  g(F)=  0.000E+00 g(S)=  0.000E+00 dE (1.order)= 0.000E+00
 bond charge predicted
       N       E                     dE             d eps       ncg     rms          rms(c)
DAV:   1    -0.221980281918E+03   -0.65484E-09    0.41422E-11   198   0.133E-10    0.281E-10
RMM:   2    -0.221980281917E+03    0.78217E-09    0.00000E+00     0   0.981E-11
 143 F= -.22198028E+03 E0= -.22199676E+03  d E =-.101863E-09
quench:  g(F)=  0.000E+00 g(S)=  0.000E+00 dE (1.order)= 0.000E+00
 bond charge predicted
       N       E                     dE             d eps       ncg     rms          rms(c)
DAV:   1    -0.221980281917E+03    0.13097E-08    0.11498E-11   198   0.151E-10    0.297E-10
RMM:   2    -0.221980281917E+03   -0.44383E-09    0.00000E+00     0   0.117E-10
 144 F= -.22198028E+03 E0= -.22199676E+03  d E =0.836735E-10
quench:  g(F)=  0.000E+00 g(S)=  0.000E+00 dE (1.order)= 0.000E+00
 bond charge predicted
       N       E                     dE             d eps       ncg     rms          rms(c)
DAV:   1    -0.221980281917E+03   -0.78944E-09   -0.55483E-12   198   0.163E-10    0.262E-10
RMM:   2    -0.221980281917E+03    0.22919E-09    0.00000E+00     0   0.980E-11
 145 F= -.22198028E+03 E0= -.22199676E+03  d E =-.116415E-09
quench:  g(F)=  0.000E+00 g(S)=  0.000E+00 dE (1.order)= 0.000E+00
 bond charge predicted
       N       E                     dE             d eps       ncg     rms          rms(c)
DAV:   1    -0.221980281917E+03    0.17462E-09    0.49438E-11   198   0.144E-10    0.244E-10
RMM:   2    -0.221980281917E+03    0.72760E-10    0.00000E+00     0   0.929E-11
 146 F= -.22198028E+03 E0= -.22199676E+03  d E =0.181899E-10
quench:  g(F)=  0.000E+00 g(S)=  0.000E+00 dE (1.order)= 0.000E+00
 bond charge predicted
       N       E                     dE             d eps       ncg     rms          rms(c)
DAV:   1    -0.221980281917E+03    0.21100E-09   -0.53347E-11   198   0.136E-10    0.364E-10
RMM:   2    -0.221980281917E+03   -0.10914E-09    0.00000E+00     0   0.122E-10
 147 F= -.22198028E+03 E0= -.22199676E+03  d E =0.291038E-10
quench:  g(F)=  0.000E+00 g(S)=  0.000E+00 dE (1.order)= 0.000E+00
 bond charge predicted
       N       E                     dE             d eps       ncg     rms          rms(c)
DAV:   1    -0.221980281917E+03   -0.36380E-11   -0.57669E-11   198   0.238E-10    0.191E-10
RMM:   2    -0.221980281917E+03   -0.54570E-10    0.00000E+00     0   0.851E-11
 148 F= -.22198028E+03 E0= -.22199676E+03  d E =0.509317E-10
quench:  g(F)=  0.000E+00 g(S)=  0.000E+00 dE (1.order)= 0.000E+00
 bond charge predicted
       N       E                     dE             d eps       ncg     rms          rms(c)
DAV:   1    -0.221980281916E+03    0.98589E-09    0.33566E-11   198   0.109E-10    0.471E-10
RMM:   2    -0.221980281917E+03   -0.10186E-08    0.00000E+00     0   0.163E-10
 149 F= -.22198028E+03 E0= -.22199676E+03  d E =0.218279E-10
quench:  g(F)=  0.000E+00 g(S)=  0.000E+00 dE (1.order)= 0.000E+00
 bond charge predicted
       N       E                     dE             d eps       ncg     rms          rms(c)
DAV:   1    -0.221980281917E+03   -0.85493E-09    0.20630E-10   198   0.276E-10    0.355E-10
RMM:   2    -0.221980281917E+03   -0.13824E-09    0.00000E+00     0   0.113E-10
 150 F= -.22198028E+03 E0= -.22199676E+03  d E =0.254659E-10
quench:  g(F)=  0.000E+00 g(S)=  0.000E+00 dE (1.order)= 0.000E+00
 bond charge predicted
       N       E                     dE             d eps       ncg     rms          rms(c)
DAV:   1    -0.221980281918E+03   -0.11423E-08    0.11603E-10   198   0.173E-10    0.234E-10
RMM:   2    -0.221980281917E+03    0.97862E-09    0.00000E+00     0   0.986E-11
 151 F= -.22198028E+03 E0= -.22199676E+03  d E =-.254659E-10
quench:  g(F)=  0.000E+00 g(S)=  0.000E+00 dE (1.order)= 0.000E+00
 bond charge predicted
       N       E                     dE             d eps       ncg     rms          rms(c)
DAV:   1    -0.221980281918E+03    0.45111E-09    0.78415E-11   198   0.143E-10    0.454E-10
RMM:   2    -0.221980281917E+03    0.53114E-09    0.00000E+00     0   0.164E-10
 152 F= -.22198028E+03 E0= -.22199676E+03  d E =0.363798E-11
quench:  g(F)=  0.000E+00 g(S)=  0.000E+00 dE (1.order)= 0.000E+00
 bond charge predicted
       N       E                     dE             d eps       ncg     rms          rms(c)
DAV:   1    -0.221980281918E+03   -0.87311E-10   -0.38026E-12   198   0.247E-10    0.363E-10
RMM:   2    -0.221980281917E+03    0.59663E-09    0.00000E+00     0   0.129E-10
 153 F= -.22198028E+03 E0= -.22199676E+03  d E =-.218279E-10
quench:  g(F)=  0.000E+00 g(S)=  0.000E+00 dE (1.order)= 0.000E+00
 bond charge predicted
       N       E                     dE             d eps       ncg     rms          rms(c)
DAV:   1    -0.221980281917E+03    0.46930E-09    0.23587E-11   198   0.204E-10    0.240E-10
RMM:   2    -0.221980281917E+03    0.16735E-09    0.00000E+00     0   0.105E-10
 154 F= -.22198028E+03 E0= -.22199676E+03  d E =0.400178E-10
quench:  g(F)=  0.000E+00 g(S)=  0.000E+00 dE (1.order)= 0.000E+00
 bond charge predicted
       N       E                     dE             d eps       ncg     rms          rms(c)
DAV:   1    -0.221980281917E+03    0.21100E-09   -0.48601E-11   198   0.150E-10    0.295E-10
RMM:   2    -0.221980281917E+03   -0.94587E-10    0.00000E+00     0   0.987E-11
 155 F= -.22198028E+03 E0= -.22199676E+03  d E =-.509317E-10
quench:  g(F)=  0.000E+00 g(S)=  0.000E+00 dE (1.order)= 0.000E+00
 bond charge predicted
       N       E                     dE             d eps       ncg     rms          rms(c)
DAV:   1    -0.221980281917E+03   -0.36380E-10   -0.22591E-11   198   0.174E-10    0.196E-10
RMM:   2    -0.221980281917E+03   -0.10914E-09    0.00000E+00     0   0.876E-11
 156 F= -.22198028E+03 E0= -.22199676E+03  d E =-.509317E-10
quench:  g(F)=  0.000E+00 g(S)=  0.000E+00 dE (1.order)= 0.000E+00
 bond charge predicted
       N       E                     dE             d eps       ncg     rms          rms(c)
DAV:   1    -0.221980281916E+03    0.74215E-09   -0.15265E-11   198   0.110E-10    0.361E-10
RMM:   2    -0.221980281917E+03   -0.69485E-09    0.00000E+00     0   0.126E-10
 157 F= -.22198028E+03 E0= -.22199676E+03  d E =0.156433E-09
quench:  g(F)=  0.000E+00 g(S)=  0.000E+00 dE (1.order)= 0.000E+00
 bond charge predicted
       N       E                     dE             d eps       ncg     rms          rms(c)
DAV:   1    -0.221980281917E+03   -0.10186E-08   -0.89707E-11   198   0.208E-10    0.279E-10
RMM:   2    -0.221980281917E+03    0.26193E-09    0.00000E+00     0   0.124E-10
 158 F= -.22198028E+03 E0= -.22199676E+03  d E =-.618456E-10
quench:  g(F)=  0.000E+00 g(S)=  0.000E+00 dE (1.order)= 0.000E+00
 bond charge predicted
       N       E                     dE             d eps       ncg     rms          rms(c)
DAV:   1    -0.221980281916E+03    0.87675E-09   -0.99353E-15   198   0.172E-10    0.256E-10
RMM:   2    -0.221980281917E+03   -0.69849E-09    0.00000E+00     0   0.976E-11
 159 F= -.22198028E+03 E0= -.22199676E+03  d E =-.836735E-10
quench:  g(F)=  0.000E+00 g(S)=  0.000E+00 dE (1.order)= 0.000E+00
 bond charge predicted
       N       E                     dE             d eps       ncg     rms          rms(c)
DAV:   1    -0.221980281918E+03   -0.16116E-08   -0.19102E-11   198   0.130E-10    0.189E-10
RMM:   2    -0.221980281917E+03    0.10332E-08    0.00000E+00     0   0.877E-11
 160 F= -.22198028E+03 E0= -.22199676E+03  d E =0.120053E-09
quench:  g(F)=  0.000E+00 g(S)=  0.000E+00 dE (1.order)= 0.000E+00
 bond charge predicted
       N       E                     dE             d eps       ncg     rms          rms(c)
DAV:   1    -0.221980281918E+03    0.31650E-09   -0.16295E-11   198   0.111E-10    0.245E-10
RMM:   2    -0.221980281917E+03    0.61118E-09    0.00000E+00     0   0.883E-11
 161 F= -.22198028E+03 E0= -.22199676E+03  d E =-.105501E-09
quench:  g(F)=  0.000E+00 g(S)=  0.000E+00 dE (1.order)= 0.000E+00
 bond charge predicted
       N       E                     dE             d eps       ncg     rms          rms(c)
DAV:   1    -0.221980281918E+03   -0.25102E-09   -0.55174E-11   198   0.120E-10    0.300E-10
RMM:   2    -0.221980281917E+03    0.96043E-09    0.00000E+00     0   0.120E-10
 162 F= -.22198028E+03 E0= -.22199676E+03  d E =0.982254E-10
quench:  g(F)=  0.000E+00 g(S)=  0.000E+00 dE (1.order)= 0.000E+00
 bond charge predicted
       N       E                     dE             d eps       ncg     rms          rms(c)
DAV:   1    -0.221980281918E+03    0.38563E-09    0.90442E-12   198   0.209E-10    0.305E-10
RMM:   2    -0.221980281917E+03    0.59663E-09    0.00000E+00     0   0.117E-10
 163 F= -.22198028E+03 E0= -.22199676E+03  d E =0.218279E-10
quench:  g(F)=  0.000E+00 g(S)=  0.000E+00 dE (1.order)= 0.000E+00
 bond charge predicted
       N       E                     dE             d eps       ncg     rms          rms(c)
DAV:   1    -0.221980281918E+03   -0.12733E-09    0.98749E-11   198   0.180E-10    0.287E-10
RMM:   2    -0.221980281917E+03    0.52387E-09    0.00000E+00     0   0.963E-11
 164 F= -.22198028E+03 E0= -.22199676E+03  d E =-.200089E-09
quench:  g(F)=  0.000E+00 g(S)=  0.000E+00 dE (1.order)= 0.000E+00
 bond charge predicted
       N       E                     dE             d eps       ncg     rms          rms(c)
DAV:   1    -0.221980281916E+03    0.15534E-08    0.70503E-11   198   0.165E-10    0.290E-10
RMM:   2    -0.221980281917E+03   -0.95315E-09    0.00000E+00     0   0.106E-10
 165 F= -.22198028E+03 E0= -.22199676E+03  d E =0.763976E-10
quench:  g(F)=  0.000E+00 g(S)=  0.000E+00 dE (1.order)= 0.000E+00
 bond charge predicted
       N       E                     dE             d eps       ncg     rms          rms(c)
DAV:   1    -0.221980281917E+03   -0.97134E-09    0.69135E-11   198   0.149E-10    0.423E-10
RMM:   2    -0.221980281917E+03    0.61846E-10    0.00000E+00     0   0.150E-10
 166 F= -.22198028E+03 E0= -.22199676E+03  d E =0.436557E-10
quench:  g(F)=  0.000E+00 g(S)=  0.000E+00 dE (1.order)= 0.000E+00
 bond charge predicted
       N       E                     dE             d eps       ncg     rms          rms(c)
DAV:   1    -0.221980281917E+03    0.43292E-09    0.81943E-13   198   0.278E-10    0.348E-10
RMM:   2    -0.221980281917E+03   -0.29104E-09    0.00000E+00     0   0.140E-10
 167 F= -.22198028E+03 E0= -.22199676E+03  d E =0.800355E-10
quench:  g(F)=  0.000E+00 g(S)=  0.000E+00 dE (1.order)= 0.000E+00
 bond charge predicted
       N       E                     dE             d eps       ncg     rms          rms(c)
DAV:   1    -0.221980281918E+03   -0.97134E-09    0.48345E-11   198   0.209E-10    0.234E-10
RMM:   2    -0.221980281917E+03    0.67666E-09    0.00000E+00     0   0.875E-11
 168 F= -.22198028E+03 E0= -.22199676E+03  d E =-.363798E-11
quench:  g(F)=  0.000E+00 g(S)=  0.000E+00 dE (1.order)= 0.000E+00
 bond charge predicted
       N       E                     dE             d eps       ncg     rms          rms(c)
DAV:   1    -0.221980281916E+03    0.13279E-08    0.64403E-11   198   0.126E-10    0.305E-10
RMM:   2    -0.221980281917E+03   -0.76398E-09    0.00000E+00     0   0.107E-10
 169 F= -.22198028E+03 E0= -.22199676E+03  d E =-.112777E-09
quench:  g(F)=  0.000E+00 g(S)=  0.000E+00 dE (1.order)= 0.000E+00
 bond charge predicted
       N       E                     dE             d eps       ncg     rms          rms(c)
DAV:   1    -0.221980281918E+03   -0.11532E-08    0.57724E-11   198   0.149E-10    0.256E-10
RMM:   2    -0.221980281917E+03    0.48021E-09    0.00000E+00     0   0.922E-11
 170 F= -.22198028E+03 E0= -.22199676E+03  d E =0.909495E-10
quench:  g(F)=  0.000E+00 g(S)=  0.000E+00 dE (1.order)= 0.000E+00
 bond charge predicted
       N       E                     dE             d eps       ncg     rms          rms(c)
DAV:   1    -0.221980281917E+03    0.32014E-09   -0.24821E-11   198   0.150E-10    0.303E-10
RMM:   2    -0.221980281917E+03    0.21828E-09    0.00000E+00     0   0.937E-11
 171 F= -.22198028E+03 E0= -.22199676E+03  d E =0.582077E-10
quench:  g(F)=  0.000E+00 g(S)=  0.000E+00 dE (1.order)= 0.000E+00
 bond charge predicted
       N       E                     dE             d eps       ncg     rms          rms(c)
DAV:   1    -0.221980281916E+03    0.10405E-08   -0.37527E-11   198   0.129E-10    0.377E-10
RMM:   2    -0.221980281917E+03   -0.11023E-08    0.00000E+00     0   0.130E-10
 172 F= -.22198028E+03 E0= -.22199676E+03  d E =-.280124E-09
quench:  g(F)=  0.000E+00 g(S)=  0.000E+00 dE (1.order)= 0.000E+00
 bond charge predicted
       N       E                     dE             d eps       ncg     rms          rms(c)
DAV:   1    -0.221980281917E+03   -0.70577E-09    0.12419E-10   198   0.217E-10    0.204E-10
RMM:   2    -0.221980281917E+03   -0.18190E-09    0.00000E+00     0   0.925E-11
 173 F= -.22198028E+03 E0= -.22199676E+03  d E =0.214641E-09
quench:  g(F)=  0.000E+00 g(S)=  0.000E+00 dE (1.order)= 0.000E+00
 bond charge predicted
       N       E                     dE             d eps       ncg     rms          rms(c)
DAV:   1    -0.221980281918E+03   -0.11169E-08   -0.34776E-11   198   0.129E-10    0.348E-10
RMM:   2    -0.221980281917E+03    0.85129E-09    0.00000E+00     0   0.141E-10
 174 F= -.22198028E+03 E0= -.22199676E+03  d E =-.836735E-10
quench:  g(F)=  0.000E+00 g(S)=  0.000E+00 dE (1.order)= 0.000E+00
 bond charge predicted
       N       E                     dE             d eps       ncg     rms          rms(c)
DAV:   1    -0.221980281918E+03    0.15643E-09   -0.10319E-10   198   0.212E-10    0.276E-10
RMM:   2    -0.221980281917E+03    0.82218E-09    0.00000E+00     0   0.985E-11
 175 F= -.22198028E+03 E0= -.22199676E+03  d E =0.127329E-09
quench:  g(F)=  0.000E+00 g(S)=  0.000E+00 dE (1.order)= 0.000E+00
 bond charge predicted
       N       E                     dE             d eps       ncg     rms          rms(c)
DAV:   1    -0.221980281917E+03    0.10441E-08   -0.16941E-11   198   0.155E-10    0.284E-10
RMM:   2    -0.221980281917E+03   -0.33833E-09    0.00000E+00     0   0.117E-10
 176 F= -.22198028E+03 E0= -.22199676E+03  d E =-.116415E-09
quench:  g(F)=  0.000E+00 g(S)=  0.000E+00 dE (1.order)= 0.000E+00
 bond charge predicted
       N       E                     dE             d eps       ncg     rms          rms(c)
DAV:   1    -0.221980281918E+03   -0.11023E-08   -0.83023E-13   198   0.184E-10    0.285E-10
RMM:   2    -0.221980281917E+03    0.76761E-09    0.00000E+00     0   0.131E-10
 177 F= -.22198028E+03 E0= -.22199676E+03  d E =0.363798E-11
quench:  g(F)=  0.000E+00 g(S)=  0.000E+00 dE (1.order)= 0.000E+00
 bond charge predicted
       N       E                     dE             d eps       ncg     rms          rms(c)
DAV:   1    -0.221980281917E+03    0.94951E-09    0.19776E-11   198   0.169E-10    0.341E-10
RMM:   2    -0.221980281917E+03   -0.15280E-09    0.00000E+00     0   0.102E-10
 178 F= -.22198028E+03 E0= -.22199676E+03  d E =0.291038E-10
quench:  g(F)=  0.000E+00 g(S)=  0.000E+00 dE (1.order)= 0.000E+00
 bond charge predicted
       N       E                     dE             d eps       ncg     rms          rms(c)
DAV:   1    -0.221980281917E+03    0.23283E-09    0.11236E-10   198   0.154E-10    0.283E-10
RMM:   2    -0.221980281917E+03   -0.50568E-09    0.00000E+00     0   0.962E-11
 179 F= -.22198028E+03 E0= -.22199676E+03  d E =-.120053E-09
quench:  g(F)=  0.000E+00 g(S)=  0.000E+00 dE (1.order)= 0.000E+00
 bond charge predicted
       N       E                     dE             d eps       ncg     rms          rms(c)
DAV:   1    -0.221980281918E+03   -0.97862E-09    0.28311E-11   198   0.113E-10    0.266E-10
RMM:   2    -0.221980281917E+03    0.62573E-09    0.00000E+00     0   0.946E-11
 180 F= -.22198028E+03 E0= -.22199676E+03  d E =0.152795E-09
[...]
 bond charge predicted
       N       E                     dE             d eps       ncg     rms          rms(c)
DAV:   1    -0.221980281917E+03    0.83674E-10    0.61018E-11   198   0.148E-10    0.224E-10
RMM:   2    -0.221980281917E+03   -0.66211E-09    0.00000E+00     0   0.985E-11
 253 F= -.22198028E+03 E0= -.22199676E+03  d E =-.189175E-09
quench:  g(F)=  0.000E+00 g(S)=  0.000E+00 dE (1.order)= 0.000E+00
 bond charge predicted
       N       E                     dE             d eps       ncg     rms          rms(c)
DAV:   1    -0.221980281916E+03    0.26557E-09    0.15398E-11   198   0.150E-10    0.277E-10
RMM:   2    -0.221980281917E+03   -0.86948E-09    0.00000E+00     0   0.115E-10
 254 F= -.22198028E+03 E0= -.22199676E+03  d E =0.582077E-10
quench:  g(F)=  0.000E+00 g(S)=  0.000E+00 dE (1.order)= 0.000E+00
 bond charge predicted
       N       E                     dE             d eps       ncg     rms          rms(c)
DAV:   1    -0.221980281917E+03   -0.68394E-09    0.48717E-11   198   0.165E-10    0.340E-10
RMM:   2    -0.221980281917E+03   -0.98225E-10    0.00000E+00     0   0.130E-10
 255 F= -.22198028E+03 E0= -.22199676E+03  d E =0.873115E-10
quench:  g(F)=  0.000E+00 g(S)=  0.000E+00 dE (1.order)= 0.000E+00
 bond charge predicted
       N       E                     dE             d eps       ncg     rms          rms(c)
DAV:   1    -0.221980281918E+03   -0.57480E-09   -0.83475E-11   198   0.230E-10    0.357E-10
RMM:   2    -0.221980281917E+03    0.52023E-09    0.00000E+00     0   0.135E-10
 256 F= -.22198028E+03 E0= -.22199676E+03  d E =0.436557E-10
quench:  g(F)=  0.000E+00 g(S)=  0.000E+00 dE (1.order)= 0.000E+00
 bond charge predicted
       N       E                     dE             d eps       ncg     rms          rms(c)
DAV:   1    -0.221980281916E+03    0.16335E-08    0.70812E-11   198   0.215E-10    0.290E-10
RMM:   2    -0.221980281917E+03   -0.10878E-08    0.00000E+00     0   0.107E-10
 257 F= -.22198028E+03 E0= -.22199676E+03  d E =0.254659E-10
quench:  g(F)=  0.000E+00 g(S)=  0.000E+00 dE (1.order)= 0.000E+00
 bond charge predicted
       N       E                     dE             d eps       ncg     rms          rms(c)
DAV:   1    -0.221980281917E+03   -0.68030E-09    0.90899E-11   198   0.162E-10    0.379E-10
RMM:   2    -0.221980281917E+03   -0.53842E-09    0.00000E+00     0   0.136E-10
 258 F= -.22198028E+03 E0= -.22199676E+03  d E =-.130967E-09
quench:  g(F)=  0.000E+00 g(S)=  0.000E+00 dE (1.order)= 0.000E+00
 bond charge predicted
       N       E                     dE             d eps       ncg     rms          rms(c)
DAV:   1    -0.221980281917E+03   -0.17826E-09    0.31067E-11   198   0.228E-10    0.297E-10
RMM:   2    -0.221980281917E+03   -0.39290E-09    0.00000E+00     0   0.115E-10
 259 F= -.22198028E+03 E0= -.22199676E+03  d E =-.327418E-10
quench:  g(F)=  0.000E+00 g(S)=  0.000E+00 dE (1.order)= 0.000E+00
 bond charge predicted
       N       E                     dE             d eps       ncg     rms          rms(c)
DAV:   1    -0.221980281917E+03    0.12733E-09   -0.40433E-11   198   0.179E-10    0.263E-10
RMM:   2    -0.221980281917E+03   -0.52751E-09    0.00000E+00     0   0.114E-10
 260 F= -.22198028E+03 E0= -.22199676E+03  d E =-.727596E-11
quench:  g(F)=  0.000E+00 g(S)=  0.000E+00 dE (1.order)= 0.000E+00
 bond charge predicted
       N       E                     dE             d eps       ncg     rms          rms(c)
DAV:   1    -0.221980281917E+03   -0.70213E-09    0.41699E-11   198   0.165E-10    0.310E-10
RMM:   2    -0.221980281917E+03    0.20373E-09    0.00000E+00     0   0.132E-10
 261 F= -.22198028E+03 E0= -.22199676E+03  d E =0.291038E-10
quench:  g(F)=  0.000E+00 g(S)=  0.000E+00 dE (1.order)= 0.000E+00
 bond charge predicted
       N       E                     dE             d eps       ncg     rms          rms(c)
DAV:   1    -0.221980281917E+03    0.47294E-10   -0.83277E-11   198   0.203E-10    0.269E-10
RMM:   2    -0.221980281917E+03    0.13824E-09    0.00000E+00     0   0.109E-10
 262 F= -.22198028E+03 E0= -.22199676E+03  d E =-.181899E-10
quench:  g(F)=  0.000E+00 g(S)=  0.000E+00 dE (1.order)= 0.000E+00
 bond charge predicted
       N       E                     dE             d eps       ncg     rms          rms(c)
DAV:   1    -0.221980281917E+03    0.64028E-09   -0.17439E-11   198   0.151E-10    0.293E-10
RMM:   2    -0.221980281917E+03   -0.55661E-09    0.00000E+00     0   0.886E-11
 263 F= -.22198028E+03 E0= -.22199676E+03  d E =-.545697E-10
quench:  g(F)=  0.000E+00 g(S)=  0.000E+00 dE (1.order)= 0.000E+00
 bond charge predicted
       N       E                     dE             d eps       ncg     rms          rms(c)
DAV:   1    -0.221980281917E+03   -0.80763E-09    0.74725E-11   198   0.157E-10    0.371E-10
RMM:   2    -0.221980281917E+03    0.23647E-09    0.00000E+00     0   0.132E-10
 264 F= -.22198028E+03 E0= -.22199676E+03  d E =-.145519E-10
quench:  g(F)=  0.000E+00 g(S)=  0.000E+00 dE (1.order)= 0.000E+00
 bond charge predicted
       N       E                     dE             d eps       ncg     rms          rms(c)
DAV:   1    -0.221980281917E+03    0.86948E-09   -0.10319E-11   198   0.224E-10    0.241E-10
RMM:   2    -0.221980281917E+03   -0.66575E-09    0.00000E+00     0   0.855E-11
 265 F= -.22198028E+03 E0= -.22199676E+03  d E =-.327418E-10
quench:  g(F)=  0.000E+00 g(S)=  0.000E+00 dE (1.order)= 0.000E+00
 bond charge predicted
       N       E                     dE             d eps       ncg     rms          rms(c)
DAV:   1    -0.221980281917E+03   -0.88767E-09    0.42657E-11   198   0.129E-10    0.332E-10
RMM:   2    -0.221980281917E+03    0.45475E-09    0.00000E+00     0   0.128E-10
 266 F= -.22198028E+03 E0= -.22199676E+03  d E =0.232831E-09
quench:  g(F)=  0.000E+00 g(S)=  0.000E+00 dE (1.order)= 0.000E+00
 bond charge predicted
       N       E                     dE             d eps       ncg     rms          rms(c)
DAV:   1    -0.221980281917E+03    0.84765E-09    0.28883E-11   198   0.198E-10    0.389E-10
RMM:   2    -0.221980281917E+03   -0.51659E-09    0.00000E+00     0   0.151E-10
 267 F= -.22198028E+03 E0= -.22199676E+03  d E =-.123691E-09
quench:  g(F)=  0.000E+00 g(S)=  0.000E+00 dE (1.order)= 0.000E+00
 bond charge predicted
       N       E                     dE             d eps       ncg     rms          rms(c)
DAV:   1    -0.221980281917E+03   -0.58935E-09   -0.52338E-11   198   0.223E-10    0.247E-10
RMM:   2    -0.221980281917E+03    0.19645E-09    0.00000E+00     0   0.920E-11
 268 F= -.22198028E+03 E0= -.22199676E+03  d E =0.123691E-09
quench:  g(F)=  0.000E+00 g(S)=  0.000E+00 dE (1.order)= 0.000E+00
 bond charge predicted
       N       E                     dE             d eps       ncg     rms          rms(c)
DAV:   1    -0.221980281917E+03   -0.12369E-09   -0.32632E-11   198   0.139E-10    0.213E-10
RMM:   2    -0.221980281917E+03    0.18554E-09    0.00000E+00     0   0.806E-11
 269 F= -.22198028E+03 E0= -.22199676E+03  d E =-.134605E-09
quench:  g(F)=  0.000E+00 g(S)=  0.000E+00 dE (1.order)= 0.000E+00
 bond charge predicted
       N       E                     dE             d eps       ncg     rms          rms(c)
DAV:   1    -0.221980281917E+03   -0.76398E-10    0.25268E-11   198   0.973E-11    0.273E-10
RMM:   2    -0.221980281917E+03    0.32378E-09    0.00000E+00     0   0.107E-10
 270 F= -.22198028E+03 E0= -.22199676E+03  d E =0.618456E-10
quench:  g(F)=  0.000E+00 g(S)=  0.000E+00 dE (1.order)= 0.000E+00
 bond charge predicted
       N       E                     dE             d eps       ncg     rms          rms(c)
DAV:   1    -0.221980281917E+03    0.65847E-09   -0.22309E-11   198   0.166E-10    0.254E-10
RMM:   2    -0.221980281917E+03   -0.46202E-09    0.00000E+00     0   0.994E-11
 271 F= -.22198028E+03 E0= -.22199676E+03  d E =-.127329E-09
quench:  g(F)=  0.000E+00 g(S)=  0.000E+00 dE (1.order)= 0.000E+00
 bond charge predicted
       N       E                     dE             d eps       ncg     rms          rms(c)
DAV:   1    -0.221980281917E+03   -0.25830E-09    0.55736E-11   198   0.127E-10    0.300E-10
RMM:   2    -0.221980281917E+03    0.29104E-10    0.00000E+00     0   0.121E-10
 272 F= -.22198028E+03 E0= -.22199676E+03  d E =0.232831E-09
quench:  g(F)=  0.000E+00 g(S)=  0.000E+00 dE (1.order)= 0.000E+00
 bond charge predicted
       N       E                     dE             d eps       ncg     rms          rms(c)
DAV:   1    -0.221980281917E+03    0.27285E-09    0.14829E-11   198   0.177E-10    0.428E-10
RMM:   2    -0.221980281917E+03   -0.36380E-09    0.00000E+00     0   0.154E-10
 273 F= -.22198028E+03 E0= -.22199676E+03  d E =-.120053E-09
quench:  g(F)=  0.000E+00 g(S)=  0.000E+00 dE (1.order)= 0.000E+00
 bond charge predicted
       N       E                     dE             d eps       ncg     rms          rms(c)
DAV:   1    -0.221980281918E+03   -0.15316E-08   -0.76408E-12   198   0.222E-10    0.331E-10
RMM:   2    -0.221980281917E+03    0.11241E-08    0.00000E+00     0   0.138E-10
 274 F= -.22198028E+03 E0= -.22199676E+03  d E =-.436557E-10
quench:  g(F)=  0.000E+00 g(S)=  0.000E+00 dE (1.order)= 0.000E+00
 bond charge predicted
       N       E                     dE             d eps       ncg     rms          rms(c)
DAV:   1    -0.221980281917E+03    0.13897E-08    0.16671E-11   198   0.210E-10    0.322E-10
RMM:   2    -0.221980281917E+03   -0.29831E-09    0.00000E+00     0   0.102E-10
 275 F= -.22198028E+03 E0= -.22199676E+03  d E =-.327418E-10
quench:  g(F)=  0.000E+00 g(S)=  0.000E+00 dE (1.order)= 0.000E+00
 bond charge predicted
       N       E                     dE             d eps       ncg     rms          rms(c)
DAV:   1    -0.221980281917E+03    0.29468E-09    0.53758E-11   198   0.153E-10    0.240E-10
RMM:   2    -0.221980281917E+03   -0.56752E-09    0.00000E+00     0   0.103E-10
 276 F= -.22198028E+03 E0= -.22199676E+03  d E =0.254659E-10
quench:  g(F)=  0.000E+00 g(S)=  0.000E+00 dE (1.order)= 0.000E+00
 bond charge predicted
       N       E                     dE             d eps       ncg     rms          rms(c)
DAV:   1    -0.221980281917E+03   -0.79308E-09   -0.11364E-11   198   0.148E-10    0.227E-10
RMM:   2    -0.221980281917E+03    0.37107E-09    0.00000E+00     0   0.963E-11
 277 F= -.22198028E+03 E0= -.22199676E+03  d E =0.145519E-09
quench:  g(F)=  0.000E+00 g(S)=  0.000E+00 dE (1.order)= 0.000E+00
 bond charge predicted
       N       E                     dE             d eps       ncg     rms          rms(c)
DAV:   1    -0.221980281916E+03    0.12733E-08    0.10855E-11   198   0.144E-10    0.342E-10
RMM:   2    -0.221980281917E+03   -0.96406E-09    0.00000E+00     0   0.133E-10
 278 F= -.22198028E+03 E0= -.22199676E+03  d E =-.618456E-10
quench:  g(F)=  0.000E+00 g(S)=  0.000E+00 dE (1.order)= 0.000E+00
 bond charge predicted
       N       E                     dE             d eps       ncg     rms          rms(c)
DAV:   1    -0.221980281916E+03    0.16371E-09    0.10613E-12   198   0.193E-10    0.431E-10
RMM:   2    -0.221980281917E+03   -0.11605E-08    0.00000E+00     0   0.160E-10
 279 F= -.22198028E+03 E0= -.22199676E+03  d E =-.327418E-10
quench:  g(F)=  0.000E+00 g(S)=  0.000E+00 dE (1.order)= 0.000E+00
 bond charge predicted
       N       E                     dE             d eps       ncg     rms          rms(c)
DAV:   1    -0.221980281917E+03   -0.10259E-08   -0.86631E-11   198   0.277E-10    0.258E-10
RMM:   2    -0.221980281917E+03   -0.25830E-09    0.00000E+00     0   0.115E-10
 280 F= -.22198028E+03 E0= -.22199676E+03  d E =-.123691E-09
quench:  g(F)=  0.000E+00 g(S)=  0.000E+00 dE (1.order)= 0.000E+00
 bond charge predicted
       N       E                     dE             d eps       ncg     rms          rms(c)
DAV:   1    -0.221980281917E+03   -0.36380E-10    0.76029E-11   198   0.143E-10    0.298E-10
RMM:   2    -0.221980281917E+03   -0.94587E-10    0.00000E+00     0   0.120E-10
 281 F= -.22198028E+03 E0= -.22199676E+03  d E =0.127329E-09
quench:  g(F)=  0.000E+00 g(S)=  0.000E+00 dE (1.order)= 0.000E+00
 bond charge predicted
       N       E                     dE             d eps       ncg     rms          rms(c)
DAV:   1    -0.221980281918E+03   -0.62573E-09    0.73512E-11   198   0.161E-10    0.281E-10
RMM:   2    -0.221980281917E+03    0.44383E-09    0.00000E+00     0   0.991E-11
 282 F= -.22198028E+03 E0= -.22199676E+03  d E =-.873115E-10
quench:  g(F)=  0.000E+00 g(S)=  0.000E+00 dE (1.order)= 0.000E+00
 bond charge predicted
       N       E                     dE             d eps       ncg     rms          rms(c)
DAV:   1    -0.221980281917E+03    0.40018E-09    0.16271E-12   198   0.154E-10    0.263E-10
RMM:   2    -0.221980281917E+03    0.21464E-09    0.00000E+00     0   0.889E-11
 283 F= -.22198028E+03 E0= -.22199676E+03  d E =0.170985E-09
quench:  g(F)=  0.000E+00 g(S)=  0.000E+00 dE (1.order)= 0.000E+00
 bond charge predicted
       N       E                     dE             d eps       ncg     rms          rms(c)
DAV:   1    -0.221980281917E+03    0.48749E-09   -0.10633E-11   198   0.120E-10    0.409E-10
RMM:   2    -0.221980281917E+03   -0.33469E-09    0.00000E+00     0   0.132E-10
 284 F= -.22198028E+03 E0= -.22199676E+03  d E =-.618456E-10
quench:  g(F)=  0.000E+00 g(S)=  0.000E+00 dE (1.order)= 0.000E+00
 bond charge predicted
       N       E                     dE             d eps       ncg     rms          rms(c)
DAV:   1    -0.221980281918E+03   -0.91677E-09   -0.10410E-10   198   0.226E-10    0.392E-10
RMM:   2    -0.221980281917E+03    0.46930E-09    0.00000E+00     0   0.142E-10
 285 F= -.22198028E+03 E0= -.22199676E+03  d E =-.112777E-09
quench:  g(F)=  0.000E+00 g(S)=  0.000E+00 dE (1.order)= 0.000E+00
 bond charge predicted
       N       E                     dE             d eps       ncg     rms          rms(c)
DAV:   1    -0.221980281917E+03    0.41473E-09   -0.54540E-11   198   0.254E-10    0.312E-10
RMM:   2    -0.221980281917E+03    0.12369E-09    0.00000E+00     0   0.129E-10
 286 F= -.22198028E+03 E0= -.22199676E+03  d E =0.691216E-10
quench:  g(F)=  0.000E+00 g(S)=  0.000E+00 dE (1.order)= 0.000E+00
 bond charge predicted
       N       E                     dE             d eps       ncg     rms          rms(c)
DAV:   1    -0.221980281917E+03    0.34561E-09    0.18532E-10   198   0.201E-10    0.501E-10
RMM:   2    -0.221980281917E+03   -0.16735E-09    0.00000E+00     0   0.190E-10
 287 F= -.22198028E+03 E0= -.22199676E+03  d E =0.545697E-10
quench:  g(F)=  0.000E+00 g(S)=  0.000E+00 dE (1.order)= 0.000E+00
 bond charge predicted
       N       E                     dE             d eps       ncg     rms          rms(c)
DAV:   1    -0.221980281917E+03   -0.21828E-10   -0.47934E-11   198   0.324E-10    0.428E-10
RMM:   2    -0.221980281917E+03   -0.98225E-10    0.00000E+00     0   0.154E-10
 288 F= -.22198028E+03 E0= -.22199676E+03  d E =0.472937E-10
quench:  g(F)=  0.000E+00 g(S)=  0.000E+00 dE (1.order)= 0.000E+00
 bond charge predicted
       N       E                     dE             d eps       ncg     rms          rms(c)
DAV:   1    -0.221980281918E+03   -0.98225E-09    0.12454E-10   198   0.242E-10    0.249E-10
RMM:   2    -0.221980281917E+03    0.76761E-09    0.00000E+00     0   0.100E-10
 289 F= -.22198028E+03 E0= -.22199676E+03  d E =-.116415E-09
quench:  g(F)=  0.000E+00 g(S)=  0.000E+00 dE (1.order)= 0.000E+00
 bond charge predicted
       N       E                     dE             d eps       ncg     rms          rms(c)
DAV:   1    -0.221980281918E+03    0.26921E-09   -0.74525E-12   198   0.181E-10    0.197E-10
RMM:   2    -0.221980281917E+03    0.44383E-09    0.00000E+00     0   0.856E-11
 290 F= -.22198028E+03 E0= -.22199676E+03  d E =-.545697E-10
quench:  g(F)=  0.000E+00 g(S)=  0.000E+00 dE (1.order)= 0.000E+00
 bond charge predicted
       N       E                     dE             d eps       ncg     rms          rms(c)
DAV:   1    -0.221980281918E+03   -0.29468E-09    0.72842E-11   198   0.128E-10    0.353E-10
RMM:   2    -0.221980281917E+03    0.90586E-09    0.00000E+00     0   0.128E-10
 291 F= -.22198028E+03 E0= -.22199676E+03  d E =0.167347E-09
quench:  g(F)=  0.000E+00 g(S)=  0.000E+00 dE (1.order)= 0.000E+00
 bond charge predicted
       N       E                     dE             d eps       ncg     rms          rms(c)
DAV:   1    -0.221980281917E+03    0.91313E-09   -0.16101E-11   198   0.246E-10    0.201E-10
RMM:   2    -0.221980281917E+03   -0.13097E-09    0.00000E+00     0   0.910E-11
 292 F= -.22198028E+03 E0= -.22199676E+03  d E =-.123691E-09
quench:  g(F)=  0.000E+00 g(S)=  0.000E+00 dE (1.order)= 0.000E+00
 bond charge predicted
       N       E                     dE             d eps       ncg     rms          rms(c)
DAV:   1    -0.221980281917E+03   -0.43656E-10    0.81352E-11   198   0.126E-10    0.238E-10
RMM:   2    -0.221980281917E+03   -0.10550E-09    0.00000E+00     0   0.986E-11
 293 F= -.22198028E+03 E0= -.22199676E+03  d E =-.181899E-10
quench:  g(F)=  0.000E+00 g(S)=  0.000E+00 dE (1.order)= 0.000E+00
 bond charge predicted
       N       E                     dE             d eps       ncg     rms          rms(c)
DAV:   1    -0.221980281917E+03   -0.40018E-10   -0.34734E-11   198   0.114E-10    0.275E-10
RMM:   2    -0.221980281917E+03   -0.47294E-10    0.00000E+00     0   0.117E-10
 294 F= -.22198028E+03 E0= -.22199676E+03  d E =0.181899E-10
quench:  g(F)=  0.000E+00 g(S)=  0.000E+00 dE (1.order)= 0.000E+00
 bond charge predicted
       N       E                     dE             d eps       ncg     rms          rms(c)
DAV:   1    -0.221980281916E+03    0.85129E-09   -0.74183E-11   198   0.153E-10    0.285E-10
RMM:   2    -0.221980281917E+03   -0.83310E-09    0.00000E+00     0   0.987E-11
 295 F= -.22198028E+03 E0= -.22199676E+03  d E =0.654836E-10
quench:  g(F)=  0.000E+00 g(S)=  0.000E+00 dE (1.order)= 0.000E+00
 bond charge predicted
       N       E                     dE             d eps       ncg     rms          rms(c)
DAV:   1    -0.221980281917E+03   -0.88403E-09   -0.70727E-11   198   0.148E-10    0.277E-10
RMM:   2    -0.221980281917E+03    0.00000E+00    0.00000E+00     0   0.118E-10
 296 F= -.22198028E+03 E0= -.22199676E+03  d E =-.509317E-10
quench:  g(F)=  0.000E+00 g(S)=  0.000E+00 dE (1.order)= 0.000E+00
 bond charge predicted
       N       E                     dE             d eps       ncg     rms          rms(c)
DAV:   1    -0.221980281917E+03    0.13461E-09    0.15499E-11   198   0.168E-10    0.361E-10
RMM:   2    -0.221980281917E+03   -0.58208E-10    0.00000E+00     0   0.122E-10
 297 F= -.22198028E+03 E0= -.22199676E+03  d E =0.763976E-10
quench:  g(F)=  0.000E+00 g(S)=  0.000E+00 dE (1.order)= 0.000E+00
 bond charge predicted
       N       E                     dE             d eps       ncg     rms          rms(c)
DAV:   1    -0.221980281917E+03   -0.18190E-10    0.90563E-12   198   0.212E-10    0.295E-10
RMM:   2    -0.221980281917E+03   -0.61846E-10    0.00000E+00     0   0.121E-10
 298 F= -.22198028E+03 E0= -.22199676E+03  d E =-.218279E-10
quench:  g(F)=  0.000E+00 g(S)=  0.000E+00 dE (1.order)= 0.000E+00
 bond charge predicted
       N       E                     dE             d eps       ncg     rms          rms(c)
DAV:   1    -0.221980281918E+03   -0.58208E-09   -0.59931E-11   198   0.171E-10    0.173E-10
RMM:   2    -0.221980281917E+03    0.40745E-09    0.00000E+00     0   0.816E-11
 299 F= -.22198028E+03 E0= -.22199676E+03  d E =-.112777E-09
quench:  g(F)=  0.000E+00 g(S)=  0.000E+00 dE (1.order)= 0.000E+00
 bond charge predicted
       N       E                     dE             d eps       ncg     rms          rms(c)
DAV:   1    -0.221980281916E+03    0.12988E-08    0.57052E-11   198   0.111E-10    0.255E-10
RMM:   2    -0.221980281917E+03   -0.85493E-09    0.00000E+00     0   0.973E-11
 300 F= -.22198028E+03 E0= -.22199676E+03  d E =0.363798E-10
quench:  g(F)=  0.000E+00 g(S)=  0.000E+00 dE (1.order)= 0.000E+00
