  30  30   0   0
  0.2507291E+02  0.6808989E-09  0.6808989E-09  0.1783690E-08  0.1500000E-16
   1.0000000000000000E-004
  CAR 
 unknown system                          
     10.01849438    -21.93551580  301      2.46935948      1.00000000
    -21.936  0.0000E+00  0.0000E+00
    -21.829  0.0000E+00  0.0000E+00
    -21.722  0.0000E+00  0.0000E+00
    -21.616  0.0000E+00  0.0000E+00
    -21.509  0.0000E+00  0.0000E+00
    -21.403  0.0000E+00  0.0000E+00
    -21.296  0.0000E+00  0.0000E+00
    -21.190  0.0000E+00  0.0000E+00
    -21.083  0.0000E+00  0.0000E+00
    -20.977  0.0000E+00  0.0000E+00
    -20.870  0.0000E+00  0.0000E+00
    -20.764  0.5251E-16  0.5593E-17
    -20.657  0.2512E-07  0.2675E-08
    -20.551  0.2600E-02  0.2769E-03
    -20.444  0.2606E+00  0.2803E-01
    -20.338  0.3003E+00  0.6002E-01
    -20.231  0.4064E-02  0.6045E-01
    -20.125  0.2566E-01  0.6319E-01
    -20.018  0.3910E+00  0.1048E+00
    -19.912  0.1507E+00  0.1209E+00
    -19.805  0.2810E-03  0.1209E+00
    -19.699  0.2264E-09  0.1209E+00
    -19.592  0.0000E+00  0.1209E+00
    -19.486  0.0000E+00  0.1209E+00
    -19.379  0.0000E+00  0.1209E+00
    -19.273  0.0000E+00  0.1209E+00
    -19.166  0.0000E+00  0.1209E+00
    -19.060  0.0000E+00  0.1209E+00
    -18.953  0.1365E-10  0.1209E+00
    -18.847  0.4694E-04  0.1209E+00
    -18.740  0.7613E-01  0.1290E+00
    -18.634  0.7497E+00  0.2089E+00
    -18.527  0.5389E+00  0.2663E+00
    -18.421  0.5418E-01  0.2720E+00
    -18.314  0.3681E-04  0.2720E+00
    -18.208  0.7699E-11  0.2720E+00
    -18.101  0.0000E+00  0.2720E+00
    -17.995  0.0000E+00  0.2720E+00
    -17.888  0.0000E+00  0.2720E+00
    -17.781  0.0000E+00  0.2720E+00
    -17.675  0.0000E+00  0.2720E+00
    -17.568  0.0000E+00  0.2720E+00
    -17.462  0.0000E+00  0.2720E+00
    -17.355  0.0000E+00  0.2720E+00
    -17.249  0.0000E+00  0.2720E+00
    -17.142  0.0000E+00  0.2720E+00
    -17.036  0.0000E+00  0.2720E+00
    -16.929  0.0000E+00  0.2720E+00
    -16.823  0.0000E+00  0.2720E+00
    -16.716  0.0000E+00  0.2720E+00
    -16.610  0.0000E+00  0.2720E+00
    -16.503  0.0000E+00  0.2720E+00
    -16.397  0.0000E+00  0.2720E+00
    -16.290  0.0000E+00  0.2720E+00
    -16.184  0.0000E+00  0.2720E+00
    -16.077  0.0000E+00  0.2720E+00
    -15.971  0.0000E+00  0.2720E+00
    -15.864  0.0000E+00  0.2720E+00
    -15.758  0.0000E+00  0.2720E+00
    -15.651  0.0000E+00  0.2720E+00
    -15.545  0.0000E+00  0.2720E+00
    -15.438  0.0000E+00  0.2720E+00
    -15.332  0.0000E+00  0.2720E+00
    -15.225  0.0000E+00  0.2720E+00
    -15.119  0.0000E+00  0.2720E+00
    -15.012  0.0000E+00  0.2720E+00
    -14.906  0.0000E+00  0.2720E+00
    -14.799  0.0000E+00  0.2720E+00
    -14.693  0.0000E+00  0.2720E+00
    -14.586  0.0000E+00  0.2720E+00
    -14.480  0.0000E+00  0.2720E+00
    -14.373  0.0000E+00  0.2720E+00
    -14.267  0.0000E+00  0.2720E+00
    -14.160  0.0000E+00  0.2720E+00
    -14.054  0.0000E+00  0.2720E+00
    -13.947  0.0000E+00  0.2720E+00
    -13.840  0.0000E+00  0.2720E+00
    -13.734  0.0000E+00  0.2720E+00
    -13.627  0.0000E+00  0.2720E+00
    -13.521  0.0000E+00  0.2720E+00
    -13.414  0.0000E+00  0.2720E+00
    -13.308  0.0000E+00  0.2720E+00
    -13.201  0.0000E+00  0.2720E+00
    -13.095  0.0000E+00  0.2720E+00
    -12.988  0.0000E+00  0.2720E+00
    -12.882  0.0000E+00  0.2720E+00
    -12.775  0.0000E+00  0.2720E+00
    -12.669  0.0000E+00  0.2720E+00
    -12.562  0.0000E+00  0.2720E+00
    -12.456  0.0000E+00  0.2720E+00
    -12.349  0.0000E+00  0.2720E+00
    -12.243  0.0000E+00  0.2720E+00
    -12.136  0.0000E+00  0.2720E+00
    -12.030  0.0000E+00  0.2720E+00
    -11.923  0.0000E+00  0.2720E+00
    -11.817  0.0000E+00  0.2720E+00
    -11.710  0.0000E+00  0.2720E+00
    -11.604  0.0000E+00  0.2720E+00
    -11.497  0.0000E+00  0.2720E+00
    -11.391  0.0000E+00  0.2720E+00
    -11.284  0.0000E+00  0.2720E+00
    -11.178  0.0000E+00  0.2720E+00
    -11.071  0.0000E+00  0.2720E+00
    -10.965  0.0000E+00  0.2720E+00
    -10.858  0.0000E+00  0.2720E+00
    -10.752  0.4458E-10  0.2720E+00
    -10.645  0.2259E-04  0.2720E+00
    -10.539  0.3490E-02  0.2724E+00
    -10.432  0.1824E-01  0.2744E+00
    -10.326  0.1453E-01  0.2759E+00
    -10.219  0.3706E-01  0.2799E+00
    -10.113  0.1613E-01  0.2816E+00
    -10.006  0.1169E-01  0.2828E+00
     -9.900  0.3630E-01  0.2867E+00
     -9.793  0.5086E-02  0.2872E+00
     -9.686  0.1701E-01  0.2890E+00
     -9.580  0.3603E-01  0.2929E+00
     -9.473  0.1435E-01  0.2944E+00
     -9.367  0.3376E-01  0.2980E+00
     -9.260  0.1371E-01  0.2995E+00
     -9.154  0.2639E-01  0.3023E+00
     -9.047  0.8454E-01  0.3113E+00
     -8.941  0.5273E-01  0.3169E+00
     -8.834  0.4707E-01  0.3219E+00
     -8.728  0.4687E-01  0.3269E+00
     -8.621  0.6270E-01  0.3336E+00
     -8.515  0.8123E-01  0.3422E+00
     -8.408  0.8699E-01  0.3515E+00
     -8.302  0.1080E-01  0.3526E+00
     -8.195  0.2596E-04  0.3526E+00
     -8.089  0.3037E-10  0.3526E+00
     -7.982  0.0000E+00  0.3526E+00
     -7.876  0.0000E+00  0.3526E+00
     -7.769  0.0000E+00  0.3526E+00
     -7.663  0.0000E+00  0.3526E+00
     -7.556  0.0000E+00  0.3526E+00
     -7.450  0.0000E+00  0.3526E+00
     -7.343  0.0000E+00  0.3526E+00
     -7.237  0.0000E+00  0.3526E+00
     -7.130  0.0000E+00  0.3526E+00
     -7.024  0.0000E+00  0.3526E+00
     -6.917  0.0000E+00  0.3526E+00
     -6.811  0.0000E+00  0.3526E+00
     -6.704  0.0000E+00  0.3526E+00
     -6.598  0.0000E+00  0.3526E+00
     -6.491  0.0000E+00  0.3526E+00
     -6.385  0.0000E+00  0.3526E+00
     -6.278  0.0000E+00  0.3526E+00
     -6.172  0.0000E+00  0.3526E+00
     -6.065  0.0000E+00  0.3526E+00
     -5.959  0.0000E+00  0.3526E+00
     -5.852  0.0000E+00  0.3526E+00
     -5.745  0.0000E+00  0.3526E+00
     -5.639  0.0000E+00  0.3526E+00
     -5.532  0.0000E+00  0.3526E+00
     -5.426  0.0000E+00  0.3526E+00
     -5.319  0.0000E+00  0.3526E+00
     -5.213  0.0000E+00  0.3526E+00
     -5.106  0.0000E+00  0.3526E+00
     -5.000  0.1081E-13  0.3526E+00
     -4.893  0.2403E-06  0.3526E+00
     -4.787  0.1528E-02  0.3528E+00
     -4.680  0.2175E-01  0.3551E+00
     -4.574  0.3497E-02  0.3555E+00
     -4.467  0.6494E-02  0.3562E+00
     -4.361  0.1046E-01  0.3573E+00
     -4.254  0.2027E-01  0.3595E+00
     -4.148  0.2011E-01  0.3616E+00
     -4.041  0.9991E-02  0.3627E+00
     -3.935  0.1013E-01  0.3637E+00
     -3.828  0.1898E-01  0.3658E+00
     -3.722  0.1788E-01  0.3677E+00
     -3.615  0.3061E-02  0.3680E+00
     -3.509  0.2133E-01  0.3703E+00
     -3.402  0.2223E-01  0.3726E+00
     -3.296  0.3493E-01  0.3764E+00
     -3.189  0.1424E-01  0.3779E+00
     -3.083  0.1285E-01  0.3792E+00
     -2.976  0.1046E-01  0.3804E+00
     -2.870  0.2327E-01  0.3828E+00
     -2.763  0.3132E-03  0.3829E+00
     -2.657  0.1557E-08  0.3829E+00
     -2.550  0.0000E+00  0.3829E+00
     -2.444  0.0000E+00  0.3829E+00
     -2.337  0.0000E+00  0.3829E+00
     -2.231  0.0000E+00  0.3829E+00
     -2.124  0.0000E+00  0.3829E+00
     -2.018  0.7293E-17  0.3829E+00
     -1.911  0.2703E-08  0.3829E+00
     -1.804  0.1603E-03  0.3829E+00
     -1.698  0.4427E-02  0.3834E+00
     -1.591  0.3066E-02  0.3837E+00
     -1.485  0.2187E-01  0.3860E+00
     -1.378  0.2025E-01  0.3882E+00
     -1.272  0.4791E-01  0.3933E+00
     -1.165  0.4097E-01  0.3976E+00
     -1.059  0.3131E-01  0.4010E+00
     -0.952  0.5021E-01  0.4063E+00
     -0.846  0.2488E-01  0.4090E+00
     -0.739  0.4632E-01  0.4139E+00
     -0.633  0.6182E-01  0.4205E+00
     -0.526  0.3841E-01  0.4246E+00
     -0.420  0.2640E-01  0.4274E+00
     -0.313  0.4640E-01  0.4323E+00
     -0.207  0.5018E-01  0.4377E+00
     -0.100  0.4300E-01  0.4423E+00
      0.006  0.6147E-01  0.4488E+00
      0.113  0.5202E-01  0.4544E+00
      0.219  0.4530E-01  0.4592E+00
      0.326  0.4021E-01  0.4635E+00
      0.432  0.5079E-01  0.4689E+00
      0.539  0.2516E-01  0.4715E+00
      0.645  0.1585E-01  0.4732E+00
      0.752  0.4674E-01  0.4782E+00
      0.858  0.5797E-01  0.4844E+00
      0.965  0.5982E-01  0.4908E+00
      1.071  0.7272E-01  0.4985E+00
      1.178  0.9376E-01  0.5085E+00
      1.284  0.4681E-01  0.5135E+00
      1.391  0.7409E-01  0.5214E+00
      1.497  0.8965E-01  0.5309E+00
      1.604  0.1016E+00  0.5417E+00
      1.710  0.9228E-01  0.5516E+00
      1.817  0.9228E-01  0.5614E+00
      1.923  0.7691E-01  0.5696E+00
      2.030  0.7715E-01  0.5778E+00
      2.137  0.1107E+00  0.5896E+00
      2.243  0.4118E-01  0.5940E+00
      2.350  0.4483E-02  0.5945E+00
      2.456  0.1202E-05  0.5945E+00
      2.563  0.6685E-13  0.5945E+00
      2.669  0.0000E+00  0.5945E+00
      2.776  0.0000E+00  0.5945E+00
      2.882  0.0000E+00  0.5945E+00
      2.989  0.0000E+00  0.5945E+00
      3.095  0.0000E+00  0.5945E+00
      3.202  0.0000E+00  0.5945E+00
      3.308  0.0000E+00  0.5945E+00
      3.415  0.0000E+00  0.5945E+00
      3.521  0.0000E+00  0.5945E+00
      3.628  0.1130E-13  0.5945E+00
      3.734  0.2383E-06  0.5945E+00
      3.841  0.9648E-03  0.5946E+00
      3.947  0.4199E-02  0.5950E+00
      4.054  0.9138E-04  0.5950E+00
      4.160  0.9712E-03  0.5951E+00
      4.267  0.1857E-01  0.5971E+00
      4.373  0.1756E-01  0.5990E+00
      4.480  0.1976E-01  0.6011E+00
      4.586  0.3195E-01  0.6045E+00
      4.693  0.3364E-01  0.6081E+00
      4.799  0.2360E-01  0.6106E+00
      4.906  0.2948E-01  0.6137E+00
      5.012  0.4528E-01  0.6185E+00
      5.119  0.4293E-01  0.6231E+00
      5.225  0.9535E-02  0.6241E+00
      5.332  0.3207E-02  0.6245E+00
      5.438  0.2037E-02  0.6247E+00
      5.545  0.2567E-05  0.6247E+00
      5.651  0.7347E-12  0.6247E+00
      5.758  0.0000E+00  0.6247E+00
      5.864  0.2211E-15  0.6247E+00
      5.971  0.2246E-07  0.6247E+00
      6.077  0.3950E-03  0.6247E+00
      6.184  0.4560E-02  0.6252E+00
      6.291  0.8744E-02  0.6261E+00
      6.397  0.5141E-01  0.6316E+00
      6.504  0.3340E-01  0.6352E+00
      6.610  0.2696E-01  0.6380E+00
      6.717  0.4208E-01  0.6425E+00
      6.823  0.5491E-01  0.6484E+00
      6.930  0.5050E-01  0.6538E+00
      7.036  0.4839E-01  0.6589E+00
      7.143  0.4194E-01  0.6634E+00
      7.249  0.6284E-01  0.6701E+00
      7.356  0.4771E-01  0.6752E+00
      7.462  0.1215E-01  0.6764E+00
      7.569  0.4624E-01  0.6814E+00
      7.675  0.6788E-01  0.6886E+00
      7.782  0.6164E-01  0.6952E+00
      7.888  0.6475E-01  0.7021E+00
      7.995  0.4488E-01  0.7068E+00
      8.101  0.3585E-01  0.7107E+00
      8.208  0.6305E-01  0.7174E+00
      8.314  0.4491E-01  0.7222E+00
      8.421  0.2161E-01  0.7245E+00
      8.527  0.4625E-02  0.7250E+00
      8.634  0.4394E-02  0.7254E+00
      8.740  0.1451E-03  0.7254E+00
      8.847  0.2163E-08  0.7254E+00
      8.953  0.5251E-17  0.7254E+00
      9.060  0.0000E+00  0.7254E+00
      9.166  0.0000E+00  0.7254E+00
      9.273  0.0000E+00  0.7254E+00
      9.379  0.0000E+00  0.7254E+00
      9.486  0.0000E+00  0.7254E+00
      9.592  0.0000E+00  0.7254E+00
      9.699  0.0000E+00  0.7254E+00
      9.805  0.0000E+00  0.7254E+00
      9.912  0.0000E+00  0.7254E+00
     10.018  0.0000E+00  0.7254E+00
