       N       E                     dE             d eps       ncg     rms          rms(c)
DAV:   1     0.412727244170E+04    0.41273E+04   -0.24058E+05  8960   0.137E+03
DAV:   2    -0.197566821943E+03   -0.43248E+04   -0.42068E+04 10848   0.349E+02
DAV:   3    -0.640917808698E+03   -0.44335E+03   -0.44102E+03 12064   0.134E+02
DAV:   4    -0.650643831228E+03   -0.97260E+01   -0.97078E+01 11872   0.209E+01
DAV:   5    -0.651091858768E+03   -0.44803E+00   -0.44791E+00 15072   0.359E+00    0.491E+01
DAV:   6    -0.594719981627E+03    0.56372E+02   -0.20285E+02 10464   0.249E+01    0.261E+01
DAV:   7    -0.594570431576E+03    0.14955E+00   -0.15933E+01 10016   0.642E+00    0.144E+01
DAV:   8    -0.594073744544E+03    0.49669E+00   -0.21574E+00 11200   0.295E+00    0.441E+00
DAV:   9    -0.594010523633E+03    0.63221E-01   -0.37493E-01 11616   0.134E+00    0.118E+00
DAV:  10    -0.594024143023E+03   -0.13619E-01   -0.12563E-01 10944   0.567E-01    0.819E-01
DAV:  11    -0.594028900183E+03   -0.47572E-02   -0.95592E-03 10720   0.202E-01    0.319E-01
DAV:  12    -0.594030467747E+03   -0.15676E-02   -0.20593E-03 10752   0.955E-02    0.167E-01
DAV:  13    -0.594031228678E+03   -0.76093E-03   -0.14274E-03 10016   0.799E-02    0.425E-02
DAV:  14    -0.594031291489E+03   -0.62812E-04   -0.16113E-04 12448   0.251E-02    0.165E-02
DAV:  15    -0.594031302145E+03   -0.10656E-04   -0.18351E-05 10048   0.805E-03    0.641E-03
DAV:  16    -0.594031303502E+03   -0.13568E-05   -0.24094E-06  9632   0.404E-03    0.273E-03
DAV:  17    -0.594031303887E+03   -0.38459E-06   -0.82050E-07  6720   0.202E-03
   1 F= -.59403130E+03 E0= -.59403130E+03  d E =-.426191E-11
