       N       E                     dE             d eps       ncg     rms          rms(c)
DAV:   1     0.237147881423E+03    0.23715E+03   -0.17556E+04    96   0.532E+02
DAV:   2    -0.555692860988E+02   -0.29272E+03   -0.28919E+03   144   0.147E+02
DAV:   3    -0.714398338268E+02   -0.15871E+02   -0.15841E+02   144   0.433E+01
DAV:   4    -0.715967611469E+02   -0.15693E+00   -0.15692E+00   144   0.475E+00
DAV:   5    -0.715994469266E+02   -0.26858E-02   -0.26857E-02   144   0.553E-01    0.846E+00
RMM:   6    -0.693813511990E+02    0.22181E+01   -0.43894E+00    96   0.503E+00    0.421E+00
RMM:   7    -0.692355172610E+02    0.14583E+00   -0.10064E+00    96   0.267E+00    0.184E+00
RMM:   8    -0.692570839003E+02   -0.21567E-01   -0.16744E-01    96   0.135E+00    0.354E-01
RMM:   9    -0.692663983944E+02   -0.93145E-02   -0.27496E-02    96   0.483E-01    0.187E-01
RMM:  10    -0.692657959280E+02    0.60247E-03   -0.48238E-03    96   0.188E-01    0.592E-02
RMM:  11    -0.692666861719E+02   -0.89024E-03   -0.16292E-03    96   0.123E-01    0.403E-02
RMM:  12    -0.692665780454E+02    0.10813E-03   -0.21222E-04    96   0.384E-02    0.694E-03
RMM:  13    -0.692665884473E+02   -0.10402E-04   -0.22960E-05    68   0.156E-02    0.277E-03
RMM:  14    -0.692665895479E+02   -0.11006E-05   -0.54238E-06    64   0.671E-03
    1 T=  1002. E= -.67323065E+02 F= -.69266590E+02 E0= -.69266590E+02  EK= 0.19435E+01 SP= 0.00E+00 SK= 0.34E-07
       N       E                     dE             d eps       ncg     rms          rms(c)
DAV:   1    -0.692674139229E+02   -0.82548E-03   -0.80505E-01   144   0.289E+00    0.213E-01
RMM:   2    -0.692695709018E+02   -0.21570E-02   -0.32932E-02    96   0.626E-01    0.981E-02
RMM:   3    -0.692694102484E+02    0.16065E-03   -0.12004E-03    96   0.115E-01    0.503E-02
RMM:   4    -0.692693783432E+02    0.31905E-04   -0.53185E-04    96   0.604E-02    0.167E-02
RMM:   5    -0.692693722861E+02    0.60571E-05   -0.31879E-05    77   0.182E-02
    2 T=  1004. E= -.67322959E+02 F= -.69269372E+02 E0= -.69269372E+02  EK= 0.19463E+01 SP= 0.11E-03 SK= 0.44E-06
       N       E                     dE             d eps       ncg     rms          rms(c)
DAV:   1    -0.692591560200E+02    0.10222E-01   -0.40812E-02   144   0.113E+00    0.141E-02
RMM:   2    -0.692593051771E+02   -0.14916E-03   -0.15437E-03    96   0.144E-01    0.966E-03
RMM:   3    -0.692593052695E+02   -0.92391E-07   -0.33693E-05    75   0.208E-02    0.646E-03
RMM:   4    -0.692593056170E+02   -0.34752E-06   -0.55789E-06    56   0.833E-03
    3 T=   998. E= -.67322899E+02 F= -.69259306E+02 E0= -.69259306E+02  EK= 0.19360E+01 SP= 0.41E-03 SK= 0.71E-06
       N       E                     dE             d eps       ncg     rms          rms(c)
DAV:   1    -0.692364362793E+02    0.22869E-01   -0.47731E-02   144   0.113E+00    0.128E-02
RMM:   2    -0.692365392831E+02   -0.10300E-03   -0.11340E-03    96   0.103E-01    0.705E-03
RMM:   3    -0.692365398653E+02   -0.58226E-06   -0.30950E-05    70   0.185E-02    0.454E-03
RMM:   4    -0.692365404231E+02   -0.55778E-06   -0.41341E-06    55   0.711E-03
    4 T=   987. E= -.67322621E+02 F= -.69236540E+02 E0= -.69236540E+02  EK= 0.19133E+01 SP= 0.63E-03 SK= 0.89E-07
       N       E                     dE             d eps       ncg     rms          rms(c)
DAV:   1    -0.692018636450E+02    0.34676E-01   -0.40789E-02   168   0.109E+00    0.731E-03
RMM:   2    -0.692019076828E+02   -0.44038E-04   -0.48201E-04    95   0.707E-02    0.520E-03
RMM:   3    -0.692019083083E+02   -0.62550E-06   -0.13753E-05    63   0.126E-02    0.258E-03
RMM:   4    -0.692019085561E+02   -0.24780E-06   -0.24825E-06    54   0.576E-03
    5 T=   969. E= -.67322321E+02 F= -.69201909E+02 E0= -.69201909E+02  EK= 0.18793E+01 SP= 0.23E-03 SK= 0.14E-04
       N       E                     dE             d eps       ncg     rms          rms(c)
DAV:   1    -0.691563012485E+02    0.45607E-01   -0.37911E-02   192   0.107E+00    0.273E-03
RMM:   2    -0.691563124410E+02   -0.11192E-04   -0.11630E-04    92   0.348E-02    0.270E-03
RMM:   3    -0.691563123433E+02    0.97661E-07   -0.33129E-06    54   0.678E-03    0.184E-03
RMM:   4    -0.691563122072E+02    0.13609E-06   -0.10283E-06    43   0.374E-03
    6 T=   947. E= -.67322012E+02 F= -.69156312E+02 E0= -.69156312E+02  EK= 0.18358E+01 SP= -.17E-02 SK= 0.10E-03
       N       E                     dE             d eps       ncg     rms          rms(c)
DAV:   1    -0.691007733580E+02    0.55539E-01   -0.37123E-02   192   0.105E+00    0.291E-03
RMM:   2    -0.691007837644E+02   -0.10406E-04   -0.10687E-04    90   0.317E-02    0.127E-03
RMM:   3    -0.691007840140E+02   -0.24966E-06   -0.29480E-06    55   0.623E-03    0.921E-04
RMM:   4    -0.691007840517E+02   -0.37658E-07   -0.43589E-07    29   0.304E-03
    7 T=   921. E= -.67321601E+02 F= -.69100784E+02 E0= -.69100784E+02  EK= 0.17848E+01 SP= -.61E-02 SK= 0.42E-03
       N       E                     dE             d eps       ncg     rms          rms(c)
DAV:   1    -0.690366762028E+02    0.64108E-01   -0.36445E-02   192   0.102E+00    0.224E-03
RMM:   2    -0.690366873272E+02   -0.11124E-04   -0.11419E-04    91   0.349E-02    0.121E-03
RMM:   3    -0.690366875112E+02   -0.18398E-06   -0.34272E-06    54   0.669E-03    0.726E-04
RMM:   4    -0.690366875064E+02    0.48467E-08   -0.60802E-07    30   0.332E-03
    8 T=   892. E= -.67321173E+02 F= -.69036688E+02 E0= -.69036688E+02  EK= 0.17286E+01 SP= -.14E-01 SK= 0.12E-02
       N       E                     dE             d eps       ncg     rms          rms(c)
DAV:   1    -0.689654521532E+02    0.71235E-01   -0.35508E-02   192   0.996E-01    0.230E-03
RMM:   2    -0.689654597414E+02   -0.75882E-05   -0.78339E-05    86   0.286E-02    0.130E-03
RMM:   3    -0.689654599367E+02   -0.19530E-06   -0.28532E-06    53   0.624E-03    0.828E-04
RMM:   4    -0.689654599438E+02   -0.70963E-08   -0.53390E-07    34   0.315E-03
    9 T=   861. E= -.67320729E+02 F= -.68965460E+02 E0= -.68965460E+02  EK= 0.16695E+01 SP= -.28E-01 SK= 0.29E-02
       N       E                     dE             d eps       ncg     rms          rms(c)
DAV:   1    -0.688887507680E+02    0.76709E-01   -0.34454E-02   192   0.968E-01    0.202E-03
RMM:   2    -0.688887605871E+02   -0.98190E-05   -0.10225E-04    87   0.324E-02    0.107E-03
RMM:   3    -0.688887608924E+02   -0.30530E-06   -0.32216E-06    56   0.666E-03    0.664E-04
RMM:   4    -0.688887609441E+02   -0.51699E-07   -0.62290E-07    36   0.328E-03
   10 T=   830. E= -.67320401E+02 F= -.68888761E+02 E0= -.68888761E+02  EK= 0.16101E+01 SP= -.48E-01 SK= 0.61E-02
       N       E                     dE             d eps       ncg     rms          rms(c)
DAV:   1    -0.688080095456E+02    0.80751E-01   -0.33178E-02   192   0.939E-01    0.196E-03
RMM:   2    -0.688080176919E+02   -0.81463E-05   -0.83739E-05    86   0.300E-02    0.923E-04
RMM:   3    -0.688080179612E+02   -0.26933E-06   -0.26638E-06    53   0.617E-03    0.642E-04
RMM:   4    -0.688080180588E+02   -0.97589E-07   -0.42194E-07    31   0.298E-03
   11 T=   801. E= -.67320012E+02 F= -.68808018E+02 E0= -.68808018E+02  EK= 0.15526E+01 SP= -.76E-01 SK= 0.11E-01
       N       E                     dE             d eps       ncg     rms          rms(c)
DAV:   1    -0.687248950030E+02    0.83123E-01   -0.32040E-02   192   0.912E-01    0.179E-03
RMM:   2    -0.687249026788E+02   -0.76758E-05   -0.79414E-05    83   0.275E-02    0.835E-04
RMM:   3    -0.687249028599E+02   -0.18112E-06   -0.26421E-06    53   0.606E-03    0.606E-04
RMM:   4    -0.687249029247E+02   -0.64837E-07   -0.40988E-07    29   0.295E-03
   12 T=   773. E= -.67319599E+02 F= -.68724903E+02 E0= -.68724903E+02  EK= 0.14996E+01 SP= -.11E+00 SK= 0.19E-01
       N       E                     dE             d eps       ncg     rms          rms(c)
DAV:   1    -0.686412110101E+02    0.83692E-01   -0.31068E-02   192   0.887E-01    0.237E-03
RMM:   2    -0.686412303976E+02   -0.19387E-04   -0.19729E-04    89   0.350E-02    0.128E-03
RMM:   3    -0.686412309830E+02   -0.58541E-06   -0.59962E-06    53   0.775E-03    0.809E-04
RMM:   4    -0.686412310711E+02   -0.88052E-07   -0.13503E-06    34   0.381E-03
   13 T=   749. E= -.67319319E+02 F= -.68641231E+02 E0= -.68641231E+02  EK= 0.14531E+01 SP= -.16E+00 SK= 0.31E-01
       N       E                     dE             d eps       ncg     rms          rms(c)
DAV:   1    -0.685584171509E+02    0.82814E-01   -0.30926E-02   144   0.867E-01    0.375E-03
RMM:   2    -0.685584482336E+02   -0.31083E-04   -0.31318E-04    91   0.474E-02    0.236E-03
RMM:   3    -0.685584487934E+02   -0.55980E-06   -0.99838E-06    55   0.977E-03    0.162E-03
RMM:   4    -0.685584488551E+02   -0.61687E-07   -0.17599E-06    41   0.448E-03
   14 T=   730. E= -.67319050E+02 F= -.68558449E+02 E0= -.68558449E+02  EK= 0.14154E+01 SP= -.22E+00 SK= 0.47E-01
       N       E                     dE             d eps       ncg     rms          rms(c)
DAV:   1    -0.684780989805E+02    0.80350E-01   -0.31156E-02   192   0.857E-01    0.228E-03
RMM:   2    -0.684781180398E+02   -0.19059E-04   -0.19265E-04    94   0.397E-02    0.125E-03
RMM:   3    -0.684781184650E+02   -0.42519E-06   -0.45366E-06    54   0.717E-03    0.114E-03
RMM:   4    -0.684781185479E+02   -0.82890E-07   -0.98426E-07    37   0.349E-03
   15 T=   716. E= -.67318890E+02 F= -.68478119E+02 E0= -.68478119E+02  EK= 0.13884E+01 SP= -.30E+00 SK= 0.67E-01
       N       E                     dE             d eps       ncg     rms          rms(c)
DAV:   1    -0.684017203984E+02    0.76398E-01   -0.31631E-02   144   0.847E-01    0.339E-03
RMM:   2    -0.684017412747E+02   -0.20876E-04   -0.21149E-04    83   0.399E-02    0.199E-03
RMM:   3    -0.684017415535E+02   -0.27880E-06   -0.68375E-06    54   0.852E-03    0.134E-03
RMM:   4    -0.684017416235E+02   -0.69996E-07   -0.11273E-06    37   0.393E-03
   16 T=   709. E= -.67319001E+02 F= -.68401742E+02 E0= -.68401742E+02  EK= 0.13740E+01 SP= -.38E+00 SK= 0.92E-01
       N       E                     dE             d eps       ncg     rms          rms(c)
DAV:   1    -0.683301093980E+02    0.71632E-01   -0.31182E-02   192   0.843E-01    0.179E-03
RMM:   2    -0.683301175692E+02   -0.81712E-05   -0.81882E-05    78   0.283E-02    0.117E-03
RMM:   3    -0.683301179695E+02   -0.40035E-06   -0.31184E-06    52   0.647E-03    0.903E-04
RMM:   4    -0.683301181020E+02   -0.13253E-06   -0.56978E-07    28   0.312E-03
   17 T=   709. E= -.67319123E+02 F= -.68330118E+02 E0= -.68330118E+02  EK= 0.13739E+01 SP= -.48E+00 SK= 0.12E+00
       N       E                     dE             d eps       ncg     rms          rms(c)
DAV:   1    -0.682642664118E+02    0.65852E-01   -0.32284E-02   192   0.852E-01    0.196E-03
RMM:   2    -0.682642712643E+02   -0.48526E-05   -0.51639E-05    74   0.210E-02    0.164E-03
RMM:   3    -0.682642714312E+02   -0.16686E-06   -0.22483E-06    51   0.568E-03    0.117E-03
RMM:   4    -0.682642715020E+02   -0.70819E-07   -0.26276E-07    23   0.274E-03
   18 T=   717. E= -.67319416E+02 F= -.68264272E+02 E0= -.68264272E+02  EK= 0.13898E+01 SP= -.60E+00 SK= 0.15E+00
       N       E                     dE             d eps       ncg     rms          rms(c)
DAV:   1    -0.682047041631E+02    0.59567E-01   -0.34144E-02   192   0.872E-01    0.218E-03
RMM:   2    -0.682047122297E+02   -0.80665E-05   -0.80699E-05    80   0.268E-02    0.140E-03
RMM:   3    -0.682047124457E+02   -0.21604E-06   -0.26894E-06    52   0.605E-03    0.113E-03
RMM:   4    -0.682047124547E+02   -0.89426E-08   -0.45506E-07    30   0.296E-03
   19 T=   734. E= -.67319742E+02 F= -.68204712E+02 E0= -.68204712E+02  EK= 0.14232E+01 SP= -.73E+00 SK= 0.19E+00
       N       E                     dE             d eps       ncg     rms          rms(c)
DAV:   1    -0.681518237061E+02    0.52889E-01   -0.36462E-02   192   0.900E-01    0.217E-03
RMM:   2    -0.681518330175E+02   -0.93114E-05   -0.92153E-05    83   0.294E-02    0.150E-03
RMM:   3    -0.681518333855E+02   -0.36797E-06   -0.33026E-06    53   0.639E-03    0.994E-04
RMM:   4    -0.681518334582E+02   -0.72745E-07   -0.60567E-07    32   0.316E-03
   20 T=   761. E= -.67320115E+02 F= -.68151833E+02 E0= -.68151833E+02  EK= 0.14757E+01 SP= -.87E+00 SK= 0.23E+00
       N       E                     dE             d eps       ncg     rms          rms(c)
DAV:   1    -0.681059040418E+02    0.45929E-01   -0.39201E-02   192   0.938E-01    0.292E-03
RMM:   2    -0.681059153486E+02   -0.11307E-04   -0.11816E-04    84   0.299E-02    0.151E-03
RMM:   3    -0.681059156679E+02   -0.31932E-06   -0.50658E-06    53   0.703E-03    0.114E-03
RMM:   4    -0.681059156960E+02   -0.28095E-07   -0.83287E-07    33   0.345E-03
   21 T=   799. E= -.67320655E+02 F= -.68105916E+02 E0= -.68105916E+02  EK= 0.15483E+01 SP= -.10E+01 SK= 0.26E+00
       N       E                     dE             d eps       ncg     rms          rms(c)
DAV:   1    -0.680667072724E+02    0.39208E-01   -0.42585E-02   192   0.981E-01    0.248E-03
RMM:   2    -0.680667251805E+02   -0.17908E-04   -0.17694E-04    86   0.369E-02    0.123E-03
RMM:   3    -0.680667257328E+02   -0.55221E-06   -0.50940E-06    52   0.758E-03    0.797E-04
RMM:   4    -0.680667258849E+02   -0.15216E-06   -0.11416E-06    36   0.374E-03
   22 T=   847. E= -.67321210E+02 F= -.68066726E+02 E0= -.68066726E+02  EK= 0.16422E+01 SP= -.12E+01 SK= 0.29E+00
       N       E                     dE             d eps       ncg     rms          rms(c)
DAV:   1    -0.680338979495E+02    0.32828E-01   -0.46376E-02   192   0.103E+00    0.290E-03
RMM:   2    -0.680339146466E+02   -0.16697E-04   -0.16794E-04    87   0.411E-02    0.182E-03
RMM:   3    -0.680339150440E+02   -0.39743E-06   -0.49200E-06    55   0.791E-03    0.130E-03
RMM:   4    -0.680339151394E+02   -0.95344E-07   -0.11542E-06    40   0.402E-03
   23 T=   906. E= -.67321834E+02 F= -.68033915E+02 E0= -.68033915E+02  EK= 0.17574E+01 SP= -.14E+01 SK= 0.31E+00
       N       E                     dE             d eps       ncg     rms          rms(c)
DAV:   1    -0.680067173374E+02    0.27198E-01   -0.49816E-02   192   0.109E+00    0.205E-03
RMM:   2    -0.680067315053E+02   -0.14168E-04   -0.13991E-04    90   0.366E-02    0.191E-03
RMM:   3    -0.680067319422E+02   -0.43691E-06   -0.49351E-06    52   0.732E-03    0.157E-03
RMM:   4    -0.680067320095E+02   -0.67294E-07   -0.10834E-06    37   0.374E-03
   24 T=   976. E= -.67322500E+02 F= -.68006732E+02 E0= -.68006732E+02  EK= 0.18933E+01 SP= -.15E+01 SK= 0.32E+00
       N       E                     dE             d eps       ncg     rms          rms(c)
DAV:   1    -0.679841149135E+02    0.22617E-01   -0.54476E-02   192   0.115E+00    0.269E-03
RMM:   2    -0.679841273862E+02   -0.12473E-04   -0.12509E-04    91   0.340E-02    0.180E-03
RMM:   3    -0.679841277314E+02   -0.34522E-06   -0.31576E-06    51   0.613E-03    0.132E-03
RMM:   4    -0.679841278375E+02   -0.10611E-06   -0.69967E-07    34   0.316E-03
   25 T=  1056. E= -.67323186E+02 F= -.67984128E+02 E0= -.67984128E+02  EK= 0.20479E+01 SP= -.17E+01 SK= 0.32E+00
       N       E                     dE             d eps       ncg     rms          rms(c)
DAV:   1    -0.679648699590E+02    0.19258E-01   -0.59771E-02   192   0.121E+00    0.263E-03
RMM:   2    -0.679648849563E+02   -0.14997E-04   -0.14865E-04    93   0.395E-02    0.150E-03
RMM:   3    -0.679648853886E+02   -0.43225E-06   -0.41798E-06    52   0.703E-03    0.116E-03
RMM:   4    -0.679648854425E+02   -0.53933E-07   -0.89756E-07    37   0.363E-03
   26 T=  1144. E= -.67323940E+02 F= -.67964885E+02 E0= -.67964885E+02  EK= 0.22175E+01 SP= -.19E+01 SK= 0.30E+00
       N       E                     dE             d eps       ncg     rms          rms(c)
DAV:   1    -0.679475493471E+02    0.17336E-01   -0.65207E-02   192   0.127E+00    0.285E-03
RMM:   2    -0.679475620107E+02   -0.12664E-04   -0.12527E-04    94   0.322E-02    0.204E-03
RMM:   3    -0.679475623316E+02   -0.32099E-06   -0.44412E-06    54   0.651E-03    0.101E-03
RMM:   4    -0.679475623545E+02   -0.22865E-07   -0.63714E-07    32   0.314E-03
   27 T=  1236. E= -.67324862E+02 F= -.67947562E+02 E0= -.67947562E+02  EK= 0.23960E+01 SP= -.20E+01 SK= 0.27E+00
       N       E                     dE             d eps       ncg     rms          rms(c)
DAV:   1    -0.679302403484E+02    0.17322E-01   -0.71360E-02   192   0.133E+00    0.310E-03
RMM:   2    -0.679302604235E+02   -0.20075E-04   -0.19802E-04    94   0.455E-02    0.168E-03
RMM:   3    -0.679302609024E+02   -0.47890E-06   -0.47983E-06    55   0.742E-03    0.117E-03
RMM:   4    -0.679302609779E+02   -0.75417E-07   -0.76846E-07    38   0.351E-03
   28 T=  1328. E= -.67325788E+02 F= -.67930261E+02 E0= -.67930261E+02  EK= 0.25754E+01 SP= -.22E+01 SK= 0.23E+00
       N       E                     dE             d eps       ncg     rms          rms(c)
DAV:   1    -0.679112193530E+02    0.19042E-01   -0.75834E-02   192   0.138E+00    0.320E-03
RMM:   2    -0.679112337405E+02   -0.14388E-04   -0.14182E-04    93   0.406E-02    0.145E-03
RMM:   3    -0.679112341189E+02   -0.37835E-06   -0.51089E-06    54   0.755E-03    0.123E-03
RMM:   4    -0.679112341180E+02    0.92768E-09   -0.83490E-07    42   0.364E-03
   29 T=  1416. E= -.67326891E+02 F= -.67911234E+02 E0= -.67911234E+02  EK= 0.27454E+01 SP= -.23E+01 SK= 0.17E+00
       N       E                     dE             d eps       ncg     rms          rms(c)
DAV:   1    -0.678880606793E+02    0.23173E-01   -0.80282E-02   192   0.143E+00    0.326E-03
RMM:   2    -0.678880724093E+02   -0.11730E-04   -0.11317E-04    90   0.369E-02    0.121E-03
RMM:   3    -0.678880728063E+02   -0.39703E-06   -0.31976E-06    54   0.652E-03    0.840E-04
RMM:   4    -0.678880728880E+02   -0.81674E-07   -0.57659E-07    36   0.328E-03
   30 T=  1493. E= -.67327728E+02 F= -.67888073E+02 E0= -.67888073E+02  EK= 0.28940E+01 SP= -.25E+01 SK= 0.12E+00
       N       E                     dE             d eps       ncg     rms          rms(c)
DAV:   1    -0.678591447127E+02    0.28928E-01   -0.83349E-02   192   0.146E+00    0.273E-03
RMM:   2    -0.678591559103E+02   -0.11198E-04   -0.11018E-04    90   0.368E-02    0.123E-03
RMM:   3    -0.678591561415E+02   -0.23128E-06   -0.31491E-06    53   0.656E-03    0.843E-04
RMM:   4    -0.678591561127E+02    0.28856E-07   -0.50479E-07    31   0.330E-03
   31 T=  1552. E= -.67328432E+02 F= -.67859156E+02 E0= -.67859156E+02  EK= 0.30094E+01 SP= -.25E+01 SK= 0.71E-01
       N       E                     dE             d eps       ncg     rms          rms(c)
DAV:   1    -0.678227236106E+02    0.36433E-01   -0.85288E-02   192   0.149E+00    0.311E-03
RMM:   2    -0.678227346248E+02   -0.11014E-04   -0.10610E-04    90   0.335E-02    0.153E-03
RMM:   3    -0.678227350538E+02   -0.42903E-06   -0.35630E-06    52   0.656E-03    0.796E-04
RMM:   4    -0.678227351613E+02   -0.10741E-06   -0.69580E-07    33   0.341E-03
   32 T=  1589. E= -.67328704E+02 F= -.67822735E+02 E0= -.67822735E+02  EK= 0.30810E+01 SP= -.26E+01 SK= 0.32E-01
       N       E                     dE             d eps       ncg     rms          rms(c)
DAV:   1    -0.677780277767E+02    0.44707E-01   -0.85904E-02   192   0.149E+00    0.307E-03
RMM:   2    -0.677780383884E+02   -0.10612E-04   -0.10511E-04    90   0.345E-02    0.139E-03
RMM:   3    -0.677780384310E+02   -0.42577E-07   -0.33740E-06    55   0.656E-03    0.825E-04
RMM:   4    -0.677780383748E+02    0.56160E-07   -0.62750E-07    31   0.337E-03
   33 T=  1600. E= -.67328779E+02 F= -.67778038E+02 E0= -.67778038E+02  EK= 0.31014E+01 SP= -.27E+01 SK= 0.74E-02
       N       E                     dE             d eps       ncg     rms          rms(c)
DAV:   1    -0.677243746078E+02    0.53664E-01   -0.85140E-02   192   0.149E+00    0.312E-03
RMM:   2    -0.677243830537E+02   -0.84458E-05   -0.81612E-05    89   0.312E-02    0.142E-03
RMM:   3    -0.677243834882E+02   -0.43452E-06   -0.29399E-06    52   0.635E-03    0.100E-03
RMM:   4    -0.677243835551E+02   -0.66924E-07   -0.48796E-07    36   0.325E-03
   34 T=  1582. E= -.67328513E+02 F= -.67724384E+02 E0= -.67724384E+02  EK= 0.30676E+01 SP= -.27E+01 SK= 0.30E-04
       N       E                     dE             d eps       ncg     rms          rms(c)
DAV:   1    -0.676618516429E+02    0.62532E-01   -0.82601E-02   192   0.146E+00    0.284E-03
RMM:   2    -0.676618597557E+02   -0.81128E-05   -0.80731E-05    88   0.317E-02    0.151E-03
RMM:   3    -0.676618598118E+02   -0.56042E-07   -0.27907E-06    53   0.636E-03    0.805E-04
RMM:   4    -0.676618599259E+02   -0.11413E-06   -0.41373E-07    33   0.318E-03
   35 T=  1538. E= -.67327770E+02 F= -.67661860E+02 E0= -.67661860E+02  EK= 0.29818E+01 SP= -.27E+01 SK= 0.85E-02
       N       E                     dE             d eps       ncg     rms          rms(c)
DAV:   1    -0.675916165012E+02    0.70243E-01   -0.78578E-02   192   0.142E+00    0.309E-03
RMM:   2    -0.675916230667E+02   -0.65656E-05   -0.65793E-05    87   0.294E-02    0.173E-03
RMM:   3    -0.675916232510E+02   -0.18429E-06   -0.26051E-06    52   0.612E-03    0.877E-04
RMM:   4    -0.675916232517E+02   -0.62073E-09   -0.30391E-07    30   0.320E-03
   36 T=  1470. E= -.67326700E+02 F= -.67591623E+02 E0= -.67591623E+02  EK= 0.28509E+01 SP= -.26E+01 SK= 0.29E-01
       N       E                     dE             d eps       ncg     rms          rms(c)
DAV:   1    -0.675154628129E+02    0.76160E-01   -0.73667E-02   192   0.137E+00    0.237E-03
RMM:   2    -0.675154696569E+02   -0.68440E-05   -0.70085E-05    89   0.300E-02    0.146E-03
RMM:   3    -0.675154698354E+02   -0.17852E-06   -0.21705E-06    52   0.575E-03    0.101E-03
RMM:   4    -0.675154698318E+02    0.35798E-08   -0.24778E-07    27   0.292E-03
   37 T=  1385. E= -.67325442E+02 F= -.67515470E+02 E0= -.67515470E+02  EK= 0.26853E+01 SP= -.26E+01 SK= 0.56E-01
       N       E                     dE             d eps       ncg     rms          rms(c)
DAV:   1    -0.674355780614E+02    0.79892E-01   -0.68254E-02   192   0.131E+00    0.285E-03
RMM:   2    -0.674355843857E+02   -0.63243E-05   -0.65115E-05    89   0.299E-02    0.139E-03
RMM:   3    -0.674355845819E+02   -0.19621E-06   -0.23122E-06    52   0.571E-03    0.706E-04
RMM:   4    -0.674355846389E+02   -0.56972E-07   -0.29609E-07    29   0.299E-03
   38 T=  1288. E= -.67324009E+02 F= -.67435585E+02 E0= -.67435585E+02  EK= 0.24975E+01 SP= -.25E+01 SK= 0.83E-01
       N       E                     dE             d eps       ncg     rms          rms(c)
DAV:   1    -0.673548564363E+02    0.80728E-01   -0.62535E-02   144   0.124E+00    0.296E-03
RMM:   2    -0.673548628088E+02   -0.63725E-05   -0.68349E-05    89   0.288E-02    0.152E-03
RMM:   3    -0.673548630150E+02   -0.20624E-06   -0.22460E-06    52   0.590E-03    0.976E-04
RMM:   4    -0.673548630360E+02   -0.20993E-07   -0.26081E-07    21   0.294E-03
   39 T=  1186. E= -.67322745E+02 F= -.67354863E+02 E0= -.67354863E+02  EK= 0.22997E+01 SP= -.24E+01 SK= 0.11E+00
       N       E                     dE             d eps       ncg     rms          rms(c)
DAV:   1    -0.672759158320E+02    0.78947E-01   -0.56782E-02   192   0.118E+00    0.273E-03
RMM:   2    -0.672759214465E+02   -0.56145E-05   -0.59312E-05    87   0.285E-02    0.122E-03
RMM:   3    -0.672759216919E+02   -0.24535E-06   -0.21402E-06    51   0.564E-03    0.768E-04
RMM:   4    -0.672759216917E+02    0.18008E-09   -0.26640E-07    27   0.297E-03
   40 T=  1085. E= -.67321558E+02 F= -.67275922E+02 E0= -.67275922E+02  EK= 0.21032E+01 SP= -.23E+01 SK= 0.12E+00
       N       E                     dE             d eps       ncg     rms          rms(c)
DAV:   1    -0.672011978354E+02    0.74724E-01   -0.51285E-02   192   0.111E+00    0.233E-03
RMM:   2    -0.672012039721E+02   -0.61367E-05   -0.62859E-05    87   0.286E-02    0.116E-03
RMM:   3    -0.672012041235E+02   -0.15136E-06   -0.21534E-06    53   0.569E-03    0.741E-04
RMM:   4    -0.672012041437E+02   -0.20200E-07   -0.28918E-07    30   0.285E-03
   41 T=   989. E= -.67320399E+02 F= -.67201204E+02 E0= -.67201204E+02  EK= 0.19170E+01 SP= -.22E+01 SK= 0.12E+00
       N       E                     dE             d eps       ncg     rms          rms(c)
DAV:   1    -0.671328143873E+02    0.68390E-01   -0.46401E-02   120   0.105E+00    0.276E-03
RMM:   2    -0.671328202400E+02   -0.58527E-05   -0.61783E-05    87   0.259E-02    0.105E-03
RMM:   3    -0.671328204353E+02   -0.19535E-06   -0.24191E-06    50   0.573E-03    0.627E-04
RMM:   4    -0.671328204593E+02   -0.23981E-07   -0.38352E-07    27   0.293E-03
   42 T=   901. E= -.67319346E+02 F= -.67132820E+02 E0= -.67132820E+02  EK= 0.17473E+01 SP= -.21E+01 SK= 0.12E+00
       N       E                     dE             d eps       ncg     rms          rms(c)
DAV:   1    -0.670724054844E+02    0.60415E-01   -0.42216E-02   120   0.999E-01    0.236E-03
RMM:   2    -0.670724118696E+02   -0.63852E-05   -0.66405E-05    88   0.255E-02    0.808E-04
RMM:   3    -0.670724120632E+02   -0.19365E-06   -0.22917E-06    51   0.562E-03    0.640E-04
RMM:   4    -0.670724120560E+02    0.72291E-08   -0.25013E-07    20   0.277E-03
   43 T=   824. E= -.67318562E+02 F= -.67072412E+02 E0= -.67072412E+02  EK= 0.15983E+01 SP= -.19E+01 SK= 0.10E+00
       N       E                     dE             d eps       ncg     rms          rms(c)
DAV:   1    -0.670205844967E+02    0.51828E-01   -0.38616E-02   120   0.955E-01    0.206E-03
RMM:   2    -0.670205903788E+02   -0.58821E-05   -0.59319E-05    82   0.233E-02    0.167E-03
RMM:   3    -0.670205904893E+02   -0.11055E-06   -0.25377E-06    51   0.563E-03    0.750E-04
RMM:   4    -0.670205905377E+02   -0.48336E-07   -0.47762E-07    30   0.304E-03
   44 T=   759. E= -.67317805E+02 F= -.67020591E+02 E0= -.67020591E+02  EK= 0.14718E+01 SP= -.19E+01 SK= 0.83E-01
       N       E                     dE             d eps       ncg     rms          rms(c)
DAV:   1    -0.669776996519E+02    0.42891E-01   -0.35585E-02   120   0.924E-01    0.181E-03
RMM:   2    -0.669777044929E+02   -0.48409E-05   -0.48752E-05    78   0.217E-02    0.108E-03
RMM:   3    -0.669777046970E+02   -0.20419E-06   -0.22549E-06    50   0.571E-03    0.753E-04
RMM:   4    -0.669777047366E+02   -0.39532E-07   -0.32055E-07    23   0.279E-03
   45 T=   706. E= -.67317221E+02 F= -.66977705E+02 E0= -.66977705E+02  EK= 0.13680E+01 SP= -.18E+01 SK= 0.61E-01
       N       E                     dE             d eps       ncg     rms          rms(c)
DAV:   1    -0.669433660251E+02    0.34339E-01   -0.33203E-02   120   0.902E-01    0.177E-03
RMM:   2    -0.669433695362E+02   -0.35111E-05   -0.35446E-05    71   0.194E-02    0.107E-03
RMM:   3    -0.669433697586E+02   -0.22240E-06   -0.23472E-06    50   0.584E-03    0.743E-04
RMM:   4    -0.669433697960E+02   -0.37395E-07   -0.31720E-07    25   0.286E-03
   46 T=   663. E= -.67316772E+02 F= -.66943370E+02 E0= -.66943370E+02  EK= 0.12864E+01 SP= -.17E+01 SK= 0.39E-01
       N       E                     dE             d eps       ncg     rms          rms(c)
DAV:   1    -0.669168486780E+02    0.26521E-01   -0.31515E-02   120   0.891E-01    0.179E-03
RMM:   2    -0.669168526968E+02   -0.40188E-05   -0.39933E-05    71   0.195E-02    0.139E-03
RMM:   3    -0.669168528799E+02   -0.18307E-06   -0.23431E-06    51   0.582E-03    0.111E-03
RMM:   4    -0.669168528714E+02    0.84697E-08   -0.32296E-07    27   0.285E-03
   47 T=   632. E= -.67316480E+02 F= -.66916853E+02 E0= -.66916853E+02  EK= 0.12253E+01 SP= -.16E+01 SK= 0.21E-01
       N       E                     dE             d eps       ncg     rms          rms(c)
DAV:   1    -0.668971098871E+02    0.19743E-01   -0.30417E-02   120   0.890E-01    0.212E-03
RMM:   2    -0.668971149608E+02   -0.50736E-05   -0.50152E-05    74   0.200E-02    0.173E-03
RMM:   3    -0.668971152253E+02   -0.26452E-06   -0.28056E-06    51   0.625E-03    0.169E-03
RMM:   4    -0.668971151397E+02    0.85561E-07   -0.50099E-07    32   0.313E-03
   48 T=   610. E= -.67316355E+02 F= -.66897115E+02 E0= -.66897115E+02  EK= 0.11834E+01 SP= -.16E+01 SK= 0.73E-02
       N       E                     dE             d eps       ncg     rms          rms(c)
DAV:   1    -0.668828969322E+02    0.14218E-01   -0.29863E-02   120   0.897E-01    0.270E-03
RMM:   2    -0.668829021010E+02   -0.51687E-05   -0.51751E-05    73   0.200E-02    0.100E-03
RMM:   3    -0.668829024773E+02   -0.37632E-06   -0.28780E-06    51   0.627E-03    0.647E-04
RMM:   4    -0.668829026029E+02   -0.12564E-06   -0.52842E-07    31   0.312E-03
   49 T=   598. E= -.67316360E+02 F= -.66882903E+02 E0= -.66882903E+02  EK= 0.11587E+01 SP= -.16E+01 SK= 0.58E-03
       N       E                     dE             d eps       ncg     rms          rms(c)
DAV:   1    -0.668728558238E+02    0.10047E-01   -0.29642E-02   120   0.908E-01    0.183E-03
RMM:   2    -0.668728598668E+02   -0.40430E-05   -0.39439E-05    73   0.194E-02    0.165E-03
RMM:   3    -0.668728600690E+02   -0.20221E-06   -0.25157E-06    50   0.598E-03    0.132E-03
RMM:   4    -0.668728600992E+02   -0.30216E-07   -0.35657E-07    22   0.285E-03
   50 T=   593. E= -.67316450E+02 F= -.66872860E+02 E0= -.66872860E+02  EK= 0.11498E+01 SP= -.16E+01 SK= 0.15E-02
       N       E                     dE             d eps       ncg     rms          rms(c)
DAV:   1    -0.668656524025E+02    0.72077E-02   -0.29796E-02   120   0.925E-01    0.257E-03
RMM:   2    -0.668656576309E+02   -0.52284E-05   -0.49562E-05    75   0.196E-02    0.182E-03
RMM:   3    -0.668656578375E+02   -0.20662E-06   -0.29612E-06    51   0.623E-03    0.931E-04
RMM:   4    -0.668656578917E+02   -0.54140E-07   -0.55970E-07    29   0.321E-03
   51 T=   596. E= -.67316579E+02 F= -.66865658E+02 E0= -.66865658E+02  EK= 0.11554E+01 SP= -.16E+01 SK= 0.10E-01
       N       E                     dE             d eps       ncg     rms          rms(c)
DAV:   1    -0.668601849208E+02    0.54729E-02   -0.30314E-02   120   0.944E-01    0.228E-03
RMM:   2    -0.668601907181E+02   -0.57973E-05   -0.56904E-05    77   0.217E-02    0.123E-03
RMM:   3    -0.668601910006E+02   -0.28250E-06   -0.28185E-06    51   0.639E-03    0.108E-03
RMM:   4    -0.668601909925E+02    0.81391E-08   -0.41790E-07    24   0.311E-03
   52 T=   606. E= -.67316814E+02 F= -.66860191E+02 E0= -.66860191E+02  EK= 0.11744E+01 SP= -.17E+01 SK= 0.26E-01
       N       E                     dE             d eps       ncg     rms          rms(c)
DAV:   1    -0.668554505656E+02    0.47404E-02   -0.31232E-02   120   0.967E-01    0.262E-03
RMM:   2    -0.668554542892E+02   -0.37237E-05   -0.37253E-05    70   0.191E-02    0.176E-03
RMM:   3    -0.668554544619E+02   -0.17269E-06   -0.29169E-06    50   0.620E-03    0.781E-04
RMM:   4    -0.668554544265E+02    0.35382E-07   -0.47792E-07    28   0.319E-03
   53 T=   622. E= -.67317249E+02 F= -.66855454E+02 E0= -.66855454E+02  EK= 0.12062E+01 SP= -.17E+01 SK= 0.49E-01
       N       E                     dE             d eps       ncg     rms          rms(c)
DAV:   1    -0.668502899881E+02    0.51645E-02   -0.32556E-02   120   0.990E-01    0.222E-03
RMM:   2    -0.668502976644E+02   -0.76763E-05   -0.72785E-05    80   0.232E-02    0.151E-03
RMM:   3    -0.668502980759E+02   -0.41147E-06   -0.33308E-06    50   0.686E-03    0.138E-03
RMM:   4    -0.668502981438E+02   -0.67956E-07   -0.55445E-07    25   0.330E-03
   54 T=   645. E= -.67317639E+02 F= -.66850298E+02 E0= -.66850298E+02  EK= 0.12502E+01 SP= -.18E+01 SK= 0.78E-01
       N       E                     dE             d eps       ncg     rms          rms(c)
DAV:   1    -0.668441018013E+02    0.61963E-02   -0.34159E-02   120   0.102E+00    0.276E-03
RMM:   2    -0.668441080747E+02   -0.62734E-05   -0.62920E-05    83   0.221E-02    0.130E-03
RMM:   3    -0.668441083579E+02   -0.28324E-06   -0.27856E-06    50   0.622E-03    0.998E-04
RMM:   4    -0.668441083368E+02    0.21131E-07   -0.41342E-07    28   0.307E-03
   55 T=   674. E= -.67318117E+02 F= -.66844108E+02 E0= -.66844108E+02  EK= 0.13063E+01 SP= -.19E+01 SK= 0.11E+00
       N       E                     dE             d eps       ncg     rms          rms(c)
DAV:   1    -0.668361374427E+02    0.79709E-02   -0.36010E-02   192   0.104E+00    0.313E-03
RMM:   2    -0.668361421582E+02   -0.47156E-05   -0.48779E-05    79   0.221E-02    0.121E-03
RMM:   3    -0.668361424753E+02   -0.31702E-06   -0.22188E-06    51   0.576E-03    0.825E-04
RMM:   4    -0.668361425166E+02   -0.41342E-07   -0.22535E-07    22   0.279E-03
   56 T=   709. E= -.67318550E+02 F= -.66836143E+02 E0= -.66836143E+02  EK= 0.13745E+01 SP= -.20E+01 SK= 0.14E+00
       N       E                     dE             d eps       ncg     rms          rms(c)
DAV:   1    -0.668260544207E+02    0.10088E-01   -0.37859E-02   192   0.107E+00    0.227E-03
RMM:   2    -0.668260598955E+02   -0.54748E-05   -0.55251E-05    85   0.259E-02    0.106E-03
RMM:   3    -0.668260600331E+02   -0.13753E-06   -0.21979E-06    51   0.576E-03    0.684E-04
RMM:   4    -0.668260599865E+02    0.46619E-07   -0.27257E-07    25   0.287E-03
   57 T=   750. E= -.67319023E+02 F= -.66826060E+02 E0= -.66826060E+02  EK= 0.14550E+01 SP= -.21E+01 SK= 0.18E+00
       N       E                     dE             d eps       ncg     rms          rms(c)
DAV:   1    -0.668136038111E+02    0.12456E-01   -0.39906E-02   120   0.111E+00    0.267E-03
RMM:   2    -0.668136098021E+02   -0.59910E-05   -0.58707E-05    81   0.213E-02    0.170E-03
RMM:   3    -0.668136100602E+02   -0.25814E-06   -0.29434E-06    51   0.621E-03    0.116E-03
RMM:   4    -0.668136099419E+02    0.11833E-06   -0.54013E-07    33   0.329E-03
   58 T=   798. E= -.67319501E+02 F= -.66813610E+02 E0= -.66813610E+02  EK= 0.15478E+01 SP= -.23E+01 SK= 0.21E+00
       N       E                     dE             d eps       ncg     rms          rms(c)
DAV:   1    -0.667987946754E+02    0.14815E-01   -0.42272E-02   192   0.114E+00    0.199E-03
RMM:   2    -0.667988026679E+02   -0.79925E-05   -0.80738E-05    87   0.277E-02    0.107E-03
RMM:   3    -0.667988028343E+02   -0.16645E-06   -0.26002E-06    53   0.588E-03    0.863E-04
RMM:   4    -0.667988028668E+02   -0.32488E-07   -0.38318E-07    27   0.289E-03
   59 T=   853. E= -.67320055E+02 F= -.66798803E+02 E0= -.66798803E+02  EK= 0.16531E+01 SP= -.24E+01 SK= 0.23E+00
       N       E                     dE             d eps       ncg     rms          rms(c)
DAV:   1    -0.667815547994E+02    0.17248E-01   -0.44819E-02   192   0.117E+00    0.230E-03
RMM:   2    -0.667815621831E+02   -0.73838E-05   -0.74007E-05    84   0.280E-02    0.113E-03
RMM:   3    -0.667815624681E+02   -0.28496E-06   -0.32063E-06    53   0.648E-03    0.668E-04
RMM:   4    -0.667815625434E+02   -0.75287E-07   -0.45651E-07    27   0.326E-03
   60 T=   913. E= -.67320577E+02 F= -.66781563E+02 E0= -.66781563E+02  EK= 0.17705E+01 SP= -.26E+01 SK= 0.25E+00
       N       E                     dE             d eps       ncg     rms          rms(c)
DAV:   1    -0.667619989759E+02    0.19563E-01   -0.47458E-02   120   0.120E+00    0.286E-03
RMM:   2    -0.667620051086E+02   -0.61326E-05   -0.62307E-05    85   0.233E-02    0.175E-03
RMM:   3    -0.667620052034E+02   -0.94798E-07   -0.23861E-06    52   0.587E-03    0.942E-04
RMM:   4    -0.667620052716E+02   -0.68250E-07   -0.33749E-07    21   0.289E-03
   61 T=   980. E= -.67321022E+02 F= -.66762005E+02 E0= -.66762005E+02  EK= 0.18993E+01 SP= -.27E+01 SK= 0.26E+00
       N       E                     dE             d eps       ncg     rms          rms(c)
DAV:   1    -0.667405252339E+02    0.21480E-01   -0.50013E-02   192   0.123E+00    0.238E-03
RMM:   2    -0.667405333157E+02   -0.80818E-05   -0.82484E-05    84   0.282E-02    0.999E-04
RMM:   3    -0.667405335319E+02   -0.21622E-06   -0.27150E-06    51   0.616E-03    0.802E-04
RMM:   4    -0.667405334910E+02    0.40947E-07   -0.38321E-07    22   0.295E-03
   62 T=  1051. E= -.67321532E+02 F= -.66740533E+02 E0= -.66740533E+02  EK= 0.20379E+01 SP= -.29E+01 SK= 0.26E+00
       N       E                     dE             d eps       ncg     rms          rms(c)
DAV:   1    -0.667174821105E+02    0.23051E-01   -0.52230E-02   192   0.125E+00    0.250E-03
RMM:   2    -0.667174912139E+02   -0.91033E-05   -0.91830E-05    90   0.322E-02    0.120E-03
RMM:   3    -0.667174915128E+02   -0.29889E-06   -0.32513E-06    51   0.660E-03    0.850E-04
RMM:   4    -0.667174915190E+02   -0.62055E-08   -0.60267E-07    29   0.334E-03
   63 T=  1126. E= -.67322081E+02 F= -.66717492E+02 E0= -.66717492E+02  EK= 0.21838E+01 SP= -.30E+01 SK= 0.24E+00
       N       E                     dE             d eps       ncg     rms          rms(c)
DAV:   1    -0.666932146362E+02    0.24277E-01   -0.54292E-02   192   0.128E+00    0.243E-03
RMM:   2    -0.666932199148E+02   -0.52786E-05   -0.53838E-05    80   0.244E-02    0.148E-03
RMM:   3    -0.666932200617E+02   -0.14695E-06   -0.27489E-06    51   0.629E-03    0.804E-04
RMM:   4    -0.666932200909E+02   -0.29172E-07   -0.42531E-07    29   0.316E-03
   64 T=  1203. E= -.67322640E+02 F= -.66693220E+02 E0= -.66693220E+02  EK= 0.23333E+01 SP= -.32E+01 SK= 0.22E+00
       N       E                     dE             d eps       ncg     rms          rms(c)
DAV:   1    -0.666679285572E+02    0.25292E-01   -0.56273E-02   192   0.129E+00    0.267E-03
RMM:   2    -0.666679404136E+02   -0.11856E-04   -0.12137E-04    92   0.324E-02    0.114E-03
RMM:   3    -0.666679408047E+02   -0.39111E-06   -0.36313E-06    53   0.655E-03    0.948E-04
RMM:   4    -0.666679408797E+02   -0.74992E-07   -0.67937E-07    29   0.319E-03
   65 T=  1280. E= -.67323136E+02 F= -.66667941E+02 E0= -.66667941E+02  EK= 0.24812E+01 SP= -.33E+01 SK= 0.19E+00
       N       E                     dE             d eps       ncg     rms          rms(c)
DAV:   1    -0.666419657439E+02    0.25975E-01   -0.58011E-02   192   0.130E+00    0.273E-03
RMM:   2    -0.666419817896E+02   -0.16046E-04   -0.16123E-04    90   0.376E-02    0.138E-03
RMM:   3    -0.666419822393E+02   -0.44975E-06   -0.46176E-06    53   0.724E-03    0.787E-04
RMM:   4    -0.666419823538E+02   -0.11444E-06   -0.99769E-07    33   0.364E-03
   66 T=  1352. E= -.67323615E+02 F= -.66641982E+02 E0= -.66641982E+02  EK= 0.26213E+01 SP= -.35E+01 SK= 0.15E+00
       N       E                     dE             d eps       ncg     rms          rms(c)
DAV:   1    -0.666157491569E+02    0.26233E-01   -0.59181E-02   192   0.131E+00    0.320E-03
RMM:   2    -0.666157708170E+02   -0.21660E-04   -0.21826E-04    94   0.436E-02    0.163E-03
RMM:   3    -0.666157712222E+02   -0.40522E-06   -0.58090E-06    55   0.776E-03    0.900E-04
RMM:   4    -0.666157712255E+02   -0.32769E-08   -0.99100E-07    36   0.361E-03
   67 T=  1417. E= -.67324159E+02 F= -.66615771E+02 E0= -.66615771E+02  EK= 0.27466E+01 SP= -.36E+01 SK= 0.11E+00
       N       E                     dE             d eps       ncg     rms          rms(c)
DAV:   1    -0.665893836433E+02    0.26388E-01   -0.59942E-02   192   0.131E+00    0.327E-03
RMM:   2    -0.665894185113E+02   -0.34868E-04   -0.35071E-04    94   0.500E-02    0.130E-03
RMM:   3    -0.665894193242E+02   -0.81289E-06   -0.80704E-06    55   0.826E-03    0.854E-04
RMM:   4    -0.665894193953E+02   -0.71030E-07   -0.10599E-06    32   0.354E-03
   68 T=  1470. E= -.67324485E+02 F= -.66589419E+02 E0= -.66589419E+02  EK= 0.28497E+01 SP= -.37E+01 SK= 0.65E-01
       N       E                     dE             d eps       ncg     rms          rms(c)
DAV:   1    -0.665633996916E+02    0.26020E-01   -0.61565E-02   144   0.130E+00    0.567E-03
RMM:   2    -0.665634910662E+02   -0.91375E-04   -0.92145E-04    95   0.812E-02    0.286E-03
RMM:   3    -0.665634933509E+02   -0.22847E-05   -0.28469E-05    61   0.145E-02    0.209E-03
RMM:   4    -0.665634934939E+02   -0.14292E-06   -0.27144E-06    45   0.542E-03
   69 T=  1508. E= -.67324641E+02 F= -.66563493E+02 E0= -.66563493E+02  EK= 0.29242E+01 SP= -.37E+01 SK= 0.32E-01
       N       E                     dE             d eps       ncg     rms          rms(c)
DAV:   1    -0.665388172876E+02    0.24676E-01   -0.58167E-02   144   0.130E+00    0.449E-03
RMM:   2    -0.665388575823E+02   -0.40295E-04   -0.40639E-04    95   0.579E-02    0.297E-03
RMM:   3    -0.665388581229E+02   -0.54057E-06   -0.11855E-05    64   0.950E-03    0.188E-03
RMM:   4    -0.665388583156E+02   -0.19266E-06   -0.20926E-06    53   0.441E-03
   70 T=  1529. E= -.67324710E+02 F= -.66538858E+02 E0= -.66538858E+02  EK= 0.29652E+01 SP= -.38E+01 SK= 0.99E-02
       N       E                     dE             d eps       ncg     rms          rms(c)
DAV:   1    -0.665163728882E+02    0.22485E-01   -0.56949E-02   144   0.126E+00    0.485E-03
RMM:   2    -0.665164365909E+02   -0.63703E-04   -0.63970E-04    93   0.729E-02    0.268E-03
RMM:   3    -0.665164383087E+02   -0.17178E-05   -0.18462E-05    59   0.132E-02    0.185E-03
RMM:   4    -0.665164384320E+02   -0.12328E-06   -0.22832E-06    45   0.544E-03
   71 T=  1532. E= -.67324566E+02 F= -.66516438E+02 E0= -.66516438E+02  EK= 0.29706E+01 SP= -.38E+01 SK= 0.30E-03
       N       E                     dE             d eps       ncg     rms          rms(c)
DAV:   1    -0.664974846317E+02    0.18954E-01   -0.53163E-02   192   0.122E+00    0.401E-03
RMM:   2    -0.664975059500E+02   -0.21318E-04   -0.21540E-04    93   0.488E-02    0.308E-03
RMM:   3    -0.664975063331E+02   -0.38311E-06   -0.53109E-06    53   0.778E-03    0.233E-03
RMM:   4    -0.664975063690E+02   -0.35878E-07   -0.12711E-06    41   0.412E-03
   72 T=  1517. E= -.67324246E+02 F= -.66497506E+02 E0= -.66497506E+02  EK= 0.29408E+01 SP= -.38E+01 SK= 0.41E-02
       N       E                     dE             d eps       ncg     rms          rms(c)
DAV:   1    -0.664833506672E+02    0.14156E-01   -0.50866E-02   192   0.118E+00    0.379E-03
RMM:   2    -0.664833651627E+02   -0.14495E-04   -0.14977E-04    91   0.389E-02    0.175E-03
RMM:   3    -0.664833655570E+02   -0.39427E-06   -0.42091E-06    53   0.673E-03    0.140E-03
RMM:   4    -0.664833657014E+02   -0.14439E-06   -0.99537E-07    35   0.355E-03
   73 T=  1485. E= -.67323695E+02 F= -.66483366E+02 E0= -.66483366E+02  EK= 0.28792E+01 SP= -.37E+01 SK= 0.20E-01
       N       E                     dE             d eps       ncg     rms          rms(c)
DAV:   1    -0.664754338050E+02    0.79318E-02   -0.49147E-02   192   0.114E+00    0.347E-03
RMM:   2    -0.664754496807E+02   -0.15876E-04   -0.16256E-04    92   0.417E-02    0.231E-03
RMM:   3    -0.664754500271E+02   -0.34635E-06   -0.37433E-06    53   0.682E-03    0.199E-03
RMM:   4    -0.664754500986E+02   -0.71559E-07   -0.84554E-07    35   0.363E-03
   74 T=  1440. E= -.67323033E+02 F= -.66475450E+02 E0= -.66475450E+02  EK= 0.27914E+01 SP= -.37E+01 SK= 0.45E-01
       N       E                     dE             d eps       ncg     rms          rms(c)
DAV:   1    -0.664749377452E+02    0.51228E-03   -0.46671E-02   192   0.110E+00    0.350E-03
RMM:   2    -0.664749504367E+02   -0.12692E-04   -0.12885E-04    89   0.378E-02    0.178E-03
RMM:   3    -0.664749507263E+02   -0.28961E-06   -0.40900E-06    52   0.690E-03    0.121E-03
RMM:   4    -0.664749507777E+02   -0.51376E-07   -0.96793E-07    33   0.365E-03
   75 T=  1384. E= -.67322369E+02 F= -.66474951E+02 E0= -.66474951E+02  EK= 0.26841E+01 SP= -.36E+01 SK= 0.77E-01
       N       E                     dE             d eps       ncg     rms          rms(c)
DAV:   1    -0.664825426975E+02   -0.75920E-02   -0.44167E-02   192   0.107E+00    0.274E-03
RMM:   2    -0.664825516432E+02   -0.89457E-05   -0.91752E-05    90   0.333E-02    0.156E-03
RMM:   3    -0.664825517563E+02   -0.11303E-06   -0.22371E-06    49   0.545E-03    0.113E-03
RMM:   4    -0.664825517893E+02   -0.33006E-07   -0.40537E-07    27   0.290E-03
   76 T=  1323. E= -.67321634E+02 F= -.66482552E+02 E0= -.66482552E+02  EK= 0.25646E+01 SP= -.35E+01 SK= 0.11E+00
       N       E                     dE             d eps       ncg     rms          rms(c)
DAV:   1    -0.664986969541E+02   -0.16145E-01   -0.41853E-02   192   0.103E+00    0.269E-03
RMM:   2    -0.664987039744E+02   -0.70203E-05   -0.73287E-05    88   0.312E-02    0.138E-03
RMM:   3    -0.664987040868E+02   -0.11246E-06   -0.18976E-06    50   0.514E-03    0.103E-03
RMM:   4    -0.664987041028E+02   -0.15987E-07   -0.27232E-07    21   0.271E-03
   77 T=  1258. E= -.67320986E+02 F= -.66498704E+02 E0= -.66498704E+02  EK= 0.24396E+01 SP= -.34E+01 SK= 0.14E+00
       N       E                     dE             d eps       ncg     rms          rms(c)
DAV:   1    -0.665232612532E+02   -0.24557E-01   -0.39918E-02   192   0.100E+00    0.262E-03
RMM:   2    -0.665232729152E+02   -0.11662E-04   -0.11699E-04    88   0.337E-02    0.155E-03
RMM:   3    -0.665232732330E+02   -0.31780E-06   -0.31325E-06    50   0.594E-03    0.121E-03
RMM:   4    -0.665232733426E+02   -0.10967E-06   -0.70266E-07    30   0.320E-03
   78 T=  1194. E= -.67320360E+02 F= -.66523273E+02 E0= -.66523273E+02  EK= 0.23149E+01 SP= -.33E+01 SK= 0.17E+00
       N       E                     dE             d eps       ncg     rms          rms(c)
DAV:   1    -0.665559299705E+02   -0.32657E-01   -0.38106E-02   192   0.982E-01    0.255E-03
RMM:   2    -0.665559394375E+02   -0.94671E-05   -0.96110E-05    85   0.327E-02    0.140E-03
RMM:   3    -0.665559395867E+02   -0.14911E-06   -0.26068E-06    48   0.589E-03    0.794E-04
RMM:   4    -0.665559396253E+02   -0.38661E-07   -0.60026E-07    29   0.309E-03
   79 T=  1132. E= -.67319799E+02 F= -.66555940E+02 E0= -.66555940E+02  EK= 0.21952E+01 SP= -.31E+01 SK= 0.19E+00
       N       E                     dE             d eps       ncg     rms          rms(c)
DAV:   1    -0.665959191796E+02   -0.39980E-01   -0.36472E-02   120   0.969E-01    0.233E-03
RMM:   2    -0.665959252589E+02   -0.60793E-05   -0.61783E-05    89   0.275E-02    0.180E-03
RMM:   3    -0.665959253724E+02   -0.11341E-06   -0.17382E-06    48   0.507E-03    0.109E-03
RMM:   4    -0.665959253691E+02    0.32337E-08   -0.19831E-07    21   0.267E-03
   80 T=  1075. E= -.67319361E+02 F= -.66595925E+02 E0= -.66595925E+02  EK= 0.20836E+01 SP= -.30E+01 SK= 0.20E+00
       N       E                     dE             d eps       ncg     rms          rms(c)
DAV:   1    -0.666419428659E+02   -0.46017E-01   -0.35037E-02   192   0.960E-01    0.243E-03
RMM:   2    -0.666419476677E+02   -0.48018E-05   -0.49917E-05    78   0.253E-02    0.129E-03
RMM:   3    -0.666419478049E+02   -0.13726E-06   -0.19642E-06    48   0.543E-03    0.819E-04
RMM:   4    -0.666419478551E+02   -0.50150E-07   -0.21313E-07    23   0.277E-03
   81 T=  1022. E= -.67318997E+02 F= -.66641948E+02 E0= -.66641948E+02  EK= 0.19817E+01 SP= -.29E+01 SK= 0.21E+00
       N       E                     dE             d eps       ncg     rms          rms(c)
DAV:   1    -0.666925043791E+02   -0.50557E-01   -0.33739E-02   192   0.957E-01    0.188E-03
RMM:   2    -0.666925102947E+02   -0.59157E-05   -0.58364E-05    86   0.274E-02    0.111E-03
RMM:   3    -0.666925104279E+02   -0.13322E-06   -0.15365E-06    49   0.492E-03    0.789E-04
RMM:   4    -0.666925104193E+02    0.86084E-08   -0.11769E-07    19   0.244E-03
   82 T=   975. E= -.67318634E+02 F= -.66692510E+02 E0= -.66692510E+02  EK= 0.18903E+01 SP= -.27E+01 SK= 0.21E+00
       N       E                     dE             d eps       ncg     rms          rms(c)
DAV:   1    -0.667461764075E+02   -0.53666E-01   -0.32551E-02   120   0.961E-01    0.256E-03
RMM:   2    -0.667461798372E+02   -0.34297E-05   -0.34483E-05    75   0.223E-02    0.116E-03
RMM:   3    -0.667461799953E+02   -0.15812E-06   -0.19716E-06    50   0.559E-03    0.671E-04
RMM:   4    -0.667461800071E+02   -0.11813E-07   -0.13654E-07    17   0.265E-03
   83 T=   933. E= -.67318353E+02 F= -.66746180E+02 E0= -.66746180E+02  EK= 0.18094E+01 SP= -.26E+01 SK= 0.20E+00
       N       E                     dE             d eps       ncg     rms          rms(c)
DAV:   1    -0.668014013138E+02   -0.55221E-01   -0.31645E-02   120   0.965E-01    0.254E-03
RMM:   2    -0.668014112824E+02   -0.99686E-05   -0.97329E-05    87   0.271E-02    0.131E-03
RMM:   3    -0.668014114898E+02   -0.20735E-06   -0.30045E-06    50   0.623E-03    0.106E-03
RMM:   4    -0.668014115005E+02   -0.10753E-07   -0.45054E-07    23   0.300E-03
   84 T=   897. E= -.67318124E+02 F= -.66801412E+02 E0= -.66801412E+02  EK= 0.17385E+01 SP= -.24E+01 SK= 0.19E+00
       N       E                     dE             d eps       ncg     rms          rms(c)
DAV:   1    -0.668566099118E+02   -0.55198E-01   -0.31002E-02   192   0.973E-01    0.213E-03
RMM:   2    -0.668566170939E+02   -0.71821E-05   -0.69606E-05    82   0.276E-02    0.120E-03
RMM:   3    -0.668566173298E+02   -0.23586E-06   -0.22024E-06    51   0.552E-03    0.676E-04
RMM:   4    -0.668566173866E+02   -0.56794E-07   -0.20320E-07    20   0.261E-03
   85 T=   865. E= -.67317791E+02 F= -.66856617E+02 E0= -.66856617E+02  EK= 0.16767E+01 SP= -.23E+01 SK= 0.18E+00
       N       E                     dE             d eps       ncg     rms          rms(c)
DAV:   1    -0.669106575211E+02   -0.54040E-01   -0.30391E-02   192   0.985E-01    0.223E-03
RMM:   2    -0.669106634904E+02   -0.59694E-05   -0.58478E-05    86   0.275E-02    0.112E-03
RMM:   3    -0.669106635888E+02   -0.98338E-07   -0.18445E-06    50   0.545E-03    0.818E-04
RMM:   4    -0.669106635644E+02    0.24354E-07   -0.10628E-07    15   0.254E-03
   86 T=   837. E= -.67317500E+02 F= -.66910664E+02 E0= -.66910664E+02  EK= 0.16231E+01 SP= -.22E+01 SK= 0.16E+00
       N       E                     dE             d eps       ncg     rms          rms(c)
DAV:   1    -0.669623893272E+02   -0.51726E-01   -0.29843E-02   120   0.998E-01    0.263E-03
RMM:   2    -0.669623941025E+02   -0.47753E-05   -0.47436E-05    76   0.216E-02    0.161E-03
RMM:   3    -0.669623942987E+02   -0.19621E-06   -0.28940E-06    50   0.648E-03    0.764E-04
RMM:   4    -0.669623943198E+02   -0.21098E-07   -0.50238E-07    28   0.322E-03
   87 T=   813. E= -.67317272E+02 F= -.66962394E+02 E0= -.66962394E+02  EK= 0.15769E+01 SP= -.21E+01 SK= 0.14E+00
       N       E                     dE             d eps       ncg     rms          rms(c)
DAV:   1    -0.670106902767E+02   -0.48296E-01   -0.29395E-02   192   0.101E+00    0.180E-03
RMM:   2    -0.670106964266E+02   -0.61498E-05   -0.59911E-05    81   0.234E-02    0.110E-03
RMM:   3    -0.670106966755E+02   -0.24890E-06   -0.26475E-06    52   0.593E-03    0.797E-04
RMM:   4    -0.670106967188E+02   -0.43285E-07   -0.38283E-07    23   0.284E-03
   88 T=   793. E= -.67317032E+02 F= -.67010697E+02 E0= -.67010697E+02  EK= 0.15370E+01 SP= -.20E+01 SK= 0.12E+00
       N       E                     dE             d eps       ncg     rms          rms(c)
DAV:   1    -0.670547643296E+02   -0.44068E-01   -0.28962E-02   192   0.102E+00    0.241E-03
RMM:   2    -0.670547702684E+02   -0.59389E-05   -0.58063E-05    80   0.245E-02    0.107E-03
RMM:   3    -0.670547704540E+02   -0.18557E-06   -0.27088E-06    51   0.623E-03    0.649E-04
RMM:   4    -0.670547704849E+02   -0.30906E-07   -0.32013E-07    19   0.301E-03
   89 T=   775. E= -.67316827E+02 F= -.67054770E+02 E0= -.67054770E+02  EK= 0.15027E+01 SP= -.19E+01 SK= 0.94E-01
       N       E                     dE             d eps       ncg     rms          rms(c)
DAV:   1    -0.670938631387E+02   -0.39093E-01   -0.28550E-02   120   0.103E+00    0.237E-03
RMM:   2    -0.670938668791E+02   -0.37404E-05   -0.35108E-05    78   0.201E-02    0.106E-03
RMM:   3    -0.670938671618E+02   -0.28274E-06   -0.24341E-06    50   0.619E-03    0.674E-04
RMM:   4    -0.670938672456E+02   -0.83760E-07   -0.28462E-07    21   0.289E-03
   90 T=   760. E= -.67316626E+02 F= -.67093867E+02 E0= -.67093867E+02  EK= 0.14734E+01 SP= -.18E+01 SK= 0.73E-01
       N       E                     dE             d eps       ncg     rms          rms(c)
DAV:   1    -0.671274364844E+02   -0.33569E-01   -0.28316E-02   120   0.104E+00    0.219E-03
RMM:   2    -0.671274432470E+02   -0.67626E-05   -0.67039E-05    81   0.221E-02    0.125E-03
RMM:   3    -0.671274433811E+02   -0.13413E-06   -0.30716E-06    51   0.639E-03    0.103E-03
RMM:   4    -0.671274433830E+02   -0.18572E-08   -0.46103E-07    26   0.308E-03
   91 T=   747. E= -.67316491E+02 F= -.67127443E+02 E0= -.67127443E+02  EK= 0.14484E+01 SP= -.17E+01 SK= 0.54E-01
       N       E                     dE             d eps       ncg     rms          rms(c)
DAV:   1    -0.671549178640E+02   -0.27474E-01   -0.28122E-02   120   0.105E+00    0.243E-03
RMM:   2    -0.671549253436E+02   -0.74796E-05   -0.71952E-05    82   0.228E-02    0.126E-03
RMM:   3    -0.671549257078E+02   -0.36427E-06   -0.31509E-06    50   0.651E-03    0.787E-04
RMM:   4    -0.671549257901E+02   -0.82292E-07   -0.57190E-07    28   0.324E-03
   92 T=   736. E= -.67316336E+02 F= -.67154926E+02 E0= -.67154926E+02  EK= 0.14272E+01 SP= -.16E+01 SK= 0.37E-01
       N       E                     dE             d eps       ncg     rms          rms(c)
DAV:   1    -0.671760193939E+02   -0.21094E-01   -0.27961E-02   120   0.106E+00    0.320E-03
RMM:   2    -0.671760228941E+02   -0.35002E-05   -0.34960E-05    74   0.200E-02    0.135E-03
RMM:   3    -0.671760230200E+02   -0.12586E-06   -0.24598E-06    51   0.627E-03    0.648E-04
RMM:   4    -0.671760230316E+02   -0.11629E-07   -0.37454E-07    28   0.302E-03
   93 T=   727. E= -.67316187E+02 F= -.67176023E+02 E0= -.67176023E+02  EK= 0.14095E+01 SP= -.16E+01 SK= 0.23E-01
       N       E                     dE             d eps       ncg     rms          rms(c)
DAV:   1    -0.671905441447E+02   -0.14521E-01   -0.27890E-02   192   0.107E+00    0.181E-03
RMM:   2    -0.671905492065E+02   -0.50618E-05   -0.49549E-05    77   0.223E-02    0.944E-04
RMM:   3    -0.671905494382E+02   -0.23171E-06   -0.25270E-06    50   0.622E-03    0.733E-04
RMM:   4    -0.671905494304E+02    0.78448E-08   -0.37765E-07    25   0.290E-03
   94 T=   720. E= -.67315994E+02 F= -.67190549E+02 E0= -.67190549E+02  EK= 0.13952E+01 SP= -.15E+01 SK= 0.12E-01
       N       E                     dE             d eps       ncg     rms          rms(c)
DAV:   1    -0.671986070738E+02   -0.80576E-02   -0.27767E-02   192   0.107E+00    0.257E-03
RMM:   2    -0.671986107195E+02   -0.36457E-05   -0.36373E-05    74   0.216E-02    0.172E-03
RMM:   3    -0.671986109121E+02   -0.19261E-06   -0.25325E-06    51   0.618E-03    0.102E-03
RMM:   4    -0.671986108975E+02    0.14671E-07   -0.37253E-07    25   0.316E-03
   95 T=   714. E= -.67315898E+02 F= -.67198611E+02 E0= -.67198611E+02  EK= 0.13843E+01 SP= -.15E+01 SK= 0.41E-02
       N       E                     dE             d eps       ncg     rms          rms(c)
DAV:   1    -0.672001499889E+02   -0.15391E-02   -0.27656E-02   120   0.108E+00    0.255E-03
RMM:   2    -0.672001542125E+02   -0.42235E-05   -0.39996E-05    79   0.212E-02    0.115E-03
RMM:   3    -0.672001543417E+02   -0.12927E-06   -0.20755E-06    50   0.581E-03    0.775E-04
RMM:   4    -0.672001543164E+02    0.25349E-07   -0.18429E-07    21   0.279E-03
   96 T=   710. E= -.67315752E+02 F= -.67200154E+02 E0= -.67200154E+02  EK= 0.13768E+01 SP= -.15E+01 SK= 0.37E-03
       N       E                     dE             d eps       ncg     rms          rms(c)
DAV:   1    -0.671955929947E+02    0.45613E-02   -0.27558E-02   120   0.108E+00    0.212E-03
RMM:   2    -0.671955978663E+02   -0.48716E-05   -0.50929E-05    78   0.210E-02    0.131E-03
RMM:   3    -0.671955980561E+02   -0.18977E-06   -0.27548E-06    49   0.615E-03    0.107E-03
RMM:   4    -0.671955980393E+02    0.16731E-07   -0.42141E-07    22   0.296E-03
   97 T=   708. E= -.67315735E+02 F= -.67195598E+02 E0= -.67195598E+02  EK= 0.13729E+01 SP= -.15E+01 SK= 0.66E-03
       N       E                     dE             d eps       ncg     rms          rms(c)
DAV:   1    -0.671850149652E+02    0.10583E-01   -0.27553E-02   120   0.108E+00    0.243E-03
RMM:   2    -0.671850184816E+02   -0.35164E-05   -0.34376E-05    75   0.197E-02    0.161E-03
RMM:   3    -0.671850186807E+02   -0.19915E-06   -0.23903E-06    49   0.592E-03    0.961E-04
RMM:   4    -0.671850187459E+02   -0.65219E-07   -0.33938E-07    25   0.304E-03
   98 T=   708. E= -.67315695E+02 F= -.67185019E+02 E0= -.67185019E+02  EK= 0.13730E+01 SP= -.15E+01 SK= 0.50E-02
       N       E                     dE             d eps       ncg     rms          rms(c)
DAV:   1    -0.671687702503E+02    0.16248E-01   -0.27529E-02   120   0.107E+00    0.272E-03
RMM:   2    -0.671687743145E+02   -0.40642E-05   -0.39880E-05    77   0.207E-02    0.141E-03
RMM:   3    -0.671687744937E+02   -0.17916E-06   -0.26800E-06    49   0.639E-03    0.724E-04
RMM:   4    -0.671687744773E+02    0.16387E-07   -0.39752E-07    27   0.317E-03
   99 T=   710. E= -.67315740E+02 F= -.67168774E+02 E0= -.67168774E+02  EK= 0.13772E+01 SP= -.15E+01 SK= 0.13E-01
       N       E                     dE             d eps       ncg     rms          rms(c)
DAV:   1    -0.671470619229E+02    0.21713E-01   -0.27567E-02   120   0.107E+00    0.258E-03
RMM:   2    -0.671470664890E+02   -0.45661E-05   -0.47862E-05    80   0.214E-02    0.121E-03
RMM:   3    -0.671470668119E+02   -0.32292E-06   -0.30696E-06    52   0.650E-03    0.828E-04
RMM:   4    -0.671470668045E+02    0.74306E-08   -0.50995E-07    29   0.322E-03
  100 T=   715. E= -.67315884E+02 F= -.67147067E+02 E0= -.67147067E+02  EK= 0.13859E+01 SP= -.16E+01 SK= 0.26E-01
       N       E                     dE             d eps       ncg     rms          rms(c)
DAV:   1    -0.671199621388E+02    0.27105E-01   -0.27588E-02   120   0.107E+00    0.187E-03
RMM:   2    -0.671199644798E+02   -0.23410E-05   -0.23386E-05    67   0.178E-02    0.102E-03
RMM:   3    -0.671199647239E+02   -0.24415E-06   -0.22620E-06    51   0.597E-03    0.719E-04
RMM:   4    -0.671199647786E+02   -0.54653E-07   -0.27558E-07    23   0.278E-03
  101 T=   722. E= -.67316073E+02 F= -.67119965E+02 E0= -.67119965E+02  EK= 0.13992E+01 SP= -.16E+01 SK= 0.42E-01
       N       E                     dE             d eps       ncg     rms          rms(c)
DAV:   1    -0.670875582015E+02    0.32407E-01   -0.27726E-02   120   0.107E+00    0.339E-03
RMM:   2    -0.670875623105E+02   -0.41090E-05   -0.42968E-05    78   0.207E-02    0.155E-03
RMM:   3    -0.670875625877E+02   -0.27717E-06   -0.27887E-06    50   0.640E-03    0.108E-03
RMM:   4    -0.670875626638E+02   -0.76057E-07   -0.53025E-07    29   0.320E-03
  102 T=   731. E= -.67316323E+02 F= -.67087563E+02 E0= -.67087563E+02  EK= 0.14173E+01 SP= -.17E+01 SK= 0.61E-01
       N       E                     dE             d eps       ncg     rms          rms(c)
DAV:   1    -0.670497714881E+02    0.37791E-01   -0.27797E-02   120   0.107E+00    0.205E-03
RMM:   2    -0.670497747350E+02   -0.32469E-05   -0.31362E-05    73   0.193E-02    0.894E-04
RMM:   3    -0.670497749869E+02   -0.25191E-06   -0.24179E-06    50   0.604E-03    0.730E-04
RMM:   4    -0.670497750350E+02   -0.48113E-07   -0.26515E-07    19   0.291E-03
  103 T=   743. E= -.67316559E+02 F= -.67049775E+02 E0= -.67049775E+02  EK= 0.14403E+01 SP= -.18E+01 SK= 0.82E-01
       N       E                     dE             d eps       ncg     rms          rms(c)
DAV:   1    -0.670066661295E+02    0.43109E-01   -0.27961E-02   120   0.107E+00    0.313E-03
RMM:   2    -0.670066700035E+02   -0.38741E-05   -0.39164E-05    76   0.215E-02    0.125E-03
RMM:   3    -0.670066701278E+02   -0.12430E-06   -0.30222E-06    50   0.654E-03    0.624E-04
RMM:   4    -0.670066701085E+02    0.19322E-07   -0.53066E-07    28   0.325E-03
  104 T=   757. E= -.67316837E+02 F= -.67006670E+02 E0= -.67006670E+02  EK= 0.14682E+01 SP= -.19E+01 SK= 0.11E+00
       N       E                     dE             d eps       ncg     rms          rms(c)
DAV:   1    -0.669583644484E+02    0.48306E-01   -0.28120E-02   120   0.107E+00    0.325E-03
RMM:   2    -0.669583701953E+02   -0.57468E-05   -0.54786E-05    82   0.232E-02    0.133E-03
RMM:   3    -0.669583704870E+02   -0.29174E-06   -0.28759E-06    52   0.638E-03    0.107E-03
RMM:   4    -0.669583704879E+02   -0.87039E-09   -0.53673E-07    32   0.322E-03
  105 T=   774. E= -.67317130E+02 F= -.66958370E+02 E0= -.66958370E+02  EK= 0.15013E+01 SP= -.20E+01 SK= 0.13E+00
       N       E                     dE             d eps       ncg     rms          rms(c)
DAV:   1    -0.669052715945E+02    0.53099E-01   -0.28317E-02   120   0.107E+00    0.332E-03
RMM:   2    -0.669052764143E+02   -0.48198E-05   -0.48010E-05    86   0.237E-02    0.150E-03
RMM:   3    -0.669052764801E+02   -0.65867E-07   -0.20619E-06    50   0.542E-03    0.691E-04
RMM:   4    -0.669052765019E+02   -0.21728E-07   -0.32639E-07    22   0.295E-03
  106 T=   794. E= -.67317372E+02 F= -.66905277E+02 E0= -.66905277E+02  EK= 0.15401E+01 SP= -.21E+01 SK= 0.16E+00
       N       E                     dE             d eps       ncg     rms          rms(c)
DAV:   1    -0.668483417670E+02    0.56935E-01   -0.28543E-02   192   0.107E+00    0.242E-03
RMM:   2    -0.668483472823E+02   -0.55153E-05   -0.54188E-05    89   0.268E-02    0.116E-03
RMM:   3    -0.668483474625E+02   -0.18023E-06   -0.14507E-06    50   0.485E-03    0.680E-04
RMM:   4    -0.668483475028E+02   -0.40302E-07   -0.87260E-08    18   0.237E-03
  107 T=   818. E= -.67317560E+02 F= -.66848348E+02 E0= -.66848348E+02  EK= 0.15856E+01 SP= -.22E+01 SK= 0.18E+00
       N       E                     dE             d eps       ncg     rms          rms(c)
DAV:   1    -0.667892830458E+02    0.59064E-01   -0.28873E-02   144   0.108E+00    0.390E-03
RMM:   2    -0.667892892433E+02   -0.61975E-05   -0.64432E-05    87   0.282E-02    0.153E-03
RMM:   3    -0.667892894053E+02   -0.16208E-06   -0.22221E-06    50   0.578E-03    0.873E-04
RMM:   4    -0.667892894114E+02   -0.60159E-08   -0.45973E-07    30   0.313E-03
  108 T=   846. E= -.67317663E+02 F= -.66789289E+02 E0= -.66789289E+02  EK= 0.16395E+01 SP= -.24E+01 SK= 0.20E+00
       N       E                     dE             d eps       ncg     rms          rms(c)
DAV:   1    -0.667308271165E+02    0.58462E-01   -0.29322E-02   144   0.108E+00    0.319E-03
RMM:   2    -0.667308355527E+02   -0.84362E-05   -0.85672E-05    89   0.320E-02    0.161E-03
RMM:   3    -0.667308355899E+02   -0.37191E-07   -0.22726E-06    51   0.589E-03    0.860E-04
RMM:   4    -0.667308354867E+02    0.10319E-06   -0.25117E-07    20   0.278E-03
  109 T=   879. E= -.67317809E+02 F= -.66730835E+02 E0= -.66730835E+02  EK= 0.17046E+01 SP= -.25E+01 SK= 0.22E+00
       N       E                     dE             d eps       ncg     rms          rms(c)
DAV:   1    -0.666761614327E+02    0.54674E-01   -0.29993E-02   144   0.109E+00    0.377E-03
RMM:   2    -0.666761694937E+02   -0.80610E-05   -0.83626E-05    88   0.324E-02    0.140E-03
RMM:   3    -0.666761697758E+02   -0.28218E-06   -0.24605E-06    50   0.613E-03    0.904E-04
RMM:   4    -0.666761698507E+02   -0.74828E-07   -0.38227E-07    27   0.306E-03
  110 T=   920. E= -.67317807E+02 F= -.66676170E+02 E0= -.66676170E+02  EK= 0.17840E+01 SP= -.27E+01 SK= 0.24E+00
       N       E                     dE             d eps       ncg     rms          rms(c)
DAV:   1    -0.666294425159E+02    0.46727E-01   -0.30941E-02   144   0.110E+00    0.331E-03
RMM:   2    -0.666294514113E+02   -0.88954E-05   -0.91734E-05    89   0.340E-02    0.106E-03
RMM:   3    -0.666294515195E+02   -0.10822E-06   -0.24929E-06    51   0.623E-03    0.681E-04
RMM:   4    -0.666294515422E+02   -0.22657E-07   -0.30825E-07    27   0.295E-03
  111 T=   970. E= -.67317921E+02 F= -.66629452E+02 E0= -.66629452E+02  EK= 0.18817E+01 SP= -.28E+01 SK= 0.25E+00
       N       E                     dE             d eps       ncg     rms          rms(c)
DAV:   1    -0.665946379693E+02    0.34814E-01   -0.32354E-02   144   0.112E+00    0.299E-03
RMM:   2    -0.665946447320E+02   -0.67627E-05   -0.70075E-05    88   0.312E-02    0.102E-03
RMM:   3    -0.665946449818E+02   -0.24975E-06   -0.19667E-06    48   0.558E-03    0.669E-04
RMM:   4    -0.665946449900E+02   -0.82505E-08   -0.16803E-07    17   0.284E-03
  112 T=  1032. E= -.67318166E+02 F= -.66594645E+02 E0= -.66594645E+02  EK= 0.20011E+01 SP= -.30E+01 SK= 0.25E+00
       N       E                     dE             d eps       ncg     rms          rms(c)
DAV:   1    -0.665751865805E+02    0.19458E-01   -0.34286E-02   144   0.115E+00    0.298E-03
RMM:   2    -0.665751942452E+02   -0.76648E-05   -0.79245E-05    89   0.324E-02    0.102E-03
RMM:   3    -0.665751944330E+02   -0.18777E-06   -0.22255E-06    52   0.586E-03    0.610E-04
RMM:   4    -0.665751944988E+02   -0.65817E-07   -0.20240E-07    19   0.280E-03
  113 T=  1106. E= -.67318611E+02 F= -.66575194E+02 E0= -.66575194E+02  EK= 0.21444E+01 SP= -.31E+01 SK= 0.24E+00
       N       E                     dE             d eps       ncg     rms          rms(c)
DAV:   1    -0.665733624708E+02    0.18320E-02   -0.36832E-02   120   0.119E+00    0.357E-03
RMM:   2    -0.665733701109E+02   -0.76401E-05   -0.77288E-05    90   0.310E-02    0.171E-03
RMM:   3    -0.665733703485E+02   -0.23768E-06   -0.24644E-06    50   0.586E-03    0.111E-03
RMM:   4    -0.665733702863E+02    0.62220E-07   -0.34348E-07    23   0.296E-03
  114 T=  1192. E= -.67319559E+02 F= -.66573370E+02 E0= -.66573370E+02  EK= 0.23111E+01 SP= -.33E+01 SK= 0.21E+00
       N       E                     dE             d eps       ncg     rms          rms(c)
DAV:   1    -0.665887186981E+02   -0.15348E-01   -0.39878E-02   144   0.125E+00    0.335E-03
RMM:   2    -0.665887266609E+02   -0.79628E-05   -0.79489E-05    90   0.323E-02    0.167E-03
RMM:   3    -0.665887269662E+02   -0.30537E-06   -0.22428E-06    52   0.584E-03    0.115E-03
RMM:   4    -0.665887270754E+02   -0.10914E-06   -0.31402E-07    25   0.298E-03
  115 T=  1288. E= -.67320692E+02 F= -.66588727E+02 E0= -.66588727E+02  EK= 0.24968E+01 SP= -.34E+01 SK= 0.18E+00
       N       E                     dE             d eps       ncg     rms          rms(c)
DAV:   1    -0.666188072686E+02   -0.30080E-01   -0.43679E-02   144   0.132E+00    0.383E-03
RMM:   2    -0.666188152359E+02   -0.79673E-05   -0.80099E-05    92   0.334E-02    0.223E-03
RMM:   3    -0.666188150909E+02    0.14503E-06   -0.22566E-06    53   0.563E-03    0.105E-03
RMM:   4    -0.666188151232E+02   -0.32330E-07   -0.29937E-07    25   0.296E-03
  116 T=  1388. E= -.67322084E+02 F= -.66618815E+02 E0= -.66618815E+02  EK= 0.26921E+01 SP= -.35E+01 SK= 0.14E+00
       N       E                     dE             d eps       ncg     rms          rms(c)
DAV:   1    -0.666585762298E+02   -0.39761E-01   -0.47610E-02   144   0.139E+00    0.387E-03
RMM:   2    -0.666585867399E+02   -0.10510E-04   -0.98494E-05    92   0.373E-02    0.285E-03
RMM:   3    -0.666585866235E+02    0.11638E-06   -0.25071E-06    51   0.612E-03    0.188E-03
RMM:   4    -0.666585862777E+02    0.34574E-06   -0.41154E-07    28   0.321E-03
  117 T=  1487. E= -.67323713E+02 F= -.66658586E+02 E0= -.66658586E+02  EK= 0.28826E+01 SP= -.36E+01 SK= 0.94E-01
       N       E                     dE             d eps       ncg     rms          rms(c)
DAV:   1    -0.667008724999E+02   -0.42286E-01   -0.52268E-02   192   0.147E+00    0.403E-03
RMM:   2    -0.667008829715E+02   -0.10472E-04   -0.96162E-05    93   0.390E-02    0.198E-03
RMM:   3    -0.667008832492E+02   -0.27774E-06   -0.18104E-06    52   0.525E-03    0.110E-03
RMM:   4    -0.667008833995E+02   -0.15029E-06   -0.14495E-07    26   0.282E-03
  118 T=  1573. E= -.67325288E+02 F= -.66700883E+02 E0= -.66700883E+02  EK= 0.30500E+01 SP= -.37E+01 SK= 0.51E-01
       N       E                     dE             d eps       ncg     rms          rms(c)
DAV:   1    -0.667379952162E+02   -0.37112E-01   -0.56391E-02   192   0.154E+00    0.581E-03
RMM:   2    -0.667380060256E+02   -0.10809E-04   -0.11653E-04    93   0.420E-02    0.262E-03
RMM:   3    -0.667380061469E+02   -0.12125E-06   -0.27324E-06    53   0.629E-03    0.127E-03
RMM:   4    -0.667380062568E+02   -0.10996E-06   -0.57367E-07    40   0.335E-03
  119 T=  1637. E= -.67326588E+02 F= -.66738006E+02 E0= -.66738006E+02  EK= 0.31748E+01 SP= -.38E+01 SK= 0.17E-01
       N       E                     dE             d eps       ncg     rms          rms(c)
DAV:   1    -0.667627273753E+02   -0.24721E-01   -0.60066E-02   192   0.159E+00    0.389E-03
RMM:   2    -0.667627400398E+02   -0.12665E-04   -0.11408E-04    93   0.424E-02    0.152E-03
RMM:   3    -0.667627403668E+02   -0.32693E-06   -0.26186E-06    52   0.627E-03    0.970E-04
RMM:   4    -0.667627403216E+02    0.45183E-07   -0.25350E-07    28   0.307E-03
  120 T=  1671. E= -.67327390E+02 F= -.66762740E+02 E0= -.66762740E+02  EK= 0.32403E+01 SP= -.38E+01 SK= 0.89E-03
       N       E                     dE             d eps       ncg     rms          rms(c)
DAV:   1    -0.667694237600E+02   -0.66834E-02   -0.62550E-02   192   0.162E+00    0.436E-03
RMM:   2    -0.667694359388E+02   -0.12179E-04   -0.11472E-04    93   0.421E-02    0.200E-03
RMM:   3    -0.667694360907E+02   -0.15193E-06   -0.26568E-06    52   0.613E-03    0.115E-03
RMM:   4    -0.667694360561E+02    0.34673E-07   -0.49067E-07    35   0.334E-03
  121 T=  1669. E= -.67327492E+02 F= -.66769436E+02 E0= -.66769436E+02  EK= 0.32355E+01 SP= -.38E+01 SK= 0.55E-02
       N       E                     dE             d eps       ncg     rms          rms(c)
DAV:   1    -0.667550114291E+02    0.14425E-01   -0.63486E-02   192   0.163E+00    0.352E-03
RMM:   2    -0.667550217448E+02   -0.10316E-04   -0.94561E-05    92   0.378E-02    0.120E-03
RMM:   3    -0.667550218016E+02   -0.56745E-07   -0.21968E-06    52   0.587E-03    0.754E-04
RMM:   4    -0.667550216735E+02    0.12808E-06   -0.22515E-07    24   0.291E-03
  122 T=  1629. E= -.67327118E+02 F= -.66755022E+02 E0= -.66755022E+02  EK= 0.31577E+01 SP= -.38E+01 SK= 0.30E-01
       N       E                     dE             d eps       ncg     rms          rms(c)
DAV:   1    -0.667185107252E+02    0.36511E-01   -0.62774E-02   192   0.161E+00    0.329E-03
RMM:   2    -0.667185208643E+02   -0.10139E-04   -0.96459E-05    90   0.365E-02    0.148E-03
RMM:   3    -0.667185210612E+02   -0.19692E-06   -0.23957E-06    52   0.613E-03    0.893E-04
RMM:   4    -0.667185211322E+02   -0.71005E-07   -0.23795E-07    24   0.294E-03
  123 T=  1554. E= -.67326086E+02 F= -.66718521E+02 E0= -.66718521E+02  EK= 0.30131E+01 SP= -.37E+01 SK= 0.71E-01
       N       E                     dE             d eps       ncg     rms          rms(c)
DAV:   1    -0.666615984133E+02    0.56923E-01   -0.60361E-02   192   0.157E+00    0.340E-03
RMM:   2    -0.666616051008E+02   -0.66875E-05   -0.67063E-05    89   0.313E-02    0.128E-03
RMM:   3    -0.666616051968E+02   -0.96012E-07   -0.22693E-06    52   0.583E-03    0.532E-04
RMM:   4    -0.666616053292E+02   -0.13236E-06   -0.21871E-07    26   0.289E-03
  124 T=  1452. E= -.67324739E+02 F= -.66661605E+02 E0= -.66661605E+02  EK= 0.28149E+01 SP= -.36E+01 SK= 0.12E+00
       N       E                     dE             d eps       ncg     rms          rms(c)
DAV:   1    -0.665872736373E+02    0.74332E-01   -0.56782E-02   144   0.152E+00    0.312E-03
RMM:   2    -0.665872829795E+02   -0.93422E-05   -0.91124E-05    89   0.334E-02    0.120E-03
RMM:   3    -0.665872832456E+02   -0.26606E-06   -0.30354E-06    53   0.649E-03    0.106E-03
RMM:   4    -0.665872832741E+02   -0.28452E-07   -0.53893E-07    34   0.321E-03
  125 T=  1331. E= -.67323122E+02 F= -.66587283E+02 E0= -.66587283E+02  EK= 0.25802E+01 SP= -.35E+01 SK= 0.16E+00
       N       E                     dE             d eps       ncg     rms          rms(c)
DAV:   1    -0.664999160898E+02    0.87367E-01   -0.52311E-02   120   0.146E+00    0.346E-03
RMM:   2    -0.664999240036E+02   -0.79138E-05   -0.81772E-05    92   0.321E-02    0.114E-03
RMM:   3    -0.664999242824E+02   -0.27877E-06   -0.24956E-06    52   0.592E-03    0.743E-04
RMM:   4    -0.664999242863E+02   -0.38785E-08   -0.42645E-07    32   0.312E-03
  126 T=  1200. E= -.67321464E+02 F= -.66499924E+02 E0= -.66499924E+02  EK= 0.23272E+01 SP= -.33E+01 SK= 0.20E+00
       N       E                     dE             d eps       ncg     rms          rms(c)
DAV:   1    -0.664043346505E+02    0.95590E-01   -0.47397E-02   168   0.138E+00    0.373E-03
RMM:   2    -0.664043420506E+02   -0.74001E-05   -0.79768E-05    91   0.331E-02    0.119E-03
RMM:   3    -0.664043421933E+02   -0.14269E-06   -0.23333E-06    52   0.597E-03    0.712E-04
RMM:   4    -0.664043422043E+02   -0.10979E-07   -0.32104E-07    24   0.304E-03
  127 T=  1069. E= -.67319930E+02 F= -.66404342E+02 E0= -.66404342E+02  EK= 0.20723E+01 SP= -.32E+01 SK= 0.22E+00
       N       E                     dE             d eps       ncg     rms          rms(c)
DAV:   1    -0.663052376113E+02    0.99105E-01   -0.42316E-02   144   0.129E+00    0.288E-03
RMM:   2    -0.663052438722E+02   -0.62609E-05   -0.68961E-05    92   0.316E-02    0.104E-03
RMM:   3    -0.663052440682E+02   -0.19595E-06   -0.19614E-06    51   0.546E-03    0.895E-04
RMM:   4    -0.663052440896E+02   -0.21386E-07   -0.19320E-07    16   0.276E-03
  128 T=   943. E= -.67318600E+02 F= -.66305244E+02 E0= -.66305244E+02  EK= 0.18285E+01 SP= -.31E+01 SK= 0.22E+00
       N       E                     dE             d eps       ncg     rms          rms(c)
DAV:   1    -0.662068326301E+02    0.98411E-01   -0.37431E-02   144   0.120E+00    0.409E-03
RMM:   2    -0.662068377992E+02   -0.51691E-05   -0.62041E-05    91   0.304E-02    0.130E-03
RMM:   3    -0.662068380219E+02   -0.22269E-06   -0.23309E-06    50   0.571E-03    0.608E-04
RMM:   4    -0.662068381540E+02   -0.13211E-06   -0.31493E-07    23   0.299E-03
  129 T=   828. E= -.67317382E+02 F= -.66206838E+02 E0= -.66206838E+02  EK= 0.16050E+01 SP= -.29E+01 SK= 0.20E+00
       N       E                     dE             d eps       ncg     rms          rms(c)
DAV:   1    -0.661126915482E+02    0.94146E-01   -0.32818E-02   144   0.111E+00    0.285E-03
RMM:   2    -0.661126974729E+02   -0.59247E-05   -0.63966E-05    89   0.297E-02    0.105E-03
RMM:   3    -0.661126976956E+02   -0.22266E-06   -0.24284E-06    50   0.613E-03    0.780E-04
RMM:   4    -0.661126977417E+02   -0.46145E-07   -0.32795E-07    22   0.311E-03
  130 T=   726. E= -.67316126E+02 F= -.66112698E+02 E0= -.66112698E+02  EK= 0.14075E+01 SP= -.28E+01 SK= 0.17E+00
       N       E                     dE             d eps       ncg     rms          rms(c)
DAV:   1    -0.660261596182E+02    0.86538E-01   -0.28721E-02   120   0.103E+00    0.250E-03
RMM:   2    -0.660261642678E+02   -0.46496E-05   -0.51813E-05    90   0.273E-02    0.921E-04
RMM:   3    -0.660261644137E+02   -0.14587E-06   -0.17994E-06    46   0.521E-03    0.502E-04
RMM:   4    -0.660261643866E+02    0.27053E-07   -0.22302E-07    18   0.290E-03
  131 T=   639. E= -.67315094E+02 F= -.66026164E+02 E0= -.66026164E+02  EK= 0.12389E+01 SP= -.27E+01 SK= 0.13E+00
       N       E                     dE             d eps       ncg     rms          rms(c)
DAV:   1    -0.659496238810E+02    0.76541E-01   -0.25172E-02   120   0.952E-01    0.259E-03
RMM:   2    -0.659496280747E+02   -0.41938E-05   -0.46960E-05    86   0.251E-02    0.644E-04
RMM:   3    -0.659496282687E+02   -0.19394E-06   -0.21751E-06    52   0.565E-03    0.461E-04
RMM:   4    -0.659496282235E+02    0.45175E-07   -0.25667E-07    20   0.285E-03
  132 T=   567. E= -.67314246E+02 F= -.65949628E+02 E0= -.65949628E+02  EK= 0.11001E+01 SP= -.26E+01 SK= 0.91E-01
       N       E                     dE             d eps       ncg     rms          rms(c)
DAV:   1    -0.658847680464E+02    0.64860E-01   -0.22206E-02   120   0.882E-01    0.207E-03
RMM:   2    -0.658847707266E+02   -0.26802E-05   -0.30196E-05    74   0.219E-02    0.874E-04
RMM:   3    -0.658847709697E+02   -0.24312E-06   -0.22957E-06    50   0.610E-03    0.320E-04
RMM:   4    -0.658847710232E+02   -0.53478E-07   -0.39912E-07    22   0.296E-03
  133 T=   511. E= -.67313521E+02 F= -.65884771E+02 E0= -.65884771E+02  EK= 0.99056E+00 SP= -.25E+01 SK= 0.53E-01
       N       E                     dE             d eps       ncg     rms          rms(c)
DAV:   1    -0.658327562248E+02    0.52015E-01   -0.19827E-02   120   0.819E-01    0.189E-03
RMM:   2    -0.658327585547E+02   -0.23299E-05   -0.26649E-05    67   0.199E-02    0.638E-04
RMM:   3    -0.658327588734E+02   -0.31873E-06   -0.25491E-06    52   0.649E-03    0.386E-04
RMM:   4    -0.658327589713E+02   -0.97933E-07   -0.37659E-07    26   0.299E-03
  134 T=   469. E= -.67312934E+02 F= -.65832759E+02 E0= -.65832759E+02  EK= 0.90939E+00 SP= -.24E+01 SK= 0.23E-01
       N       E                     dE             d eps       ncg     rms          rms(c)
DAV:   1    -0.657942809767E+02    0.38478E-01   -0.18005E-02   120   0.767E-01    0.171E-03
RMM:   2    -0.657942825480E+02   -0.15714E-05   -0.19172E-05    59   0.172E-02    0.559E-04
RMM:   3    -0.657942827406E+02   -0.19253E-06   -0.24155E-06    50   0.628E-03    0.307E-04
RMM:   4    -0.657942827700E+02   -0.29460E-07   -0.34101E-07    26   0.288E-03
  135 T=   441. E= -.67312582E+02 F= -.65794283E+02 E0= -.65794283E+02  EK= 0.85529E+00 SP= -.24E+01 SK= 0.46E-02
       N       E                     dE             d eps       ncg     rms          rms(c)
DAV:   1    -0.657694591090E+02    0.24824E-01   -0.16709E-02   120   0.725E-01    0.142E-03
RMM:   2    -0.657694606209E+02   -0.15120E-05   -0.15510E-05    56   0.154E-02    0.641E-04
RMM:   3    -0.657694608097E+02   -0.18876E-06   -0.19605E-06    49   0.572E-03    0.385E-04
RMM:   4    -0.657694607898E+02    0.19855E-07   -0.19356E-07    18   0.264E-03
  136 T=   427. E= -.67312441E+02 F= -.65769461E+02 E0= -.65769461E+02  EK= 0.82714E+00 SP= -.24E+01 SK= 0.37E-03
       N       E                     dE             d eps       ncg     rms          rms(c)
DAV:   1    -0.657581225773E+02    0.11338E-01   -0.15917E-02   120   0.695E-01    0.152E-03
RMM:   2    -0.657581239277E+02   -0.13504E-05   -0.15267E-05    57   0.146E-02    0.538E-04
RMM:   3    -0.657581241131E+02   -0.18536E-06   -0.18853E-06    51   0.555E-03    0.303E-04
RMM:   4    -0.657581241252E+02   -0.12110E-07   -0.13937E-07    19   0.249E-03
  137 T=   425. E= -.67312592E+02 F= -.65758124E+02 E0= -.65758124E+02  EK= 0.82411E+00 SP= -.24E+01 SK= 0.12E-01
       N       E                     dE             d eps       ncg     rms          rms(c)
DAV:   1    -0.657595380199E+02   -0.14139E-02   -0.15619E-02    48   0.678E-01    0.158E-03
RMM:   2    -0.657595392564E+02   -0.12365E-05   -0.13105E-05    55   0.134E-02    0.669E-04
RMM:   3    -0.657595394487E+02   -0.19236E-06   -0.17549E-06    51   0.528E-03    0.408E-04
RMM:   4    -0.657595394967E+02   -0.47966E-07   -0.78854E-08    21   0.247E-03
  138 T=   436. E= -.67312928E+02 F= -.65759539E+02 E0= -.65759539E+02  EK= 0.84577E+00 SP= -.24E+01 SK= 0.38E-01
       N       E                     dE             d eps       ncg     rms          rms(c)
DAV:   1    -0.657727674328E+02   -0.13228E-01   -0.15760E-02   120   0.673E-01    0.141E-03
RMM:   2    -0.657727689499E+02   -0.15171E-05   -0.14456E-05    56   0.139E-02    0.529E-04
RMM:   3    -0.657727691688E+02   -0.21896E-06   -0.18213E-06    49   0.551E-03    0.518E-04
RMM:   4    -0.657727691657E+02    0.31519E-08   -0.97633E-08    16   0.244E-03
  139 T=   460. E= -.67313419E+02 F= -.65772769E+02 E0= -.65772769E+02  EK= 0.89215E+00 SP= -.25E+01 SK= 0.79E-01
       N       E                     dE             d eps       ncg     rms          rms(c)
DAV:   1    -0.657966074606E+02   -0.23838E-01   -0.16361E-02   120   0.681E-01    0.132E-03
RMM:   2    -0.657966089002E+02   -0.14397E-05   -0.13679E-05    56   0.137E-02    0.929E-04
RMM:   3    -0.657966090788E+02   -0.17857E-06   -0.16165E-06    51   0.523E-03    0.793E-04
RMM:   4    -0.657966090027E+02    0.76099E-07   -0.35380E-08    10   0.216E-03
[...]
RMM:   4    -0.663318160713E+02   -0.80217E-08   -0.48765E-07    31   0.333E-03
 2465 T=  1143. E= -.67285039E+02 F= -.66331816E+02 E0= -.66331816E+02  EK= 0.22169E+01 SP= -.32E+01 SK= 0.45E-02
       N       E                     dE             d eps       ncg     rms          rms(c)
DAV:   1    -0.662926935626E+02    0.39123E-01   -0.36696E-02   144   0.113E+00    0.365E-03
RMM:   2    -0.662927041034E+02   -0.10541E-04   -0.10193E-04    91   0.347E-02    0.103E-03
RMM:   3    -0.662927042638E+02   -0.16037E-06   -0.27662E-06    51   0.639E-03    0.788E-04
RMM:   4    -0.662927041409E+02    0.12284E-06   -0.36564E-07    26   0.309E-03
 2466 T=  1133. E= -.67284797E+02 F= -.66292704E+02 E0= -.66292704E+02  EK= 0.21977E+01 SP= -.32E+01 SK= 0.21E-02
       N       E                     dE             d eps       ncg     rms          rms(c)
DAV:   1    -0.662541739416E+02    0.38530E-01   -0.37440E-02   144   0.112E+00    0.370E-03
RMM:   2    -0.662541841488E+02   -0.10207E-04   -0.10058E-04    91   0.353E-02    0.954E-04
RMM:   3    -0.662541844202E+02   -0.27138E-06   -0.27435E-06    50   0.631E-03    0.715E-04
RMM:   4    -0.662541843842E+02    0.36030E-07   -0.37310E-07    27   0.322E-03
 2467 T=  1120. E= -.67284571E+02 F= -.66254184E+02 E0= -.66254184E+02  EK= 0.21716E+01 SP= -.32E+01 SK= 0.66E-03
       N       E                     dE             d eps       ncg     rms          rms(c)
DAV:   1    -0.662179584908E+02    0.36226E-01   -0.38038E-02   144   0.111E+00    0.393E-03
RMM:   2    -0.662179695348E+02   -0.11044E-04   -0.10867E-04    91   0.366E-02    0.123E-03
RMM:   3    -0.662179697857E+02   -0.25092E-06   -0.29229E-06    51   0.661E-03    0.657E-04
RMM:   4    -0.662179699286E+02   -0.14294E-06   -0.44755E-07    28   0.334E-03
 2468 T=  1104. E= -.67284272E+02 F= -.66217970E+02 E0= -.66217970E+02  EK= 0.21414E+01 SP= -.32E+01 SK= 0.71E-04
       N       E                     dE             d eps       ncg     rms          rms(c)
DAV:   1    -0.661861327957E+02    0.31837E-01   -0.38543E-02   144   0.110E+00    0.377E-03
RMM:   2    -0.661861429873E+02   -0.10192E-04   -0.10175E-04    91   0.357E-02    0.869E-04
RMM:   3    -0.661861432926E+02   -0.30523E-06   -0.27348E-06    50   0.638E-03    0.566E-04
RMM:   4    -0.661861434121E+02   -0.11957E-06   -0.21927E-07    22   0.306E-03
 2469 T=  1088. E= -.67283810E+02 F= -.66186143E+02 E0= -.66186143E+02  EK= 0.21102E+01 SP= -.32E+01 SK= 0.42E-04
       N       E                     dE             d eps       ncg     rms          rms(c)
DAV:   1    -0.661611519762E+02    0.24991E-01   -0.39015E-02   144   0.109E+00    0.415E-03
RMM:   2    -0.661611610408E+02   -0.90646E-05   -0.90955E-05    91   0.342E-02    0.135E-03
RMM:   3    -0.661611612142E+02   -0.17332E-06   -0.26333E-06    50   0.621E-03    0.763E-04
RMM:   4    -0.661611610965E+02    0.11768E-06   -0.38075E-07    29   0.320E-03
 2470 T=  1073. E= -.67283508E+02 F= -.66161161E+02 E0= -.66161161E+02  EK= 0.20810E+01 SP= -.32E+01 SK= 0.36E-03
       N       E                     dE             d eps       ncg     rms          rms(c)
DAV:   1    -0.661446333078E+02    0.16528E-01   -0.39471E-02   144   0.108E+00    0.321E-03
RMM:   2    -0.661446416126E+02   -0.83047E-05   -0.81380E-05    91   0.317E-02    0.856E-04
RMM:   3    -0.661446418466E+02   -0.23406E-06   -0.22212E-06    50   0.590E-03    0.659E-04
RMM:   4    -0.661446417642E+02    0.82473E-07   -0.16083E-07    21   0.278E-03
 2471 T=  1061. E= -.67283376E+02 F= -.66144642E+02 E0= -.66144642E+02  EK= 0.20565E+01 SP= -.32E+01 SK= 0.86E-03
       N       E                     dE             d eps       ncg     rms          rms(c)
DAV:   1    -0.661371592541E+02    0.74826E-02   -0.39996E-02   144   0.108E+00    0.380E-03
RMM:   2    -0.661371660169E+02   -0.67629E-05   -0.69295E-05    89   0.295E-02    0.144E-03
RMM:   3    -0.661371662657E+02   -0.24875E-06   -0.24537E-06    50   0.597E-03    0.774E-04
RMM:   4    -0.661371664285E+02   -0.16282E-06   -0.26848E-07    23   0.300E-03
 2472 T=  1051. E= -.67283299E+02 F= -.66137166E+02 E0= -.66137166E+02  EK= 0.20380E+01 SP= -.32E+01 SK= 0.14E-02
       N       E                     dE             d eps       ncg     rms          rms(c)
DAV:   1    -0.661383676291E+02   -0.12014E-02   -0.40501E-02   144   0.109E+00    0.326E-03
RMM:   2    -0.661383745196E+02   -0.68905E-05   -0.67980E-05    89   0.286E-02    0.143E-03
RMM:   3    -0.661383747592E+02   -0.23961E-06   -0.25015E-06    52   0.610E-03    0.703E-04
RMM:   4    -0.661383749205E+02   -0.16127E-06   -0.37663E-07    28   0.313E-03
 2473 T=  1045. E= -.67283409E+02 F= -.66138375E+02 E0= -.66138375E+02  EK= 0.20255E+01 SP= -.32E+01 SK= 0.21E-02
       N       E                     dE             d eps       ncg     rms          rms(c)
DAV:   1    -0.661462816911E+02   -0.79069E-02   -0.41013E-02   192   0.110E+00    0.251E-03
RMM:   2    -0.661462870388E+02   -0.53476E-05   -0.51353E-05    88   0.268E-02    0.109E-03
RMM:   3    -0.661462872931E+02   -0.25435E-06   -0.17640E-06    51   0.518E-03    0.638E-04
RMM:   4    -0.661462873115E+02   -0.18344E-07   -0.14956E-07    17   0.259E-03
 2474 T=  1041. E= -.67283534E+02 F= -.66146287E+02 E0= -.66146287E+02  EK= 0.20176E+01 SP= -.32E+01 SK= 0.27E-02
       N       E                     dE             d eps       ncg     rms          rms(c)
DAV:   1    -0.661582056933E+02   -0.11918E-01   -0.41503E-02   192   0.112E+00    0.249E-03
RMM:   2    -0.661582115126E+02   -0.58193E-05   -0.53927E-05    89   0.277E-02    0.104E-03
RMM:   3    -0.661582116413E+02   -0.12871E-06   -0.16166E-06    49   0.498E-03    0.571E-04
RMM:   4    -0.661582115934E+02    0.47961E-07   -0.13294E-07    18   0.249E-03
 2475 T=  1037. E= -.67283788E+02 F= -.66158212E+02 E0= -.66158212E+02  EK= 0.20115E+01 SP= -.31E+01 SK= 0.34E-02
       N       E                     dE             d eps       ncg     rms          rms(c)
DAV:   1    -0.661706761723E+02   -0.12465E-01   -0.41838E-02   144   0.113E+00    0.322E-03
RMM:   2    -0.661706836027E+02   -0.74305E-05   -0.69038E-05    89   0.302E-02    0.107E-03
RMM:   3    -0.661706838752E+02   -0.27249E-06   -0.21898E-06    50   0.584E-03    0.679E-04
RMM:   4    -0.661706838878E+02   -0.12569E-07   -0.26678E-07    22   0.289E-03
 2476 T=  1034. E= -.67284036E+02 F= -.66170684E+02 E0= -.66170684E+02  EK= 0.20042E+01 SP= -.31E+01 SK= 0.40E-02
       N       E                     dE             d eps       ncg     rms          rms(c)
DAV:   1    -0.661800533233E+02   -0.93694E-02   -0.42009E-02   144   0.115E+00    0.327E-03
RMM:   2    -0.661800617350E+02   -0.84117E-05   -0.75036E-05    90   0.319E-02    0.135E-03
RMM:   3    -0.661800619355E+02   -0.20052E-06   -0.25461E-06    50   0.613E-03    0.678E-04
RMM:   4    -0.661800619665E+02   -0.30957E-07   -0.47596E-07    27   0.328E-03
 2477 T=  1028. E= -.67284009E+02 F= -.66180062E+02 E0= -.66180062E+02  EK= 0.19926E+01 SP= -.31E+01 SK= 0.47E-02
       N       E                     dE             d eps       ncg     rms          rms(c)
DAV:   1    -0.661836995054E+02   -0.36376E-02   -0.41884E-02   192   0.116E+00    0.257E-03
RMM:   2    -0.661837073057E+02   -0.78003E-05   -0.71695E-05    89   0.319E-02    0.127E-03
RMM:   3    -0.661837073922E+02   -0.86441E-07   -0.17213E-06    48   0.534E-03    0.713E-04
RMM:   4    -0.661837073726E+02    0.19575E-07   -0.18769E-07    20   0.261E-03
 2478 T=  1018. E= -.67283977E+02 F= -.66183707E+02 E0= -.66183707E+02  EK= 0.19740E+01 SP= -.31E+01 SK= 0.52E-02
       N       E                     dE             d eps       ncg     rms          rms(c)
DAV:   1    -0.661795547420E+02    0.41527E-02   -0.41576E-02   192   0.116E+00    0.346E-03
RMM:   2    -0.661795622505E+02   -0.75085E-05   -0.69419E-05    89   0.313E-02    0.131E-03
RMM:   3    -0.661795623836E+02   -0.13309E-06   -0.19351E-06    49   0.551E-03    0.777E-04
RMM:   4    -0.661795623121E+02    0.71463E-07   -0.24666E-07    22   0.288E-03
 2479 T=  1004. E= -.67283917E+02 F= -.66179562E+02 E0= -.66179562E+02  EK= 0.19470E+01 SP= -.31E+01 SK= 0.54E-02
       N       E                     dE             d eps       ncg     rms          rms(c)
DAV:   1    -0.661665347183E+02    0.13028E-01   -0.40907E-02   192   0.116E+00    0.284E-03
RMM:   2    -0.661665424150E+02   -0.76967E-05   -0.69827E-05    88   0.307E-02    0.880E-04
RMM:   3    -0.661665425710E+02   -0.15600E-06   -0.20573E-06    49   0.571E-03    0.602E-04
RMM:   4    -0.661665425907E+02   -0.19751E-07   -0.22298E-07    20   0.290E-03
 2480 T=   986. E= -.67283704E+02 F= -.66166543E+02 E0= -.66166543E+02  EK= 0.19115E+01 SP= -.30E+01 SK= 0.53E-02
       N       E                     dE             d eps       ncg     rms          rms(c)
DAV:   1    -0.661447822059E+02    0.21760E-01   -0.40083E-02   144   0.115E+00    0.357E-03
RMM:   2    -0.661447904723E+02   -0.82663E-05   -0.81603E-05    90   0.306E-02    0.165E-03
RMM:   3    -0.661447906379E+02   -0.16566E-06   -0.24876E-06    50   0.607E-03    0.985E-04
RMM:   4    -0.661447906765E+02   -0.38583E-07   -0.25571E-07    21   0.296E-03
 2481 T=   964. E= -.67283367E+02 F= -.66144791E+02 E0= -.66144791E+02  EK= 0.18684E+01 SP= -.30E+01 SK= 0.47E-02
       N       E                     dE             d eps       ncg     rms          rms(c)
DAV:   1    -0.661154159197E+02    0.29375E-01   -0.39010E-02   144   0.113E+00    0.303E-03
RMM:   2    -0.661154233095E+02   -0.73898E-05   -0.70035E-05    89   0.282E-02    0.118E-03
RMM:   3    -0.661154234217E+02   -0.11220E-06   -0.24080E-06    50   0.598E-03    0.901E-04
RMM:   4    -0.661154233815E+02    0.40235E-07   -0.31815E-07    17   0.299E-03
 2482 T=   939. E= -.67282941E+02 F= -.66115423E+02 E0= -.66115423E+02  EK= 0.18201E+01 SP= -.30E+01 SK= 0.38E-02
       N       E                     dE             d eps       ncg     rms          rms(c)
DAV:   1    -0.660801880902E+02    0.35235E-01   -0.37843E-02   144   0.111E+00    0.358E-03
RMM:   2    -0.660801955304E+02   -0.74402E-05   -0.68081E-05    89   0.273E-02    0.114E-03
RMM:   3    -0.660801957710E+02   -0.24063E-06   -0.23209E-06    49   0.584E-03    0.756E-04
RMM:   4    -0.660801957611E+02    0.99726E-08   -0.26352E-07    16   0.297E-03
 2483 T=   912. E= -.67282415E+02 F= -.66080196E+02 E0= -.66080196E+02  EK= 0.17691E+01 SP= -.30E+01 SK= 0.25E-02
       N       E                     dE             d eps       ncg     rms          rms(c)
DAV:   1    -0.660414365023E+02    0.38759E-01   -0.36589E-02   120   0.108E+00    0.448E-03
RMM:   2    -0.660414430916E+02   -0.65893E-05   -0.66767E-05    89   0.266E-02    0.151E-03
RMM:   3    -0.660414432044E+02   -0.11286E-06   -0.25167E-06    49   0.598E-03    0.745E-04
RMM:   4    -0.660414432823E+02   -0.77835E-07   -0.70737E-07    32   0.337E-03
 2484 T=   886. E= -.67282043E+02 F= -.66041443E+02 E0= -.66041443E+02  EK= 0.17188E+01 SP= -.30E+01 SK= 0.12E-02
       N       E                     dE             d eps       ncg     rms          rms(c)
DAV:   1    -0.660011824421E+02    0.40261E-01   -0.35269E-02   120   0.106E+00    0.244E-03
RMM:   2    -0.660011874901E+02   -0.50480E-05   -0.48348E-05    85   0.239E-02    0.738E-04
RMM:   3    -0.660011877497E+02   -0.25963E-06   -0.21152E-06    49   0.558E-03    0.771E-04
RMM:   4    -0.660011878254E+02   -0.75681E-07   -0.24791E-07    15   0.279E-03
 2485 T=   862. E= -.67281718E+02 F= -.66001188E+02 E0= -.66001188E+02  EK= 0.16719E+01 SP= -.30E+01 SK= 0.22E-03
       N       E                     dE             d eps       ncg     rms          rms(c)
DAV:   1    -0.659614281679E+02    0.39760E-01   -0.34056E-02   120   0.104E+00    0.256E-03
RMM:   2    -0.659614327221E+02   -0.45541E-05   -0.46443E-05    84   0.239E-02    0.109E-03
RMM:   3    -0.659614328569E+02   -0.13483E-06   -0.18668E-06    48   0.536E-03    0.956E-04
RMM:   4    -0.659614329445E+02   -0.87603E-07   -0.19751E-07    15   0.251E-03
 2486 T=   841. E= -.67281379E+02 F= -.65961433E+02 E0= -.65961433E+02  EK= 0.16314E+01 SP= -.30E+01 SK= 0.66E-04
       N       E                     dE             d eps       ncg     rms          rms(c)
DAV:   1    -0.659241299479E+02    0.37303E-01   -0.32934E-02   120   0.102E+00    0.380E-03
RMM:   2    -0.659241336238E+02   -0.36759E-05   -0.42538E-05    82   0.232E-02    0.979E-04
RMM:   3    -0.659241338346E+02   -0.21078E-06   -0.23270E-06    49   0.595E-03    0.437E-04
RMM:   4    -0.659241338936E+02   -0.59000E-07   -0.30333E-07    20   0.296E-03
 2487 T=   825. E= -.67281200E+02 F= -.65924134E+02 E0= -.65924134E+02  EK= 0.15995E+01 SP= -.30E+01 SK= 0.12E-02
       N       E                     dE             d eps       ncg     rms          rms(c)
DAV:   1    -0.658905879777E+02    0.33546E-01   -0.31875E-02   120   0.994E-01    0.326E-03
RMM:   2    -0.658905930449E+02   -0.50672E-05   -0.49599E-05    86   0.245E-02    0.111E-03
RMM:   3    -0.658905932967E+02   -0.25179E-06   -0.19855E-06    50   0.559E-03    0.636E-04
RMM:   4    -0.658905933607E+02   -0.63994E-07   -0.17639E-07    15   0.276E-03
 2488 T=   814. E= -.67281037E+02 F= -.65890593E+02 E0= -.65890593E+02  EK= 0.15781E+01 SP= -.30E+01 SK= 0.38E-02
       N       E                     dE             d eps       ncg     rms          rms(c)
DAV:   1    -0.658620565647E+02    0.28537E-01   -0.30991E-02   120   0.976E-01    0.269E-03
RMM:   2    -0.658620600753E+02   -0.35105E-05   -0.37547E-05    82   0.228E-02    0.957E-04
RMM:   3    -0.658620602477E+02   -0.17244E-06   -0.21540E-06    50   0.575E-03    0.591E-04
RMM:   4    -0.658620602888E+02   -0.41146E-07   -0.26812E-07    17   0.286E-03
 2489 T=   809. E= -.67280989E+02 F= -.65862060E+02 E0= -.65862060E+02  EK= 0.15688E+01 SP= -.30E+01 SK= 0.83E-02
       N       E                     dE             d eps       ncg     rms          rms(c)
DAV:   1    -0.658393643636E+02    0.22696E-01   -0.30276E-02   120   0.960E-01    0.218E-03
RMM:   2    -0.658393686038E+02   -0.42403E-05   -0.42694E-05    85   0.235E-02    0.104E-03
RMM:   3    -0.658393687712E+02   -0.16736E-06   -0.16837E-06    49   0.527E-03    0.971E-04
RMM:   4    -0.658393687706E+02    0.62619E-09   -0.14494E-07    13   0.248E-03
 2490 T=   811. E= -.67281065E+02 F= -.65839369E+02 E0= -.65839369E+02  EK= 0.15726E+01 SP= -.30E+01 SK= 0.14E-01
       N       E                     dE             d eps       ncg     rms          rms(c)
DAV:   1    -0.658231566983E+02    0.16212E-01   -0.29745E-02   120   0.950E-01    0.221E-03
RMM:   2    -0.658231603202E+02   -0.36218E-05   -0.36933E-05    81   0.228E-02    0.783E-04
RMM:   3    -0.658231604695E+02   -0.14938E-06   -0.20079E-06    46   0.560E-03    0.488E-04
RMM:   4    -0.658231604497E+02    0.19823E-07   -0.22562E-07    16   0.277E-03
 2491 T=   820. E= -.67281282E+02 F= -.65823160E+02 E0= -.65823160E+02  EK= 0.15903E+01 SP= -.31E+01 SK= 0.22E-01
       N       E                     dE             d eps       ncg     rms          rms(c)
DAV:   1    -0.658136736476E+02    0.94868E-02   -0.29379E-02   120   0.944E-01    0.291E-03
RMM:   2    -0.658136783454E+02   -0.46978E-05   -0.43690E-05    86   0.235E-02    0.944E-04
RMM:   3    -0.658136785913E+02   -0.24597E-06   -0.18511E-06    49   0.542E-03    0.464E-04
RMM:   4    -0.658136786475E+02   -0.56109E-07   -0.16493E-07    14   0.276E-03
 2492 T=   837. E= -.67281416E+02 F= -.65813679E+02 E0= -.65813679E+02  EK= 0.16224E+01 SP= -.31E+01 SK= 0.31E-01
       N       E                     dE             d eps       ncg     rms          rms(c)
DAV:   1    -0.658114420797E+02    0.22365E-02   -0.29189E-02   120   0.945E-01    0.265E-03
RMM:   2    -0.658114458005E+02   -0.37208E-05   -0.38253E-05    83   0.230E-02    0.103E-03
RMM:   3    -0.658114459672E+02   -0.16666E-06   -0.17660E-06    46   0.530E-03    0.699E-04
RMM:   4    -0.658114459028E+02    0.64429E-07   -0.20128E-07    16   0.269E-03
 2493 T=   861. E= -.67281735E+02 F= -.65811446E+02 E0= -.65811446E+02  EK= 0.16693E+01 SP= -.32E+01 SK= 0.40E-01
       N       E                     dE             d eps       ncg     rms          rms(c)
DAV:   1    -0.658164167588E+02   -0.49708E-02   -0.29181E-02   120   0.951E-01    0.253E-03
RMM:   2    -0.658164207717E+02   -0.40129E-05   -0.38330E-05    84   0.231E-02    0.858E-04
RMM:   3    -0.658164209893E+02   -0.21753E-06   -0.19424E-06    49   0.535E-03    0.397E-04
RMM:   4    -0.658164210234E+02   -0.34137E-07   -0.20565E-07    17   0.261E-03
 2494 T=   893. E= -.67282126E+02 F= -.65816421E+02 E0= -.65816421E+02  EK= 0.17308E+01 SP= -.32E+01 SK= 0.47E-01
       N       E                     dE             d eps       ncg     rms          rms(c)
DAV:   1    -0.658284799977E+02   -0.12059E-01   -0.29295E-02   120   0.963E-01    0.230E-03
RMM:   2    -0.658284838294E+02   -0.38317E-05   -0.38712E-05    83   0.233E-02    0.962E-04
RMM:   3    -0.658284839822E+02   -0.15277E-06   -0.17881E-06    48   0.532E-03    0.870E-04
RMM:   4    -0.658284839800E+02    0.22296E-08   -0.18945E-07    17   0.262E-03
 2495 T=   932. E= -.67282572E+02 F= -.65828484E+02 E0= -.65828484E+02  EK= 0.18063E+01 SP= -.33E+01 SK= 0.54E-01
       N       E                     dE             d eps       ncg     rms          rms(c)
DAV:   1    -0.658474098033E+02   -0.18926E-01   -0.29576E-02   120   0.982E-01    0.212E-03
RMM:   2    -0.658474136574E+02   -0.38541E-05   -0.37355E-05    84   0.231E-02    0.697E-04
RMM:   3    -0.658474137751E+02   -0.11772E-06   -0.14139E-06    42   0.494E-03    0.494E-04
RMM:   4    -0.658474137651E+02    0.10047E-07   -0.19069E-07    18   0.268E-03
 2496 T=   977. E= -.67283179E+02 F= -.65847414E+02 E0= -.65847414E+02  EK= 0.18946E+01 SP= -.34E+01 SK= 0.57E-01
       N       E                     dE             d eps       ncg     rms          rms(c)
DAV:   1    -0.658725239444E+02   -0.25110E-01   -0.29906E-02   120   0.101E+00    0.318E-03
RMM:   2    -0.658725286447E+02   -0.47003E-05   -0.46426E-05    85   0.242E-02    0.115E-03
RMM:   3    -0.658725288448E+02   -0.20009E-06   -0.20065E-06    48   0.555E-03    0.557E-04
RMM:   4    -0.658725288710E+02   -0.26226E-07   -0.21418E-07    20   0.272E-03
 2497 T=  1028. E= -.67283725E+02 F= -.65872529E+02 E0= -.65872529E+02  EK= 0.19937E+01 SP= -.35E+01 SK= 0.57E-01
       N       E                     dE             d eps       ncg     rms          rms(c)
DAV:   1    -0.659033552900E+02   -0.30826E-01   -0.30270E-02   120   0.103E+00    0.215E-03
RMM:   2    -0.659033592625E+02   -0.39725E-05   -0.38440E-05    81   0.235E-02    0.844E-04
RMM:   3    -0.659033594519E+02   -0.18941E-06   -0.17710E-06    47   0.540E-03    0.788E-04
RMM:   4    -0.659033594231E+02    0.28788E-07   -0.18535E-07    17   0.269E-03
 2498 T=  1084. E= -.67284349E+02 F= -.65903359E+02 E0= -.65903359E+02  EK= 0.21009E+01 SP= -.35E+01 SK= 0.53E-01
       N       E                     dE             d eps       ncg     rms          rms(c)
DAV:   1    -0.659391022553E+02   -0.35743E-01   -0.30630E-02   120   0.106E+00    0.282E-03
RMM:   2    -0.659391068925E+02   -0.46372E-05   -0.45882E-05    84   0.255E-02    0.141E-03
RMM:   3    -0.659391070263E+02   -0.13375E-06   -0.18658E-06    49   0.533E-03    0.696E-04
RMM:   4    -0.659391070182E+02    0.81118E-08   -0.22527E-07    21   0.263E-03
 2499 T=  1141. E= -.67285082E+02 F= -.65939107E+02 E0= -.65939107E+02  EK= 0.22126E+01 SP= -.36E+01 SK= 0.45E-01
       N       E                     dE             d eps       ncg     rms          rms(c)
DAV:   1    -0.659786703866E+02   -0.39563E-01   -0.30855E-02   120   0.109E+00    0.261E-03
RMM:   2    -0.659786752392E+02   -0.48526E-05   -0.46463E-05    85   0.253E-02    0.796E-04
RMM:   3    -0.659786754742E+02   -0.23499E-06   -0.18195E-06    47   0.540E-03    0.562E-04
RMM:   4    -0.659786754963E+02   -0.22107E-07   -0.21811E-07    18   0.282E-03
 2500 T=  1199. E= -.67285772E+02 F= -.65978675E+02 E0= -.65978675E+02  EK= 0.23242E+01 SP= -.37E+01 SK= 0.35E-01
