 vasp.6.3.2 27Jun22 (build Mar 25 2024 10:42:18) complex                         
 executed on             LinuxGNU date 2024.03.31  15:41:25
 running on   32 total cores
 distrk:  each k-point on   32 cores,    1 groups
 distr:  one band on NCORE=   1 cores,   32 groups


--------------------------------------------------------------------------------------------------------


 INCAR:
   ISTART = 0
   ICHARG = 2
   PREC = Accurate
   IBRION = -1
   EDIFF = 0.000000001
   EDIFFG = -0.0005
   NSW = 0
   NELM = 100
   ENCUT = 520
   ISMEAR = -5
   SIGMA = 0.05
   ISPIN = 2
   ISYM = 0
   LWAVE = False
   LCHARG = False
   LASPH = True
   LORBIT = 11
   ADDGRID = TRUE

 POTCAR:    PAW_PBE S 06Sep2000                   
 -----------------------------------------------------------------------------
|                                                                             |
|           W    W    AA    RRRRR   N    N  II  N    N   GGGG   !!!           |
|           W    W   A  A   R    R  NN   N  II  NN   N  G    G  !!!           |
|           W    W  A    A  R    R  N N  N  II  N N  N  G       !!!           |
|           W WW W  AAAAAA  RRRRR   N  N N  II  N  N N  G  GGG   !            |
|           WW  WW  A    A  R   R   N   NN  II  N   NN  G    G                |
|           W    W  A    A  R    R  N    N  II  N    N   GGGG   !!!           |
|                                                                             |
|     You use a magnetic or noncollinear calculation, but did not specify     |
|     the initial magnetic moment with the MAGMOM tag. Note that a            |
|     default of 1 will be used for all atoms. This ferromagnetic setup       |
|     may break the symmetry of the crystal, in particular it may rule        |
|     out finding an antiferromagnetic solution. Thence, we recommend         |
|     setting the initial magnetic moment manually or verifying carefully     |
|     that this magnetic setup is desired.                                    |
|                                                                             |
 -----------------------------------------------------------------------------

 -----------------------------------------------------------------------------
|                                                                             |
|           W    W    AA    RRRRR   N    N  II  N    N   GGGG   !!!           |
|           W    W   A  A   R    R  NN   N  II  NN   N  G    G  !!!           |
|           W    W  A    A  R    R  N N  N  II  N N  N  G       !!!           |
|           W WW W  AAAAAA  RRRRR   N  N N  II  N  N N  G  GGG   !            |
|           WW  WW  A    A  R   R   N   NN  II  N   NN  G    G                |
|           W    W  A    A  R    R  N    N  II  N    N   GGGG   !!!           |
|                                                                             |
|     For optimal performance we recommend to set                             |
|       NCORE = 2 up to number-of-cores-per-socket                            |
|     NCORE specifies how many cores store one orbital (NPAR=cpu/NCORE).      |
|     This setting can greatly improve the performance of VASP for DFT.       |
|     The default, NCORE=1 might be grossly inefficient on modern             |
|     multi-core architectures or massively parallel machines. Do your        |
|     own testing! More info at https://www.vasp.at/wiki/index.php/NCORE      |
|     Unfortunately you need to use the default for GW and RPA                |
|     calculations (for HF NCORE is supported but not extensively tested      |
|     yet).                                                                   |
|                                                                             |
 -----------------------------------------------------------------------------

 POTCAR:    PAW_PBE S 06Sep2000                   
   SHA256 =  0fc7481fb0695f01bdc6462160264c5c84044ae9ec85a907d398b887a2bc3132 S/POTCAR              
   COPYR  = (c) Copyright 06Sep2000 Georg Kresse                                                    
   COPYR  = This file is part of the software VASP. Any use, copying, and all other rights are regul
   COPYR  = If you do not have a valid VASP license, you may not use, copy or distribute this file. 
   VRHFIN =S : s2p4                                                                                 
   LEXCH  = PE                                                                                      
   EATOM  =   276.8230 eV,   20.3459 Ry                                                             
                                                                                                    
   TITEL  = PAW_PBE S 06Sep2000                                                                     
   LULTRA =        F    use ultrasoft PP ?                                                          
   IUNSCR =        1    unscreen: 0-lin 1-nonlin 2-no                                               
   RPACOR =    1.500    partial core radius                                                         
   POMASS =   32.066; ZVAL   =    6.000    mass and valenz                                          
   RCORE  =    1.900    outmost cutoff radius                                                       
   RWIGS  =    2.200; RWIGS  =    1.164    wigner-seitz radius (au A)                               
   ENMAX  =  258.689; ENMIN  =  194.016 eV                                                          
   ICORE  =        2    local potential                                                             
   LCOR   =        T    correct aug charges                                                         
   LPAW   =        T    paw PP                                                                      
   EAUG   =  335.092                                                                                
   DEXC   =    0.000                                                                                
   RMAX   =    1.942    core radius for proj-oper                                                   
   RAUG   =    1.300    factor for augmentation sphere                                              
   RDEP   =    1.954    radius for radial grids                                                     
   RDEPT  =    1.744    core radius for aug-charge                                                  
                                                                                                    
   Atomic configuration                                                                             
    6 entries                                                                                       
     n  l   j            E        occ.                                                              
     1  0  0.50     -2405.8406   2.0000                                                             
     2  0  0.50      -211.7007   2.0000                                                             
     2  1  1.50      -156.4958   6.0000                                                             
     3  0  0.50       -17.2562   2.0000                                                             
     3  1  0.50        -7.0085   4.0000                                                             
     3  2  1.50        -6.8029   0.0000                                                             
   Description                                                                                      
     l       E           TYP  RCUT    TYP  RCUT                                                     
     0    -17.2561641     23  1.900                                                                 
     0    -15.8743224     23  1.900                                                                 
     1     -7.0085400     23  1.900                                                                 
     1     -2.7779785     23  1.900                                                                 
     2     -6.8029130     23  1.900                                                                 
  local pseudopotential read in
  partial core-charges read in
  partial kinetic energy density read in
  atomic valenz-charges read in
  non local Contribution for L=           0  read in
    real space projection operators read in
  non local Contribution for L=           0  read in
    real space projection operators read in
  non local Contribution for L=           1  read in
    real space projection operators read in
  non local Contribution for L=           1  read in
    real space projection operators read in
    PAW grid and wavefunctions read in

   number of l-projection  operators is LMAX  =           4
   number of lm-projection operators is LMMAX =           8

 -----------------------------------------------------------------------------
|                                                                             |
|               ----> ADVICE to this user running VASP <----                  |
|                                                                             |
|     You have a (more or less) 'large supercell' and for larger cells it     |
|     might be more efficient to use real-space projection operators.         |
|     Therefore, try LREAL= Auto in the INCAR file.                           |
|     Mind: For very accurate calculation, you might also keep the            |
|     reciprocal projection scheme (i.e. LREAL=.FALSE.).                      |
|                                                                             |
 -----------------------------------------------------------------------------

  PAW_PBE S 06Sep2000                   :
 energy of atom  1       EATOM= -276.8230
 kinetic energy error for atom=    0.0016 (will be added to EATOM!!)


 POSCAR: generated by phonopy
  positions in direct lattice
  No initial velocities read in
 exchange correlation table for  LEXCH =        8
   RHO(1)=    0.500       N(1)  =     2000
   RHO(2)=  100.500       N(2)  =     4000



--------------------------------------------------------------------------------------------------------


 ion  position               nearest neighbor table
   1  0.886  0.467  0.678-  45 1.98  24 2.13
   2  0.886  0.967  0.678-  46 1.98  23 2.13
   3  0.330  0.189  0.551-  41 2.05  19 2.13
   4  0.330  0.689  0.551-  42 2.05  20 2.13
   5  0.913  0.105  0.912-  51 1.98  11 2.13
   6  0.913  0.605  0.912-  52 1.98  12 2.13
   7  0.240  0.301  0.777-  19 1.98  37 2.23
   8  0.240  0.801  0.777-  20 1.98  38 2.23
   9  0.145  0.306  0.224-  31 2.05  39 2.14
  10  0.144  0.806  0.224-  32 2.05  40 2.13
  11  0.856  0.194  0.776-  47 2.05   5 2.13
  12  0.856  0.694  0.776-  48 2.05   6 2.13
  13  0.760  0.199  0.223-  27 1.98  33 2.23
  14  0.760  0.699  0.223-  28 1.98  34 2.23
  15  0.170  0.439  0.449-  31 2.05  30 2.13
  16  0.170  0.939  0.449-  32 2.05  29 2.13
  17  0.413  0.145  0.912-  37 1.98  43 2.13
  18  0.413  0.645  0.912-  38 1.98  44 2.13
  19  0.386  0.283  0.678-   7 1.98   3 2.13
  20  0.386  0.783  0.678-   8 1.98   4 2.13
  21  0.644  0.444  0.224-  53 2.05  35 2.13
  22  0.644  0.944  0.224-  54 2.05  36 2.13
  23  0.830  0.061  0.551-  47 2.05   2 2.13
  24  0.830  0.561  0.551-  48 2.05   1 2.13
  25  0.260  0.051  0.223-  29 1.98  50 2.23
  26  0.260  0.551  0.223-  30 1.98  49 2.23
  27  0.614  0.217  0.322-  13 1.98  55 2.13
  28  0.614  0.717  0.322-  14 1.98  56 2.13
  29  0.114  0.033  0.322-  25 1.98  16 2.13
  30  0.114  0.533  0.322-  26 1.98  15 2.13
  31  0.060  0.345  0.374-  15 2.05   9 2.05
  32  0.060  0.845  0.374-  10 2.05  16 2.05
  33  0.743  0.289  0.071-  35 1.98  13 2.23
  34  0.743  0.789  0.071-  36 1.98  14 2.23
  35  0.587  0.355  0.088-  33 1.98  21 2.13
  36  0.587  0.855  0.088-  34 1.98  22 2.13
  37  0.257  0.211  0.929-  17 1.98   7 2.23
  38  0.257  0.711  0.929-  18 1.98   8 2.23
  39  0.087  0.395  0.088-  49 1.98   9 2.14
  40  0.087  0.895  0.088-  50 1.98  10 2.13
  41  0.440  0.095  0.626-  43 2.05   3 2.05
  42  0.440  0.595  0.626-  44 2.05   4 2.05
  43  0.356  0.056  0.776-  41 2.05  17 2.13
  44  0.356  0.556  0.776-  42 2.05  18 2.13
  45  0.740  0.449  0.777-   1 1.98  52 2.23
  46  0.740  0.949  0.777-   2 1.98  51 2.23
  47  0.940  0.155  0.626-  11 2.05  23 2.05
  48  0.940  0.655  0.626-  12 2.05  24 2.05
  49  0.243  0.461  0.071-  39 1.98  26 2.23
  50  0.243  0.961  0.071-  40 1.98  25 2.23
  51  0.757  0.039  0.929-   5 1.98  46 2.23
  52  0.757  0.539  0.929-   6 1.98  45 2.23
  53  0.560  0.405  0.374-  21 2.05  55 2.05
  54  0.560  0.905  0.374-  22 2.05  56 2.05
  55  0.670  0.311  0.449-  53 2.05  27 2.13
  56  0.670  0.811  0.449-  54 2.05  28 2.13


IMPORTANT INFORMATION: All symmetrisations will be switched off!
NOSYMM: (Re-)initialisation of all symmetry stuff for point group C_1.


----------------------------------------------------------------------------------------

                                     Primitive cell                                     

  volume of cell :    1863.6770

  direct lattice vectors                    reciprocal lattice vectors
     0.000000000 10.307367086 -0.372855731     0.000000000  0.096453423 -0.015606996
    16.788494411  0.000000000  0.000000000     0.059564603  0.000000000  0.000000000
     0.000000000 -1.732519801-10.707215182     0.000000000 -0.003358783 -0.092851486

  length of vectors
    10.314108670 16.788494411 10.846477853     0.097707938  0.059564603  0.092912216

  position of ions in fractional coordinates (direct lattice)
     0.886423141  0.467004751  0.678126386
     0.886423141  0.967004751  0.678126386
     0.329563264  0.188743823  0.550707721
     0.329563264  0.688743823  0.550707721
     0.912671285  0.105241885  0.911960471
     0.912671285  0.605241885  0.911960471
     0.239736405  0.300831047  0.776574189
     0.239736405  0.800831047  0.776574189
     0.145387062  0.305688762  0.224396680
     0.144417516  0.805688762  0.224396680
     0.855582484  0.194311238  0.775603320
     0.855582484  0.694311238  0.775603320
     0.760263595  0.199168953  0.223425811
     0.760263595  0.699168953  0.223425811
     0.170436736  0.438743823  0.449292279
     0.170436736  0.938743823  0.449292279
     0.412671285  0.144758115  0.911960471
     0.412671285  0.644758115  0.911960471
     0.386423141  0.282995249  0.678126386
     0.386423141  0.782995249  0.678126386
     0.644417516  0.444311238  0.224396680
     0.644417516  0.944311238  0.224396680
     0.829563264  0.061256177  0.550707721
     0.829563264  0.561256177  0.550707721
     0.260263595  0.050831047  0.223425811
     0.260263595  0.550831047  0.223425811
     0.613576859  0.217004751  0.321873614
     0.613576859  0.717004751  0.321873614
     0.113576859  0.032995249  0.321873614
     0.113576859  0.532995249  0.321873614
     0.059895700  0.345087734  0.374484367
     0.059895700  0.845087734  0.374484367
     0.743425210  0.289344343  0.071165234
     0.743425210  0.789344343  0.071165234
     0.587328715  0.355241885  0.088039529
     0.587328715  0.855241885  0.088039529
     0.256574790  0.210655657  0.928834766
     0.256574790  0.710655657  0.928834766
     0.087328715  0.394758115  0.088039529
     0.087328715  0.894758115  0.088039529
     0.440104300  0.095087734  0.625515633
     0.440104300  0.595087734  0.625515633
     0.355582484  0.055688762  0.775603320
     0.355582484  0.555688762  0.775603320
     0.739736405  0.449168953  0.776574189
     0.739736405  0.949168953  0.776574189
     0.940104300  0.154912266  0.625515633
     0.940104300  0.654912266  0.625515633
     0.243425210  0.460655657  0.071165234
     0.243425210  0.960655657  0.071165234
     0.756574790  0.039344343  0.928834766
     0.756574790  0.539344343  0.928834766
     0.559895700  0.404912266  0.374484367
     0.559895700  0.904912266  0.374484367
     0.670436736  0.311256177  0.449292279
     0.670436736  0.811256177  0.449292279

  ion indices of the primitive-cell ions
   primitive index   ion index
                 1           1
                 2           2
                 3           3
                 4           4
                 5           5
                 6           6
                 7           7
                 8           8
                 9           9
                10          10
                11          11
                12          12
                13          13
                14          14
                15          15
                16          16
                17          17
                18          18
                19          19
                20          20
                21          21
                22          22
                23          23
                24          24
                25          25
                26          26
                27          27
                28          28
                29          29
                30          30
                31          31
                32          32
                33          33
                34          34
                35          35
                36          36
                37          37
                38          38
                39          39
                40          40
                41          41
                42          42
                43          43
                44          44
                45          45
                46          46
                47          47
                48          48
                49          49
                50          50
                51          51
                52          52
                53          53
                54          54
                55          55
                56          56

----------------------------------------------------------------------------------------



 KPOINTS: pymatgen with grid density = 595 / numbe

Automatic generation of k-mesh.
 Grid dimensions read from file:
 generate k-points for:    2    2    2

 Generating k-lattice:

  Cartesian coordinates                     Fractional coordinates (reciprocal lattice)
     0.000000000  0.048226712 -0.007803498     0.500000000  0.000000000 -0.000000000
     0.029782301  0.000000000  0.000000000     0.000000000  0.500000000  0.000000000
     0.000000000 -0.001679391 -0.046425743    -0.000000000  0.000000000  0.500000000

  Length of vectors
     0.048853969  0.029782301  0.046456108

  Shift w.r.t. Gamma in fractional coordinates (k-lattice)
     0.000000000  0.000000000  0.000000000

 TETIRR: Found     24 inequivalent tetrahedra from       48
 
 Subroutine IBZKPT returns following result:
 ===========================================
 
 Found      8 irreducible k-points:
 
 Following reciprocal coordinates:
            Coordinates               Weight
  0.000000  0.000000  0.000000      1.000000
  0.500000  0.000000  0.000000      1.000000
  0.000000  0.500000  0.000000      1.000000
  0.500000  0.500000  0.000000      1.000000
  0.000000  0.000000  0.500000      1.000000
  0.500000  0.000000  0.500000      1.000000
  0.000000  0.500000  0.500000      1.000000
  0.500000  0.500000  0.500000      1.000000
 
 Following cartesian coordinates:
            Coordinates               Weight
  0.000000  0.000000 -0.000000      1.000000
  0.000000  0.048227 -0.007803      1.000000
  0.029782  0.000000 -0.000000      1.000000
  0.029782  0.048227 -0.007803      1.000000
  0.000000 -0.001679 -0.046426      1.000000
  0.000000  0.046547 -0.054229      1.000000
  0.029782 -0.001679 -0.046426      1.000000
  0.029782  0.046547 -0.054229      1.000000
 


--------------------------------------------------------------------------------------------------------




 Dimension of arrays:
   k-points           NKPTS =      8   k-points in BZ     NKDIM =      8   number of bands    NBANDS=    256
   number of dos      NEDOS =    301   number of ions     NIONS =     56
   non local maximal  LDIM  =      4   non local SUM 2l+1 LMDIM =      8
   total plane-waves  NPLWV = 846720
   max r-space proj   IRMAX =      1   max aug-charges    IRDMAX= 114695
   dimension x,y,z NGX =    80 NGY =  126 NGZ =   84
   dimension x,y,z NGXF=   160 NGYF=  252 NGZF=  168
   support grid    NGXF=   320 NGYF=  504 NGZF=  336
   ions per type =              56
   NGX,Y,Z   is equivalent  to a cutoff of  12.89, 12.48, 12.87 a.u.
   NGXF,Y,Z  is equivalent  to a cutoff of  25.79, 24.95, 25.75 a.u.

 SYSTEM =  unknown system                          
 POSCAR =  generated by phonopy                    

 Startparameter for this run:
   NWRITE =      2    write-flag & timer
   PREC   = accura    normal or accurate (medium, high low for compatibility)
   ISTART =      0    job   : 0-new  1-cont  2-samecut
   ICHARG =      2    charge: 1-file 2-atom 10-const
   ISPIN  =      2    spin polarized calculation?
   LNONCOLLINEAR =      F non collinear calculations
   LSORBIT =      F    spin-orbit coupling
   INIWAV =      1    electr: 0-lowe 1-rand  2-diag
   LASPH  =      T    aspherical Exc in radial PAW
 Electronic Relaxation 1
   ENCUT  =  520.0 eV  38.22 Ry    6.18 a.u.  19.18 31.22 20.17*2*pi/ulx,y,z
   ENINI  =  520.0     initial cutoff
   ENAUG  =  335.1 eV  augmentation charge cutoff
   NELM   =    100;   NELMIN=  2; NELMDL= -5     # of ELM steps 
   EDIFF  = 0.1E-08   stopping-criterion for ELM
   LREAL  =      F    real-space projection
   NLSPLINE    = F    spline interpolate recip. space projectors
   LCOMPAT=      F    compatible to vasp.4.4
   GGA_COMPAT  = T    GGA compatible to vasp.4.4-vasp.4.6
   LMAXPAW     = -100 max onsite density
   LMAXMIX     =    2 max onsite mixed and CHGCAR
   VOSKOWN=      0    Vosko Wilk Nusair interpolation
   ROPT   =    0.00000
 Ionic relaxation
   EDIFFG = -.5E-03   stopping-criterion for IOM
   NSW    =      0    number of steps for IOM
   NBLOCK =      1;   KBLOCK =      1    inner block; outer block 
   IBRION =     -1    ionic relax: 0-MD 1-quasi-New 2-CG
   NFREE  =      0    steps in history (QN), initial steepest desc. (CG)
   ISIF   =      2    stress and relaxation
   IWAVPR =     10    prediction:  0-non 1-charg 2-wave 3-comb
   ISYM   =      0    0-nonsym 1-usesym 2-fastsym
   LCORR  =      T    Harris-Foulkes like correction to forces

   POTIM  = 0.5000    time-step for ionic-motion
   TEIN   =    0.0    initial temperature
   TEBEG  =    0.0;   TEEND  =   0.0 temperature during run
   SMASS  =  -3.00    Nose mass-parameter (am)
   estimated Nose-frequenzy (Omega)   =  0.10E-29 period in steps = 0.13E+47 mass=  -0.243E-26a.u.
   SCALEE = 1.0000    scale energy and forces
   NPACO  =    256;   APACO  = 10.0  distance and # of slots for P.C.
   PSTRESS=    0.0 pullay stress

  Mass of Ions in am
   POMASS =  32.07
  Ionic Valenz
   ZVAL   =   6.00
  Atomic Wigner-Seitz radii
   RWIGS  =  -1.00
  virtual crystal weights 
   VCA    =   1.00
   NELECT =     336.0000    total number of electrons
   NUPDOWN=      -1.0000    fix difference up-down

 DOS related values:
   EMIN   =  10.00;   EMAX   =-10.00  energy-range for DOS
   EFERMI =   0.00
   ISMEAR =    -5;   SIGMA  =   0.05  broadening in eV -4-tet -1-fermi 0-gaus

 Electronic relaxation 2 (details)
   IALGO  =     38    algorithm
   LDIAG  =      T    sub-space diagonalisation (order eigenvalues)
   LSUBROT=      F    optimize rotation matrix (better conditioning)
   TURBO    =      0    0=normal 1=particle mesh
   IRESTART =      0    0=no restart 2=restart with 2 vectors
   NREBOOT  =      0    no. of reboots
   NMIN     =      0    reboot dimension
   EREF     =   0.00    reference energy to select bands
   IMIX   =      4    mixing-type and parameters
     AMIX     =   0.40;   BMIX     =  1.00
     AMIX_MAG =   1.60;   BMIX_MAG =  1.00
     AMIN     =   0.10
     WC   =   100.;   INIMIX=   1;  MIXPRE=   1;  MAXMIX= -45

 Intra band minimization:
   WEIMIN = 0.0000     energy-eigenvalue tresh-hold
   EBREAK =  0.98E-12  absolut break condition
   DEPER  =   0.30     relativ break condition  

   TIME   =   0.40     timestep for ELM

  volume/ion in A,a.u.               =      33.28       224.58
  Fermi-wavevector in a.u.,A,eV,Ry     =   0.924835  1.747685 11.637339  0.855320
  Thomas-Fermi vector in A             =   2.050624

 Write flags
   LWAVE        =      F    write WAVECAR
   LDOWNSAMPLE  =      F    k-point downsampling of WAVECAR
   LCHARG       =      F    write CHGCAR
   LVTOT        =      F    write LOCPOT, total local potential
   LVHAR        =      F    write LOCPOT, Hartree potential only
   LELF         =      F    write electronic localiz. function (ELF)
   LORBIT       =     11    0 simple, 1 ext, 2 COOP (PROOUT), +10 PAW based schemes


 Dipole corrections
   LMONO  =      F    monopole corrections only (constant potential shift)
   LDIPOL =      F    correct potential (dipole corrections)
   IDIPOL =      0    1-x, 2-y, 3-z, 4-all directions 
   EPSILON=  1.0000000 bulk dielectric constant

 Exchange correlation treatment:
   GGA     =    --    GGA type
   LEXCH   =     8    internal setting for exchange type
   LIBXC   =     F    Libxc                    
   VOSKOWN =     0    Vosko Wilk Nusair interpolation
   LHFCALC =     F    Hartree Fock is set to
   LHFONE  =     F    Hartree Fock one center treatment
   AEXX    =    0.0000 exact exchange contribution

 Linear response parameters
   LEPSILON=     F    determine dielectric tensor
   LRPA    =     F    only Hartree local field effects (RPA)
   LNABLA  =     F    use nabla operator in PAW spheres
   LVEL    =     F    velocity operator in full k-point grid
   CSHIFT  =0.1000    complex shift for real part using Kramers Kronig
   OMEGAMAX=  -1.0    maximum frequency
   DEG_THRESHOLD= 0.2000000E-02 threshold for treating states as degnerate
   RTIME   =   -0.100 relaxation time in fs
  (WPLASMAI=    0.000 imaginary part of plasma frequency in eV, 0.658/RTIME)
   DFIELD  = 0.0000000 0.0000000 0.0000000 field for delta impulse in time

  Optional k-point grid parameters
   LKPOINTS_OPT  =     F    use optional k-point grid
   KPOINTS_OPT_MODE=     1    mode for optional k-point grid

 Orbital magnetization related:
   ORBITALMAG=     F  switch on orbital magnetization
   LCHIMAG   =     F  perturbation theory with respect to B field
   DQ        =  0.001000  dq finite difference perturbation B field
   LLRAUG    =     F  two centre corrections for induced B field



--------------------------------------------------------------------------------------------------------


 Static calculation
 charge density and potential will be updated during run
 spin polarized calculation
 Variant of blocked Davidson
 Davidson routine will perform the subspace rotation
 perform sub-space diagonalisation
    after iterative eigenvector-optimisation
 modified Broyden-mixing scheme, WC =      100.0
 initial mixing is a Kerker type mixing with AMIX =  0.4000 and BMIX =      1.0000
 Hartree-type preconditioning will be used
 using additional bands           88
 reciprocal scheme for non local part
 use partial core corrections
 calculate Harris-corrections to forces   (improved forces if not selfconsistent)
 use gradient corrections 
 use of overlap-Matrix (Vanderbilt PP)
 Fermi weights with tetrahedron method with Bloechl corrections


--------------------------------------------------------------------------------------------------------


  energy-cutoff  :      520.00
  volume of cell :     1863.68
      direct lattice vectors                 reciprocal lattice vectors
     0.000000000 10.307367086 -0.372855731     0.000000000  0.096453423 -0.015606996
    16.788494411  0.000000000  0.000000000     0.059564603  0.000000000  0.000000000
     0.000000000 -1.732519801-10.707215182     0.000000000 -0.003358783 -0.092851486

  length of vectors
    10.314108670 16.788494411 10.846477853     0.097707938  0.059564603  0.092912216



 k-points in units of 2pi/SCALE and weight: pymatgen with grid density = 595 / numbe
   0.00000000  0.00000000 -0.00000000       0.125
   0.00000000  0.04822671 -0.00780350       0.125
   0.02978230  0.00000000 -0.00000000       0.125
   0.02978230  0.04822671 -0.00780350       0.125
   0.00000000 -0.00167939 -0.04642574       0.125
   0.00000000  0.04654732 -0.05422924       0.125
   0.02978230 -0.00167939 -0.04642574       0.125
   0.02978230  0.04654732 -0.05422924       0.125

 k-points in reciprocal lattice and weights: pymatgen with grid density = 595 / numbe
   0.00000000  0.00000000  0.00000000       0.125
   0.50000000  0.00000000  0.00000000       0.125
   0.00000000  0.50000000  0.00000000       0.125
   0.50000000  0.50000000  0.00000000       0.125
   0.00000000  0.00000000  0.50000000       0.125
   0.50000000  0.00000000  0.50000000       0.125
   0.00000000  0.50000000  0.50000000       0.125
   0.50000000  0.50000000  0.50000000       0.125

 position of ions in fractional coordinates (direct lattice) 
   0.88642314  0.46700475  0.67812639
   0.88642314  0.96700475  0.67812639
   0.32956326  0.18874382  0.55070772
   0.32956326  0.68874382  0.55070772
   0.91267129  0.10524188  0.91196047
   0.91267129  0.60524188  0.91196047
   0.23973640  0.30083105  0.77657419
   0.23973640  0.80083105  0.77657419
   0.14538706  0.30568876  0.22439668
   0.14441752  0.80568876  0.22439668
   0.85558248  0.19431124  0.77560332
   0.85558248  0.69431124  0.77560332
   0.76026360  0.19916895  0.22342581
   0.76026360  0.69916895  0.22342581
   0.17043674  0.43874382  0.44929228
   0.17043674  0.93874382  0.44929228
   0.41267129  0.14475812  0.91196047
   0.41267129  0.64475812  0.91196047
   0.38642314  0.28299525  0.67812639
   0.38642314  0.78299525  0.67812639
   0.64441752  0.44431124  0.22439668
   0.64441752  0.94431124  0.22439668
   0.82956326  0.06125618  0.55070772
   0.82956326  0.56125618  0.55070772
   0.26026360  0.05083105  0.22342581
   0.26026360  0.55083105  0.22342581
   0.61357686  0.21700475  0.32187361
   0.61357686  0.71700475  0.32187361
   0.11357686  0.03299525  0.32187361
   0.11357686  0.53299525  0.32187361
   0.05989570  0.34508773  0.37448437
   0.05989570  0.84508773  0.37448437
   0.74342521  0.28934434  0.07116523
   0.74342521  0.78934434  0.07116523
   0.58732871  0.35524188  0.08803953
   0.58732871  0.85524188  0.08803953
   0.25657479  0.21065566  0.92883477
   0.25657479  0.71065566  0.92883477
   0.08732871  0.39475812  0.08803953
   0.08732871  0.89475812  0.08803953
   0.44010430  0.09508773  0.62551563
   0.44010430  0.59508773  0.62551563
   0.35558248  0.05568876  0.77560332
   0.35558248  0.55568876  0.77560332
   0.73973640  0.44916895  0.77657419
   0.73973640  0.94916895  0.77657419
   0.94010430  0.15491227  0.62551563
   0.94010430  0.65491227  0.62551563
   0.24342521  0.46065566  0.07116523
   0.24342521  0.96065566  0.07116523
   0.75657479  0.03934434  0.92883477
   0.75657479  0.53934434  0.92883477
   0.55989570  0.40491227  0.37448437
   0.55989570  0.90491227  0.37448437
   0.67043674  0.31125618  0.44929228
   0.67043674  0.81125618  0.44929228

 position of ions in cartesian coordinates  (Angst):
   7.84030666  7.96182132 -7.59135308
  16.23455387  7.96182132 -7.59135308
   3.16872461  2.44281751 -6.01942562
  11.56297182  2.44281751 -6.01942562
   1.76685280  7.82724839-10.10485172
  10.16110000  7.82724839-10.10485172
   5.05050035  1.12562097 -8.40433404
  13.44474755  1.12562097 -8.40433404
   5.13205407  1.10978612 -2.45687194
  13.52630128  1.09979266 -2.45651044
   3.26219313  7.47505463 -8.62356047
  11.65644034  7.47505463 -8.62356047
   3.34374686  7.44922632 -2.67573688
  11.73799406  7.44922632 -2.67573688
   7.36584822  0.97834624 -4.87421742
  15.76009542  0.97834624 -4.87421742
   2.43027081  2.67356485 -9.91842386
  10.82451801  2.67356485 -9.91842386
   4.75106415  2.80813777 -7.40492521
  13.14531135  2.80813777 -7.40492521
   7.45931673  6.25347620 -2.64293831
  15.85356394  6.25347620 -2.64293831
   1.02839899  7.59650105 -6.20585349
   9.42264619  7.59650105 -6.20585349
   0.85337674  2.29554277 -2.48930901
   9.24762395  2.29554277 -2.48930901
   3.64318306  5.76670951 -3.67514570
  12.03743026  5.76670951 -3.67514570
   0.55394055  0.61302597 -3.48871783
   8.94818775  0.61302597 -3.48871783
   5.79350349 -0.03143461 -4.03201715
  14.18775070 -0.03143461 -4.03201715
   4.85765589  7.53946136 -1.03917182
  13.25190310  7.53946136 -1.03917182
   5.96397640  5.90128244 -1.16164705
  14.35822361  5.90128244 -1.16164705
   3.53659131  1.03538593-10.04089909
  11.93083852  1.03538593-10.04089909
   6.62739441  0.74759889 -0.97521919
  15.02164161  0.74759889 -0.97521919
   1.59637989  3.45259836 -6.86162589
   9.99062710  3.45259836 -6.86162589
   0.93493047  2.32137108 -8.43713261
   9.32917768  2.32137108 -8.43713261
   7.54087046  6.27930451 -8.59076190
  15.93511767  6.27930451 -8.59076190
   2.60074371  8.60628190 -7.04805376
  10.99499092  8.60628190 -7.04805376
   7.73371492  2.38577782 -0.85274396
  16.12796212  2.38577782 -0.85274396
   0.66053229  6.18906947-10.22732695
   9.05477950  6.18906947-10.22732695
   6.79786731  5.12224893 -4.21844502
  15.19211452  5.12224893 -4.21844502
   5.22552259  6.13202978 -5.06064529
  13.61976980  6.13202978 -5.06064529



--------------------------------------------------------------------------------------------------------


 k-point   1 :   0.0000 0.0000 0.0000  plane waves:   50179
 k-point   2 :   0.5000 0.0000 0.0000  plane waves:   50160
 k-point   3 :   0.0000 0.5000 0.0000  plane waves:   50162
 k-point   4 :   0.5000 0.5000 0.0000  plane waves:   50192
 k-point   5 :   0.0000 0.0000 0.5000  plane waves:   50190
 k-point   6 :   0.5000 0.0000 0.5000  plane waves:   50190
 k-point   7 :   0.0000 0.5000 0.5000  plane waves:   50172
 k-point   8 :   0.5000 0.5000 0.5000  plane waves:   50200

 maximum and minimum number of plane-waves per node :     50200    50160

 maximum number of plane-waves:     50200
 maximum index in each direction: 
   IXMAX=   19   IYMAX=   31   IZMAX=   20
   IXMIN=  -19   IYMIN=  -31   IZMIN=  -20


 serial   3D FFT for wavefunctions
 parallel 3D FFT for charge:
    minimum data exchange during FFTs selected (reduces bandwidth)


 total amount of memory used by VASP MPI-rank0   322725. kBytes
=======================================================================

   base      :      30000. kBytes
   nonl-proj :      70692. kBytes
   fftplans  :      34504. kBytes
   grid      :      83442. kBytes
   one-center:        344. kBytes
   wavefun   :     103743. kBytes

     INWAV:  cpu time      0.0001: real time      0.0002
 Broyden mixing: mesh for mixing (old mesh)
   NGX = 39   NGY = 63   NGZ = 41
  (NGX  =160   NGY  =252   NGZ  =168)
  gives a total of 100737 points

 initial charge density was supplied:
 charge density of overlapping atoms calculated
 number of electron     336.0000000 magnetization      56.0000000
 keeping initial charge density in first step


--------------------------------------------------------------------------------------------------------


 Maximum index for augmentation-charges         3947 (set IRDMAX)


--------------------------------------------------------------------------------------------------------


 First call to EWALD:  gamma=   0.144
 Maximum number of real-space cells 3x 2x 3
 Maximum number of reciprocal cells 2x 4x 2

    FEWALD:  cpu time      0.0022: real time      0.0022


--------------------------------------- Iteration      1(   1)  ---------------------------------------


    POTLOK:  cpu time      0.5372: real time      0.5378
    SETDIJ:  cpu time     29.9127: real time     29.9622
     EDDAV:  cpu time     56.3815: real time     56.4949
 BZINTS: Fermi energy:   10.166126;  336.000000 electrons
         Band energy: 0.225183E+03;  BLOECHL correction:   -0.009105
       DOS:  cpu time      0.0494: real time      0.0495
    --------------------------------------------
      LOOP:  cpu time     86.8808: real time     87.0444

 eigenvalue-minimisations  :  8192
 total energy-change (2. order) : 0.2106069E+04  (-0.1330920E+05)
 number of electron     336.0000000 magnetization      56.0000000
 augmentation part      336.0000000 magnetization      56.0000000

 Free energy of the ion-electron system (eV)
  ---------------------------------------------------
  alpha Z        PSCENC =       253.99581917
  Ewald energy   TEWEN  =     -9971.52373385
  -Hartree energ DENC   =     -4765.33257097
  -exchange      EXHF   =         0.00000000
  -V(xc)+E(xc)   XCENC  =       682.49918045
  PAW double counting   =     12174.71095765   -11995.46358648
  entropy T*S    EENTRO =         0.00000000
  eigenvalues    EBANDS =       225.18321362
  atomic energy  EATOM  =     15501.99929693
  Solvation  Ediel_sol  =         0.00000000
  ---------------------------------------------------
  free energy    TOTEN  =      2106.06857652 eV

  energy without entropy =     2106.06857652  energy(sigma->0) =     2106.06857652


--------------------------------------------------------------------------------------------------------




--------------------------------------- Iteration      1(   2)  ---------------------------------------


     EDDAV:  cpu time     64.4493: real time     64.7845
 BZINTS: Fermi energy:    1.451329;  336.000000 electrons
         Band energy:-0.187463E+04;  BLOECHL correction:    0.000000
       DOS:  cpu time      0.0311: real time      0.0312
    --------------------------------------------
      LOOP:  cpu time     64.4805: real time     64.8157

 eigenvalue-minimisations  : 10272
 total energy-change (2. order) :-0.2099812E+04  (-0.2021624E+04)
 number of electron     336.0000000 magnetization      56.0000000
 augmentation part      336.0000000 magnetization      56.0000000

 Free energy of the ion-electron system (eV)
  ---------------------------------------------------
  alpha Z        PSCENC =       253.99581917
  Ewald energy   TEWEN  =     -9971.52373385
  -Hartree energ DENC   =     -4765.33257097
  -exchange      EXHF   =         0.00000000
  -V(xc)+E(xc)   XCENC  =       682.49918045
  PAW double counting   =     12174.71095765   -11995.46358648
  entropy T*S    EENTRO =         0.00000000
  eigenvalues    EBANDS =     -1874.62856796
  atomic energy  EATOM  =     15501.99929693
  Solvation  Ediel_sol  =         0.00000000
  ---------------------------------------------------
  free energy    TOTEN  =         6.25679494 eV

  energy without entropy =        6.25679494  energy(sigma->0) =        6.25679494


--------------------------------------------------------------------------------------------------------




--------------------------------------- Iteration      1(   3)  ---------------------------------------


     EDDAV:  cpu time     70.7889: real time     70.9607
 BZINTS: Fermi energy:    0.220296;  336.000000 electrons
         Band energy:-0.209446E+04;  BLOECHL correction:    0.000000
       DOS:  cpu time      0.0292: real time      0.0293
    --------------------------------------------
      LOOP:  cpu time     70.8181: real time     70.9900

 eigenvalue-minimisations  : 10240
 total energy-change (2. order) :-0.2198364E+03  (-0.2171496E+03)
 number of electron     336.0000000 magnetization      56.0000000
 augmentation part      336.0000000 magnetization      56.0000000

 Free energy of the ion-electron system (eV)
  ---------------------------------------------------
  alpha Z        PSCENC =       253.99581917
  Ewald energy   TEWEN  =     -9971.52373385
  -Hartree energ DENC   =     -4765.33257097
  -exchange      EXHF   =         0.00000000
  -V(xc)+E(xc)   XCENC  =       682.49918045
  PAW double counting   =     12174.71095765   -11995.46358648
  entropy T*S    EENTRO =         0.00000000
  eigenvalues    EBANDS =     -2094.46492446
  atomic energy  EATOM  =     15501.99929693
  Solvation  Ediel_sol  =         0.00000000
  ---------------------------------------------------
  free energy    TOTEN  =      -213.57956155 eV

  energy without entropy =     -213.57956155  energy(sigma->0) =     -213.57956155


--------------------------------------------------------------------------------------------------------




--------------------------------------- Iteration      1(   4)  ---------------------------------------


     EDDAV:  cpu time     57.8431: real time     58.2638
 BZINTS: Fermi energy:    0.192030;  336.000000 electrons
         Band energy:-0.209937E+04;  BLOECHL correction:    0.000000
       DOS:  cpu time      0.0284: real time      0.0284
    --------------------------------------------
      LOOP:  cpu time     57.8714: real time     58.2922

 eigenvalue-minimisations  : 10432
 total energy-change (2. order) :-0.4904741E+01  (-0.4886421E+01)
 number of electron     336.0000000 magnetization      56.0000000
 augmentation part      336.0000000 magnetization      56.0000000

 Free energy of the ion-electron system (eV)
  ---------------------------------------------------
  alpha Z        PSCENC =       253.99581917
  Ewald energy   TEWEN  =     -9971.52373385
  -Hartree energ DENC   =     -4765.33257097
  -exchange      EXHF   =         0.00000000
  -V(xc)+E(xc)   XCENC  =       682.49918045
  PAW double counting   =     12174.71095765   -11995.46358648
  entropy T*S    EENTRO =         0.00000000
  eigenvalues    EBANDS =     -2099.36966520
  atomic energy  EATOM  =     15501.99929693
  Solvation  Ediel_sol  =         0.00000000
  ---------------------------------------------------
  free energy    TOTEN  =      -218.48430230 eV

  energy without entropy =     -218.48430230  energy(sigma->0) =     -218.48430230


--------------------------------------------------------------------------------------------------------




--------------------------------------- Iteration      1(   5)  ---------------------------------------


     EDDAV:  cpu time     57.1572: real time     57.9505
 BZINTS: Fermi energy:    0.191913;  336.000000 electrons
         Band energy:-0.209950E+04;  BLOECHL correction:    0.000000
       DOS:  cpu time      0.0292: real time      0.0293
    CHARGE:  cpu time     15.5094: real time     15.6960
    MIXING:  cpu time      0.0112: real time      0.0112
    --------------------------------------------
      LOOP:  cpu time     72.7071: real time     73.6870

 eigenvalue-minimisations  : 10016
 total energy-change (2. order) :-0.1287252E+00  (-0.1286590E+00)
 number of electron     335.9999997 magnetization      44.9918631
 augmentation part      -47.3238480 magnetization      44.8837639

 Broyden mixing:
  rms(total) = 0.82730E+01    rms(broyden)= 0.82730E+01
  rms(prec ) = 0.82930E+01
  weight for this iteration     100.00

 Free energy of the ion-electron system (eV)
  ---------------------------------------------------
  alpha Z        PSCENC =       253.99581917
  Ewald energy   TEWEN  =     -9971.52373385
  -Hartree energ DENC   =     -4765.33257097
  -exchange      EXHF   =         0.00000000
  -V(xc)+E(xc)   XCENC  =       682.49918045
  PAW double counting   =     12174.71095765   -11995.46358648
  entropy T*S    EENTRO =         0.00000000
  eigenvalues    EBANDS =     -2099.49839039
  atomic energy  EATOM  =     15501.99929693
  Solvation  Ediel_sol  =         0.00000000
  ---------------------------------------------------
  free energy    TOTEN  =      -218.61302749 eV

  energy without entropy =     -218.61302749  energy(sigma->0) =     -218.61302749


--------------------------------------------------------------------------------------------------------




--------------------------------------- Iteration      1(   6)  ---------------------------------------


    POTLOK:  cpu time      0.5841: real time      0.5922
    SETDIJ:  cpu time     29.3176: real time     29.3806
     EDDAV:  cpu time     55.2695: real time     55.3941
 BZINTS: Fermi energy:    0.409570;  336.000000 electrons
         Band energy:-0.201402E+04;  BLOECHL correction:    0.000000
       DOS:  cpu time      0.0286: real time      0.0287
    CHARGE:  cpu time     27.2728: real time     27.3375
    MIXING:  cpu time      1.3583: real time      1.3617
    --------------------------------------------
      LOOP:  cpu time    113.8309: real time    114.0947

 eigenvalue-minimisations  :  9632
 total energy-change (2. order) : 0.1022802E+03  (-0.2667800E+02)
 number of electron     335.9999997 magnetization      26.4708955
 augmentation part      -47.6495520 magnetization      27.5294684

 Broyden mixing:
  rms(total) = 0.49341E+01    rms(broyden)= 0.49341E+01
  rms(prec ) = 0.49564E+01
  weight for this iteration     100.00

 eigenvalues of (default mixing * dielectric matrix)
  average eigenvalue GAMMA=   1.6661
  1.6661

 Free energy of the ion-electron system (eV)
  ---------------------------------------------------
  alpha Z        PSCENC =       253.99581917
  Ewald energy   TEWEN  =     -9971.52373385
  -Hartree energ DENC   =     -4809.64246365
  -exchange      EXHF   =         0.00000000
  -V(xc)+E(xc)   XCENC  =       746.07482268
  PAW double counting   =     20713.93917927   -20537.15744137
  entropy T*S    EENTRO =         0.00000000
  eigenvalues    EBANDS =     -2014.01828035
  atomic energy  EATOM  =     15501.99929693
  Solvation  Ediel_sol  =         0.00000000
  ---------------------------------------------------
  free energy    TOTEN  =      -116.33280118 eV

  energy without entropy =     -116.33280118  energy(sigma->0) =     -116.33280118


--------------------------------------------------------------------------------------------------------




--------------------------------------- Iteration      1(   7)  ---------------------------------------


    POTLOK:  cpu time      0.4787: real time      0.4865
    SETDIJ:  cpu time     29.4693: real time     29.5310
     EDDAV:  cpu time     60.5623: real time     60.6917
 BZINTS: Fermi energy:    0.738946;  336.000000 electrons
         Band energy:-0.186749E+04;  BLOECHL correction:    0.000000
       DOS:  cpu time      0.0278: real time      0.0278
    CHARGE:  cpu time     29.4391: real time     29.5187
    MIXING:  cpu time      0.0162: real time      0.0162
    --------------------------------------------
      LOOP:  cpu time    119.9934: real time    120.2719

 eigenvalue-minimisations  : 10144
 total energy-change (2. order) :-0.1115010E+02  (-0.2698903E+01)
 number of electron     335.9999997 magnetization      19.7068546
 augmentation part      -47.3161635 magnetization      20.9123790

 Broyden mixing:
  rms(total) = 0.14018E+01    rms(broyden)= 0.14018E+01
  rms(prec ) = 0.14055E+01
  weight for this iteration     100.00

 eigenvalues of (default mixing * dielectric matrix)
  average eigenvalue GAMMA=   1.4850
  0.7894  2.1807

 Free energy of the ion-electron system (eV)
  ---------------------------------------------------
  alpha Z        PSCENC =       253.99581917
  Ewald energy   TEWEN  =     -9971.52373385
  -Hartree energ DENC   =     -4969.25527161
  -exchange      EXHF   =         0.00000000
  -V(xc)+E(xc)   XCENC  =       751.41872134
  PAW double counting   =     37022.85479355   -36849.48558335
  entropy T*S    EENTRO =         0.00000000
  eigenvalues    EBANDS =     -1867.48694037
  atomic energy  EATOM  =     15501.99929693
  Solvation  Ediel_sol  =         0.00000000
  ---------------------------------------------------
  free energy    TOTEN  =      -127.48289819 eV

  energy without entropy =     -127.48289819  energy(sigma->0) =     -127.48289819


--------------------------------------------------------------------------------------------------------




--------------------------------------- Iteration      1(   8)  ---------------------------------------


    POTLOK:  cpu time      0.5928: real time      0.5948
    SETDIJ:  cpu time     25.8319: real time     25.8955
     EDDAV:  cpu time     64.3184: real time     64.7244
 BZINTS: Fermi energy:    0.706499;  336.000000 electrons
         Band energy:-0.185505E+04;  BLOECHL correction:    0.000000
       DOS:  cpu time      0.0285: real time      0.0286
    CHARGE:  cpu time     28.6734: real time     28.7149
    MIXING:  cpu time      0.0073: real time      0.0073
    --------------------------------------------
      LOOP:  cpu time    119.4522: real time    119.9655

 eigenvalue-minimisations  :  9312
 total energy-change (2. order) :-0.4274587E+02  (-0.1979267E+01)
 number of electron     335.9999997 magnetization      16.0399716
 augmentation part      -47.0115594 magnetization      17.0842512

 Broyden mixing:
  rms(total) = 0.78422E+00    rms(broyden)= 0.78422E+00
  rms(prec ) = 0.78938E+00
  weight for this iteration     100.00

 eigenvalues of (default mixing * dielectric matrix)
  average eigenvalue GAMMA=   1.3399
  2.4937  0.9429  0.5830

 Free energy of the ion-electron system (eV)
  ---------------------------------------------------
  alpha Z        PSCENC =       253.99581917
  Ewald energy   TEWEN  =     -9971.52373385
  -Hartree energ DENC   =     -4998.77114989
  -exchange      EXHF   =         0.00000000
  -V(xc)+E(xc)   XCENC  =       726.52207338
  PAW double counting   =     40163.57415222   -39990.97195585
  entropy T*S    EENTRO =         0.00000000
  eigenvalues    EBANDS =     -1855.05326719
  atomic energy  EATOM  =     15501.99929693
  Solvation  Ediel_sol  =         0.00000000
  ---------------------------------------------------
  free energy    TOTEN  =      -170.22876508 eV

  energy without entropy =     -170.22876508  energy(sigma->0) =     -170.22876508


--------------------------------------------------------------------------------------------------------




--------------------------------------- Iteration      1(   9)  ---------------------------------------


    POTLOK:  cpu time      0.4590: real time      0.4595
    SETDIJ:  cpu time     32.7044: real time     32.7333
     EDDAV:  cpu time     61.8565: real time     61.9554
 BZINTS: Fermi energy:    0.628599;  336.000000 electrons
         Band energy:-0.186633E+04;  BLOECHL correction:    0.000000
       DOS:  cpu time      0.0303: real time      0.0304
    CHARGE:  cpu time     31.0725: real time     31.1010
    MIXING:  cpu time      0.0143: real time      0.0143
    --------------------------------------------
      LOOP:  cpu time    126.1370: real time    126.2940

 eigenvalue-minimisations  : 10240
 total energy-change (2. order) :-0.1679321E+02  (-0.6446888E+00)
 number of electron     335.9999997 magnetization      11.5130979
 augmentation part      -46.9148335 magnetization      12.3502445

 Broyden mixing:
  rms(total) = 0.43622E+00    rms(broyden)= 0.43622E+00
  rms(prec ) = 0.44836E+00
  weight for this iteration     100.00

 eigenvalues of (default mixing * dielectric matrix)
  average eigenvalue GAMMA=   1.3253
  2.5787  1.3004  0.7111  0.7111

 Free energy of the ion-electron system (eV)
  ---------------------------------------------------
  alpha Z        PSCENC =       253.99581917
  Ewald energy   TEWEN  =     -9971.52373385
  -Hartree energ DENC   =     -4994.96093563
  -exchange      EXHF   =         0.00000000
  -V(xc)+E(xc)   XCENC  =       717.17686660
  PAW double counting   =     40948.61365404   -40775.99236042
  entropy T*S    EENTRO =         0.00000000
  eigenvalues    EBANDS =     -1866.33057991
  atomic energy  EATOM  =     15501.99929693
  Solvation  Ediel_sol  =         0.00000000
  ---------------------------------------------------
  free energy    TOTEN  =      -187.02197308 eV

  energy without entropy =     -187.02197308  energy(sigma->0) =     -187.02197308


--------------------------------------------------------------------------------------------------------




--------------------------------------- Iteration      1(  10)  ---------------------------------------


    POTLOK:  cpu time      0.4747: real time      0.4756
    SETDIJ:  cpu time     30.9613: real time     30.9825
     EDDAV:  cpu time     63.0886: real time     63.2170
 BZINTS: Fermi energy:    0.475212;  336.000000 electrons
         Band energy:-0.190092E+04;  BLOECHL correction:    0.000000
       DOS:  cpu time      0.0276: real time      0.0277
    CHARGE:  cpu time     35.5690: real time     35.6234
    MIXING:  cpu time      1.3681: real time      1.3691
    --------------------------------------------
      LOOP:  cpu time    131.4893: real time    131.6952

 eigenvalue-minimisations  :  9984
 total energy-change (2. order) :-0.2005775E+02  (-0.1304076E+01)
 number of electron     335.9999997 magnetization       5.3138696
 augmentation part      -46.8732742 magnetization       5.8476563

 Broyden mixing:
  rms(total) = 0.32395E+00    rms(broyden)= 0.32395E+00
  rms(prec ) = 0.33697E+00
  weight for this iteration     100.00

 eigenvalues of (default mixing * dielectric matrix)
  average eigenvalue GAMMA=   1.4486
  2.4857  2.4857  0.9415  0.7286  0.6017

 Free energy of the ion-electron system (eV)
  ---------------------------------------------------
  alpha Z        PSCENC =       253.99581917
  Ewald energy   TEWEN  =     -9971.52373385
  -Hartree energ DENC   =     -4969.50633867
  -exchange      EXHF   =         0.00000000
  -V(xc)+E(xc)   XCENC  =       705.60058036
  PAW double counting   =     40959.82487349   -40786.54799707
  entropy T*S    EENTRO =         0.00000000
  eigenvalues    EBANDS =     -1900.92222329
  atomic energy  EATOM  =     15501.99929693
  Solvation  Ediel_sol  =         0.00000000
  ---------------------------------------------------
  free energy    TOTEN  =      -207.07972293 eV

  energy without entropy =     -207.07972293  energy(sigma->0) =     -207.07972293


--------------------------------------------------------------------------------------------------------




--------------------------------------- Iteration      1(  11)  ---------------------------------------


    POTLOK:  cpu time      0.4900: real time      0.4910
    SETDIJ:  cpu time     27.2324: real time     27.2605
     EDDAV:  cpu time     66.4840: real time     66.5849
 BZINTS: Fermi energy:    0.257832;  336.000000 electrons
         Band energy:-0.195824E+04;  BLOECHL correction:    0.000000
       DOS:  cpu time      0.0295: real time      0.0299
    CHARGE:  cpu time     28.0063: real time     28.0298
    MIXING:  cpu time      0.0087: real time      0.0087
    --------------------------------------------
      LOOP:  cpu time    122.2508: real time    122.4048

 eigenvalue-minimisations  :  9952
 total energy-change (2. order) :-0.1778783E+02  (-0.2155688E+01)
 number of electron     335.9999997 magnetization       3.5764019
 augmentation part      -46.9052893 magnetization       3.7598915

 Broyden mixing:
  rms(total) = 0.18662E+00    rms(broyden)= 0.18662E+00
  rms(prec ) = 0.20031E+00
  weight for this iteration     100.00

 eigenvalues of (default mixing * dielectric matrix)
  average eigenvalue GAMMA=   1.4667
  2.7973  2.7973  1.0274  0.8892  0.6992  0.5901

 Free energy of the ion-electron system (eV)
  ---------------------------------------------------
  alpha Z        PSCENC =       253.99581917
  Ewald energy   TEWEN  =     -9971.52373385
  -Hartree energ DENC   =     -4919.95686952
  -exchange      EXHF   =         0.00000000
  -V(xc)+E(xc)   XCENC  =       694.52212785
  PAW double counting   =     40388.11310059   -40213.77843815
  entropy T*S    EENTRO =         0.00000000
  eigenvalues    EBANDS =     -1958.23885866
  atomic energy  EATOM  =     15501.99929693
  Solvation  Ediel_sol  =         0.00000000
  ---------------------------------------------------
  free energy    TOTEN  =      -224.86755564 eV

  energy without entropy =     -224.86755564  energy(sigma->0) =     -224.86755564


--------------------------------------------------------------------------------------------------------




--------------------------------------- Iteration      1(  12)  ---------------------------------------


    POTLOK:  cpu time      0.4837: real time      0.4840
    SETDIJ:  cpu time     23.5689: real time     23.8001
     EDDAV:  cpu time     66.2706: real time     67.4215
 BZINTS: Fermi energy:    0.184223;  336.000000 electrons
         Band energy:-0.197898E+04;  BLOECHL correction:    0.000000
       DOS:  cpu time      0.0275: real time      0.0276
    CHARGE:  cpu time     28.4607: real time     28.5186
    MIXING:  cpu time      0.0082: real time      0.0082
    --------------------------------------------
      LOOP:  cpu time    118.8195: real time    120.2600

 eigenvalue-minimisations  : 10048
 total energy-change (2. order) :-0.3394376E+01  (-0.3886970E+00)
 number of electron     335.9999997 magnetization       2.3952945
 augmentation part      -46.9156927 magnetization       2.4784271

 Broyden mixing:
  rms(total) = 0.15942E+00    rms(broyden)= 0.15942E+00
  rms(prec ) = 0.17195E+00
  weight for this iteration     100.00

 eigenvalues of (default mixing * dielectric matrix)
  average eigenvalue GAMMA=   1.4921
  3.1009  3.1009  1.0566  1.0566  0.7806  0.7806  0.5683

 Free energy of the ion-electron system (eV)
  ---------------------------------------------------
  alpha Z        PSCENC =       253.99581917
  Ewald energy   TEWEN  =     -9971.52373385
  -Hartree energ DENC   =     -4900.39134207
  -exchange      EXHF   =         0.00000000
  -V(xc)+E(xc)   XCENC  =       692.06012057
  PAW double counting   =     39951.76533865   -39777.19236738
  entropy T*S    EENTRO =         0.00000000
  eigenvalues    EBANDS =     -1978.97506326
  atomic energy  EATOM  =     15501.99929693
  Solvation  Ediel_sol  =         0.00000000
  ---------------------------------------------------
  free energy    TOTEN  =      -228.26193124 eV

  energy without entropy =     -228.26193124  energy(sigma->0) =     -228.26193124


--------------------------------------------------------------------------------------------------------




--------------------------------------- Iteration      1(  13)  ---------------------------------------


    POTLOK:  cpu time      0.4652: real time      0.4679
    SETDIJ:  cpu time     28.0450: real time     28.7974
     EDDAV:  cpu time     60.7621: real time     60.8982
 BZINTS: Fermi energy:    0.116321;  336.000000 electrons
         Band energy:-0.200140E+04;  BLOECHL correction:    0.000000
       DOS:  cpu time      0.0284: real time      0.0285
    CHARGE:  cpu time     24.3170: real time     24.4037
    MIXING:  cpu time      0.0145: real time      0.0145
    --------------------------------------------
      LOOP:  cpu time    113.6322: real time    114.6102

 eigenvalue-minimisations  :  9536
 total energy-change (2. order) :-0.1053435E+01  (-0.1336324E+00)
 number of electron     335.9999997 magnetization       0.8861356
 augmentation part      -46.9737614 magnetization       0.9122010

 Broyden mixing:
  rms(total) = 0.93021E-01    rms(broyden)= 0.93021E-01
  rms(prec ) = 0.99817E-01
  weight for this iteration     100.00

 eigenvalues of (default mixing * dielectric matrix)
  average eigenvalue GAMMA=   1.5520
  3.3227  3.3227  1.5868  1.2837  0.9274  0.6998  0.6998  0.5726

 Free energy of the ion-electron system (eV)
  ---------------------------------------------------
  alpha Z        PSCENC =       253.99581917
  Ewald energy   TEWEN  =     -9971.52373385
  -Hartree energ DENC   =     -4877.27470277
  -exchange      EXHF   =         0.00000000
  -V(xc)+E(xc)   XCENC  =       690.07796054
  PAW double counting   =     39131.72345506   -38956.91185745
  entropy T*S    EENTRO =         0.00000000
  eigenvalues    EBANDS =     -2001.40160392
  atomic energy  EATOM  =     15501.99929693
  Solvation  Ediel_sol  =         0.00000000
  ---------------------------------------------------
  free energy    TOTEN  =      -229.31536629 eV

  energy without entropy =     -229.31536629  energy(sigma->0) =     -229.31536629


--------------------------------------------------------------------------------------------------------




--------------------------------------- Iteration      1(  14)  ---------------------------------------


    POTLOK:  cpu time      0.4893: real time      0.4897
    SETDIJ:  cpu time     28.3259: real time     28.3554
     EDDAV:  cpu time     49.9975: real time     50.0742
 BZINTS: Fermi energy:    0.080759;  336.000000 electrons
         Band energy:-0.201187E+04;  BLOECHL correction:    0.000000
       DOS:  cpu time      0.0279: real time      0.0280
    CHARGE:  cpu time     29.0630: real time     29.0797
    MIXING:  cpu time      0.0184: real time      0.0184
    --------------------------------------------
      LOOP:  cpu time    107.9220: real time    108.0454

 eigenvalue-minimisations  :  8992
 total energy-change (2. order) :-0.6466715E-01  (-0.1625658E-01)
 number of electron     335.9999997 magnetization       0.4197333
 augmentation part      -47.0008521 magnetization       0.4267090

 Broyden mixing:
  rms(total) = 0.43510E-01    rms(broyden)= 0.43509E-01
  rms(prec ) = 0.46219E-01
  weight for this iteration     100.00

 eigenvalues of (default mixing * dielectric matrix)
  average eigenvalue GAMMA=   1.5787
  4.1289  2.5586  2.5586  1.0967  1.0967  0.7713  0.7713  0.5750  0.6515

 Free energy of the ion-electron system (eV)
  ---------------------------------------------------
  alpha Z        PSCENC =       253.99581917
  Ewald energy   TEWEN  =     -9971.52373385
  -Hartree energ DENC   =     -4865.91608626
  -exchange      EXHF   =         0.00000000
  -V(xc)+E(xc)   XCENC  =       689.16611134
  PAW double counting   =     39072.70575358   -38897.93934945
  entropy T*S    EENTRO =         0.00000000
  eigenvalues    EBANDS =     -2011.86784489
  atomic energy  EATOM  =     15501.99929693
  Solvation  Ediel_sol  =         0.00000000
  ---------------------------------------------------
  free energy    TOTEN  =      -229.38003344 eV

  energy without entropy =     -229.38003344  energy(sigma->0) =     -229.38003344


--------------------------------------------------------------------------------------------------------




--------------------------------------- Iteration      1(  15)  ---------------------------------------


    POTLOK:  cpu time      0.4513: real time      0.4521
    SETDIJ:  cpu time     27.2556: real time     27.3249
     EDDAV:  cpu time     62.6993: real time     62.7518
 BZINTS: Fermi energy:    0.079126;  336.000000 electrons
         Band energy:-0.201153E+04;  BLOECHL correction:    0.000000
       DOS:  cpu time      0.0286: real time      0.0287
    CHARGE:  cpu time     26.8599: real time     26.8694
    MIXING:  cpu time      0.0170: real time      0.0170
    --------------------------------------------
      LOOP:  cpu time    117.3117: real time    117.4440

 eigenvalue-minimisations  :  9568
 total energy-change (2. order) : 0.1345119E-02  (-0.2079149E-02)
 number of electron     335.9999997 magnetization       0.1733518
 augmentation part      -46.9946065 magnetization       0.1776858

 Broyden mixing:
  rms(total) = 0.20215E-01    rms(broyden)= 0.20215E-01
  rms(prec ) = 0.21786E-01
  weight for this iteration     100.00

 eigenvalues of (default mixing * dielectric matrix)
  average eigenvalue GAMMA=   1.5648
  4.5509  2.5280  2.5280  1.3367  0.9970  0.9970  0.7586  0.7586  0.6239  0.5696

 Free energy of the ion-electron system (eV)
  ---------------------------------------------------
  alpha Z        PSCENC =       253.99581917
  Ewald energy   TEWEN  =     -9971.52373385
  -Hartree energ DENC   =     -4866.12780880
  -exchange      EXHF   =         0.00000000
  -V(xc)+E(xc)   XCENC  =       689.13065097
  PAW double counting   =     39158.44595790   -38983.76680475
  entropy T*S    EENTRO =         0.00000000
  eigenvalues    EBANDS =     -2011.53206588
  atomic energy  EATOM  =     15501.99929693
  Solvation  Ediel_sol  =         0.00000000
  ---------------------------------------------------
  free energy    TOTEN  =      -229.37868832 eV

  energy without entropy =     -229.37868832  energy(sigma->0) =     -229.37868832


--------------------------------------------------------------------------------------------------------




--------------------------------------- Iteration      1(  16)  ---------------------------------------


    POTLOK:  cpu time      0.4549: real time      0.4556
    SETDIJ:  cpu time     28.9831: real time     29.0614
     EDDAV:  cpu time     57.7310: real time     58.0028
 BZINTS: Fermi energy:    0.077093;  336.000000 electrons
         Band energy:-0.201201E+04;  BLOECHL correction:   -0.000000
       DOS:  cpu time      0.0328: real time      0.0329
    CHARGE:  cpu time     31.5482: real time     31.6183
    MIXING:  cpu time      1.2879: real time      1.2958
    --------------------------------------------
      LOOP:  cpu time    120.0379: real time    120.4668

 eigenvalue-minimisations  :  9152
 total energy-change (2. order) : 0.3065510E-02  (-0.5497786E-03)
 number of electron     335.9999997 magnetization       0.0703650
 augmentation part      -46.9935131 magnetization       0.0711765

 Broyden mixing:
  rms(total) = 0.12332E-01    rms(broyden)= 0.12332E-01
  rms(prec ) = 0.13343E-01
  weight for this iteration     100.00

 eigenvalues of (default mixing * dielectric matrix)
  average eigenvalue GAMMA=   1.5467
  4.7546  2.4281  2.4281  1.8431  0.9968  0.9968  0.9215  0.7286  0.7286  0.5812
  0.6062

 Free energy of the ion-electron system (eV)
  ---------------------------------------------------
  alpha Z        PSCENC =       253.99581917
  Ewald energy   TEWEN  =     -9971.52373385
  -Hartree energ DENC   =     -4865.55254539
  -exchange      EXHF   =         0.00000000
  -V(xc)+E(xc)   XCENC  =       689.06139411
  PAW double counting   =     39127.59295904   -38952.93735776
  entropy T*S    EENTRO =         0.00000000
  eigenvalues    EBANDS =     -2012.01145505
  atomic energy  EATOM  =     15501.99929693
  Solvation  Ediel_sol  =         0.00000000
  ---------------------------------------------------
  free energy    TOTEN  =      -229.37562281 eV

  energy without entropy =     -229.37562281  energy(sigma->0) =     -229.37562281


--------------------------------------------------------------------------------------------------------




--------------------------------------- Iteration      1(  17)  ---------------------------------------


    POTLOK:  cpu time      2.4182: real time      2.4248
    SETDIJ:  cpu time     34.1085: real time     34.1389
     EDDAV:  cpu time     54.4463: real time     54.5063
 BZINTS: Fermi energy:    0.078964;  336.000000 electrons
         Band energy:-0.201108E+04;  BLOECHL correction:    0.000000
       DOS:  cpu time      0.0276: real time      0.0276
    CHARGE:  cpu time     26.7660: real time     26.7917
    MIXING:  cpu time      1.3725: real time      1.3727
    --------------------------------------------
      LOOP:  cpu time    119.1392: real time    119.2621

 eigenvalue-minimisations  :  9472
 total energy-change (2. order) :-0.5000216E-03  (-0.1198956E-03)
 number of electron     335.9999997 magnetization       0.0181441
 augmentation part      -46.9884339 magnetization       0.0185564

 Broyden mixing:
  rms(total) = 0.49422E-02    rms(broyden)= 0.49422E-02
  rms(prec ) = 0.55367E-02
  weight for this iteration     100.00

 eigenvalues of (default mixing * dielectric matrix)
  average eigenvalue GAMMA=   1.5763
  4.9464  2.6022  2.6022  2.2046  1.1785  0.9957  0.9957  0.7614  0.7614  0.6822
  0.5889  0.5961

 Free energy of the ion-electron system (eV)
  ---------------------------------------------------
  alpha Z        PSCENC =       253.99581917
  Ewald energy   TEWEN  =     -9971.52373385
  -Hartree energ DENC   =     -4866.51929941
  -exchange      EXHF   =         0.00000000
  -V(xc)+E(xc)   XCENC  =       689.12169849
  PAW double counting   =     39168.73639321   -38994.10508210
  entropy T*S    EENTRO =         0.00000000
  eigenvalues    EBANDS =     -2011.08121528
  atomic energy  EATOM  =     15501.99929693
  Solvation  Ediel_sol  =         0.00000000
  ---------------------------------------------------
  free energy    TOTEN  =      -229.37612283 eV

  energy without entropy =     -229.37612283  energy(sigma->0) =     -229.37612283


--------------------------------------------------------------------------------------------------------




--------------------------------------- Iteration      1(  18)  ---------------------------------------


    POTLOK:  cpu time      0.4550: real time      0.4597
    SETDIJ:  cpu time     29.7870: real time     29.8158
     EDDAV:  cpu time     58.5848: real time     58.6760
 BZINTS: Fermi energy:    0.080078;  336.000000 electrons
         Band energy:-0.201056E+04;  BLOECHL correction:   -0.000000
       DOS:  cpu time      0.0312: real time      0.0312
    CHARGE:  cpu time     30.9688: real time     30.9772
    MIXING:  cpu time      0.0115: real time      0.0115
    --------------------------------------------
      LOOP:  cpu time    119.8383: real time    119.9715

 eigenvalue-minimisations  :  9536
 total energy-change (2. order) :-0.1141950E-03  (-0.3948422E-04)
 number of electron     335.9999997 magnetization       0.0054310
 augmentation part      -46.9851074 magnetization       0.0059773

 Broyden mixing:
  rms(total) = 0.44740E-02    rms(broyden)= 0.44740E-02
  rms(prec ) = 0.47237E-02
  weight for this iteration     100.00

 eigenvalues of (default mixing * dielectric matrix)
  average eigenvalue GAMMA=   1.5446
  5.0003  2.6459  2.6459  2.2669  1.1296  1.1296  0.9914  0.9914  0.7248  0.7248
  0.5789  0.6449  0.6062

 Free energy of the ion-electron system (eV)
  ---------------------------------------------------
  alpha Z        PSCENC =       253.99581917
  Ewald energy   TEWEN  =     -9971.52373385
  -Hartree energ DENC   =     -4867.06244054
  -exchange      EXHF   =         0.00000000
  -V(xc)+E(xc)   XCENC  =       689.15705227
  PAW double counting   =     39197.48472311   -39022.86816546
  entropy T*S    EENTRO =         0.00000000
  eigenvalues    EBANDS =     -2010.55878866
  atomic energy  EATOM  =     15501.99929693
  Solvation  Ediel_sol  =         0.00000000
  ---------------------------------------------------
  free energy    TOTEN  =      -229.37623703 eV

  energy without entropy =     -229.37623703  energy(sigma->0) =     -229.37623703


--------------------------------------------------------------------------------------------------------




--------------------------------------- Iteration      1(  19)  ---------------------------------------


    POTLOK:  cpu time      0.4811: real time      0.4815
    SETDIJ:  cpu time     32.6165: real time     32.6563
     EDDAV:  cpu time     55.7742: real time     55.8292
 BZINTS: Fermi energy:    0.079430;  336.000000 electrons
         Band energy:-0.201082E+04;  BLOECHL correction:    0.000000
       DOS:  cpu time      0.0285: real time      0.0286
    CHARGE:  cpu time     28.0214: real time     28.0344
    MIXING:  cpu time      0.0220: real time      0.0220
    --------------------------------------------
      LOOP:  cpu time    116.9438: real time    117.0520

 eigenvalue-minimisations  :  9792
 total energy-change (2. order) :-0.5744969E-05  (-0.6210792E-05)
 number of electron     335.9999997 magnetization      -0.0004312
 augmentation part      -46.9859379 magnetization      -0.0001851

 Broyden mixing:
  rms(total) = 0.20339E-02    rms(broyden)= 0.20339E-02
  rms(prec ) = 0.22065E-02
  weight for this iteration     100.00

 eigenvalues of (default mixing * dielectric matrix)
  average eigenvalue GAMMA=   1.5459
  5.0443  2.7075  2.7075  2.1117  1.4097  1.4097  1.0331  1.0331  0.8584  0.7537
  0.7537  0.5803  0.6091  0.6311

 Free energy of the ion-electron system (eV)
  ---------------------------------------------------
  alpha Z        PSCENC =       253.99581917
  Ewald energy   TEWEN  =     -9971.52373385
  -Hartree energ DENC   =     -4866.78942042
  -exchange      EXHF   =         0.00000000
  -V(xc)+E(xc)   XCENC  =       689.14024469
  PAW double counting   =     39196.11266696   -39021.49296675
  entropy T*S    EENTRO =         0.00000000
  eigenvalues    EBANDS =     -2010.81814950
  atomic energy  EATOM  =     15501.99929693
  Solvation  Ediel_sol  =         0.00000000
  ---------------------------------------------------
  free energy    TOTEN  =      -229.37624277 eV

  energy without entropy =     -229.37624277  energy(sigma->0) =     -229.37624277


--------------------------------------------------------------------------------------------------------




--------------------------------------- Iteration      1(  20)  ---------------------------------------


    POTLOK:  cpu time      0.4516: real time      0.4629
    SETDIJ:  cpu time     30.6065: real time     30.7838
     EDDAV:  cpu time     53.8247: real time     54.2050
 BZINTS: Fermi energy:    0.079070;  336.000000 electrons
         Band energy:-0.201096E+04;  BLOECHL correction:    0.000000
       DOS:  cpu time      0.0286: real time      0.0286
    CHARGE:  cpu time     32.5878: real time     32.6083
    MIXING:  cpu time      0.0101: real time      0.0102
    --------------------------------------------
      LOOP:  cpu time    117.5092: real time    118.0988

 eigenvalue-minimisations  :  9216
 total energy-change (2. order) :-0.1031917E-04  (-0.3477925E-05)
 number of electron     335.9999997 magnetization      -0.0015866
 augmentation part      -46.9864697 magnetization      -0.0015074

 Broyden mixing:
  rms(total) = 0.95020E-03    rms(broyden)= 0.95008E-03
  rms(prec ) = 0.10085E-02
  weight for this iteration     100.00

 eigenvalues of (default mixing * dielectric matrix)
  average eigenvalue GAMMA=   1.5472
  5.0946  2.7082  2.7082  2.1001  2.1001  1.2309  1.2309  0.9900  0.9900  0.7800
  0.7327  0.7327  0.5783  0.6158  0.6158

 Free energy of the ion-electron system (eV)
  ---------------------------------------------------
  alpha Z        PSCENC =       253.99581917
  Ewald energy   TEWEN  =     -9971.52373385
  -Hartree energ DENC   =     -4866.64648202
  -exchange      EXHF   =         0.00000000
  -V(xc)+E(xc)   XCENC  =       689.13324639
  PAW double counting   =     39201.24561185   -39026.62397663
  entropy T*S    EENTRO =         0.00000000
  eigenvalues    EBANDS =     -2010.95603493
  atomic energy  EATOM  =     15501.99929693
  Solvation  Ediel_sol  =         0.00000000
  ---------------------------------------------------
  free energy    TOTEN  =      -229.37625309 eV

  energy without entropy =     -229.37625309  energy(sigma->0) =     -229.37625309


--------------------------------------------------------------------------------------------------------




--------------------------------------- Iteration      1(  21)  ---------------------------------------


    POTLOK:  cpu time      2.2890: real time      2.2906
    SETDIJ:  cpu time     26.5268: real time     26.5553
     EDDAV:  cpu time     54.7957: real time     54.8779
 BZINTS: Fermi energy:    0.079019;  336.000000 electrons
         Band energy:-0.201101E+04;  BLOECHL correction:    0.000000
       DOS:  cpu time      0.0277: real time      0.0279
    CHARGE:  cpu time     30.0171: real time     30.0545
    MIXING:  cpu time      0.0108: real time      0.0108
    --------------------------------------------
      LOOP:  cpu time    113.6672: real time    113.8171

 eigenvalue-minimisations  :  9216
 total energy-change (2. order) : 0.1240940E-05  (-0.8863917E-06)
 number of electron     335.9999997 magnetization      -0.0013222
 augmentation part      -46.9866625 magnetization      -0.0013258

 Broyden mixing:
  rms(total) = 0.42529E-03    rms(broyden)= 0.42502E-03
  rms(prec ) = 0.44723E-03
  weight for this iteration     100.00

 eigenvalues of (default mixing * dielectric matrix)
  average eigenvalue GAMMA=   1.5120
  5.0965  2.6687  2.6687  2.5734  1.6076  1.4059  1.1543  1.1543  0.9284  0.9284
  0.7390  0.7390  0.7255  0.5779  0.6125  0.6125

 Free energy of the ion-electron system (eV)
  ---------------------------------------------------
  alpha Z        PSCENC =       253.99581917
  Ewald energy   TEWEN  =     -9971.52373385
  -Hartree energ DENC   =     -4866.58813128
  -exchange      EXHF   =         0.00000000
  -V(xc)+E(xc)   XCENC  =       689.12968116
  PAW double counting   =     39200.67771483   -39026.05526735
  entropy T*S    EENTRO =         0.00000000
  eigenvalues    EBANDS =     -2011.01163146
  atomic energy  EATOM  =     15501.99929693
  Solvation  Ediel_sol  =         0.00000000
  ---------------------------------------------------
  free energy    TOTEN  =      -229.37625185 eV

  energy without entropy =     -229.37625185  energy(sigma->0) =     -229.37625185


--------------------------------------------------------------------------------------------------------




--------------------------------------- Iteration      1(  22)  ---------------------------------------


    POTLOK:  cpu time      0.4283: real time      0.4346
    SETDIJ:  cpu time     24.0536: real time     24.1037
     EDDAV:  cpu time     58.1776: real time     58.4812
 BZINTS: Fermi energy:    0.078846;  336.000000 electrons
         Band energy:-0.201103E+04;  BLOECHL correction:    0.000000
       DOS:  cpu time      0.0277: real time      0.0278
    CHARGE:  cpu time     29.5182: real time     29.6840
    MIXING:  cpu time      1.3261: real time      1.3389
    --------------------------------------------
      LOOP:  cpu time    113.5315: real time    114.0700

 eigenvalue-minimisations  :  9856
 total energy-change (2. order) : 0.4524736E-06  (-0.1407929E-06)
 number of electron     335.9999997 magnetization      -0.0004678
 augmentation part      -46.9867300 magnetization      -0.0004890

 Broyden mixing:
  rms(total) = 0.23090E-03    rms(broyden)= 0.23040E-03
  rms(prec ) = 0.24507E-03
  weight for this iteration     100.00

 eigenvalues of (default mixing * dielectric matrix)
  average eigenvalue GAMMA=   1.5006
  5.0909  2.6581  2.6581  2.6252  1.6696  1.4392  1.4392  1.0838  1.0838  0.9002
  0.9002  0.7423  0.7423  0.6734  0.5791  0.6125  0.6125

 Free energy of the ion-electron system (eV)
  ---------------------------------------------------
  alpha Z        PSCENC =       253.99581917
  Ewald energy   TEWEN  =     -9971.52373385
  -Hartree energ DENC   =     -4866.56689794
  -exchange      EXHF   =         0.00000000
  -V(xc)+E(xc)   XCENC  =       689.12812942
  PAW double counting   =     39199.27471628   -39024.65196695
  entropy T*S    EENTRO =         0.00000000
  eigenvalues    EBANDS =     -2011.03161447
  atomic energy  EATOM  =     15501.99929693
  Solvation  Ediel_sol  =         0.00000000
  ---------------------------------------------------
  free energy    TOTEN  =      -229.37625140 eV

  energy without entropy =     -229.37625140  energy(sigma->0) =     -229.37625140


--------------------------------------------------------------------------------------------------------




--------------------------------------- Iteration      1(  23)  ---------------------------------------


    POTLOK:  cpu time      0.5636: real time      0.5647
    SETDIJ:  cpu time     30.9265: real time     31.5628
     EDDAV:  cpu time     56.3750: real time     57.3875
 BZINTS: Fermi energy:    0.078891;  336.000000 electrons
         Band energy:-0.201103E+04;  BLOECHL correction:    0.000000
       DOS:  cpu time      0.0279: real time      0.0280
    CHARGE:  cpu time     25.0548: real time     25.0869
    MIXING:  cpu time      0.0138: real time      0.0138
    --------------------------------------------
      LOOP:  cpu time    112.9616: real time    114.6437

 eigenvalue-minimisations  :  9216
 total energy-change (2. order) :-0.2249799E-06  (-0.5705374E-07)
 number of electron     335.9999997 magnetization      -0.0002601
 augmentation part      -46.9867031 magnetization      -0.0002563

 Broyden mixing:
[...]

  length of vectors
    10.314108670 16.788494411 10.846477853     0.097707938  0.059564603  0.092912216


 FORCES acting on ions
    electron-ion (+dipol)            ewald-force                    non-local-force                 convergence-correction
 -----------------------------------------------------------------------------------------------
   0.987E+02 -.105E+03 -.125E+02   -.104E+03 0.113E+03 0.112E+02   0.495E+01 -.888E+01 0.132E+01   0.168E-05 -.180E-06 0.862E-06
   0.986E+02 -.105E+03 -.125E+02   -.104E+03 0.113E+03 0.112E+02   0.495E+01 -.888E+01 0.132E+01   0.160E-05 -.202E-06 0.844E-06
   -.123E+02 0.420E+02 -.127E+03   0.126E+02 -.472E+02 0.134E+03   -.245E+00 0.519E+01 -.705E+01   0.205E-06 0.645E-07 -.104E-05
   -.124E+02 0.420E+02 -.127E+03   0.126E+02 -.472E+02 0.134E+03   -.246E+00 0.519E+01 -.705E+01   0.597E-07 0.548E-08 -.112E-05
   -.211E+02 -.902E+02 0.981E+02   0.198E+02 0.989E+02 -.103E+03   0.134E+01 -.874E+01 0.530E+01   0.485E-08 0.240E-07 0.164E-05
   -.211E+02 -.902E+02 0.981E+02   0.198E+02 0.989E+02 -.103E+03   0.134E+01 -.874E+01 0.530E+01   -.112E-06 0.462E-07 0.169E-05
   -.108E+03 0.950E+02 0.622E+01   0.114E+03 -.101E+03 -.411E+01   -.534E+01 0.592E+01 -.212E+01   -.160E-05 0.120E-06 0.615E-06
   -.108E+03 0.950E+02 0.625E+01   0.114E+03 -.101E+03 -.414E+01   -.534E+01 0.592E+01 -.212E+01   -.170E-05 0.106E-06 0.645E-06
   0.136E+03 -.540E+02 -.181E+02   -.143E+03 0.595E+02 0.187E+02   0.676E+01 -.560E+01 -.574E+00   0.165E-05 0.149E-06 -.106E-05
   0.136E+03 -.539E+02 -.187E+02   -.143E+03 0.595E+02 0.193E+02   0.680E+01 -.552E+01 -.558E+00   0.149E-05 0.102E-06 -.103E-05
   -.136E+03 0.539E+02 0.187E+02   0.143E+03 -.595E+02 -.193E+02   -.680E+01 0.552E+01 0.558E+00   -.147E-05 -.408E-07 0.973E-06
   -.136E+03 0.540E+02 0.187E+02   0.143E+03 -.595E+02 -.193E+02   -.680E+01 0.552E+01 0.558E+00   -.163E-05 -.624E-08 0.980E-06
   0.108E+03 -.951E+02 -.625E+01   -.114E+03 0.101E+03 0.413E+01   0.534E+01 -.592E+01 0.212E+01   0.182E-05 -.754E-07 -.695E-06
   0.108E+03 -.950E+02 -.625E+01   -.114E+03 0.101E+03 0.414E+01   0.534E+01 -.592E+01 0.212E+01   0.160E-05 0.185E-07 -.683E-06
   -.124E+02 -.419E+02 0.127E+03   0.126E+02 0.471E+02 -.134E+03   -.254E+00 -.521E+01 0.705E+01   0.684E-07 0.133E-06 0.134E-05
   -.124E+02 -.420E+02 0.127E+03   0.126E+02 0.472E+02 -.134E+03   -.246E+00 -.519E+01 0.705E+01   0.835E-07 0.184E-06 0.124E-05
   0.211E+02 -.902E+02 0.980E+02   -.198E+02 0.990E+02 -.103E+03   -.134E+01 -.874E+01 0.530E+01   0.155E-06 -.104E-06 0.169E-05
   0.211E+02 -.902E+02 0.981E+02   -.198E+02 0.989E+02 -.103E+03   -.134E+01 -.874E+01 0.530E+01   0.323E-07 -.105E-06 0.175E-05
   -.986E+02 -.105E+03 -.125E+02   0.104E+03 0.113E+03 0.112E+02   -.495E+01 -.888E+01 0.132E+01   -.162E-05 -.280E-06 0.867E-06
   -.986E+02 -.105E+03 -.125E+02   0.104E+03 0.113E+03 0.112E+02   -.495E+01 -.888E+01 0.132E+01   -.168E-05 -.278E-06 0.793E-06
   -.136E+03 -.540E+02 -.187E+02   0.143E+03 0.596E+02 0.193E+02   -.680E+01 -.552E+01 -.558E+00   -.164E-05 -.101E-06 -.101E-05
   -.136E+03 -.540E+02 -.187E+02   0.143E+03 0.595E+02 0.193E+02   -.680E+01 -.552E+01 -.558E+00   -.154E-05 -.143E-06 -.997E-06
   0.123E+02 0.420E+02 -.127E+03   -.126E+02 -.472E+02 0.134E+03   0.246E+00 0.519E+01 -.705E+01   -.618E-07 -.702E-07 -.989E-06
   0.124E+02 0.420E+02 -.127E+03   -.126E+02 -.472E+02 0.134E+03   0.246E+00 0.519E+01 -.705E+01   -.166E-06 -.590E-08 -.103E-05
   -.108E+03 -.950E+02 -.625E+01   0.114E+03 0.101E+03 0.414E+01   -.534E+01 -.592E+01 0.212E+01   -.153E-05 0.199E-06 -.722E-06
   -.108E+03 -.950E+02 -.625E+01   0.114E+03 0.101E+03 0.414E+01   -.534E+01 -.592E+01 0.211E+01   -.175E-05 0.934E-07 -.705E-06
   0.987E+02 0.104E+03 0.126E+02   -.104E+03 -.113E+03 -.112E+02   0.495E+01 0.888E+01 -.132E+01   0.175E-05 0.415E-07 -.647E-06
   0.986E+02 0.105E+03 0.125E+02   -.104E+03 -.113E+03 -.112E+02   0.495E+01 0.888E+01 -.132E+01   0.159E-05 0.109E-06 -.718E-06
   -.987E+02 0.105E+03 0.125E+02   0.104E+03 -.113E+03 -.112E+02   -.495E+01 0.888E+01 -.132E+01   -.161E-05 0.424E-06 -.751E-06
   -.986E+02 0.105E+03 0.125E+02   0.104E+03 -.114E+03 -.112E+02   -.495E+01 0.888E+01 -.132E+01   -.176E-05 0.357E-06 -.729E-06
   0.731E+02 0.962E+02 0.625E+02   -.758E+02 -.106E+03 -.646E+02   0.273E+01 0.973E+01 0.209E+01   0.924E-06 0.542E-06 0.678E-06
   0.728E+02 0.962E+02 0.632E+02   -.755E+02 -.106E+03 -.653E+02   0.274E+01 0.971E+01 0.207E+01   0.799E-06 0.530E-06 0.585E-06
   0.218E+02 -.939E+02 -.888E+02   -.205E+02 0.100E+03 0.939E+02   -.133E+01 -.628E+01 -.509E+01   0.379E-06 -.225E-07 -.165E-05
   0.218E+02 -.938E+02 -.889E+02   -.205E+02 0.100E+03 0.940E+02   -.133E+01 -.628E+01 -.509E+01   0.234E-06 0.153E-07 -.153E-05
   -.211E+02 0.901E+02 -.981E+02   0.198E+02 -.988E+02 0.103E+03   0.134E+01 0.874E+01 -.530E+01   -.909E-07 -.143E-06 -.194E-05
   -.211E+02 0.902E+02 -.981E+02   0.198E+02 -.989E+02 0.103E+03   0.134E+01 0.874E+01 -.530E+01   -.113E-06 -.108E-06 -.185E-05
   -.218E+02 0.938E+02 0.888E+02   0.204E+02 -.100E+03 -.939E+02   0.133E+01 0.628E+01 0.508E+01   -.176E-06 0.729E-07 0.124E-05
   -.218E+02 0.938E+02 0.889E+02   0.205E+02 -.100E+03 -.940E+02   0.133E+01 0.628E+01 0.509E+01   -.331E-06 -.148E-07 0.136E-05
   0.213E+02 0.907E+02 -.979E+02   -.200E+02 -.994E+02 0.103E+03   -.134E+01 0.873E+01 -.528E+01   0.721E-07 0.159E-06 -.203E-05
   0.211E+02 0.902E+02 -.981E+02   -.198E+02 -.989E+02 0.103E+03   -.134E+01 0.874E+01 -.530E+01   0.626E-08 0.181E-06 -.194E-05
   0.728E+02 -.962E+02 -.632E+02   -.755E+02 0.106E+03 0.653E+02   0.274E+01 -.971E+01 -.207E+01   0.914E-06 -.546E-06 -.411E-06
   0.728E+02 -.961E+02 -.632E+02   -.755E+02 0.106E+03 0.653E+02   0.274E+01 -.971E+01 -.207E+01   0.826E-06 -.510E-06 -.439E-06
   0.136E+03 0.540E+02 0.187E+02   -.143E+03 -.595E+02 -.193E+02   0.680E+01 0.552E+01 0.558E+00   0.159E-05 0.311E-07 0.986E-06
   0.136E+03 0.540E+02 0.187E+02   -.143E+03 -.595E+02 -.193E+02   0.680E+01 0.552E+01 0.558E+00   0.154E-05 -.246E-07 0.982E-06
   0.108E+03 0.950E+02 0.627E+01   -.114E+03 -.101E+03 -.415E+01   0.534E+01 0.592E+01 -.212E+01   0.167E-05 -.155E-06 0.660E-06
   0.108E+03 0.950E+02 0.626E+01   -.114E+03 -.101E+03 -.414E+01   0.534E+01 0.592E+01 -.212E+01   0.159E-05 -.228E-06 0.691E-06
   -.728E+02 -.961E+02 -.633E+02   0.755E+02 0.106E+03 0.653E+02   -.274E+01 -.971E+01 -.207E+01   -.757E-06 -.289E-06 -.393E-06
   -.728E+02 -.961E+02 -.633E+02   0.755E+02 0.106E+03 0.653E+02   -.274E+01 -.971E+01 -.207E+01   -.904E-06 -.309E-06 -.463E-06
   -.219E+02 -.937E+02 -.890E+02   0.206E+02 0.100E+03 0.941E+02   0.134E+01 -.629E+01 -.507E+01   -.351E-06 0.167E-06 -.159E-05
   -.218E+02 -.938E+02 -.889E+02   0.205E+02 0.100E+03 0.940E+02   0.133E+01 -.628E+01 -.509E+01   -.277E-06 0.239E-06 -.152E-05
   0.218E+02 0.938E+02 0.889E+02   -.205E+02 -.100E+03 -.940E+02   -.133E+01 0.628E+01 0.509E+01   0.316E-06 -.283E-06 0.130E-05
   0.218E+02 0.938E+02 0.889E+02   -.205E+02 -.100E+03 -.940E+02   -.133E+01 0.628E+01 0.509E+01   0.238E-06 -.176E-06 0.130E-05
   -.728E+02 0.960E+02 0.633E+02   0.755E+02 -.106E+03 -.654E+02   -.274E+01 0.971E+01 0.207E+01   -.906E-06 0.259E-06 0.671E-06
   -.728E+02 0.961E+02 0.633E+02   0.755E+02 -.106E+03 -.653E+02   -.274E+01 0.971E+01 0.207E+01   -.855E-06 0.261E-06 0.608E-06
   0.124E+02 -.421E+02 0.127E+03   -.126E+02 0.473E+02 -.134E+03   0.246E+00 -.519E+01 0.705E+01   -.516E-07 -.135E-06 0.144E-05
   0.124E+02 -.420E+02 0.127E+03   -.126E+02 0.472E+02 -.134E+03   0.246E+00 -.519E+01 0.705E+01   -.166E-06 -.119E-06 0.130E-05
 -----------------------------------------------------------------------------------------------
   0.506E-01 0.808E-01 -.312E-01   0.924E-13 -.362E-12 0.227E-12   -.506E-01 -.808E-01 0.312E-01   0.396E-07 -.178E-07 0.329E-07


 POSITION                                       TOTAL-FORCE (eV/Angst)
 -----------------------------------------------------------------------------------
      7.84031      7.96182     -7.59135         0.002507     -0.001149      0.000993
     16.23455      7.96182     -7.59135         0.002477     -0.001278      0.000939
      3.16872      2.44282     -6.01943         0.002169     -0.001196     -0.002450
     11.56297      2.44282     -6.01943         0.002228     -0.000909     -0.002465
      1.76685      7.82725    -10.10485        -0.000015     -0.000036     -0.000563
     10.16110      7.82725    -10.10485         0.000140      0.000207     -0.000382
      5.05050      1.12562     -8.40433         0.001660     -0.000503     -0.000588
     13.44475      1.12562     -8.40433         0.001594     -0.000653     -0.000683
      5.13205      1.10979     -2.45687         0.035925     -0.071630     -0.028751
     13.52630      1.09979     -2.45651        -0.000117      0.000453     -0.000273
      3.26219      7.47505     -8.62356         0.000039     -0.000451      0.000272
     11.65644      7.47505     -8.62356         0.000037     -0.000480      0.000295
      3.34375      7.44923     -2.67574        -0.001628      0.000681      0.000610
     11.73799      7.44923     -2.67574        -0.001568      0.000664      0.000678
      7.36585      0.97835     -4.87422        -0.003631     -0.016339      0.005806
     15.76010      0.97835     -4.87422         0.002181      0.000897      0.002564
      2.43027      2.67356     -9.91842        -0.000086      0.000439     -0.000507
     10.82452      2.67356     -9.91842         0.000219     -0.000051     -0.000387
      4.75106      2.80814     -7.40493        -0.002435     -0.001324      0.000872
     13.14531      2.80814     -7.40493        -0.002501     -0.001243      0.000986
      7.45932      6.25348     -2.64294         0.000100      0.000224     -0.000376
     15.85356      6.25348     -2.64294         0.000083      0.000472     -0.000285
      1.02840      7.59650     -6.20585        -0.002160     -0.000882     -0.002548
      9.42265      7.59650     -6.20585        -0.002113     -0.000967     -0.002572
      0.85338      2.29554     -2.48931         0.001386      0.000621      0.000590
      9.24762      2.29554     -2.48931         0.002439      0.001644      0.000447
      3.64318      5.76671     -3.67515         0.002317      0.001517     -0.000821
     12.03743      5.76671     -3.67515         0.002464      0.001211     -0.000953
      0.55394      0.61303     -3.48872        -0.002357      0.001337     -0.000940
      8.94819      0.61303     -3.48872        -0.001872      0.003006     -0.001834
      5.79350     -0.03143     -4.03202        -0.019228      0.063767      0.038120
     14.18775     -0.03143     -4.03202        -0.001234      0.001772      0.000242
      4.85766      7.53946     -1.03917        -0.004048      0.002091     -0.000215
     13.25190      7.53946     -1.03917        -0.003912      0.002058     -0.000268
      5.96398      5.90128     -1.16165        -0.000083      0.000244      0.000521
     14.35822      5.90128     -1.16165        -0.000076     -0.000027      0.000471
      3.53659      1.03539    -10.04090         0.003998     -0.002522      0.000152
     11.93084      1.03539    -10.04090         0.003819     -0.001933      0.000225
      6.62739      0.74760     -0.97522        -0.021839      0.031418     -0.020970
     15.02164      0.74760     -0.97522         0.000079      0.000002      0.000440
      1.59638      3.45260     -6.86163        -0.001287     -0.001591     -0.000305
      9.99063      3.45260     -6.86163        -0.001241     -0.001755     -0.000190
      0.93493      2.32137     -8.43713         0.000064     -0.000552      0.000279
      9.32918      2.32137     -8.43713        -0.000154     -0.000559      0.000105
      7.54087      6.27930     -8.59076        -0.001689     -0.000765     -0.000621
     15.93512      6.27930     -8.59076        -0.001619     -0.000665     -0.000673
      2.60074      8.60628     -7.04805         0.001281     -0.001755     -0.000138
     10.99499      8.60628     -7.04805         0.001198     -0.001745     -0.000268
      7.73371      2.38578     -0.85274         0.012072     -0.005415      0.009848
     16.12796      2.38578     -0.85274         0.003930      0.002072     -0.000235
      0.66053      6.18907    -10.22733        -0.003929     -0.002006      0.000309
      9.05478      6.18907    -10.22733        -0.004040     -0.002047      0.000125
      6.79787      5.12225     -4.21845         0.001376      0.001963      0.000160
     15.19211      5.12225     -4.21845         0.001203      0.001758      0.000237
      5.22552      6.13203     -5.06065        -0.001979      0.000998      0.002446
     13.61977      6.13203     -5.06065        -0.002145      0.000915      0.002525
 -----------------------------------------------------------------------------------
    total drift:                                0.000001     -0.000008      0.000003


--------------------------------------------------------------------------------------------------------



  FREE ENERGIE OF THE ION-ELECTRON SYSTEM (eV)
  ---------------------------------------------------
  free  energy   TOTEN  =      -229.37625143 eV

  energy  without entropy=     -229.37625143  energy(sigma->0) =     -229.37625143



--------------------------------------------------------------------------------------------------------


    POTLOK:  cpu time     32.0849: real time     32.1501


--------------------------------------------------------------------------------------------------------


     LOOP+:  cpu time   4315.8894: real time   4338.2779
    4ORBIT:  cpu time      0.0000: real time      0.0000



 total charge

# of ion       s       p       d       tot
------------------------------------------
    1        1.376   2.247   0.000   3.623
    2        1.376   2.247   0.000   3.623
    3        1.376   2.258   0.000   3.635
    4        1.376   2.258   0.000   3.635
    5        1.376   2.247   0.000   3.622
    6        1.376   2.247   0.000   3.623
    7        1.375   2.262   0.000   3.638
    8        1.375   2.262   0.000   3.638
    9        1.377   2.255   0.000   3.632
   10        1.377   2.257   0.000   3.634
   11        1.377   2.257   0.000   3.634
   12        1.377   2.257   0.000   3.634
   13        1.375   2.262   0.000   3.638
   14        1.375   2.262   0.000   3.638
   15        1.376   2.258   0.000   3.635
   16        1.376   2.258   0.000   3.635
   17        1.376   2.247   0.000   3.623
   18        1.376   2.247   0.000   3.623
   19        1.376   2.247   0.000   3.623
   20        1.376   2.247   0.000   3.623
   21        1.377   2.257   0.000   3.634
   22        1.377   2.257   0.000   3.634
   23        1.376   2.258   0.000   3.635
   24        1.376   2.258   0.000   3.635
   25        1.375   2.262   0.000   3.638
   26        1.375   2.262   0.000   3.638
   27        1.376   2.247   0.000   3.623
   28        1.376   2.247   0.000   3.623
   29        1.376   2.247   0.000   3.623
   30        1.376   2.247   0.000   3.623
   31        1.376   2.252   0.000   3.628
   32        1.376   2.254   0.000   3.630
   33        1.375   2.263   0.000   3.638
   34        1.375   2.263   0.000   3.638
   35        1.376   2.247   0.000   3.623
   36        1.376   2.247   0.000   3.623
   37        1.375   2.263   0.000   3.638
   38        1.375   2.263   0.000   3.638
   39        1.376   2.246   0.000   3.622
   40        1.376   2.247   0.000   3.623
   41        1.376   2.254   0.000   3.630
   42        1.376   2.254   0.000   3.630
   43        1.377   2.257   0.000   3.634
   44        1.377   2.257   0.000   3.634
   45        1.375   2.262   0.000   3.638
   46        1.375   2.262   0.000   3.638
   47        1.376   2.254   0.000   3.630
   48        1.376   2.254   0.000   3.630
   49        1.375   2.263   0.000   3.638
   50        1.375   2.263   0.000   3.638
   51        1.375   2.263   0.000   3.638
   52        1.375   2.263   0.000   3.638
   53        1.376   2.254   0.000   3.630
   54        1.376   2.254   0.000   3.630
   55        1.376   2.258   0.000   3.635
   56        1.376   2.258   0.000   3.635
--------------------------------------------------
tot         77.050 126.307   0.000 203.357



 magnetization (x)

# of ion       s       p       d       tot
------------------------------------------
    1        0.000   0.000   0.000   0.000
    2        0.000   0.000   0.000   0.000
    3        0.000   0.000   0.000   0.000
    4        0.000   0.000   0.000   0.000
    5        0.000   0.000   0.000   0.000
    6        0.000   0.000   0.000   0.000
    7        0.000   0.000   0.000   0.000
    8        0.000   0.000   0.000   0.000
    9        0.000   0.000   0.000   0.000
   10        0.000   0.000   0.000   0.000
   11        0.000   0.000   0.000   0.000
   12        0.000   0.000   0.000   0.000
   13        0.000   0.000   0.000   0.000
   14        0.000   0.000   0.000   0.000
   15        0.000   0.000   0.000   0.000
   16        0.000   0.000   0.000   0.000
   17        0.000   0.000   0.000   0.000
   18        0.000   0.000   0.000   0.000
   19        0.000   0.000   0.000   0.000
   20        0.000   0.000   0.000   0.000
   21        0.000   0.000   0.000   0.000
   22        0.000   0.000   0.000   0.000
   23        0.000   0.000   0.000   0.000
   24        0.000   0.000   0.000   0.000
   25        0.000   0.000   0.000   0.000
   26        0.000   0.000   0.000   0.000
   27        0.000   0.000   0.000   0.000
   28        0.000   0.000   0.000   0.000
   29        0.000   0.000   0.000   0.000
   30        0.000   0.000   0.000   0.000
   31        0.000   0.000   0.000   0.000
   32        0.000   0.000   0.000   0.000
   33        0.000   0.000   0.000   0.000
   34        0.000   0.000   0.000   0.000
   35        0.000   0.000   0.000   0.000
   36        0.000   0.000   0.000   0.000
   37        0.000   0.000   0.000   0.000
   38        0.000   0.000   0.000   0.000
   39        0.000   0.000   0.000   0.000
   40        0.000   0.000   0.000   0.000
   41        0.000   0.000   0.000   0.000
   42        0.000   0.000   0.000   0.000
   43        0.000   0.000   0.000   0.000
   44        0.000   0.000   0.000   0.000
   45        0.000   0.000   0.000   0.000
   46        0.000   0.000   0.000   0.000
   47        0.000   0.000   0.000   0.000
   48        0.000   0.000   0.000   0.000
   49        0.000   0.000   0.000   0.000
   50        0.000   0.000   0.000   0.000
   51        0.000   0.000   0.000   0.000
   52        0.000   0.000   0.000   0.000
   53        0.000   0.000   0.000   0.000
   54        0.000   0.000   0.000   0.000
   55        0.000   0.000   0.000   0.000
   56        0.000   0.000   0.000   0.000
--------------------------------------------------
tot          0.000   0.000   0.000   0.000

 BZINTS: Fermi energy:    0.078921;  336.000000 electrons
         Band energy:-0.201104E+04;  BLOECHL correction:    0.000000

 total amount of memory used by VASP MPI-rank0   322725. kBytes
=======================================================================

   base      :      30000. kBytes
   nonl-proj :      70692. kBytes
   fftplans  :      34504. kBytes
   grid      :      83442. kBytes
   one-center:        344. kBytes
   wavefun   :     103743. kBytes

  
  
 General timing and accounting informations for this job:
 ========================================================
  
                  Total CPU time used (sec):     4371.724
                            User time (sec):     4369.210
                          System time (sec):        2.514
                         Elapsed time (sec):     4395.041
  
                   Maximum memory used (kb):      602996.
                   Average memory used (kb):          N/A
  
                          Minor page faults:      1107986
                          Major page faults:           64
                 Voluntary context switches:         2343
