 108 108   0   0
  0.2299175E+02  0.4103010E-08  0.8784100E-09  0.6889630E-09  0.5000000E-15
   1.0000000000000000E-004
  CAR 
 unknown system                          
      9.10410689    -23.10641316  301      1.48766100      1.00000000
    -23.106  0.0000E+00  0.0000E+00
    -22.999  0.0000E+00  0.0000E+00
    -22.892  0.0000E+00  0.0000E+00
    -22.784  0.0000E+00  0.0000E+00
    -22.677  0.0000E+00  0.0000E+00
    -22.570  0.0000E+00  0.0000E+00
    -22.462  0.0000E+00  0.0000E+00
    -22.355  0.0000E+00  0.0000E+00
    -22.247  0.0000E+00  0.0000E+00
    -22.140  0.0000E+00  0.0000E+00
    -22.033  0.0000E+00  0.0000E+00
    -21.925  0.4550E-15  0.4885E-16
    -21.818  0.2584E-06  0.2774E-07
    -21.711  0.2729E-01  0.2930E-02
    -21.603  0.2587E+01  0.2807E+00
    -21.496  0.4171E+01  0.7285E+00
    -21.389  0.7510E+01  0.1535E+01
    -21.281  0.1051E+02  0.2664E+01
    -21.174  0.2011E+01  0.2879E+01
    -21.066  0.4910E-02  0.2880E+01
    -20.959  0.6645E-08  0.2880E+01
    -20.852  0.0000E+00  0.2880E+01
    -20.744  0.0000E+00  0.2880E+01
    -20.637  0.0000E+00  0.2880E+01
    -20.530  0.0000E+00  0.2880E+01
    -20.422  0.0000E+00  0.2880E+01
    -20.315  0.0000E+00  0.2880E+01
    -20.207  0.0000E+00  0.2880E+01
    -20.100  0.0000E+00  0.2880E+01
    -19.993  0.0000E+00  0.2880E+01
    -19.885  0.0000E+00  0.2880E+01
    -19.778  0.0000E+00  0.2880E+01
    -19.671  0.0000E+00  0.2880E+01
    -19.563  0.0000E+00  0.2880E+01
    -19.456  0.0000E+00  0.2880E+01
    -19.349  0.0000E+00  0.2880E+01
    -19.241  0.0000E+00  0.2880E+01
    -19.134  0.0000E+00  0.2880E+01
    -19.026  0.0000E+00  0.2880E+01
    -18.919  0.0000E+00  0.2880E+01
    -18.812  0.0000E+00  0.2880E+01
    -18.704  0.0000E+00  0.2880E+01
    -18.597  0.0000E+00  0.2880E+01
    -18.490  0.0000E+00  0.2880E+01
    -18.382  0.0000E+00  0.2880E+01
    -18.275  0.0000E+00  0.2880E+01
    -18.167  0.0000E+00  0.2880E+01
    -18.060  0.0000E+00  0.2880E+01
    -17.953  0.0000E+00  0.2880E+01
    -17.845  0.0000E+00  0.2880E+01
    -17.738  0.0000E+00  0.2880E+01
    -17.631  0.0000E+00  0.2880E+01
    -17.523  0.0000E+00  0.2880E+01
    -17.416  0.0000E+00  0.2880E+01
    -17.309  0.0000E+00  0.2880E+01
    -17.201  0.0000E+00  0.2880E+01
    -17.094  0.0000E+00  0.2880E+01
    -16.986  0.0000E+00  0.2880E+01
    -16.879  0.0000E+00  0.2880E+01
    -16.772  0.0000E+00  0.2880E+01
    -16.664  0.0000E+00  0.2880E+01
    -16.557  0.0000E+00  0.2880E+01
    -16.450  0.0000E+00  0.2880E+01
    -16.342  0.0000E+00  0.2880E+01
    -16.235  0.0000E+00  0.2880E+01
    -16.127  0.0000E+00  0.2880E+01
    -16.020  0.0000E+00  0.2880E+01
    -15.913  0.0000E+00  0.2880E+01
    -15.805  0.0000E+00  0.2880E+01
    -15.698  0.0000E+00  0.2880E+01
    -15.591  0.0000E+00  0.2880E+01
    -15.483  0.0000E+00  0.2880E+01
    -15.376  0.0000E+00  0.2880E+01
    -15.269  0.0000E+00  0.2880E+01
    -15.161  0.0000E+00  0.2880E+01
    -15.054  0.0000E+00  0.2880E+01
    -14.946  0.0000E+00  0.2880E+01
    -14.839  0.0000E+00  0.2880E+01
    -14.732  0.0000E+00  0.2880E+01
    -14.624  0.0000E+00  0.2880E+01
    -14.517  0.0000E+00  0.2880E+01
    -14.410  0.0000E+00  0.2880E+01
    -14.302  0.0000E+00  0.2880E+01
    -14.195  0.0000E+00  0.2880E+01
    -14.087  0.0000E+00  0.2880E+01
    -13.980  0.0000E+00  0.2880E+01
    -13.873  0.0000E+00  0.2880E+01
    -13.765  0.0000E+00  0.2880E+01
    -13.658  0.0000E+00  0.2880E+01
    -13.551  0.0000E+00  0.2880E+01
    -13.443  0.0000E+00  0.2880E+01
    -13.336  0.0000E+00  0.2880E+01
    -13.229  0.0000E+00  0.2880E+01
    -13.121  0.0000E+00  0.2880E+01
    -13.014  0.0000E+00  0.2880E+01
    -12.906  0.0000E+00  0.2880E+01
    -12.799  0.0000E+00  0.2880E+01
    -12.692  0.0000E+00  0.2880E+01
    -12.584  0.0000E+00  0.2880E+01
    -12.477  0.0000E+00  0.2880E+01
    -12.370  0.0000E+00  0.2880E+01
    -12.262  0.0000E+00  0.2880E+01
    -12.155  0.0000E+00  0.2880E+01
    -12.047  0.0000E+00  0.2880E+01
    -11.940  0.0000E+00  0.2880E+01
    -11.833  0.8169E-15  0.2880E+01
    -11.725  0.1454E-06  0.2880E+01
    -11.618  0.4152E-02  0.2880E+01
    -11.511  0.2566E+00  0.2908E+01
    -11.403  0.9343E+00  0.3008E+01
    -11.296  0.9581E+00  0.3111E+01
    -11.189  0.8206E-01  0.3120E+01
    -11.081  0.1972E-04  0.3120E+01
    -10.974  0.1371E-11  0.3120E+01
    -10.866  0.0000E+00  0.3120E+01
    -10.759  0.0000E+00  0.3120E+01
    -10.652  0.0000E+00  0.3120E+01
    -10.544  0.0000E+00  0.3120E+01
    -10.437  0.0000E+00  0.3120E+01
    -10.330  0.1153E-14  0.3120E+01
    -10.222  0.2219E-06  0.3120E+01
    -10.115  0.1210E-01  0.3121E+01
    -10.007  0.7276E+00  0.3199E+01
     -9.900  0.1891E+01  0.3402E+01
     -9.793  0.2525E+01  0.3674E+01
     -9.685  0.1339E+01  0.3817E+01
     -9.578  0.2107E+00  0.3840E+01
     -9.471  0.3135E-03  0.3840E+01
     -9.363  0.1757E-09  0.3840E+01
     -9.256  0.0000E+00  0.3840E+01
     -9.149  0.0000E+00  0.3840E+01
     -9.041  0.0000E+00  0.3840E+01
     -8.934  0.0000E+00  0.3840E+01
     -8.826  0.0000E+00  0.3840E+01
     -8.719  0.0000E+00  0.3840E+01
     -8.612  0.0000E+00  0.3840E+01
     -8.504  0.0000E+00  0.3840E+01
     -8.397  0.0000E+00  0.3840E+01
     -8.290  0.0000E+00  0.3840E+01
     -8.182  0.0000E+00  0.3840E+01
     -8.075  0.0000E+00  0.3840E+01
     -7.967  0.0000E+00  0.3840E+01
     -7.860  0.0000E+00  0.3840E+01
     -7.753  0.0000E+00  0.3840E+01
     -7.645  0.0000E+00  0.3840E+01
     -7.538  0.0000E+00  0.3840E+01
     -7.431  0.0000E+00  0.3840E+01
     -7.323  0.0000E+00  0.3840E+01
     -7.216  0.0000E+00  0.3840E+01
     -7.109  0.0000E+00  0.3840E+01
     -7.001  0.0000E+00  0.3840E+01
     -6.894  0.0000E+00  0.3840E+01
     -6.786  0.0000E+00  0.3840E+01
     -6.679  0.0000E+00  0.3840E+01
     -6.572  0.0000E+00  0.3840E+01
     -6.464  0.0000E+00  0.3840E+01
     -6.357  0.0000E+00  0.3840E+01
     -6.250  0.0000E+00  0.3840E+01
     -6.142  0.0000E+00  0.3840E+01
     -6.035  0.0000E+00  0.3840E+01
     -5.927  0.0000E+00  0.3840E+01
     -5.820  0.0000E+00  0.3840E+01
     -5.713  0.0000E+00  0.3840E+01
     -5.605  0.0000E+00  0.3840E+01
     -5.498  0.0000E+00  0.3840E+01
     -5.391  0.0000E+00  0.3840E+01
     -5.283  0.0000E+00  0.3840E+01
     -5.176  0.0000E+00  0.3840E+01
     -5.069  0.1521E-12  0.3840E+01
     -4.961  0.3149E-05  0.3840E+01
     -4.854  0.1206E-01  0.3841E+01
     -4.746  0.1141E+00  0.3854E+01
     -4.639  0.4185E+00  0.3898E+01
     -4.532  0.7315E+00  0.3977E+01
     -4.424  0.7701E+00  0.4060E+01
     -4.317  0.1834E+00  0.4079E+01
     -4.210  0.5588E-02  0.4080E+01
     -4.102  0.2345E-06  0.4080E+01
     -3.995  0.1744E-14  0.4080E+01
     -3.887  0.0000E+00  0.4080E+01
     -3.780  0.0000E+00  0.4080E+01
     -3.673  0.0000E+00  0.4080E+01
     -3.565  0.0000E+00  0.4080E+01
     -3.458  0.0000E+00  0.4080E+01
     -3.351  0.0000E+00  0.4080E+01
     -3.243  0.0000E+00  0.4080E+01
     -3.136  0.0000E+00  0.4080E+01
     -3.029  0.0000E+00  0.4080E+01
     -2.921  0.0000E+00  0.4080E+01
     -2.814  0.0000E+00  0.4080E+01
     -2.706  0.0000E+00  0.4080E+01
     -2.599  0.2672E-13  0.4080E+01
     -2.492  0.2219E-05  0.4080E+01
     -2.384  0.3426E-01  0.4084E+01
     -2.277  0.5359E+00  0.4141E+01
     -2.170  0.1043E+01  0.4253E+01
     -2.062  0.1258E+01  0.4388E+01
     -1.955  0.1094E+01  0.4506E+01
     -1.847  0.1366E+01  0.4652E+01
     -1.740  0.1167E+01  0.4778E+01
     -1.633  0.2066E+00  0.4800E+01
     -1.525  0.4464E-03  0.4800E+01
     -1.418  0.4885E-09  0.4800E+01
     -1.311  0.0000E+00  0.4800E+01
     -1.203  0.3447E-17  0.4800E+01
     -1.096  0.5403E-08  0.4800E+01
     -0.989  0.1412E-02  0.4800E+01
     -0.881  0.1621E+00  0.4818E+01
     -0.774  0.4540E+00  0.4866E+01
     -0.666  0.7126E+00  0.4943E+01
     -0.559  0.1086E+01  0.5059E+01
     -0.452  0.1211E+01  0.5189E+01
     -0.344  0.7112E+00  0.5266E+01
     -0.237  0.8513E+00  0.5357E+01
     -0.130  0.7127E+00  0.5434E+01
     -0.022  0.8145E+00  0.5521E+01
      0.085  0.6522E+00  0.5591E+01
      0.193  0.9767E+00  0.5696E+01
      0.300  0.1084E+01  0.5812E+01
      0.407  0.1171E+01  0.5938E+01
      0.515  0.5259E+00  0.5995E+01
      0.622  0.9371E+00  0.6095E+01
      0.729  0.1150E+01  0.6219E+01
      0.837  0.1326E+01  0.6361E+01
      0.944  0.1535E+01  0.6526E+01
      1.051  0.1256E+01  0.6661E+01
      1.159  0.4741E+00  0.6712E+01
      1.266  0.7786E-01  0.6720E+01
      1.374  0.2071E-03  0.6720E+01
      1.481  0.3216E-09  0.6720E+01
      1.588  0.0000E+00  0.6720E+01
      1.696  0.0000E+00  0.6720E+01
      1.803  0.0000E+00  0.6720E+01
      1.910  0.0000E+00  0.6720E+01
      2.018  0.0000E+00  0.6720E+01
      2.125  0.0000E+00  0.6720E+01
      2.233  0.0000E+00  0.6720E+01
      2.340  0.0000E+00  0.6720E+01
      2.447  0.0000E+00  0.6720E+01
      2.555  0.0000E+00  0.6720E+01
      2.662  0.0000E+00  0.6720E+01
      2.769  0.0000E+00  0.6720E+01
      2.877  0.0000E+00  0.6720E+01
      2.984  0.0000E+00  0.6720E+01
      3.091  0.0000E+00  0.6720E+01
      3.199  0.0000E+00  0.6720E+01
      3.306  0.0000E+00  0.6720E+01
      3.414  0.0000E+00  0.6720E+01
      3.521  0.0000E+00  0.6720E+01
      3.628  0.0000E+00  0.6720E+01
      3.736  0.0000E+00  0.6720E+01
      3.843  0.3993E-13  0.6720E+01
      3.950  0.1151E-05  0.6720E+01
      4.058  0.5504E-02  0.6721E+01
      4.165  0.2500E-01  0.6723E+01
      4.273  0.7501E-02  0.6724E+01
      4.380  0.4264E-01  0.6729E+01
      4.487  0.1247E-01  0.6730E+01
      4.595  0.1865E-04  0.6730E+01
      4.702  0.2882E-01  0.6733E+01
      4.809  0.2862E+00  0.6764E+01
      4.917  0.2395E+00  0.6790E+01
      5.024  0.2411E+00  0.6815E+01
      5.131  0.4954E+00  0.6869E+01
      5.239  0.6307E+00  0.6936E+01
      5.346  0.4001E+00  0.6979E+01
      5.454  0.2752E+00  0.7009E+01
      5.561  0.3367E+00  0.7045E+01
      5.668  0.6082E+00  0.7110E+01
      5.776  0.6760E+00  0.7183E+01
      5.883  0.7051E+00  0.7259E+01
      5.990  0.9209E+00  0.7357E+01
      6.098  0.6044E+00  0.7422E+01
      6.205  0.5255E+00  0.7479E+01
      6.313  0.4947E+00  0.7532E+01
      6.420  0.9146E+00  0.7630E+01
      6.527  0.7629E+00  0.7712E+01
      6.635  0.8069E+00  0.7799E+01
      6.742  0.8781E+00  0.7893E+01
      6.849  0.2883E+00  0.7924E+01
      6.957  0.4213E+00  0.7969E+01
      7.064  0.3717E+00  0.8009E+01
      7.171  0.5600E+00  0.8069E+01
      7.279  0.6385E+00  0.8138E+01
      7.386  0.6799E+00  0.8211E+01
      7.494  0.5411E+00  0.8269E+01
      7.601  0.3558E+00  0.8307E+01
      7.708  0.1193E+00  0.8320E+01
      7.816  0.1790E-02  0.8320E+01
      7.923  0.2095E-07  0.8320E+01
      8.030  0.4136E-16  0.8320E+01
      8.138  0.0000E+00  0.8320E+01
      8.245  0.0000E+00  0.8320E+01
      8.353  0.0000E+00  0.8320E+01
      8.460  0.0000E+00  0.8320E+01
      8.567  0.0000E+00  0.8320E+01
      8.675  0.0000E+00  0.8320E+01
      8.782  0.0000E+00  0.8320E+01
      8.889  0.0000E+00  0.8320E+01
      8.997  0.0000E+00  0.8320E+01
      9.104  0.0000E+00  0.8320E+01
