 vasp.6.3.2 27Jun22 (build Jun 14 2024 17:29:11) complex                         
 executed on             LinuxGNU date 2026.03.29  20:49:43
 running on   32 total cores
 distrk:  each k-point on   32 cores,    1 groups
 distr:  one band on NCORE=   1 cores,   32 groups


--------------------------------------------------------------------------------------------------------


 INCAR:
   EDIFF = 1e-05
   EDIFFG = -0.05
   ENCUT = 400.0
   IBRION = 2
   ISIF = 3
   ISMEAR = 0
   LCHARG = False
   LREAL = Auto
   LWAVE = False
   NSW = 100
   SIGMA = 0.05

 POTCAR:    PAW_PBE Na_pv 19Sep2006               
 POTCAR:    PAW_PBE Si 05Jan2001                  
 POTCAR:    PAW_PBE S 06Sep2000                   
 -----------------------------------------------------------------------------
|                                                                             |
|           W    W    AA    RRRRR   N    N  II  N    N   GGGG   !!!           |
|           W    W   A  A   R    R  NN   N  II  NN   N  G    G  !!!           |
|           W    W  A    A  R    R  N N  N  II  N N  N  G       !!!           |
|           W WW W  AAAAAA  RRRRR   N  N N  II  N  N N  G  GGG   !            |
|           WW  WW  A    A  R   R   N   NN  II  N   NN  G    G                |
|           W    W  A    A  R    R  N    N  II  N    N   GGGG   !!!           |
|                                                                             |
|     For optimal performance we recommend to set                             |
|       NCORE = 2 up to number-of-cores-per-socket                            |
|     NCORE specifies how many cores store one orbital (NPAR=cpu/NCORE).      |
|     This setting can greatly improve the performance of VASP for DFT.       |
|     The default, NCORE=1 might be grossly inefficient on modern             |
|     multi-core architectures or massively parallel machines. Do your        |
|     own testing! More info at https://www.vasp.at/wiki/index.php/NCORE      |
|     Unfortunately you need to use the default for GW and RPA                |
|     calculations (for HF NCORE is supported but not extensively tested      |
|     yet).                                                                   |
|                                                                             |
 -----------------------------------------------------------------------------

 POTCAR:    PAW_PBE Na_pv 19Sep2006               
   SHA256 =  6a2f546d9e11350984debacf3dc457d8cffc0868e817d445faca461816a32b94 Na_pv/POTCAR          
   COPYR  = (c) Copyright 19Sep2006 Georg Kresse                                                    
   COPYR  = This file is part of the software VASP. Any use, copying, and all other rights are regul
   COPYR  = If you do not have a valid VASP license, you may not use, copy or distribute this file. 
   VRHFIN =Na: p6s1                                                                                 
   LEXCH  = PE                                                                                      
   EATOM  =   766.0439 eV,   56.3026 Ry                                                             
                                                                                                    
   TITEL  = PAW_PBE Na_pv 19Sep2006                                                                 
   LULTRA =        F    use ultrasoft PP ?                                                          
   IUNSCR =        1    unscreen: 0-lin 1-nonlin 2-no                                               
   RPACOR =    1.800    partial core radius                                                         
   POMASS =   22.990; ZVAL   =    7.000    mass and valenz                                          
   RCORE  =    2.200    outmost cutoff radius                                                       
   RWIGS  =    2.200; RWIGS  =    1.164    wigner-seitz radius (au A)                               
   ENMAX  =  259.561; ENMIN  =  194.671 eV                                                          
   ICORE  =        2    local potential                                                             
   LCOR   =        T    correct aug charges                                                         
   LPAW   =        T    paw PP                                                                      
   EAUG   =  368.056                                                                                
   DEXC   =    0.000                                                                                
   RMAX   =    2.245    core radius for proj-oper                                                   
   RAUG   =    1.300    factor for augmentation sphere                                              
   RDEP   =    2.259    radius for radial grids                                                     
   RDEPT  =    1.738    core radius for aug-charge                                                  
                                                                                                    
   Atomic configuration                                                                             
    5 entries                                                                                       
     n  l   j            E        occ.                                                              
     1  0  0.50     -1033.6933   2.0000                                                             
     2  0  0.50       -56.7526   2.0000                                                             
     2  1  1.50       -28.6721   6.0000                                                             
     3  0  0.50        -2.7440   1.0000                                                             
     3  2  1.50        -1.3606   0.0000                                                             
   Description                                                                                      
     l       E           TYP  RCUT    TYP  RCUT                                                     
     1    -28.6720912     23  2.000                                                                 
     1      6.8029130     23  2.000                                                                 
     0     -2.7439560     23  2.200                                                                 
     0     34.0145650     23  2.200                                                                 
     2     -1.3605826     23  2.200                                                                 
  local pseudopotential read in
  partial core-charges read in
  partial kinetic energy density read in
  atomic valenz-charges read in
  non local Contribution for L=           1  read in
    real space projection operators read in
  non local Contribution for L=           1  read in
    real space projection operators read in
  non local Contribution for L=           0  read in
    real space projection operators read in
  non local Contribution for L=           0  read in
    real space projection operators read in
    PAW grid and wavefunctions read in

   number of l-projection  operators is LMAX  =           4
   number of lm-projection operators is LMMAX =           8

 POTCAR:    PAW_PBE Si 05Jan2001                  
   SHA256 =  79d9987ad8750f624c4d6acb2a16d13abf6a777132adc04dc6c8399be72b42bb Si/POTCAR             
   COPYR  = (c) Copyright 05Jan2001 Georg Kresse                                                    
   COPYR  = This file is part of the software VASP. Any use, copying, and all other rights are regul
   COPYR  = If you do not have a valid VASP license, you may not use, copy or distribute this file. 
   VRHFIN =Si: s2p2                                                                                 
   LEXCH  = PE                                                                                      
   EATOM  =   103.0669 eV,    7.5752 Ry                                                             
                                                                                                    
   TITEL  = PAW_PBE Si 05Jan2001                                                                    
   LULTRA =        F    use ultrasoft PP ?                                                          
   IUNSCR =        1    unscreen: 0-lin 1-nonlin 2-no                                               
   RPACOR =    1.500    partial core radius                                                         
   POMASS =   28.085; ZVAL   =    4.000    mass and valenz                                          
   RCORE  =    1.900    outmost cutoff radius                                                       
   RWIGS  =    2.480; RWIGS  =    1.312    wigner-seitz radius (au A)                               
   ENMAX  =  245.345; ENMIN  =  184.009 eV                                                          
   ICORE  =        2    local potential                                                             
   LCOR   =        T    correct aug charges                                                         
   LPAW   =        T    paw PP                                                                      
   EAUG   =  322.069                                                                                
   DEXC   =    0.000                                                                                
   RMAX   =    1.950    core radius for proj-oper                                                   
   RAUG   =    1.300    factor for augmentation sphere                                              
   RDEP   =    1.993    radius for radial grids                                                     
   RDEPT  =    1.837    core radius for aug-charge                                                  
                                                                                                    
   Atomic configuration                                                                             
    6 entries                                                                                       
     n  l   j            E        occ.                                                              
     1  0  0.50     -1785.8828   2.0000                                                             
     2  0  0.50      -139.4969   2.0000                                                             
     2  1  1.50       -95.5546   6.0000                                                             
     3  0  0.50       -10.8127   2.0000                                                             
     3  1  0.50        -4.0811   2.0000                                                             
     3  2  1.50        -4.0817   0.0000                                                             
   Description                                                                                      
     l       E           TYP  RCUT    TYP  RCUT                                                     
     0    -10.8127223     23  1.900                                                                 
     0     -7.6451159     23  1.900                                                                 
     1     -4.0811372     23  1.900                                                                 
     1      2.4879257     23  1.900                                                                 
     2     -4.0817478      7  1.900                                                                 
  local pseudopotential read in
  partial core-charges read in
  partial kinetic energy density read in
  atomic valenz-charges read in
  non local Contribution for L=           0  read in
    real space projection operators read in
  non local Contribution for L=           0  read in
    real space projection operators read in
  non local Contribution for L=           1  read in
    real space projection operators read in
  non local Contribution for L=           1  read in
    real space projection operators read in
    PAW grid and wavefunctions read in

   number of l-projection  operators is LMAX  =           4
   number of lm-projection operators is LMMAX =           8

 POTCAR:    PAW_PBE S 06Sep2000                   
   SHA256 =  0fc7481fb0695f01bdc6462160264c5c84044ae9ec85a907d398b887a2bc3132 S/POTCAR              
   COPYR  = (c) Copyright 06Sep2000 Georg Kresse                                                    
   COPYR  = This file is part of the software VASP. Any use, copying, and all other rights are regul
   COPYR  = If you do not have a valid VASP license, you may not use, copy or distribute this file. 
   VRHFIN =S : s2p4                                                                                 
   LEXCH  = PE                                                                                      
   EATOM  =   276.8230 eV,   20.3459 Ry                                                             
                                                                                                    
   TITEL  = PAW_PBE S 06Sep2000                                                                     
   LULTRA =        F    use ultrasoft PP ?                                                          
   IUNSCR =        1    unscreen: 0-lin 1-nonlin 2-no                                               
   RPACOR =    1.500    partial core radius                                                         
   POMASS =   32.066; ZVAL   =    6.000    mass and valenz                                          
   RCORE  =    1.900    outmost cutoff radius                                                       
   RWIGS  =    2.200; RWIGS  =    1.164    wigner-seitz radius (au A)                               
   ENMAX  =  258.689; ENMIN  =  194.016 eV                                                          
   ICORE  =        2    local potential                                                             
   LCOR   =        T    correct aug charges                                                         
   LPAW   =        T    paw PP                                                                      
   EAUG   =  335.092                                                                                
   DEXC   =    0.000                                                                                
   RMAX   =    1.942    core radius for proj-oper                                                   
   RAUG   =    1.300    factor for augmentation sphere                                              
   RDEP   =    1.954    radius for radial grids                                                     
   RDEPT  =    1.744    core radius for aug-charge                                                  
                                                                                                    
   Atomic configuration                                                                             
    6 entries                                                                                       
     n  l   j            E        occ.                                                              
     1  0  0.50     -2405.8406   2.0000                                                             
     2  0  0.50      -211.7007   2.0000                                                             
     2  1  1.50      -156.4958   6.0000                                                             
     3  0  0.50       -17.2562   2.0000                                                             
     3  1  0.50        -7.0085   4.0000                                                             
     3  2  1.50        -6.8029   0.0000                                                             
   Description                                                                                      
     l       E           TYP  RCUT    TYP  RCUT                                                     
     0    -17.2561641     23  1.900                                                                 
     0    -15.8743224     23  1.900                                                                 
     1     -7.0085400     23  1.900                                                                 
     1     -2.7779785     23  1.900                                                                 
     2     -6.8029130     23  1.900                                                                 
  local pseudopotential read in
  partial core-charges read in
  partial kinetic energy density read in
  atomic valenz-charges read in
  non local Contribution for L=           0  read in
    real space projection operators read in
  non local Contribution for L=           0  read in
    real space projection operators read in
  non local Contribution for L=           1  read in
    real space projection operators read in
  non local Contribution for L=           1  read in
    real space projection operators read in
    PAW grid and wavefunctions read in

   number of l-projection  operators is LMAX  =           4
   number of lm-projection operators is LMMAX =           8

 Optimization of the real space projectors (new method)

 maximal supplied QI-value         = 17.01
 optimisation between [QCUT,QGAM] = [ 10.20, 20.41] = [ 29.16,116.64] Ry 
 Optimized for a Real-space Cutoff    1.30 Angstroem

   l    n(q)    QCUT    max X(q) W(low)/X(q) W(high)/X(q)  e(spline) 
   1      7    10.205     4.940    0.23E-03    0.84E-03    0.11E-06
   1      7    10.205     6.253    0.40E-03    0.13E-02    0.18E-06
   0      8    10.205    37.438    0.23E-03    0.37E-03    0.42E-07
   0      8    10.205     9.606    0.16E-03    0.26E-03    0.31E-07
 Optimization of the real space projectors (new method)

 maximal supplied QI-value         = 19.84
 optimisation between [QCUT,QGAM] = [ 10.12, 20.44] = [ 28.68,116.96] Ry 
 Optimized for a Real-space Cutoff    1.23 Angstroem

   l    n(q)    QCUT    max X(q) W(low)/X(q) W(high)/X(q)  e(spline) 
   0      7    10.119   159.560    0.56E-04    0.22E-03    0.45E-07
   0      7    10.119   115.863    0.56E-04    0.21E-03    0.45E-07
   1      7    10.119    88.339    0.34E-03    0.49E-03    0.11E-06
   1      7    10.119    48.592    0.33E-03    0.48E-03    0.11E-06
 Optimization of the real space projectors (new method)

 maximal supplied QI-value         = 19.84
 optimisation between [QCUT,QGAM] = [ 10.12, 20.44] = [ 28.68,116.96] Ry 
 Optimized for a Real-space Cutoff    1.23 Angstroem

   l    n(q)    QCUT    max X(q) W(low)/X(q) W(high)/X(q)  e(spline) 
   0      7    10.119   187.594    0.62E-04    0.28E-03    0.52E-07
   0      7    10.119   164.243    0.61E-04    0.28E-03    0.52E-07
   1      7    10.119    67.533    0.45E-03    0.63E-03    0.13E-06
   1      7    10.119    50.729    0.44E-03    0.62E-03    0.12E-06
  PAW_PBE Na_pv 19Sep2006               :
 energy of atom  1       EATOM= -766.0439
 kinetic energy error for atom=    0.0103 (will be added to EATOM!!)
  PAW_PBE Si 05Jan2001                  :
 energy of atom  2       EATOM= -103.0669
 kinetic energy error for atom=    0.0012 (will be added to EATOM!!)
  PAW_PBE S 06Sep2000                   :
 energy of atom  3       EATOM= -276.8230
 kinetic energy error for atom=    0.0046 (will be added to EATOM!!)


 POSCAR: Na48 Si12 S48
  positions in direct lattice
  No initial velocities read in
 exchange correlation table for  LEXCH =        8
   RHO(1)=    0.500       N(1)  =     2000
   RHO(2)=  100.500       N(2)  =     4000



--------------------------------------------------------------------------------------------------------


 ion  position               nearest neighbor table
   1  0.239  0.048  0.386-  95 2.64  97 2.77
   2  0.261  0.952  0.886-  96 2.64  98 2.77
   3  0.761  0.548  0.114-  93 2.64  99 2.77
   4  0.739  0.452  0.614-  94 2.64 100 2.77
   5  0.576  0.045  0.406-
   6  0.924  0.955  0.906-
   7  0.424  0.545  0.094-
   8  0.076  0.455  0.594-
   9  0.905  0.056  0.408- 105 2.63
  10  0.595  0.944  0.908- 106 2.63
  11  0.095  0.556  0.092- 107 2.63
  12  0.405  0.444  0.592- 108 2.63
  13  0.243  0.443  0.381-  72 2.69
  14  0.257  0.557  0.881-  71 2.69
  15  0.757  0.943  0.119-  70 2.69
  16  0.743  0.057  0.619-  69 2.69
  17  0.576  0.452  0.384-  64 2.72
  18  0.924  0.548  0.884-  63 2.72
  19  0.424  0.952  0.116-  62 2.72
  20  0.076  0.048  0.616-  61 2.72
  21  0.917  0.433  0.379-
  22  0.583  0.567  0.879-
  23  0.083  0.933  0.121-
  24  0.417  0.067  0.621-
  25  0.152  0.241  0.256-  95 2.79
  26  0.348  0.759  0.756-  96 2.79
  27  0.848  0.741  0.244-  93 2.79
  28  0.652  0.259  0.744-  94 2.79
  29  0.484  0.243  0.244-
  30  0.016  0.757  0.744-
  31  0.516  0.743  0.256-
  32  0.984  0.257  0.756-
  33  0.820  0.241  0.256-  68 2.76
  34  0.680  0.759  0.756-  67 2.76
  35  0.180  0.741  0.244-  66 2.76
  36  0.320  0.259  0.744-  65 2.76
  37  0.992  0.035  0.235-  92 2.59  61 2.78
  38  0.508  0.965  0.735-  91 2.59  62 2.78
  39  0.008  0.535  0.265-  90 2.59  63 2.78
  40  0.492  0.465  0.765-  89 2.59  64 2.78
  41  0.333  0.011  0.238-  65 2.70
  42  0.167  0.989  0.738-  66 2.70
  43  0.667  0.511  0.262-  67 2.70
  44  0.833  0.489  0.762-  68 2.70
  45  0.671  0.979  0.270-  88 2.60
  46  0.829  0.021  0.770-  87 2.60
  47  0.329  0.479  0.230-  86 2.60
  48  0.171  0.521  0.730-  85 2.60
  49  0.222  0.246  0.962-  97 2.02  83 2.16  95 2.18  72 2.20
  50  0.278  0.754  0.462-  98 2.02  84 2.16  96 2.18  71 2.20
  51  0.778  0.746  0.538-  99 2.02  81 2.16  93 2.18  70 2.20
  52  0.722  0.254  0.038- 100 2.02  82 2.16  94 2.18  69 2.20
  53  0.556  0.248  0.973-  79 2.05  64 2.15  91 2.15 101 2.20
  54  0.944  0.752  0.473-  80 2.05  63 2.15  92 2.15 102 2.20
  55  0.444  0.748  0.527-  77 2.05  62 2.15  89 2.15 103 2.20
  56  0.056  0.252  0.027-  78 2.05  61 2.15  90 2.15 104 2.20
  57  0.887  0.245  0.980-  68 2.05  87 2.05 105 2.17  75 2.18
  58  0.613  0.755  0.480-  67 2.05  88 2.05 106 2.17  76 2.18
  59  0.113  0.745  0.520-  66 2.05  85 2.05 107 2.17  73 2.18
  60  0.387  0.255  0.020-  65 2.05  86 2.05 108 2.17  74 2.18
  61  0.032  0.056  0.908-  56 2.15  20 2.72  37 2.78
  62  0.468  0.944  0.408-  55 2.15  19 2.72  38 2.78
  63  0.968  0.556  0.592-  54 2.15  18 2.72  39 2.78
  64  0.532  0.444  0.092-  53 2.15  17 2.72  40 2.78
  65  0.365  0.065  0.904-  60 2.05  41 2.70  36 2.76
  66  0.135  0.935  0.404-  59 2.05  42 2.70  35 2.76
  67  0.635  0.565  0.596-  58 2.05  43 2.70  34 2.76
  68  0.865  0.435  0.096-  57 2.05  44 2.70  33 2.76
  69  0.699  0.051  0.907-  52 2.20  16 2.69
  70  0.801  0.949  0.407-  51 2.20  15 2.69
  71  0.301  0.551  0.593-  50 2.20  14 2.69
  72  0.199  0.449  0.093-  49 2.20  13 2.69
  73  0.062  0.758  0.436-  59 2.18
  74  0.438  0.242  0.936-  60 2.18
  75  0.938  0.258  0.064-  57 2.18
  76  0.562  0.742  0.564-  58 2.18
  77  0.396  0.748  0.447-  55 2.05
  78  0.104  0.252  0.947-  56 2.05
  79  0.604  0.248  0.053-  53 2.05
  80  0.896  0.752  0.553-  54 2.05
  81  0.729  0.752  0.430-  51 2.16
  82  0.771  0.248  0.930-  52 2.16
  83  0.271  0.252  0.070-  49 2.16
  84  0.229  0.748  0.570-  50 2.16
  85  0.135  0.548  0.422-  59 2.05  48 2.60
  86  0.365  0.452  0.922-  60 2.05  47 2.60
  87  0.865  0.048  0.078-  57 2.05  46 2.60
  88  0.635  0.952  0.578-  58 2.05  45 2.60
  89  0.466  0.537  0.434-  55 2.15  40 2.59
  90  0.034  0.463  0.934-  56 2.15  39 2.59
  91  0.534  0.037  0.066-  53 2.15  38 2.59
  92  0.966  0.963  0.566-  54 2.15  37 2.59
  93  0.802  0.548  0.408-  51 2.18   3 2.64  27 2.79
  94  0.698  0.452  0.908-  52 2.18   4 2.64  28 2.79
  95  0.198  0.048  0.092-  49 2.18   1 2.64  25 2.79
  96  0.302  0.952  0.592-  50 2.18   2 2.64  26 2.79
  97  0.218  0.249  0.669-  49 2.02   1 2.77
  98  0.282  0.751  0.169-  50 2.02   2 2.77
  99  0.782  0.749  0.831-  51 2.02   3 2.77
 100  0.718  0.251  0.331-  52 2.02   4 2.77
 101  0.544  0.247  0.662-  53 2.20
 102  0.956  0.753  0.162-  54 2.20
 103  0.456  0.747  0.838-  55 2.20
 104  0.044  0.253  0.338-  56 2.20
 105  0.881  0.246  0.667-  57 2.17   9 2.63
 106  0.619  0.754  0.167-  58 2.17  10 2.63
 107  0.119  0.746  0.833-  59 2.17  11 2.63
 108  0.381  0.254  0.333-  60 2.17  12 2.63

  LATTYP: Found a simple orthorhombic cell.
 ALAT       =     6.8896300000
 B/A-ratio  =     1.2749741278
 C/A-ratio  =     5.9553415786
  
  Lattice vectors:
  
 A1 = (   0.0000000000,   0.0000000000,  -6.8896300000)
 A2 = (   0.0000000000,   8.7841000000,   0.0000000000)
 A3 = (  41.0301000000,   0.0000000000,   0.0000000000)


Analysis of symmetry for initial positions (statically):
=====================================================================
 Subroutine PRICEL returns:
 Original cell was already a primitive cell.
 

 Routine SETGRP: Setting up the symmetry group for a 
 simple orthorhombic supercell.


 Subroutine GETGRP returns: Found  4 space group operations
 (whereof  1 operations were pure point group operations)
 out of a pool of  8 trial point group operations.


The static configuration has the point symmetry C_1 .
 The point group associated with its full space group is D_2 .


Analysis of symmetry for dynamics (positions and initial velocities):
=====================================================================
 Subroutine PRICEL returns:
 Original cell was already a primitive cell.
 

 Routine SETGRP: Setting up the symmetry group for a 
 simple orthorhombic supercell.


 Subroutine GETGRP returns: Found  4 space group operations
 (whereof  1 operations were pure point group operations)
 out of a pool of  8 trial point group operations.


The dynamic configuration has the point symmetry C_1 .
 The point group associated with its full space group is D_2 .


 Subroutine INISYM returns: Found  4 space group operations
 (whereof  1 operations are pure point group operations),
 and found     1 'primitive' translations


----------------------------------------------------------------------------------------

                                     Primitive cell                                     

  volume of cell :    2483.1088

  direct lattice vectors                    reciprocal lattice vectors
    41.030100000  0.000000000  0.000000000     0.024372351  0.000000000 -0.000000000
    -0.000000000  8.784100000  0.000000000     0.000000000  0.113842056  0.000000000
     0.000000000  0.000000000  6.889630000    -0.000000000 -0.000000000  0.145145675

  length of vectors
    41.030100000  8.784100000  6.889630000     0.024372351  0.113842056  0.145145675

  position of ions in fractional coordinates (direct lattice)
     0.239300000  0.048000000  0.386000000
     0.260700000  0.952000000  0.886000000
     0.760700000  0.548000000  0.114000000
     0.739300000  0.452000000  0.614000000
     0.576200000  0.045000000  0.406000000
     0.923800000  0.955000000  0.906000000
     0.423800000  0.545000000  0.094000000
     0.076200000  0.455000000  0.594000000
     0.905200000  0.056000000  0.408000000
     0.594800000  0.944000000  0.908000000
     0.094800000  0.556000000  0.092000000
     0.405200000  0.444000000  0.592000000
     0.243500000  0.443000000  0.381000000
     0.256500000  0.557000000  0.881000000
     0.756500000  0.943000000  0.119000000
     0.743500000  0.057000000  0.619000000
     0.576000000  0.452000000  0.384000000
     0.924000000  0.548000000  0.884000000
     0.424000000  0.952000000  0.116000000
     0.076000000  0.048000000  0.616000000
     0.916600000  0.433000000  0.379000000
     0.583400000  0.567000000  0.879000000
     0.083400000  0.933000000  0.121000000
     0.416600000  0.067000000  0.621000000
     0.151700000  0.241000000  0.256000000
     0.348300000  0.759000000  0.756000000
     0.848300000  0.741000000  0.244000000
     0.651700000  0.259000000  0.744000000
     0.484000000  0.243000000  0.244000000
     0.016000000  0.757000000  0.744000000
     0.516000000  0.743000000  0.256000000
     0.984000000  0.257000000  0.756000000
     0.819900000  0.241000000  0.256000000
     0.680100000  0.759000000  0.756000000
     0.180100000  0.741000000  0.244000000
     0.319900000  0.259000000  0.744000000
     0.992100000  0.035000000  0.235000000
     0.507900000  0.965000000  0.735000000
     0.007900000  0.535000000  0.265000000
     0.492100000  0.465000000  0.765000000
     0.333000000  0.011000000  0.238000000
     0.167000000  0.989000000  0.738000000
     0.667000000  0.511000000  0.262000000
     0.833000000  0.489000000  0.762000000
     0.670600000  0.979000000  0.270000000
     0.829400000  0.021000000  0.770000000
     0.329400000  0.479000000  0.230000000
     0.170600000  0.521000000  0.730000000
     0.221600000  0.246000000  0.962000000
     0.278400000  0.754000000  0.462000000
     0.778400000  0.746000000  0.538000000
     0.721600000  0.254000000  0.038000000
     0.555500000  0.248000000  0.973000000
     0.944500000  0.752000000  0.473000000
     0.444500000  0.748000000  0.527000000
     0.055500000  0.252000000  0.027000000
     0.886800000  0.245000000  0.980000000
     0.613200000  0.755000000  0.480000000
     0.113200000  0.745000000  0.520000000
     0.386800000  0.255000000  0.020000000
     0.031500000  0.056000000  0.908000000
     0.468500000  0.944000000  0.408000000
     0.968500000  0.556000000  0.592000000
     0.531500000  0.444000000  0.092000000
     0.365400000  0.065000000  0.904000000
     0.134600000  0.935000000  0.404000000
     0.634600000  0.565000000  0.596000000
     0.865400000  0.435000000  0.096000000
     0.699200000  0.051000000  0.907000000
     0.800800000  0.949000000  0.407000000
     0.300800000  0.551000000  0.593000000
     0.199200000  0.449000000  0.093000000
     0.062100000  0.758000000  0.436000000
     0.437900000  0.242000000  0.936000000
     0.937900000  0.258000000  0.064000000
     0.562100000  0.742000000  0.564000000
     0.396400000  0.748000000  0.447000000
     0.103600000  0.252000000  0.947000000
     0.603600000  0.248000000  0.053000000
     0.896400000  0.752000000  0.553000000
     0.728900000  0.752000000  0.430000000
     0.771100000  0.248000000  0.930000000
     0.271100000  0.252000000  0.070000000
     0.228900000  0.748000000  0.570000000
     0.134600000  0.548000000  0.422000000
     0.365400000  0.452000000  0.922000000
     0.865400000  0.048000000  0.078000000
     0.634600000  0.952000000  0.578000000
     0.466200000  0.537000000  0.434000000
     0.033800000  0.463000000  0.934000000
     0.533800000  0.037000000  0.066000000
     0.966200000  0.963000000  0.566000000
     0.801900000  0.548000000  0.408000000
     0.698100000  0.452000000  0.908000000
     0.198100000  0.048000000  0.092000000
     0.301900000  0.952000000  0.592000000
     0.218500000  0.249000000  0.669000000
     0.281500000  0.751000000  0.169000000
     0.781500000  0.749000000  0.831000000
     0.718500000  0.251000000  0.331000000
     0.543600000  0.247000000  0.662000000
     0.956400000  0.753000000  0.162000000
     0.456400000  0.747000000  0.838000000
     0.043600000  0.253000000  0.338000000
     0.881300000  0.246000000  0.667000000
     0.618700000  0.754000000  0.167000000
     0.118700000  0.746000000  0.833000000
     0.381300000  0.254000000  0.333000000

  ion indices of the primitive-cell ions
   primitive index   ion index
                 1           1
                 2           2
                 3           3
                 4           4
                 5           5
                 6           6
                 7           7
                 8           8
                 9           9
                10          10
                11          11
                12          12
                13          13
                14          14
                15          15
                16          16
                17          17
                18          18
                19          19
                20          20
                21          21
                22          22
                23          23
                24          24
                25          25
                26          26
                27          27
                28          28
                29          29
                30          30
                31          31
                32          32
                33          33
                34          34
                35          35
                36          36
                37          37
                38          38
                39          39
                40          40
                41          41
                42          42
                43          43
                44          44
                45          45
                46          46
                47          47
                48          48
                49          49
                50          50
                51          51
                52          52
                53          53
                54          54
                55          55
                56          56
                57          57
                58          58
                59          59
                60          60
                61          61
                62          62
                63          63
                64          64
                65          65
                66          66
                67          67
                68          68
                69          69
                70          70
                71          71
                72          72
                73          73
                74          74
                75          75
                76          76
                77          77
                78          78
                79          79
                80          80
                81          81
                82          82
                83          83
                84          84
                85          85
                86          86
                87          87
                88          88
                89          89
                90          90
                91          91
                92          92
                93          93
                94          94
                95          95
                96          96
                97          97
                98          98
                99          99
               100         100
               101         101
               102         102
               103         103
               104         104
               105         105
               106         106
               107         107
               108         108

----------------------------------------------------------------------------------------



 KPOINTS: pymatgen with grid density = 500 / numbe

Automatic generation of k-mesh.
 Grid dimensions read from file:
 generate k-points for:    1    2    3

 Generating k-lattice:

  Cartesian coordinates                     Fractional coordinates (reciprocal lattice)
     0.024372351  0.000000000 -0.000000000     1.000000000 -0.000000000  0.000000000
     0.000000000  0.056921028  0.000000000     0.000000000  0.500000000  0.000000000
    -0.000000000 -0.000000000  0.048381892     0.000000000  0.000000000  0.333333333

  Length of vectors
     0.024372351  0.056921028  0.048381892

  Shift w.r.t. Gamma in fractional coordinates (k-lattice)
     0.000000000  0.000000000  0.000000000

 
 Subroutine IBZKPT returns following result:
 ===========================================
 
 Found      4 irreducible k-points:
 
 Following reciprocal coordinates:
            Coordinates               Weight
  0.000000  0.000000  0.000000      1.000000
  0.000000  0.500000  0.000000      1.000000
  0.000000  0.000000  0.333333      2.000000
  0.000000  0.500000  0.333333      2.000000
 
 Following cartesian coordinates:
            Coordinates               Weight
  0.000000  0.000000  0.000000      1.000000
  0.000000  0.056921  0.000000      1.000000
  0.000000  0.000000  0.048382      2.000000
  0.000000  0.056921  0.048382      2.000000
 


--------------------------------------------------------------------------------------------------------




 Dimension of arrays:
   k-points           NKPTS =      4   k-points in BZ     NKDIM =      4   number of bands    NBANDS=    416
   number of dos      NEDOS =    301   number of ions     NIONS =    108
   non local maximal  LDIM  =      4   non local SUM 2l+1 LMDIM =      8
   total plane-waves  NPLWV = 362880
   max r-space proj   IRMAX =   1398   max aug-charges    IRDMAX=   5085
   dimension x,y,z NGX =   210 NGY =   48 NGZ =   36
   dimension x,y,z NGXF=   420 NGYF=   96 NGZF=   72
   support grid    NGXF=   420 NGYF=   96 NGZF=   72
   ions per type =              48  12  48
   NGX,Y,Z   is equivalent  to a cutoff of   8.51,  9.08,  8.69 a.u.
   NGXF,Y,Z  is equivalent  to a cutoff of  17.02, 18.17, 17.37 a.u.

 SYSTEM =  unknown system                          
 POSCAR =  Na48 Si12 S48                           

 Startparameter for this run:
   NWRITE =      2    write-flag & timer
   PREC   = normal    normal or accurate (medium, high low for compatibility)
   ISTART =      0    job   : 0-new  1-cont  2-samecut
   ICHARG =      2    charge: 1-file 2-atom 10-const
   ISPIN  =      1    spin polarized calculation?
   LNONCOLLINEAR =      F non collinear calculations
   LSORBIT =      F    spin-orbit coupling
   INIWAV =      1    electr: 0-lowe 1-rand  2-diag
   LASPH  =      F    aspherical Exc in radial PAW
 Electronic Relaxation 1
   ENCUT  =  400.0 eV  29.40 Ry    5.42 a.u.  66.91 14.32 11.24*2*pi/ulx,y,z
   ENINI  =  400.0     initial cutoff
   ENAUG  =  368.1 eV  augmentation charge cutoff
   NELM   =     60;   NELMIN=  2; NELMDL= -5     # of ELM steps 
   EDIFF  = 0.1E-04   stopping-criterion for ELM
   LREAL  =      T    real-space projection
   NLSPLINE    = F    spline interpolate recip. space projectors
   LCOMPAT=      F    compatible to vasp.4.4
   GGA_COMPAT  = T    GGA compatible to vasp.4.4-vasp.4.6
   LMAXPAW     = -100 max onsite density
   LMAXMIX     =    2 max onsite mixed and CHGCAR
   VOSKOWN=      0    Vosko Wilk Nusair interpolation
   ROPT   =   -0.00050  -0.00050  -0.00050
 Ionic relaxation
   EDIFFG = -.5E-01   stopping-criterion for IOM
   NSW    =    100    number of steps for IOM
   NBLOCK =      1;   KBLOCK =    100    inner block; outer block 
   IBRION =      2    ionic relax: 0-MD 1-quasi-New 2-CG
   NFREE  =      1    steps in history (QN), initial steepest desc. (CG)
   ISIF   =      3    stress and relaxation
   IWAVPR =     11    prediction:  0-non 1-charg 2-wave 3-comb
   ISYM   =      2    0-nonsym 1-usesym 2-fastsym
   LCORR  =      T    Harris-Foulkes like correction to forces

   POTIM  = 0.5000    time-step for ionic-motion
   TEIN   =    0.0    initial temperature
   TEBEG  =    0.0;   TEEND  =   0.0 temperature during run
   SMASS  =  -3.00    Nose mass-parameter (am)
   estimated Nose-frequenzy (Omega)   =  0.10E-29 period in steps = 0.13E+47 mass=  -0.385E-25a.u.
   SCALEE = 1.0000    scale energy and forces
   NPACO  =    256;   APACO  = 10.0  distance and # of slots for P.C.
   PSTRESS=    0.0 pullay stress

  Mass of Ions in am
   POMASS =  22.99 28.09 32.07
  Ionic Valenz
   ZVAL   =   7.00  4.00  6.00
  Atomic Wigner-Seitz radii
   RWIGS  =  -1.00 -1.00 -1.00
  virtual crystal weights 
   VCA    =   1.00  1.00  1.00
   NELECT =     672.0000    total number of electrons
   NUPDOWN=      -1.0000    fix difference up-down

 DOS related values:
   EMIN   =  10.00;   EMAX   =-10.00  energy-range for DOS
   EFERMI =   0.00
   ISMEAR =     0;   SIGMA  =   0.05  broadening in eV -4-tet -1-fermi 0-gaus

 Electronic relaxation 2 (details)
   IALGO  =     38    algorithm
   LDIAG  =      T    sub-space diagonalisation (order eigenvalues)
   LSUBROT=      F    optimize rotation matrix (better conditioning)
   TURBO    =      0    0=normal 1=particle mesh
   IRESTART =      0    0=no restart 2=restart with 2 vectors
   NREBOOT  =      0    no. of reboots
   NMIN     =      0    reboot dimension
   EREF     =   0.00    reference energy to select bands
   IMIX   =      4    mixing-type and parameters
     AMIX     =   0.40;   BMIX     =  1.00
     AMIX_MAG =   1.60;   BMIX_MAG =  1.00
     AMIN     =   0.10
     WC   =   100.;   INIMIX=   1;  MIXPRE=   1;  MAXMIX= -45

 Intra band minimization:
   WEIMIN = 0.0010     energy-eigenvalue tresh-hold
   EBREAK =  0.60E-08  absolut break condition
   DEPER  =   0.30     relativ break condition  

   TIME   =   0.40     timestep for ELM

  volume/ion in A,a.u.               =      22.99       155.16
  Fermi-wavevector in a.u.,A,eV,Ry     =   1.058927  2.001082 15.256571  1.121326
  Thomas-Fermi vector in A             =   2.194254

 Write flags
   LWAVE        =      F    write WAVECAR
   LDOWNSAMPLE  =      F    k-point downsampling of WAVECAR
   LCHARG       =      F    write CHGCAR
   LVTOT        =      F    write LOCPOT, total local potential
   LVHAR        =      F    write LOCPOT, Hartree potential only
   LELF         =      F    write electronic localiz. function (ELF)
   LORBIT       =      0    0 simple, 1 ext, 2 COOP (PROOUT), +10 PAW based schemes


 Dipole corrections
   LMONO  =      F    monopole corrections only (constant potential shift)
   LDIPOL =      F    correct potential (dipole corrections)
   IDIPOL =      0    1-x, 2-y, 3-z, 4-all directions 
   EPSILON=  1.0000000 bulk dielectric constant

 Exchange correlation treatment:
   GGA     =    --    GGA type
   LEXCH   =     8    internal setting for exchange type
   LIBXC   =     F    Libxc                    
   VOSKOWN =     0    Vosko Wilk Nusair interpolation
   LHFCALC =     F    Hartree Fock is set to
   LHFONE  =     F    Hartree Fock one center treatment
   AEXX    =    0.0000 exact exchange contribution

 Linear response parameters
   LEPSILON=     F    determine dielectric tensor
   LRPA    =     F    only Hartree local field effects (RPA)
   LNABLA  =     F    use nabla operator in PAW spheres
   LVEL    =     F    velocity operator in full k-point grid
   CSHIFT  =0.1000    complex shift for real part using Kramers Kronig
   OMEGAMAX=  -1.0    maximum frequency
   DEG_THRESHOLD= 0.2000000E-02 threshold for treating states as degnerate
   RTIME   =   -0.100 relaxation time in fs
  (WPLASMAI=    0.000 imaginary part of plasma frequency in eV, 0.658/RTIME)
   DFIELD  = 0.0000000 0.0000000 0.0000000 field for delta impulse in time

  Optional k-point grid parameters
   LKPOINTS_OPT  =     F    use optional k-point grid
   KPOINTS_OPT_MODE=     1    mode for optional k-point grid

 Orbital magnetization related:
   ORBITALMAG=     F  switch on orbital magnetization
   LCHIMAG   =     F  perturbation theory with respect to B field
   DQ        =  0.001000  dq finite difference perturbation B field
   LLRAUG    =     F  two centre corrections for induced B field



--------------------------------------------------------------------------------------------------------


 conjugate gradient relaxation of ions
 charge density and potential will be updated during run
 non-spin polarized calculation
 Variant of blocked Davidson
 Davidson routine will perform the subspace rotation
 perform sub-space diagonalisation
    after iterative eigenvector-optimisation
 modified Broyden-mixing scheme, WC =      100.0
 initial mixing is a Kerker type mixing with AMIX =  0.4000 and BMIX =      1.0000
 Hartree-type preconditioning will be used
 using additional bands           80
 real space projection scheme for non local part
 use partial core corrections
 calculate Harris-corrections to forces   (improved forces if not selfconsistent)
 use gradient corrections 
 use of overlap-Matrix (Vanderbilt PP)
 Gauss-broadening in eV      SIGMA  =   0.05


--------------------------------------------------------------------------------------------------------


  energy-cutoff  :      400.00
  volume of cell :     2483.11
      direct lattice vectors                 reciprocal lattice vectors
    41.030100000  0.000000000  0.000000000     0.024372351  0.000000000 -0.000000000
    -0.000000000  8.784100000  0.000000000     0.000000000  0.113842056  0.000000000
     0.000000000  0.000000000  6.889630000    -0.000000000 -0.000000000  0.145145675

  length of vectors
    41.030100000  8.784100000  6.889630000     0.024372351  0.113842056  0.145145675



 k-points in units of 2pi/SCALE and weight: pymatgen with grid density = 500 / numbe
   0.00000000  0.00000000  0.00000000       0.167
   0.00000000  0.05692103  0.00000000       0.167
   0.00000000  0.00000000  0.04838189       0.333
   0.00000000  0.05692103  0.04838189       0.333

 k-points in reciprocal lattice and weights: pymatgen with grid density = 500 / numbe
   0.00000000  0.00000000  0.00000000       0.167
   0.00000000  0.50000000  0.00000000       0.167
   0.00000000  0.00000000  0.33333333       0.333
   0.00000000  0.50000000  0.33333333       0.333

 position of ions in fractional coordinates (direct lattice) 
   0.23930000  0.04800000  0.38600000
   0.26070000  0.95200000  0.88600000
   0.76070000  0.54800000  0.11400000
   0.73930000  0.45200000  0.61400000
   0.57620000  0.04500000  0.40600000
   0.92380000  0.95500000  0.90600000
   0.42380000  0.54500000  0.09400000
   0.07620000  0.45500000  0.59400000
   0.90520000  0.05600000  0.40800000
   0.59480000  0.94400000  0.90800000
   0.09480000  0.55600000  0.09200000
   0.40520000  0.44400000  0.59200000
   0.24350000  0.44300000  0.38100000
   0.25650000  0.55700000  0.88100000
   0.75650000  0.94300000  0.11900000
   0.74350000  0.05700000  0.61900000
   0.57600000  0.45200000  0.38400000
   0.92400000  0.54800000  0.88400000
   0.42400000  0.95200000  0.11600000
   0.07600000  0.04800000  0.61600000
   0.91660000  0.43300000  0.37900000
   0.58340000  0.56700000  0.87900000
   0.08340000  0.93300000  0.12100000
   0.41660000  0.06700000  0.62100000
   0.15170000  0.24100000  0.25600000
   0.34830000  0.75900000  0.75600000
   0.84830000  0.74100000  0.24400000
   0.65170000  0.25900000  0.74400000
   0.48400000  0.24300000  0.24400000
   0.01600000  0.75700000  0.74400000
   0.51600000  0.74300000  0.25600000
   0.98400000  0.25700000  0.75600000
   0.81990000  0.24100000  0.25600000
   0.68010000  0.75900000  0.75600000
   0.18010000  0.74100000  0.24400000
   0.31990000  0.25900000  0.74400000
   0.99210000  0.03500000  0.23500000
   0.50790000  0.96500000  0.73500000
   0.00790000  0.53500000  0.26500000
   0.49210000  0.46500000  0.76500000
   0.33300000  0.01100000  0.23800000
   0.16700000  0.98900000  0.73800000
   0.66700000  0.51100000  0.26200000
   0.83300000  0.48900000  0.76200000
   0.67060000  0.97900000  0.27000000
   0.82940000  0.02100000  0.77000000
   0.32940000  0.47900000  0.23000000
   0.17060000  0.52100000  0.73000000
   0.22160000  0.24600000  0.96200000
   0.27840000  0.75400000  0.46200000
   0.77840000  0.74600000  0.53800000
   0.72160000  0.25400000  0.03800000
   0.55550000  0.24800000  0.97300000
   0.94450000  0.75200000  0.47300000
   0.44450000  0.74800000  0.52700000
   0.05550000  0.25200000  0.02700000
   0.88680000  0.24500000  0.98000000
   0.61320000  0.75500000  0.48000000
   0.11320000  0.74500000  0.52000000
   0.38680000  0.25500000  0.02000000
   0.03150000  0.05600000  0.90800000
   0.46850000  0.94400000  0.40800000
   0.96850000  0.55600000  0.59200000
   0.53150000  0.44400000  0.09200000
   0.36540000  0.06500000  0.90400000
   0.13460000  0.93500000  0.40400000
   0.63460000  0.56500000  0.59600000
   0.86540000  0.43500000  0.09600000
   0.69920000  0.05100000  0.90700000
   0.80080000  0.94900000  0.40700000
   0.30080000  0.55100000  0.59300000
   0.19920000  0.44900000  0.09300000
   0.06210000  0.75800000  0.43600000
   0.43790000  0.24200000  0.93600000
   0.93790000  0.25800000  0.06400000
   0.56210000  0.74200000  0.56400000
   0.39640000  0.74800000  0.44700000
   0.10360000  0.25200000  0.94700000
   0.60360000  0.24800000  0.05300000
   0.89640000  0.75200000  0.55300000
   0.72890000  0.75200000  0.43000000
   0.77110000  0.24800000  0.93000000
   0.27110000  0.25200000  0.07000000
   0.22890000  0.74800000  0.57000000
   0.13460000  0.54800000  0.42200000
   0.36540000  0.45200000  0.92200000
   0.86540000  0.04800000  0.07800000
   0.63460000  0.95200000  0.57800000
   0.46620000  0.53700000  0.43400000
   0.03380000  0.46300000  0.93400000
   0.53380000  0.03700000  0.06600000
   0.96620000  0.96300000  0.56600000
   0.80190000  0.54800000  0.40800000
   0.69810000  0.45200000  0.90800000
   0.19810000  0.04800000  0.09200000
   0.30190000  0.95200000  0.59200000
   0.21850000  0.24900000  0.66900000
   0.28150000  0.75100000  0.16900000
   0.78150000  0.74900000  0.83100000
   0.71850000  0.25100000  0.33100000
   0.54360000  0.24700000  0.66200000
   0.95640000  0.75300000  0.16200000
   0.45640000  0.74700000  0.83800000
   0.04360000  0.25300000  0.33800000
   0.88130000  0.24600000  0.66700000
   0.61870000  0.75400000  0.16700000
   0.11870000  0.74600000  0.83300000
   0.38130000  0.25400000  0.33300000

 position of ions in cartesian coordinates  (Angst):
   9.81850293  0.42163680  2.65939718
  10.69654707  8.36246320  6.10421218
  31.21159707  4.81368680  0.78541782
  30.33355293  3.97041320  4.23023282
  23.64154362  0.39528450  2.79718978
  37.90360638  8.38881550  6.24200478
  17.38855638  4.78733450  0.64762522
   3.12649362  3.99676550  4.09244022
  37.14044652  0.49190960  2.81096904
  24.40470348  8.29219040  6.25578404
   3.88965348  4.88395960  0.63384596
  16.62539652  3.90014040  4.07866096
   9.99082935  3.89135630  2.62494903
  10.52422065  4.89274370  6.06976403
  31.03927065  8.28340630  0.81986597
  30.50587935  0.50069370  4.26468097
  23.63333760  3.97041320  2.64561792
  37.91181240  4.81368680  6.09043292
  17.39676240  8.36246320  0.79919708
   3.11828760  0.42163680  4.24401208
  37.60818966  3.80351530  2.61116977
  23.93696034  4.98058470  6.05598477
   3.42191034  8.19556530  0.83364523
  17.09313966  0.58853470  4.27846023
   6.22426617  2.11696810  1.76374528
  14.29078383  6.66713190  5.20856028
  34.80583383  6.50901810  1.68106972
  26.73931617  2.27508190  5.12588472
  19.85856840  2.13453630  1.68106972
   0.65648160  6.64956370  5.12588472
  21.17153160  6.52658630  1.76374528
  40.37361840  2.25751370  5.20856028
  33.64057899  2.11696810  1.76374528
  27.90457101  6.66713190  5.20856028
   7.38952101  6.50901810  1.68106972
  13.12552899  2.27508190  5.12588472
  40.70596221  0.30744350  1.61906305
  20.83918779  8.47665650  5.06387805
   0.32413779  4.69949350  1.82575195
  20.19091221  4.08460650  5.27056695
  13.66302330  0.09662510  1.63973194
   6.85202670  8.68747490  5.08454694
  27.36707670  4.48867510  1.80508306
  34.17807330  4.29542490  5.24989806
  27.51478506  8.59963390  1.86020010
  34.03036494  0.18446610  5.30501510
  13.51531494  4.20758390  1.58461490
   6.99973506  4.57651610  5.02942990
   9.09227016  2.16088860  6.62782406
  11.42277984  6.62321140  3.18300906
  31.93782984  6.55293860  3.70662094
  29.60732016  2.23116140  0.26180594
  22.79222055  2.17845680  6.70360999
  38.75292945  6.60564320  3.25879499
  18.23787945  6.57050680  3.63083501
   2.27717055  2.21359320  0.18602001
  36.38549268  2.15210450  6.75183740
  25.15965732  6.63199550  3.30702240
   4.64460732  6.54415450  3.58260760
  15.87044268  2.23994550  0.13779260
   1.29244815  0.49190960  6.25578404
  19.22260185  8.29219040  2.81096904
  39.73765185  4.88395960  4.07866096
  21.80749815  3.90014040  0.63384596
  14.99239854  0.57096650  6.22822552
   5.52265146  8.21313350  2.78341052
  26.03770146  4.96301650  4.10621948
  35.50744854  3.82108350  0.66140448
  28.68824592  0.44798910  6.24889441
  32.85690408  8.33611090  2.80407941
  12.34185408  4.84003910  4.08555059
   8.17319592  3.94406090  0.64073559
   2.54796921  6.65834780  3.00387868
  17.96708079  2.12575220  6.44869368
  38.48213079  2.26629780  0.44093632
  23.06301921  6.51780220  3.88575132
  16.26433164  6.57050680  3.07966461
   4.25071836  2.21359320  6.52447961
  24.76576836  2.17845680  0.36515039
  36.77938164  6.60564320  3.80996539
  29.90683989  6.60564320  2.96254090
  31.63831011  2.17845680  6.40735590
  11.12326011  2.21359320  0.48227410
   9.39178989  6.57050680  3.92708910
   5.52265146  4.81368680  2.90742386
  14.99239854  3.97041320  6.35223886
  35.50744854  0.42163680  0.53739114
  26.03770146  8.36246320  3.98220614
  19.12823262  4.71706170  2.99009942
   1.38681738  4.06703830  6.43491442
  21.90186738  0.32501170  0.45471558
  39.64328262  8.45908830  3.89953058
  32.90203719  4.81368680  2.81096904
  28.64311281  3.97041320  6.25578404
   8.12806281  0.42163680  0.63384596
  12.38698719  8.36246320  4.07866096
   8.96507685  2.18724090  4.60916247
  11.54997315  6.59685910  1.16434747
  32.06502315  6.57929090  5.72528253
  29.48012685  2.20480910  2.28046753
  22.30396236  2.16967270  4.56093506
  39.24118764  6.61442730  1.11612006
  18.72613764  6.56172270  5.77350994
   1.78891236  2.22237730  2.32869494
  36.15982713  2.16088860  4.59538321
  25.38532287  6.62321140  1.15056821
   4.87027287  6.55293860  5.73906179
  15.64477713  2.23116140  2.29424679



--------------------------------------------------------------------------------------------------------


 k-point   1 :   0.0000 0.0000 0.0000  plane waves:   45131
 k-point   2 :   0.0000 0.5000 0.0000  plane waves:   45132
 k-point   3 :   0.0000 0.0000 0.3333  plane waves:   45144
 k-point   4 :   0.0000 0.5000 0.3333  plane waves:   45064

 maximum and minimum number of plane-waves per node :     45144    45064

 maximum number of plane-waves:     45144
 maximum index in each direction: 
   IXMAX=   66   IYMAX=   14   IZMAX=   11
   IXMIN=  -66   IYMIN=  -14   IZMIN=  -11


 serial   3D FFT for wavefunctions
 parallel 3D FFT for charge:
    minimum data exchange during FFTs selected (reduces bandwidth)


 total amount of memory used by VASP MPI-rank0   105982. kBytes
=======================================================================

   base      :      30000. kBytes
   nonlr-proj:      11568. kBytes
   fftplans  :       4800. kBytes
   grid      :      20998. kBytes
   one-center:        331. kBytes
   wavefun   :      38285. kBytes

     INWAV:  cpu time      0.0000: real time      0.0002
 Broyden mixing: mesh for mixing (old mesh)
   NGX =133   NGY = 29   NGZ = 23
  (NGX  =420   NGY  = 96   NGZ  = 72)
  gives a total of  88711 points

 initial charge density was supplied:
 charge density of overlapping atoms calculated
 number of electron     672.0000000 magnetization 
 keeping initial charge density in first step


--------------------------------------------------------------------------------------------------------


 Maximum index for non-local projection operator         1317
 Maximum index for augmentation-charges          575 (set IRDMAX)


--------------------------------------------------------------------------------------------------------


 First call to EWALD:  gamma=   0.131
 Maximum number of real-space cells 1x 4x 5
 Maximum number of reciprocal cells 7x 2x 2

    FEWALD:  cpu time      0.0055: real time      0.0055


--------------------------------------- Iteration      1(   1)  ---------------------------------------


    POTLOK:  cpu time      0.0763: real time      0.0766
    SETDIJ:  cpu time      0.0058: real time      0.0062
     EDDAV:  cpu time      8.0870: real time      8.0942
       DOS:  cpu time      0.0008: real time      0.0010
    --------------------------------------------
      LOOP:  cpu time      8.1700: real time      8.1780

 eigenvalue-minimisations  :  3328
 total energy-change (2. order) : 0.6101765E+04  (-0.2743339E+05)
 number of electron     672.0000000 magnetization 
 augmentation part      672.0000000 magnetization 

 Free energy of the ion-electron system (eV)
  ---------------------------------------------------
  alpha Z        PSCENC =       919.94787761
  Ewald energy   TEWEN  =    -29312.97040075
  -Hartree energ DENC   =    -13600.31123406
  -exchange      EXHF   =         0.00000000
  -V(xc)+E(xc)   XCENC  =      1662.34602981
  PAW double counting   =     35609.42114545   -39496.66294146
  entropy T*S    EENTRO =        -0.02849587
  eigenvalues    EBANDS =      -973.66137002
  atomic energy  EATOM  =     51293.68401730
  Solvation  Ediel_sol  =         0.00000000
  ---------------------------------------------------
  free energy    TOTEN  =      6101.76462801 eV

  energy without entropy =     6101.79312388  energy(sigma->0) =     6101.77887595


--------------------------------------------------------------------------------------------------------




--------------------------------------- Iteration      1(   2)  ---------------------------------------


     EDDAV:  cpu time      8.6255: real time      8.6362
       DOS:  cpu time      0.0005: real time      0.0006
    --------------------------------------------
      LOOP:  cpu time      8.6260: real time      8.6368

 eigenvalue-minimisations  :  3648
 total energy-change (2. order) :-0.5722489E+04  (-0.5485912E+04)
 number of electron     672.0000000 magnetization 
 augmentation part      672.0000000 magnetization 

 Free energy of the ion-electron system (eV)
  ---------------------------------------------------
  alpha Z        PSCENC =       919.94787761
  Ewald energy   TEWEN  =    -29312.97040075
  -Hartree energ DENC   =    -13600.31123406
  -exchange      EXHF   =         0.00000000
  -V(xc)+E(xc)   XCENC  =      1662.34602981
  PAW double counting   =     35609.42114545   -39496.66294146
  entropy T*S    EENTRO =        -0.00000000
  eigenvalues    EBANDS =     -6696.17866967
  atomic energy  EATOM  =     51293.68401730
  Solvation  Ediel_sol  =         0.00000000
  ---------------------------------------------------
  free energy    TOTEN  =       379.27582423 eV

  energy without entropy =      379.27582423  energy(sigma->0) =      379.27582423


--------------------------------------------------------------------------------------------------------




--------------------------------------- Iteration      1(   3)  ---------------------------------------


     EDDAV:  cpu time      9.3430: real time      9.3491
       DOS:  cpu time      0.0005: real time      0.0006
    --------------------------------------------
      LOOP:  cpu time      9.3435: real time      9.3497

 eigenvalue-minimisations  :  3968
 total energy-change (2. order) :-0.8021816E+03  (-0.7936060E+03)
 number of electron     672.0000000 magnetization 
 augmentation part      672.0000000 magnetization 

 Free energy of the ion-electron system (eV)
  ---------------------------------------------------
  alpha Z        PSCENC =       919.94787761
  Ewald energy   TEWEN  =    -29312.97040075
  -Hartree energ DENC   =    -13600.31123406
  -exchange      EXHF   =         0.00000000
  -V(xc)+E(xc)   XCENC  =      1662.34602981
  PAW double counting   =     35609.42114545   -39496.66294146
  entropy T*S    EENTRO =        -0.00000000
  eigenvalues    EBANDS =     -7498.36024099
  atomic energy  EATOM  =     51293.68401730
  Solvation  Ediel_sol  =         0.00000000
  ---------------------------------------------------
  free energy    TOTEN  =      -422.90574709 eV

  energy without entropy =     -422.90574709  energy(sigma->0) =     -422.90574709


--------------------------------------------------------------------------------------------------------




--------------------------------------- Iteration      1(   4)  ---------------------------------------


     EDDAV:  cpu time      9.0946: real time      9.1007
       DOS:  cpu time      0.0005: real time      0.0006
    --------------------------------------------
      LOOP:  cpu time      9.0950: real time      9.1013

 eigenvalue-minimisations  :  3904
 total energy-change (2. order) :-0.3945534E+02  (-0.3918686E+02)
 number of electron     672.0000000 magnetization 
 augmentation part      672.0000000 magnetization 

 Free energy of the ion-electron system (eV)
  ---------------------------------------------------
  alpha Z        PSCENC =       919.94787761
  Ewald energy   TEWEN  =    -29312.97040075
  -Hartree energ DENC   =    -13600.31123406
  -exchange      EXHF   =         0.00000000
  -V(xc)+E(xc)   XCENC  =      1662.34602981
  PAW double counting   =     35609.42114545   -39496.66294146
  entropy T*S    EENTRO =        -0.00000000
  eigenvalues    EBANDS =     -7537.81558058
  atomic energy  EATOM  =     51293.68401730
  Solvation  Ediel_sol  =         0.00000000
  ---------------------------------------------------
  free energy    TOTEN  =      -462.36108668 eV

  energy without entropy =     -462.36108668  energy(sigma->0) =     -462.36108668


--------------------------------------------------------------------------------------------------------




--------------------------------------- Iteration      1(   5)  ---------------------------------------


     EDDAV:  cpu time     10.1146: real time     10.1216
       DOS:  cpu time      0.0005: real time      0.0006
    CHARGE:  cpu time      0.4463: real time      0.4469
    MIXING:  cpu time      0.0025: real time      0.0026
    --------------------------------------------
      LOOP:  cpu time     10.5639: real time     10.5718

 eigenvalue-minimisations  :  4416
 total energy-change (2. order) :-0.1687148E+01  (-0.1684344E+01)
 number of electron     672.0000448 magnetization 
 augmentation part      170.2498809 magnetization 

 Broyden mixing:
  rms(total) = 0.45542E+01    rms(broyden)= 0.45541E+01
  rms(prec ) = 0.45923E+01
  weight for this iteration     100.00

 Free energy of the ion-electron system (eV)
  ---------------------------------------------------
  alpha Z        PSCENC =       919.94787761
  Ewald energy   TEWEN  =    -29312.97040075
  -Hartree energ DENC   =    -13600.31123406
  -exchange      EXHF   =         0.00000000
  -V(xc)+E(xc)   XCENC  =      1662.34602981
  PAW double counting   =     35609.42114545   -39496.66294146
  entropy T*S    EENTRO =        -0.00000000
  eigenvalues    EBANDS =     -7539.50272873
  atomic energy  EATOM  =     51293.68401730
  Solvation  Ediel_sol  =         0.00000000
  ---------------------------------------------------
  free energy    TOTEN  =      -464.04823483 eV

  energy without entropy =     -464.04823483  energy(sigma->0) =     -464.04823483


--------------------------------------------------------------------------------------------------------




--------------------------------------- Iteration      1(   6)  ---------------------------------------


    POTLOK:  cpu time      0.0655: real time      0.0657
    SETDIJ:  cpu time      0.0051: real time      0.0051
     EDDAV:  cpu time      9.0100: real time      9.0163
       DOS:  cpu time      0.0003: real time      0.0006
    CHARGE:  cpu time      0.4395: real time      0.4398
    MIXING:  cpu time      0.0020: real time      0.0020
    --------------------------------------------
      LOOP:  cpu time      9.5225: real time      9.5295

 eigenvalue-minimisations  :  3840
 total energy-change (2. order) : 0.2068963E+02  (-0.3721828E+01)
 number of electron     672.0000449 magnetization 
 augmentation part      171.9862033 magnetization 

 Broyden mixing:
  rms(total) = 0.28207E+01    rms(broyden)= 0.28207E+01
  rms(prec ) = 0.28326E+01
  weight for this iteration     100.00

 eigenvalues of (default mixing * dielectric matrix)
  average eigenvalue GAMMA=   2.1167
  2.1167

 Free energy of the ion-electron system (eV)
  ---------------------------------------------------
  alpha Z        PSCENC =       919.94787761
  Ewald energy   TEWEN  =    -29312.97040075
  -Hartree energ DENC   =    -13752.76989266
  -exchange      EXHF   =         0.00000000
  -V(xc)+E(xc)   XCENC  =      1680.80357529
  PAW double counting   =     42395.12509732   -46279.97274575
  entropy T*S    EENTRO =        -0.00000000
  eigenvalues    EBANDS =     -7387.20612985
  atomic energy  EATOM  =     51293.68401730
  Solvation  Ediel_sol  =         0.00000000
  ---------------------------------------------------
  free energy    TOTEN  =      -443.35860149 eV

  energy without entropy =     -443.35860149  energy(sigma->0) =     -443.35860149


--------------------------------------------------------------------------------------------------------




--------------------------------------- Iteration      1(   7)  ---------------------------------------


    POTLOK:  cpu time      0.0625: real time      0.0627
    SETDIJ:  cpu time      0.0051: real time      0.0051
     EDDAV:  cpu time     10.2106: real time     10.2166
       DOS:  cpu time      0.0003: real time      0.0006
    CHARGE:  cpu time      0.4404: real time      0.4408
    MIXING:  cpu time      0.0019: real time      0.0019
    --------------------------------------------
      LOOP:  cpu time     10.7208: real time     10.7277

 eigenvalue-minimisations  :  4544
 total energy-change (2. order) : 0.2329775E+01  (-0.2494274E+01)
 number of electron     672.0000451 magnetization 
 augmentation part      173.3255578 magnetization 

 Broyden mixing:
  rms(total) = 0.10902E+01    rms(broyden)= 0.10902E+01
  rms(prec ) = 0.10942E+01
  weight for this iteration     100.00

 eigenvalues of (default mixing * dielectric matrix)
  average eigenvalue GAMMA=   2.1800
  1.4053  2.9547

 Free energy of the ion-electron system (eV)
  ---------------------------------------------------
  alpha Z        PSCENC =       919.94787761
  Ewald energy   TEWEN  =    -29312.97040075
  -Hartree energ DENC   =    -13866.61698427
  -exchange      EXHF   =         0.00000000
  -V(xc)+E(xc)   XCENC  =      1698.80155374
  PAW double counting   =     55854.33985602   -59748.77292252
  entropy T*S    EENTRO =        -0.00000000
  eigenvalues    EBANDS =     -7279.44182401
  atomic energy  EATOM  =     51293.68401730
  Solvation  Ediel_sol  =         0.00000000
  ---------------------------------------------------
  free energy    TOTEN  =      -441.02882690 eV

  energy without entropy =     -441.02882690  energy(sigma->0) =     -441.02882690


--------------------------------------------------------------------------------------------------------




--------------------------------------- Iteration      1(   8)  ---------------------------------------


    POTLOK:  cpu time      0.0618: real time      0.0620
    SETDIJ:  cpu time      0.0051: real time      0.0051
     EDDAV:  cpu time      8.8413: real time      8.8482
       DOS:  cpu time      0.0003: real time      0.0006
    CHARGE:  cpu time      0.4395: real time      0.4399
    MIXING:  cpu time      0.0021: real time      0.0021
    --------------------------------------------
      LOOP:  cpu time      9.3502: real time      9.3579

 eigenvalue-minimisations  :  3808
 total energy-change (2. order) : 0.1771314E+00  (-0.3003666E+00)
 number of electron     672.0000451 magnetization 
 augmentation part      172.8856105 magnetization 

 Broyden mixing:
  rms(total) = 0.38263E+00    rms(broyden)= 0.38263E+00
  rms(prec ) = 0.38293E+00
  weight for this iteration     100.00

 eigenvalues of (default mixing * dielectric matrix)
  average eigenvalue GAMMA=   1.6714
  2.5556  1.2293  1.2293

 Free energy of the ion-electron system (eV)
  ---------------------------------------------------
  alpha Z        PSCENC =       919.94787761
  Ewald energy   TEWEN  =    -29312.97040075
  -Hartree energ DENC   =    -13828.34222391
  -exchange      EXHF   =         0.00000000
  -V(xc)+E(xc)   XCENC  =      1699.56091229
  PAW double counting   =     62236.98922141   -66142.77166938
  entropy T*S    EENTRO =        -0.00000000
  eigenvalues    EBANDS =     -7306.94943005
  atomic energy  EATOM  =     51293.68401730
  Solvation  Ediel_sol  =         0.00000000
  ---------------------------------------------------
  free energy    TOTEN  =      -440.85169549 eV

  energy without entropy =     -440.85169549  energy(sigma->0) =     -440.85169549


--------------------------------------------------------------------------------------------------------




--------------------------------------- Iteration      1(   9)  ---------------------------------------


    POTLOK:  cpu time      0.0635: real time      0.0639
    SETDIJ:  cpu time      0.0052: real time      0.0053
     EDDAV:  cpu time      9.0209: real time      9.0264
       DOS:  cpu time      0.0003: real time      0.0006
    CHARGE:  cpu time      0.4389: real time      0.4392
    MIXING:  cpu time      0.0020: real time      0.0020
    --------------------------------------------
      LOOP:  cpu time      9.5307: real time      9.5373

 eigenvalue-minimisations  :  3904
 total energy-change (2. order) :-0.3856745E-02  (-0.1228407E-01)
 number of electron     672.0000451 magnetization 
 augmentation part      172.9260104 magnetization 

 Broyden mixing:
  rms(total) = 0.17196E+00    rms(broyden)= 0.17196E+00
  rms(prec ) = 0.17262E+00
  weight for this iteration     100.00

 eigenvalues of (default mixing * dielectric matrix)
  average eigenvalue GAMMA=   1.8176
  2.3558  2.3558  1.2793  1.2793

 Free energy of the ion-electron system (eV)
  ---------------------------------------------------
  alpha Z        PSCENC =       919.94787761
  Ewald energy   TEWEN  =    -29312.97040075
  -Hartree energ DENC   =    -13834.25517632
  -exchange      EXHF   =         0.00000000
  -V(xc)+E(xc)   XCENC  =      1699.22116767
  PAW double counting   =     60272.93247357   -64175.76738788
  entropy T*S    EENTRO =        -0.00000000
  eigenvalues    EBANDS =     -7303.64812342
  atomic energy  EATOM  =     51293.68401730
  Solvation  Ediel_sol  =         0.00000000
  ---------------------------------------------------
  free energy    TOTEN  =      -440.85555224 eV

  energy without entropy =     -440.85555224  energy(sigma->0) =     -440.85555224


--------------------------------------------------------------------------------------------------------




--------------------------------------- Iteration      1(  10)  ---------------------------------------


    POTLOK:  cpu time      0.0619: real time      0.0621
    SETDIJ:  cpu time      0.0051: real time      0.0051
     EDDAV:  cpu time      8.6037: real time      8.6099
       DOS:  cpu time      0.0003: real time      0.0006
    CHARGE:  cpu time      0.4395: real time      0.4398
    MIXING:  cpu time      0.0020: real time      0.0020
    --------------------------------------------
      LOOP:  cpu time      9.1124: real time      9.1195

 eigenvalue-minimisations  :  3680
 total energy-change (2. order) :-0.1461579E-01  (-0.6109023E-02)
 number of electron     672.0000451 magnetization 
 augmentation part      172.8932956 magnetization 

 Broyden mixing:
  rms(total) = 0.39768E-01    rms(broyden)= 0.39768E-01
  rms(prec ) = 0.40246E-01
  weight for this iteration     100.00

 eigenvalues of (default mixing * dielectric matrix)
  average eigenvalue GAMMA=   1.7046
  2.5524  2.5524  1.2874  1.2874  0.8436

 Free energy of the ion-electron system (eV)
  ---------------------------------------------------
  alpha Z        PSCENC =       919.94787761
  Ewald energy   TEWEN  =    -29312.97040075
  -Hartree energ DENC   =    -13830.37268184
  -exchange      EXHF   =         0.00000000
  -V(xc)+E(xc)   XCENC  =      1698.99633583
  PAW double counting   =     59575.08943717   -63478.28513551
  entropy T*S    EENTRO =        -0.00000000
  eigenvalues    EBANDS =     -7306.95961783
  atomic energy  EATOM  =     51293.68401730
  Solvation  Ediel_sol  =         0.00000000
  ---------------------------------------------------
  free energy    TOTEN  =      -440.87016803 eV

  energy without entropy =     -440.87016803  energy(sigma->0) =     -440.87016803


--------------------------------------------------------------------------------------------------------




--------------------------------------- Iteration      1(  11)  ---------------------------------------


    POTLOK:  cpu time      0.0625: real time      0.0628
    SETDIJ:  cpu time      0.0052: real time      0.0052
     EDDAV:  cpu time      9.3727: real time      9.3784
       DOS:  cpu time      0.0004: real time      0.0006
    CHARGE:  cpu time      0.4457: real time      0.4459
    MIXING:  cpu time      0.0022: real time      0.0022
    --------------------------------------------
      LOOP:  cpu time      9.8886: real time      9.8952

 eigenvalue-minimisations  :  3936
 total energy-change (2. order) :-0.3724722E-02  (-0.9292766E-03)
 number of electron     672.0000451 magnetization 
 augmentation part      172.8872688 magnetization 

 Broyden mixing:
  rms(total) = 0.50778E-01    rms(broyden)= 0.50778E-01
  rms(prec ) = 0.50907E-01
  weight for this iteration     100.00

 eigenvalues of (default mixing * dielectric matrix)
  average eigenvalue GAMMA=   1.4954
  2.4241  2.4241  1.2909  1.2909  0.7713  0.7713

 Free energy of the ion-electron system (eV)
  ---------------------------------------------------
  alpha Z        PSCENC =       919.94787761
  Ewald energy   TEWEN  =    -29312.97040075
  -Hartree energ DENC   =    -13830.08996969
  -exchange      EXHF   =         0.00000000
  -V(xc)+E(xc)   XCENC  =      1699.09532219
  PAW double counting   =     59666.31926754   -63569.97421407
  entropy T*S    EENTRO =        -0.00000000
  eigenvalues    EBANDS =     -7306.88579289
  atomic energy  EATOM  =     51293.68401730
  Solvation  Ediel_sol  =         0.00000000
  ---------------------------------------------------
  free energy    TOTEN  =      -440.87389275 eV

  energy without entropy =     -440.87389275  energy(sigma->0) =     -440.87389275


--------------------------------------------------------------------------------------------------------




--------------------------------------- Iteration      1(  12)  ---------------------------------------


    POTLOK:  cpu time      0.0629: real time      0.0633
    SETDIJ:  cpu time      0.0051: real time      0.0051
     EDDAV:  cpu time      8.8439: real time      8.8512
       DOS:  cpu time      0.0004: real time      0.0007
    CHARGE:  cpu time      0.4410: real time      0.4414
    MIXING:  cpu time      0.0023: real time      0.0023
    --------------------------------------------
      LOOP:  cpu time      9.3556: real time      9.3640

 eigenvalue-minimisations  :  3776
 total energy-change (2. order) : 0.5200163E-03  (-0.1473298E-03)
 number of electron     672.0000451 magnetization 
 augmentation part      172.8831871 magnetization 

 Broyden mixing:
  rms(total) = 0.30901E-01    rms(broyden)= 0.30901E-01
  rms(prec ) = 0.31099E-01
  weight for this iteration     100.00

 eigenvalues of (default mixing * dielectric matrix)
  average eigenvalue GAMMA=   1.5601
  2.4516  2.4516  1.4359  1.4359  0.9133  1.1162  1.1162

 Free energy of the ion-electron system (eV)
  ---------------------------------------------------
  alpha Z        PSCENC =       919.94787761
  Ewald energy   TEWEN  =    -29312.97040075
  -Hartree energ DENC   =    -13830.08542803
  -exchange      EXHF   =         0.00000000
  -V(xc)+E(xc)   XCENC  =      1699.04732475
  PAW double counting   =     59628.95854521   -63532.56268183
  entropy T*S    EENTRO =        -0.00000000
  eigenvalues    EBANDS =     -7306.89262699
  atomic energy  EATOM  =     51293.68401730
  Solvation  Ediel_sol  =         0.00000000
  ---------------------------------------------------
  free energy    TOTEN  =      -440.87337274 eV

  energy without entropy =     -440.87337274  energy(sigma->0) =     -440.87337274


--------------------------------------------------------------------------------------------------------




--------------------------------------- Iteration      1(  13)  ---------------------------------------


    POTLOK:  cpu time      0.0621: real time      0.0624
    SETDIJ:  cpu time      0.0051: real time      0.0051
     EDDAV:  cpu time      8.4475: real time      8.4531
       DOS:  cpu time      0.0004: real time      0.0007
    CHARGE:  cpu time      0.4398: real time      0.4399
    MIXING:  cpu time      0.0025: real time      0.0025
    --------------------------------------------
      LOOP:  cpu time      8.9574: real time      8.9636

 eigenvalue-minimisations  :  3584
 total energy-change (2. order) :-0.1010196E-02  (-0.1170862E-03)
 number of electron     672.0000451 magnetization 
 augmentation part      172.8854486 magnetization 

 Broyden mixing:
  rms(total) = 0.11520E-01    rms(broyden)= 0.11520E-01
  rms(prec ) = 0.11701E-01
  weight for this iteration     100.00

 eigenvalues of (default mixing * dielectric matrix)
  average eigenvalue GAMMA=   1.5903
  2.6656  2.6656  1.6895  1.6895  0.9885  0.9885  1.0176  1.0176

 Free energy of the ion-electron system (eV)
  ---------------------------------------------------
  alpha Z        PSCENC =       919.94787761
  Ewald energy   TEWEN  =    -29312.97040075
  -Hartree energ DENC   =    -13830.62881200
  -exchange      EXHF   =         0.00000000
  -V(xc)+E(xc)   XCENC  =      1699.11423361
  PAW double counting   =     59577.96094728   -63481.67879361
  entropy T*S    EENTRO =        -0.00000000
  eigenvalues    EBANDS =     -7306.30345236
  atomic energy  EATOM  =     51293.68401730
  Solvation  Ediel_sol  =         0.00000000
  ---------------------------------------------------
  free energy    TOTEN  =      -440.87438293 eV

  energy without entropy =     -440.87438293  energy(sigma->0) =     -440.87438293


--------------------------------------------------------------------------------------------------------




--------------------------------------- Iteration      1(  14)  ---------------------------------------


    POTLOK:  cpu time      0.0629: real time      0.0632
    SETDIJ:  cpu time      0.0051: real time      0.0050
     EDDAV:  cpu time      8.4765: real time      8.4818
       DOS:  cpu time      0.0004: real time      0.0006
    CHARGE:  cpu time      0.4403: real time      0.4403
    MIXING:  cpu time      0.0024: real time      0.0024
    --------------------------------------------
      LOOP:  cpu time      8.9875: real time      8.9933

 eigenvalue-minimisations  :  3648
 total energy-change (2. order) :-0.5716684E-03  (-0.9798155E-04)
 number of electron     672.0000451 magnetization 
 augmentation part      172.8890731 magnetization 

 Broyden mixing:
  rms(total) = 0.92475E-02    rms(broyden)= 0.92475E-02
  rms(prec ) = 0.92806E-02
  weight for this iteration     100.00

 eigenvalues of (default mixing * dielectric matrix)
  average eigenvalue GAMMA=   1.5446
  2.7049  2.7049  1.6151  1.6151  1.2189  1.2189  0.9190  0.9522  0.9522

 Free energy of the ion-electron system (eV)
  ---------------------------------------------------
  alpha Z        PSCENC =       919.94787761
  Ewald energy   TEWEN  =    -29312.97040075
  -Hartree energ DENC   =    -13831.23714787
  -exchange      EXHF   =         0.00000000
  -V(xc)+E(xc)   XCENC  =      1699.18083140
  PAW double counting   =     59530.47175361   -63434.23736134
  entropy T*S    EENTRO =        -0.00000000
  eigenvalues    EBANDS =     -7305.71452455
  atomic energy  EATOM  =     51293.68401730
  Solvation  Ediel_sol  =         0.00000000
  ---------------------------------------------------
  free energy    TOTEN  =      -440.87495460 eV

  energy without entropy =     -440.87495460  energy(sigma->0) =     -440.87495460


--------------------------------------------------------------------------------------------------------




--------------------------------------- Iteration      1(  15)  ---------------------------------------


[...]
   0.743E+01 0.202E+01 0.811E+01   -.756E+01 -.201E+01 -.817E+01   0.107E+00 0.502E-03 0.321E-01   -.838E-03 -.595E-03 0.134E-02
   -.743E+01 -.202E+01 0.811E+01   0.756E+01 0.201E+01 -.817E+01   -.107E+00 -.502E-03 0.321E-01   0.838E-03 0.595E-03 0.134E-02
   -.743E+01 0.202E+01 -.811E+01   0.756E+01 -.201E+01 0.817E+01   -.107E+00 0.502E-03 -.321E-01   0.838E-03 -.595E-03 -.134E-02
   0.743E+01 -.202E+01 -.811E+01   -.756E+01 0.201E+01 0.817E+01   0.107E+00 -.502E-03 -.321E-01   -.838E-03 0.595E-03 -.134E-02
   0.594E+01 -.926E+00 0.102E+02   -.586E+01 0.868E+00 -.103E+02   -.113E+00 0.602E-01 0.104E+00   0.253E-02 -.978E-03 -.168E-02
   -.594E+01 0.926E+00 0.102E+02   0.586E+01 -.868E+00 -.103E+02   0.113E+00 -.602E-01 0.104E+00   -.253E-02 0.978E-03 -.168E-02
   -.594E+01 -.926E+00 -.102E+02   0.586E+01 0.868E+00 0.103E+02   0.113E+00 0.602E-01 -.104E+00   -.253E-02 -.978E-03 0.168E-02
   0.594E+01 0.926E+00 -.102E+02   -.586E+01 -.868E+00 0.103E+02   -.113E+00 -.602E-01 -.104E+00   0.253E-02 0.978E-03 0.168E-02
   -.246E-01 0.344E+00 0.814E+01   0.165E+00 -.322E+00 -.825E+01   -.154E+00 -.253E-01 0.126E+00   0.808E-03 0.174E-03 0.452E-03
   0.246E-01 -.344E+00 0.814E+01   -.165E+00 0.322E+00 -.825E+01   0.154E+00 0.253E-01 0.126E+00   -.808E-03 -.174E-03 0.452E-03
   0.246E-01 0.344E+00 -.814E+01   -.165E+00 -.322E+00 0.825E+01   0.154E+00 -.253E-01 -.126E+00   -.808E-03 0.174E-03 -.452E-03
   -.246E-01 -.344E+00 -.814E+01   0.165E+00 0.322E+00 0.825E+01   -.154E+00 0.253E-01 -.126E+00   0.808E-03 -.174E-03 -.452E-03
   0.352E+02 0.538E+02 0.159E+02   -.362E+02 -.546E+02 -.167E+02   0.105E+01 0.756E+00 0.785E+00   0.168E-02 -.358E-02 -.148E-03
   -.352E+02 -.538E+02 0.159E+02   0.362E+02 0.546E+02 -.167E+02   -.105E+01 -.756E+00 0.785E+00   -.168E-02 0.358E-02 -.148E-03
   -.352E+02 0.538E+02 -.159E+02   0.362E+02 -.546E+02 0.167E+02   -.105E+01 0.756E+00 -.785E+00   -.168E-02 -.358E-02 0.148E-03
   0.352E+02 -.538E+02 -.159E+02   -.362E+02 0.546E+02 0.167E+02   0.105E+01 -.756E+00 -.785E+00   0.168E-02 0.358E-02 0.148E-03
   0.316E+02 0.556E+02 0.193E+02   -.326E+02 -.563E+02 -.201E+02   0.949E+00 0.746E+00 0.841E+00   0.810E-03 -.278E-02 0.286E-02
   -.316E+02 -.556E+02 0.193E+02   0.326E+02 0.563E+02 -.201E+02   -.949E+00 -.746E+00 0.841E+00   -.810E-03 0.278E-02 0.286E-02
   -.316E+02 0.556E+02 -.193E+02   0.326E+02 -.563E+02 0.201E+02   -.949E+00 0.746E+00 -.841E+00   -.810E-03 -.278E-02 -.286E-02
   0.316E+02 -.556E+02 -.193E+02   -.326E+02 0.563E+02 0.201E+02   0.949E+00 -.746E+00 -.841E+00   0.810E-03 0.278E-02 -.286E-02
   0.488E+02 0.485E+02 0.193E+02   -.498E+02 -.492E+02 -.201E+02   0.105E+01 0.689E+00 0.846E+00   -.152E-02 -.207E-02 -.116E-02
   -.488E+02 -.485E+02 0.193E+02   0.498E+02 0.492E+02 -.201E+02   -.105E+01 -.689E+00 0.846E+00   0.152E-02 0.207E-02 -.116E-02
   -.488E+02 0.485E+02 -.193E+02   0.498E+02 -.492E+02 0.201E+02   -.105E+01 0.689E+00 -.846E+00   0.152E-02 -.207E-02 0.116E-02
   0.488E+02 -.485E+02 -.193E+02   -.498E+02 0.492E+02 0.201E+02   0.105E+01 -.689E+00 -.846E+00   -.152E-02 0.207E-02 0.116E-02
   0.763E+02 -.745E+01 0.291E+02   -.777E+02 0.778E+01 -.296E+02   0.142E+01 -.332E+00 0.540E+00   0.456E-02 0.877E-03 0.650E-03
   -.763E+02 0.745E+01 0.291E+02   0.777E+02 -.778E+01 -.296E+02   -.142E+01 0.332E+00 0.540E+00   -.456E-02 -.877E-03 0.650E-03
   -.763E+02 -.745E+01 -.291E+02   0.777E+02 0.778E+01 0.296E+02   -.142E+01 -.332E+00 -.540E+00   -.456E-02 0.877E-03 -.650E-03
   0.763E+02 0.745E+01 -.291E+02   -.777E+02 -.778E+01 0.296E+02   0.142E+01 0.332E+00 -.540E+00   0.456E-02 -.877E-03 -.650E-03
   0.780E+02 -.330E+01 0.322E+02   -.793E+02 0.330E+01 -.328E+02   0.125E+01 -.815E-02 0.659E+00   0.614E-03 -.284E-02 -.637E-03
   -.780E+02 0.330E+01 0.322E+02   0.793E+02 -.330E+01 -.328E+02   -.125E+01 0.815E-02 0.659E+00   -.614E-03 0.284E-02 -.637E-03
   -.780E+02 -.330E+01 -.322E+02   0.793E+02 0.330E+01 0.328E+02   -.125E+01 -.815E-02 -.659E+00   -.614E-03 -.284E-02 0.637E-03
   0.780E+02 0.330E+01 -.322E+02   -.793E+02 -.330E+01 0.328E+02   0.125E+01 0.815E-02 -.659E+00   0.614E-03 0.284E-02 0.637E-03
   0.757E+02 0.649E+01 0.275E+02   -.771E+02 -.659E+01 -.281E+02   0.133E+01 0.889E-01 0.505E+00   0.280E-02 -.226E-02 -.225E-02
   -.757E+02 -.649E+01 0.275E+02   0.771E+02 0.659E+01 -.281E+02   -.133E+01 -.889E-01 0.505E+00   -.280E-02 0.226E-02 -.225E-02
   -.757E+02 0.649E+01 -.275E+02   0.771E+02 -.659E+01 0.281E+02   -.133E+01 0.889E-01 -.505E+00   -.280E-02 -.226E-02 0.225E-02
   0.757E+02 -.649E+01 -.275E+02   -.771E+02 0.659E+01 0.281E+02   0.133E+01 -.889E-01 -.505E+00   0.280E-02 0.226E-02 0.225E-02
   -.307E+02 0.579E+02 0.150E+02   0.316E+02 -.587E+02 -.158E+02   -.939E+00 0.832E+00 0.725E+00   -.546E-04 0.786E-04 -.193E-02
   0.307E+02 -.579E+02 0.150E+02   -.316E+02 0.587E+02 -.158E+02   0.939E+00 -.832E+00 0.725E+00   0.546E-04 -.786E-04 -.193E-02
   0.307E+02 0.579E+02 -.150E+02   -.316E+02 -.587E+02 0.158E+02   0.939E+00 0.832E+00 -.725E+00   0.546E-04 0.786E-04 0.193E-02
   -.307E+02 -.579E+02 -.150E+02   0.316E+02 0.587E+02 0.158E+02   -.939E+00 -.832E+00 -.725E+00   -.546E-04 -.786E-04 0.193E-02
   -.444E+02 0.543E+02 0.162E+02   0.453E+02 -.551E+02 -.170E+02   -.911E+00 0.803E+00 0.826E+00   -.644E-03 -.262E-02 -.425E-03
   0.444E+02 -.543E+02 0.162E+02   -.453E+02 0.551E+02 -.170E+02   0.911E+00 -.803E+00 0.826E+00   0.644E-03 0.262E-02 -.425E-03
   0.444E+02 0.543E+02 -.162E+02   -.453E+02 -.551E+02 0.170E+02   0.911E+00 0.803E+00 -.826E+00   0.644E-03 -.262E-02 0.425E-03
   -.444E+02 -.543E+02 -.162E+02   0.453E+02 0.551E+02 0.170E+02   -.911E+00 -.803E+00 -.826E+00   -.644E-03 0.262E-02 0.425E-03
   -.452E+02 0.529E+02 0.173E+02   0.462E+02 -.537E+02 -.180E+02   -.941E+00 0.754E+00 0.734E+00   0.422E-02 0.216E-03 -.377E-02
   0.452E+02 -.529E+02 0.173E+02   -.462E+02 0.537E+02 -.180E+02   0.941E+00 -.754E+00 0.734E+00   -.422E-02 -.216E-03 -.377E-02
   0.452E+02 0.529E+02 -.173E+02   -.462E+02 -.537E+02 0.180E+02   0.941E+00 0.754E+00 -.734E+00   -.422E-02 0.216E-03 0.377E-02
   -.452E+02 -.529E+02 -.173E+02   0.462E+02 0.537E+02 0.180E+02   -.941E+00 -.754E+00 -.734E+00   0.422E-02 -.216E-03 0.377E-02
   0.296E+02 0.473E+01 0.490E+02   -.304E+02 -.472E+01 -.506E+02   0.856E+00 -.734E-02 0.156E+01   -.409E-02 -.255E-02 -.414E-02
   -.296E+02 -.473E+01 0.490E+02   0.304E+02 0.472E+01 -.506E+02   -.856E+00 0.734E-02 0.156E+01   0.409E-02 0.255E-02 -.414E-02
   -.296E+02 0.473E+01 -.490E+02   0.304E+02 -.472E+01 0.506E+02   -.856E+00 -.734E-02 -.156E+01   0.409E-02 -.255E-02 0.414E-02
   0.296E+02 -.473E+01 -.490E+02   -.304E+02 0.472E+01 0.506E+02   0.856E+00 0.734E-02 -.156E+01   -.409E-02 0.255E-02 0.414E-02
   0.263E+02 -.683E+01 0.489E+02   -.272E+02 0.697E+01 -.504E+02   0.892E+00 -.172E+00 0.157E+01   0.399E-02 -.164E-02 0.365E-02
   -.263E+02 0.683E+01 0.489E+02   0.272E+02 -.697E+01 -.504E+02   -.892E+00 0.172E+00 0.157E+01   -.399E-02 0.164E-02 0.365E-02
   -.263E+02 -.683E+01 -.489E+02   0.272E+02 0.697E+01 0.504E+02   -.892E+00 -.172E+00 -.157E+01   -.399E-02 -.164E-02 -.365E-02
   0.263E+02 0.683E+01 -.489E+02   -.272E+02 -.697E+01 0.504E+02   0.892E+00 0.172E+00 -.157E+01   0.399E-02 0.164E-02 -.365E-02
   0.189E+02 -.199E+01 0.508E+02   -.197E+02 0.219E+01 -.523E+02   0.780E+00 -.207E+00 0.154E+01   -.231E-02 -.418E-02 -.421E-03
   -.189E+02 0.199E+01 0.508E+02   0.197E+02 -.219E+01 -.523E+02   -.780E+00 0.207E+00 0.154E+01   0.231E-02 0.418E-02 -.421E-03
   -.189E+02 -.199E+01 -.508E+02   0.197E+02 0.219E+01 0.523E+02   -.780E+00 -.207E+00 -.154E+01   0.231E-02 -.418E-02 0.421E-03
   0.189E+02 0.199E+01 -.508E+02   -.197E+02 -.219E+01 0.523E+02   0.780E+00 0.207E+00 -.154E+01   -.231E-02 0.418E-02 0.421E-03
 -----------------------------------------------------------------------------------------------
   -.112E-04 0.283E-04 0.465E-08   -.107E-12 -.542E-13 -.639E-13   -.444E-15 -.361E-15 0.200E-14   0.109E-10 0.311E-11 -.880E-11


 POSITION                                       TOTAL-FORCE (eV/Angst)
 -----------------------------------------------------------------------------------
     10.09314      0.47653      2.70759         0.000176     -0.011356     -0.008741
     10.66393      8.31976      6.16767        -0.000176      0.011356     -0.008741
     31.42100      4.87467      0.75250        -0.000176     -0.011356      0.008741
     30.85021      3.92161      4.21258         0.000176      0.011356      0.008741
     23.95475      0.49981      2.69583        -0.001574     -0.000667      0.011568
     38.31646      8.29647      6.15592         0.001574      0.000667      0.011568
     17.55939      4.89795      0.76425         0.001574     -0.000667     -0.011568
      3.19768      3.89833      4.22433        -0.001574      0.000667     -0.011568
     37.64472      0.44123      2.78456         0.028189      0.001347     -0.015948
     24.62648      8.35505      6.24464        -0.028189     -0.001347     -0.015948
      3.86941      4.83938      0.67552        -0.028189      0.001347      0.015948
     16.88765      3.95691      4.13561         0.028189     -0.001347      0.015948
     10.11019      3.92553      2.68104        -0.008336      0.003509      0.005811
     10.64688      4.87076      6.14112         0.008336     -0.003509      0.005811
     31.40395      8.32367      0.77905         0.008336      0.003509     -0.005811
     30.86726      0.47261      4.23913        -0.008336     -0.003509     -0.005811
     23.92773      3.94266      2.70035        -0.026078      0.001490      0.005898
     38.34348      4.85362      6.16044         0.026078     -0.001490      0.005898
     17.58641      8.34081      0.75973         0.026078      0.001490     -0.005898
      3.17066      0.45548      4.21982        -0.026078     -0.001490     -0.005898
     37.85176      3.91266      2.69235         0.011933     -0.007863     -0.000415
     24.41944      4.88363      6.15243        -0.011933      0.007863     -0.000415
      3.66237      8.31080      0.76774        -0.011933     -0.007863      0.000415
     17.09469      0.48549      4.22782         0.011933      0.007863      0.000415
      6.25814      2.15777      1.62065        -0.005348      0.009347     -0.000593
     14.49893      6.63851      5.08073         0.005348     -0.009347     -0.000593
     35.25600      6.55592      1.83944         0.005348      0.009347      0.000593
     27.01520      2.24037      5.29952        -0.005348     -0.009347      0.000593
     20.13929      2.10274      1.69083         0.004824      0.028683     -0.010107
      0.61778      6.69354      5.15091        -0.004824     -0.028683     -0.010107
     21.37485      6.50088      1.76926        -0.004824      0.028683      0.010107
     40.89636      2.29540      5.22934         0.004824     -0.028683      0.010107
     33.96479      2.19164      1.68256         0.002799      0.001219      0.011755
     28.30641      6.60465      5.14265        -0.002799     -0.001219      0.011755
      7.54934      6.58978      1.77752        -0.002799      0.001219     -0.011755
     13.20772      2.20650      5.23761         0.002799     -0.001219     -0.011755
     41.21529      0.28780      1.61018        -0.002358     -0.017463      0.007864
     21.05591      8.50848      5.07027         0.002358      0.017463      0.007864
      0.29884      4.68595      1.84990         0.002358     -0.017463     -0.007864
     20.45823      4.11034      5.30999        -0.002358      0.017463     -0.007864
     13.82693     -0.00755      1.69013         0.008628     -0.014726      0.028582
      6.93014      0.00755      5.15021        -0.008628      0.014726      0.028582
     27.68720      4.39059      1.76996        -0.008628     -0.014726     -0.028582
     34.58400      4.40569      5.23004         0.008628      0.014726     -0.028582
     27.84761      8.69213      1.81332        -0.017699     -0.003356     -0.003194
     34.42359      0.10415      5.27340         0.017699      0.003356     -0.003194
     13.66653      4.29399      1.64676         0.017699     -0.003356      0.003194
      7.09054      4.50230      5.10685        -0.017699      0.003356      0.003194
      9.19951      2.20519      6.71740        -0.018786      0.000683     -0.022321
     11.55756      6.59109      3.25732         0.018786     -0.000683     -0.022321
     32.31463      6.60333      3.66285         0.018786      0.000683      0.022321
     29.95658      2.19295      0.20277        -0.018786     -0.000683      0.022321
     23.00521      2.17945      6.70331        -0.022063      0.001334      0.023249
     39.26600      6.61684      3.24323         0.022063     -0.001334      0.023249
     18.50893      6.57759      3.67694         0.022063      0.001334     -0.023249
      2.24814      2.21869      0.21685        -0.022063     -0.001334     -0.023249
     36.85038      2.18094      6.72671        -0.013015     -0.002573      0.013953
     25.42082      6.61535      3.26662         0.013015      0.002573      0.013953
      4.66375      6.57908      3.65354         0.013015     -0.002573     -0.013953
     16.09332      2.21721      0.19346        -0.013015      0.002573     -0.013953
      1.29582      0.48032      6.31342         0.022869      0.023937     -0.006551
     19.46125      8.31596      2.85334        -0.022869     -0.023937     -0.006551
     40.21832      4.87846      4.06683        -0.022869      0.023937      0.006551
     22.05289      3.91782      0.60675         0.022869     -0.023937      0.006551
     15.18808      0.46009      6.27754         0.019447     -0.006257     -0.006093
      5.56899      8.33620      2.81746        -0.019447      0.006257     -0.006093
     26.32606      4.85823      4.10271        -0.019447     -0.006257      0.006093
     35.94515      3.93805      0.64263         0.019447      0.006257      0.006093
     29.01722      0.44534      6.31921         0.006203     -0.009224      0.006067
     33.25399      8.35094      2.85913        -0.006203      0.009224      0.006067
     12.49692      4.84349      4.06104        -0.006203     -0.009224     -0.006067
      8.26015      3.95280      0.60096         0.006203      0.009224     -0.006067
      2.59951      6.57640      3.04750         0.029229     -0.003906     -0.009204
     18.15756      2.21989      6.50758        -0.029229      0.003906     -0.009204
     38.91463      2.17826      0.41259        -0.029229     -0.003906      0.009204
     23.35657      6.61803      3.87267         0.029229      0.003906      0.009204
     16.45831      6.63248      3.01614        -0.028896     -0.008141      0.012489
      4.29876      2.16381      6.47622         0.028896      0.008141      0.012489
     25.05583      2.23433      0.44395         0.028896     -0.008141     -0.012489
     37.21538      6.56195      3.90403        -0.028896      0.008141     -0.012489
     30.25442      6.61801      3.02194        -0.018898     -0.011858     -0.023915
     32.01679      2.17827      6.48203         0.018898      0.011858     -0.023915
     11.25972      2.21987      0.43814         0.018898     -0.011858      0.023915
      9.49735      6.57642      3.89823        -0.018898      0.011858      0.023915
      5.57974      4.80746      2.86281         0.006342      0.019989     -0.000458
     15.17733      3.98883      6.32290        -0.006342     -0.019989     -0.000458
     35.93440      0.40931      0.59727        -0.006342      0.019989      0.000458
     26.33681      8.38697      4.05736         0.006342     -0.019989      0.000458
     19.36776      4.78124      2.88428         0.005997      0.010457      0.014410
      1.38930      4.01504      6.34436        -0.005997     -0.010457      0.014410
     22.14637      0.38310      0.57581        -0.005997      0.010457     -0.014410
     40.12483      8.41319      4.03589         0.005997     -0.010457     -0.014410
     33.21775      4.83060      2.87650         0.021865     -0.016590     -0.004863
     29.05346      3.96568      6.33659        -0.021865      0.016590     -0.004863
      8.29639      0.43246      0.58358        -0.021865     -0.016590      0.004863
     12.46068      8.36383      4.04367         0.021865      0.016590      0.004863
      8.90711      2.21148      4.59354         0.000037      0.001249      0.005432
     11.84996      6.58480      1.13345        -0.000037     -0.001249      0.005432
     32.60703      6.60962      5.78672        -0.000037      0.001249     -0.005432
     29.66418      2.18666      2.32663         0.000037     -0.001249     -0.005432
     22.69173      2.20519      4.58486         0.014797     -0.032528      0.001436
     39.57948      6.59109      1.12478        -0.014797      0.032528      0.001436
     18.82241      6.60334      5.79539        -0.014797     -0.032528     -0.001436
      1.93466      2.19295      2.33531         0.014797      0.032528     -0.001436
     36.50470      2.23878      4.61146        -0.016434     -0.017682     -0.001337
     25.76650      6.55751      1.15138         0.016434      0.017682     -0.001337
      5.00943      6.63692      5.76879         0.016434     -0.017682      0.001337
     15.74764      2.15936      2.30871        -0.016434      0.017682      0.001337
 -----------------------------------------------------------------------------------
    total drift:                               -0.000011      0.000028      0.000000


--------------------------------------------------------------------------------------------------------



  FREE ENERGIE OF THE ION-ELECTRON SYSTEM (eV)
  ---------------------------------------------------
  free  energy   TOTEN  =      -443.64723484 eV

  energy  without entropy=     -443.64723484  energy(sigma->0) =     -443.64723484

 d Force = 0.7198617E-02[ 0.461E-02, 0.979E-02]  d Energy = 0.7434633E-02-0.236E-03
 d Force =-0.2304198E+00[-0.273E+00,-0.188E+00]  d Ewald  = 0.2911009E+01-0.314E+01


--------------------------------------------------------------------------------------------------------


    POTLOK:  cpu time      0.0710: real time      0.1151


--------------------------------------------------------------------------------------------------------


 Conjugate gradient step on ions:
 trial-energy change:   -0.007435  1 .order   -0.007361   -0.009991   -0.004731
  (g-gl).g = 0.587E-02      g.g   = 0.585E-02  gl.gl    = 0.115E-01
 g(Force)  = 0.564E-02   g(Stress)= 0.216E-03 ortho     = 0.126E-03
 gamma     =   0.50849
 trial     =   1.68804
 opt step  =   3.00879  (harmonic =   3.20646) maximal distance =0.01155065
 next E    =  -443.649121   (d E  =  -0.00932)


--------------------------------------------------------------------------------------------------------


  
 reached required accuracy - stopping structural energy minimisation
     LOOP+:  cpu time     73.0685: real time     73.2516
    4ORBIT:  cpu time      0.0000: real time      0.0000

 total amount of memory used by VASP MPI-rank0   105982. kBytes
=======================================================================

   base      :      30000. kBytes
   nonlr-proj:      11568. kBytes
   fftplans  :       4800. kBytes
   grid      :      20998. kBytes
   one-center:        331. kBytes
   wavefun   :      38285. kBytes

  
  
 General timing and accounting informations for this job:
 ========================================================
  
                  Total CPU time used (sec):     1909.125
                            User time (sec):     1853.672
                          System time (sec):       55.454
                         Elapsed time (sec):     1912.771
  
                   Maximum memory used (kb):      221024.
                   Average memory used (kb):          N/A
  
                          Minor page faults:      2546934
                          Major page faults:          115
                 Voluntary context switches:         1391
