  30  30   0   0
  0.2217837E+02  0.6835449E-09  0.6835450E-09  0.1490206E-08  0.5000000E-15
   1.0000000000000000E-004
  CAR 
 unknown system                          
     10.69405816    -22.86884611  301      1.64605855      1.00000000
    -22.869  0.0000E+00  0.0000E+00
    -22.757  0.0000E+00  0.0000E+00
    -22.645  0.0000E+00  0.0000E+00
    -22.533  0.0000E+00  0.0000E+00
    -22.421  0.0000E+00  0.0000E+00
    -22.309  0.0000E+00  0.0000E+00
    -22.198  0.0000E+00  0.0000E+00
    -22.086  0.0000E+00  0.0000E+00
    -21.974  0.0000E+00  0.0000E+00
    -21.862  0.0000E+00  0.0000E+00
    -21.750  0.0000E+00  0.0000E+00
    -21.638  0.3969E-16  0.4441E-17
    -21.526  0.7929E-07  0.8870E-08
    -21.414  0.1671E-01  0.1870E-02
    -21.303  0.1238E+01  0.1404E+00
    -21.191  0.8872E+00  0.2397E+00
    -21.079  0.7174E-01  0.2477E+00
    -20.967  0.1337E+01  0.3973E+00
    -20.855  0.2674E+01  0.6965E+00
    -20.743  0.2102E+00  0.7200E+00
    -20.631  0.1691E-04  0.7200E+00
    -20.519  0.1356E-12  0.7200E+00
    -20.408  0.0000E+00  0.7200E+00
    -20.296  0.0000E+00  0.7200E+00
    -20.184  0.0000E+00  0.7200E+00
    -20.072  0.0000E+00  0.7200E+00
    -19.960  0.0000E+00  0.7200E+00
    -19.848  0.0000E+00  0.7200E+00
    -19.736  0.0000E+00  0.7200E+00
    -19.624  0.0000E+00  0.7200E+00
    -19.513  0.0000E+00  0.7200E+00
    -19.401  0.0000E+00  0.7200E+00
    -19.289  0.0000E+00  0.7200E+00
    -19.177  0.0000E+00  0.7200E+00
    -19.065  0.0000E+00  0.7200E+00
    -18.953  0.0000E+00  0.7200E+00
    -18.841  0.0000E+00  0.7200E+00
    -18.729  0.0000E+00  0.7200E+00
    -18.618  0.0000E+00  0.7200E+00
    -18.506  0.0000E+00  0.7200E+00
    -18.394  0.0000E+00  0.7200E+00
    -18.282  0.0000E+00  0.7200E+00
    -18.170  0.0000E+00  0.7200E+00
    -18.058  0.0000E+00  0.7200E+00
    -17.946  0.0000E+00  0.7200E+00
    -17.834  0.0000E+00  0.7200E+00
    -17.723  0.0000E+00  0.7200E+00
    -17.611  0.0000E+00  0.7200E+00
    -17.499  0.0000E+00  0.7200E+00
    -17.387  0.0000E+00  0.7200E+00
    -17.275  0.0000E+00  0.7200E+00
    -17.163  0.0000E+00  0.7200E+00
    -17.051  0.0000E+00  0.7200E+00
    -16.939  0.0000E+00  0.7200E+00
    -16.828  0.0000E+00  0.7200E+00
    -16.716  0.0000E+00  0.7200E+00
    -16.604  0.0000E+00  0.7200E+00
    -16.492  0.0000E+00  0.7200E+00
    -16.380  0.0000E+00  0.7200E+00
    -16.268  0.0000E+00  0.7200E+00
    -16.156  0.0000E+00  0.7200E+00
    -16.044  0.0000E+00  0.7200E+00
    -15.933  0.0000E+00  0.7200E+00
    -15.821  0.0000E+00  0.7200E+00
    -15.709  0.0000E+00  0.7200E+00
    -15.597  0.0000E+00  0.7200E+00
    -15.485  0.0000E+00  0.7200E+00
    -15.373  0.0000E+00  0.7200E+00
    -15.261  0.0000E+00  0.7200E+00
    -15.149  0.0000E+00  0.7200E+00
    -15.038  0.0000E+00  0.7200E+00
    -14.926  0.0000E+00  0.7200E+00
    -14.814  0.0000E+00  0.7200E+00
    -14.702  0.0000E+00  0.7200E+00
    -14.590  0.0000E+00  0.7200E+00
    -14.478  0.0000E+00  0.7200E+00
    -14.366  0.0000E+00  0.7200E+00
    -14.254  0.0000E+00  0.7200E+00
    -14.142  0.0000E+00  0.7200E+00
    -14.031  0.0000E+00  0.7200E+00
    -13.919  0.0000E+00  0.7200E+00
    -13.807  0.0000E+00  0.7200E+00
    -13.695  0.0000E+00  0.7200E+00
    -13.583  0.0000E+00  0.7200E+00
    -13.471  0.0000E+00  0.7200E+00
    -13.359  0.0000E+00  0.7200E+00
    -13.247  0.0000E+00  0.7200E+00
    -13.136  0.0000E+00  0.7200E+00
    -13.024  0.0000E+00  0.7200E+00
    -12.912  0.0000E+00  0.7200E+00
    -12.800  0.0000E+00  0.7200E+00
    -12.688  0.0000E+00  0.7200E+00
    -12.576  0.0000E+00  0.7200E+00
    -12.464  0.0000E+00  0.7200E+00
    -12.352  0.0000E+00  0.7200E+00
    -12.241  0.0000E+00  0.7200E+00
    -12.129  0.0000E+00  0.7200E+00
    -12.017  0.0000E+00  0.7200E+00
    -11.905  0.1288E-14  0.7200E+00
    -11.793  0.2227E-06  0.7200E+00
    -11.681  0.4083E-02  0.7205E+00
    -11.569  0.2084E+00  0.7438E+00
    -11.457  0.1447E+00  0.7600E+00
    -11.346  0.2824E-03  0.7600E+00
    -11.234  0.8899E-10  0.7600E+00
    -11.122  0.3374E-08  0.7600E+00
    -11.010  0.5775E-03  0.7601E+00
    -10.898  0.7305E-01  0.7682E+00
    -10.786  0.2541E+00  0.7967E+00
    -10.674  0.2982E-01  0.8000E+00
    -10.562  0.1434E-04  0.8000E+00
    -10.451  0.1271E-11  0.8000E+00
    -10.339  0.2837E-14  0.8000E+00
    -10.227  0.5493E-06  0.8000E+00
    -10.115  0.9985E-02  0.8011E+00
    -10.003  0.2510E+00  0.8292E+00
     -9.891  0.9640E-01  0.8400E+00
     -9.779  0.2067E-02  0.8402E+00
     -9.667  0.2841E+00  0.8720E+00
     -9.556  0.8528E+00  0.9674E+00
     -9.444  0.2902E+00  0.9999E+00
     -9.332  0.1111E-02  0.1000E+01
     -9.220  0.9733E-09  0.1000E+01
     -9.108  0.0000E+00  0.1000E+01
     -8.996  0.0000E+00  0.1000E+01
     -8.884  0.0000E+00  0.1000E+01
     -8.772  0.0000E+00  0.1000E+01
     -8.661  0.0000E+00  0.1000E+01
     -8.549  0.0000E+00  0.1000E+01
     -8.437  0.0000E+00  0.1000E+01
     -8.325  0.0000E+00  0.1000E+01
     -8.213  0.0000E+00  0.1000E+01
     -8.101  0.0000E+00  0.1000E+01
     -7.989  0.0000E+00  0.1000E+01
     -7.877  0.0000E+00  0.1000E+01
     -7.766  0.0000E+00  0.1000E+01
     -7.654  0.0000E+00  0.1000E+01
     -7.542  0.0000E+00  0.1000E+01
     -7.430  0.0000E+00  0.1000E+01
     -7.318  0.0000E+00  0.1000E+01
     -7.206  0.0000E+00  0.1000E+01
     -7.094  0.0000E+00  0.1000E+01
     -6.982  0.0000E+00  0.1000E+01
     -6.871  0.0000E+00  0.1000E+01
     -6.759  0.0000E+00  0.1000E+01
     -6.647  0.0000E+00  0.1000E+01
     -6.535  0.0000E+00  0.1000E+01
     -6.423  0.0000E+00  0.1000E+01
     -6.311  0.0000E+00  0.1000E+01
     -6.199  0.0000E+00  0.1000E+01
     -6.087  0.0000E+00  0.1000E+01
     -5.976  0.0000E+00  0.1000E+01
     -5.864  0.0000E+00  0.1000E+01
     -5.752  0.0000E+00  0.1000E+01
     -5.640  0.0000E+00  0.1000E+01
     -5.528  0.0000E+00  0.1000E+01
     -5.416  0.0000E+00  0.1000E+01
     -5.304  0.1391E-13  0.1000E+01
     -5.192  0.9799E-06  0.1000E+01
     -5.081  0.1196E-01  0.1001E+01
     -4.969  0.2295E+00  0.1027E+01
     -4.857  0.1135E+00  0.1040E+01
     -4.745  0.2630E-02  0.1040E+01
     -4.633  0.7130E-07  0.1040E+01
     -4.521  0.2643E-12  0.1040E+01
     -4.409  0.4622E-05  0.1040E+01
     -4.297  0.7317E-02  0.1041E+01
     -4.185  0.1441E-01  0.1042E+01
     -4.074  0.6319E-01  0.1050E+01
     -3.962  0.1609E+00  0.1068E+01
     -3.850  0.1051E+00  0.1079E+01
     -3.738  0.6584E-02  0.1080E+01
     -3.626  0.5622E-06  0.1080E+01
     -3.514  0.3894E-14  0.1080E+01
     -3.402  0.0000E+00  0.1080E+01
     -3.290  0.0000E+00  0.1080E+01
     -3.179  0.0000E+00  0.1080E+01
     -3.067  0.0000E+00  0.1080E+01
     -2.955  0.0000E+00  0.1080E+01
     -2.843  0.0000E+00  0.1080E+01
     -2.731  0.2056E-12  0.1080E+01
     -2.619  0.8697E-05  0.1080E+01
     -2.507  0.3532E-01  0.1084E+01
     -2.395  0.2313E+00  0.1110E+01
     -2.284  0.6329E-01  0.1117E+01
     -2.172  0.2872E-01  0.1120E+01
     -2.060  0.9528E-01  0.1131E+01
     -1.948  0.2787E+00  0.1162E+01
     -1.836  0.1950E+00  0.1184E+01
     -1.724  0.1583E+00  0.1201E+01
     -1.612  0.1338E+00  0.1216E+01
     -1.500  0.1536E+00  0.1234E+01
     -1.389  0.2035E+00  0.1256E+01
     -1.277  0.1321E+00  0.1271E+01
     -1.165  0.1084E+00  0.1283E+01
     -1.053  0.1747E+00  0.1303E+01
     -0.941  0.1485E+00  0.1319E+01
     -0.829  0.4723E-02  0.1320E+01
     -0.717  0.1266E-02  0.1320E+01
     -0.605  0.5421E-01  0.1326E+01
     -0.494  0.1718E+00  0.1345E+01
     -0.382  0.9747E-01  0.1356E+01
     -0.270  0.2220E+00  0.1381E+01
     -0.158  0.2458E+00  0.1409E+01
     -0.046  0.2460E+00  0.1436E+01
      0.066  0.2234E+00  0.1461E+01
      0.178  0.1880E+00  0.1482E+01
      0.290  0.2804E+00  0.1514E+01
      0.401  0.2306E+00  0.1539E+01
      0.513  0.2324E+00  0.1565E+01
      0.625  0.2335E+00  0.1592E+01
      0.737  0.3164E+00  0.1627E+01
      0.849  0.3837E+00  0.1670E+01
      0.961  0.3238E+00  0.1706E+01
      1.073  0.3393E+00  0.1744E+01
      1.185  0.3480E+00  0.1783E+01
      1.296  0.3255E+00  0.1819E+01
      1.408  0.1732E+00  0.1839E+01
      1.520  0.1123E-01  0.1840E+01
      1.632  0.2982E-05  0.1840E+01
      1.744  0.6983E-13  0.1840E+01
      1.856  0.0000E+00  0.1840E+01
      1.968  0.0000E+00  0.1840E+01
      2.080  0.0000E+00  0.1840E+01
      2.191  0.0000E+00  0.1840E+01
      2.303  0.0000E+00  0.1840E+01
      2.415  0.0000E+00  0.1840E+01
      2.527  0.0000E+00  0.1840E+01
      2.639  0.0000E+00  0.1840E+01
      2.751  0.0000E+00  0.1840E+01
      2.863  0.0000E+00  0.1840E+01
      2.975  0.0000E+00  0.1840E+01
      3.086  0.0000E+00  0.1840E+01
      3.198  0.0000E+00  0.1840E+01
      3.310  0.0000E+00  0.1840E+01
      3.422  0.0000E+00  0.1840E+01
      3.534  0.0000E+00  0.1840E+01
      3.646  0.0000E+00  0.1840E+01
      3.758  0.0000E+00  0.1840E+01
      3.870  0.0000E+00  0.1840E+01
      3.981  0.0000E+00  0.1840E+01
      4.093  0.0000E+00  0.1840E+01
      4.205  0.4691E-13  0.1840E+01
      4.317  0.1761E-05  0.1840E+01
      4.429  0.5546E-02  0.1841E+01
      4.541  0.1422E-01  0.1842E+01
      4.653  0.9830E-04  0.1842E+01
      4.765  0.8509E-08  0.1842E+01
      4.876  0.1158E-02  0.1842E+01
      4.988  0.3970E-01  0.1847E+01
      5.100  0.8535E-01  0.1856E+01
      5.212  0.1719E+00  0.1876E+01
      5.324  0.1440E+00  0.1892E+01
      5.436  0.1013E+00  0.1903E+01
      5.548  0.9850E-01  0.1914E+01
      5.660  0.1003E+00  0.1925E+01
      5.771  0.1730E+00  0.1945E+01
      5.883  0.1771E+00  0.1964E+01
      5.995  0.1458E+00  0.1981E+01
      6.107  0.1049E+00  0.1992E+01
      6.219  0.2409E+00  0.2019E+01
      6.331  0.2179E+00  0.2044E+01
      6.443  0.1040E+00  0.2055E+01
      6.555  0.2165E+00  0.2080E+01
      6.667  0.1769E+00  0.2099E+01
      6.778  0.1774E+00  0.2119E+01
      6.890  0.1997E+00  0.2142E+01
      7.002  0.1391E+00  0.2157E+01
      7.114  0.1999E+00  0.2180E+01
      7.226  0.2425E+00  0.2207E+01
      7.338  0.9199E-01  0.2217E+01
      7.450  0.1633E+00  0.2235E+01
      7.562  0.8601E-01  0.2245E+01
      7.673  0.1450E+00  0.2261E+01
      7.785  0.1515E+00  0.2278E+01
      7.897  0.8129E-01  0.2287E+01
      8.009  0.1657E+00  0.2306E+01
      8.121  0.2087E+00  0.2329E+01
      8.233  0.2199E+00  0.2354E+01
      8.345  0.1780E+00  0.2374E+01
      8.457  0.1786E+00  0.2394E+01
      8.568  0.1853E+00  0.2414E+01
      8.680  0.1627E+00  0.2432E+01
      8.792  0.2429E+00  0.2460E+01
      8.904  0.2447E+00  0.2487E+01
      9.016  0.3024E+00  0.2521E+01
      9.128  0.2237E+00  0.2546E+01
      9.240  0.1244E+00  0.2560E+01
      9.352  0.1785E-02  0.2560E+01
      9.463  0.8911E-08  0.2560E+01
      9.575  0.0000E+00  0.2560E+01
      9.687  0.0000E+00  0.2560E+01
      9.799  0.0000E+00  0.2560E+01
      9.911  0.0000E+00  0.2560E+01
     10.023  0.0000E+00  0.2560E+01
     10.135  0.0000E+00  0.2560E+01
     10.247  0.0000E+00  0.2560E+01
     10.358  0.0000E+00  0.2560E+01
     10.470  0.0000E+00  0.2560E+01
     10.582  0.0000E+00  0.2560E+01
     10.694  0.0000E+00  0.2560E+01
