 vasp.6.3.2 27Jun22 (build Jun 14 2024 17:29:11) complex                         
 executed on             LinuxGNU date 2026.03.29  20:41:42
 running on   32 total cores
 distrk:  each k-point on   32 cores,    1 groups
 distr:  one band on NCORE=   1 cores,   32 groups


--------------------------------------------------------------------------------------------------------


 INCAR:
   EDIFF = 1e-05
   EDIFFG = -0.05
   ENCUT = 400.0
   IBRION = 2
   ISIF = 3
   ISMEAR = 0
   LCHARG = False
   LREAL = Auto
   LWAVE = False
   NSW = 100
   SIGMA = 0.05

 POTCAR:    PAW_PBE Na_pv 19Sep2006               
 POTCAR:    PAW_PBE Si 05Jan2001                  
 POTCAR:    PAW_PBE S 06Sep2000                   
 -----------------------------------------------------------------------------
|                                                                             |
|           W    W    AA    RRRRR   N    N  II  N    N   GGGG   !!!           |
|           W    W   A  A   R    R  NN   N  II  NN   N  G    G  !!!           |
|           W    W  A    A  R    R  N N  N  II  N N  N  G       !!!           |
|           W WW W  AAAAAA  RRRRR   N  N N  II  N  N N  G  GGG   !            |
|           WW  WW  A    A  R   R   N   NN  II  N   NN  G    G                |
|           W    W  A    A  R    R  N    N  II  N    N   GGGG   !!!           |
|                                                                             |
|     For optimal performance we recommend to set                             |
|       NCORE = 2 up to number-of-cores-per-socket                            |
|     NCORE specifies how many cores store one orbital (NPAR=cpu/NCORE).      |
|     This setting can greatly improve the performance of VASP for DFT.       |
|     The default, NCORE=1 might be grossly inefficient on modern             |
|     multi-core architectures or massively parallel machines. Do your        |
|     own testing! More info at https://www.vasp.at/wiki/index.php/NCORE      |
|     Unfortunately you need to use the default for GW and RPA                |
|     calculations (for HF NCORE is supported but not extensively tested      |
|     yet).                                                                   |
|                                                                             |
 -----------------------------------------------------------------------------

 POTCAR:    PAW_PBE Na_pv 19Sep2006               
   SHA256 =  6a2f546d9e11350984debacf3dc457d8cffc0868e817d445faca461816a32b94 Na_pv/POTCAR          
   COPYR  = (c) Copyright 19Sep2006 Georg Kresse                                                    
   COPYR  = This file is part of the software VASP. Any use, copying, and all other rights are regul
   COPYR  = If you do not have a valid VASP license, you may not use, copy or distribute this file. 
   VRHFIN =Na: p6s1                                                                                 
   LEXCH  = PE                                                                                      
   EATOM  =   766.0439 eV,   56.3026 Ry                                                             
                                                                                                    
   TITEL  = PAW_PBE Na_pv 19Sep2006                                                                 
   LULTRA =        F    use ultrasoft PP ?                                                          
   IUNSCR =        1    unscreen: 0-lin 1-nonlin 2-no                                               
   RPACOR =    1.800    partial core radius                                                         
   POMASS =   22.990; ZVAL   =    7.000    mass and valenz                                          
   RCORE  =    2.200    outmost cutoff radius                                                       
   RWIGS  =    2.200; RWIGS  =    1.164    wigner-seitz radius (au A)                               
   ENMAX  =  259.561; ENMIN  =  194.671 eV                                                          
   ICORE  =        2    local potential                                                             
   LCOR   =        T    correct aug charges                                                         
   LPAW   =        T    paw PP                                                                      
   EAUG   =  368.056                                                                                
   DEXC   =    0.000                                                                                
   RMAX   =    2.245    core radius for proj-oper                                                   
   RAUG   =    1.300    factor for augmentation sphere                                              
   RDEP   =    2.259    radius for radial grids                                                     
   RDEPT  =    1.738    core radius for aug-charge                                                  
                                                                                                    
   Atomic configuration                                                                             
    5 entries                                                                                       
     n  l   j            E        occ.                                                              
     1  0  0.50     -1033.6933   2.0000                                                             
     2  0  0.50       -56.7526   2.0000                                                             
     2  1  1.50       -28.6721   6.0000                                                             
     3  0  0.50        -2.7440   1.0000                                                             
     3  2  1.50        -1.3606   0.0000                                                             
   Description                                                                                      
     l       E           TYP  RCUT    TYP  RCUT                                                     
     1    -28.6720912     23  2.000                                                                 
     1      6.8029130     23  2.000                                                                 
     0     -2.7439560     23  2.200                                                                 
     0     34.0145650     23  2.200                                                                 
     2     -1.3605826     23  2.200                                                                 
  local pseudopotential read in
  partial core-charges read in
  partial kinetic energy density read in
  atomic valenz-charges read in
  non local Contribution for L=           1  read in
    real space projection operators read in
  non local Contribution for L=           1  read in
    real space projection operators read in
  non local Contribution for L=           0  read in
    real space projection operators read in
  non local Contribution for L=           0  read in
    real space projection operators read in
    PAW grid and wavefunctions read in

   number of l-projection  operators is LMAX  =           4
   number of lm-projection operators is LMMAX =           8

 POTCAR:    PAW_PBE Si 05Jan2001                  
   SHA256 =  79d9987ad8750f624c4d6acb2a16d13abf6a777132adc04dc6c8399be72b42bb Si/POTCAR             
   COPYR  = (c) Copyright 05Jan2001 Georg Kresse                                                    
   COPYR  = This file is part of the software VASP. Any use, copying, and all other rights are regul
   COPYR  = If you do not have a valid VASP license, you may not use, copy or distribute this file. 
   VRHFIN =Si: s2p2                                                                                 
   LEXCH  = PE                                                                                      
   EATOM  =   103.0669 eV,    7.5752 Ry                                                             
                                                                                                    
   TITEL  = PAW_PBE Si 05Jan2001                                                                    
   LULTRA =        F    use ultrasoft PP ?                                                          
   IUNSCR =        1    unscreen: 0-lin 1-nonlin 2-no                                               
   RPACOR =    1.500    partial core radius                                                         
   POMASS =   28.085; ZVAL   =    4.000    mass and valenz                                          
   RCORE  =    1.900    outmost cutoff radius                                                       
   RWIGS  =    2.480; RWIGS  =    1.312    wigner-seitz radius (au A)                               
   ENMAX  =  245.345; ENMIN  =  184.009 eV                                                          
   ICORE  =        2    local potential                                                             
   LCOR   =        T    correct aug charges                                                         
   LPAW   =        T    paw PP                                                                      
   EAUG   =  322.069                                                                                
   DEXC   =    0.000                                                                                
   RMAX   =    1.950    core radius for proj-oper                                                   
   RAUG   =    1.300    factor for augmentation sphere                                              
   RDEP   =    1.993    radius for radial grids                                                     
   RDEPT  =    1.837    core radius for aug-charge                                                  
                                                                                                    
   Atomic configuration                                                                             
    6 entries                                                                                       
     n  l   j            E        occ.                                                              
     1  0  0.50     -1785.8828   2.0000                                                             
     2  0  0.50      -139.4969   2.0000                                                             
     2  1  1.50       -95.5546   6.0000                                                             
     3  0  0.50       -10.8127   2.0000                                                             
     3  1  0.50        -4.0811   2.0000                                                             
     3  2  1.50        -4.0817   0.0000                                                             
   Description                                                                                      
     l       E           TYP  RCUT    TYP  RCUT                                                     
     0    -10.8127223     23  1.900                                                                 
     0     -7.6451159     23  1.900                                                                 
     1     -4.0811372     23  1.900                                                                 
     1      2.4879257     23  1.900                                                                 
     2     -4.0817478      7  1.900                                                                 
  local pseudopotential read in
  partial core-charges read in
  partial kinetic energy density read in
  atomic valenz-charges read in
  non local Contribution for L=           0  read in
    real space projection operators read in
  non local Contribution for L=           0  read in
    real space projection operators read in
  non local Contribution for L=           1  read in
    real space projection operators read in
  non local Contribution for L=           1  read in
    real space projection operators read in
    PAW grid and wavefunctions read in

   number of l-projection  operators is LMAX  =           4
   number of lm-projection operators is LMMAX =           8

 POTCAR:    PAW_PBE S 06Sep2000                   
   SHA256 =  0fc7481fb0695f01bdc6462160264c5c84044ae9ec85a907d398b887a2bc3132 S/POTCAR              
   COPYR  = (c) Copyright 06Sep2000 Georg Kresse                                                    
   COPYR  = This file is part of the software VASP. Any use, copying, and all other rights are regul
   COPYR  = If you do not have a valid VASP license, you may not use, copy or distribute this file. 
   VRHFIN =S : s2p4                                                                                 
   LEXCH  = PE                                                                                      
   EATOM  =   276.8230 eV,   20.3459 Ry                                                             
                                                                                                    
   TITEL  = PAW_PBE S 06Sep2000                                                                     
   LULTRA =        F    use ultrasoft PP ?                                                          
   IUNSCR =        1    unscreen: 0-lin 1-nonlin 2-no                                               
   RPACOR =    1.500    partial core radius                                                         
   POMASS =   32.066; ZVAL   =    6.000    mass and valenz                                          
   RCORE  =    1.900    outmost cutoff radius                                                       
   RWIGS  =    2.200; RWIGS  =    1.164    wigner-seitz radius (au A)                               
   ENMAX  =  258.689; ENMIN  =  194.016 eV                                                          
   ICORE  =        2    local potential                                                             
   LCOR   =        T    correct aug charges                                                         
   LPAW   =        T    paw PP                                                                      
   EAUG   =  335.092                                                                                
   DEXC   =    0.000                                                                                
   RMAX   =    1.942    core radius for proj-oper                                                   
   RAUG   =    1.300    factor for augmentation sphere                                              
   RDEP   =    1.954    radius for radial grids                                                     
   RDEPT  =    1.744    core radius for aug-charge                                                  
                                                                                                    
   Atomic configuration                                                                             
    6 entries                                                                                       
     n  l   j            E        occ.                                                              
     1  0  0.50     -2405.8406   2.0000                                                             
     2  0  0.50      -211.7007   2.0000                                                             
     2  1  1.50      -156.4958   6.0000                                                             
     3  0  0.50       -17.2562   2.0000                                                             
     3  1  0.50        -7.0085   4.0000                                                             
     3  2  1.50        -6.8029   0.0000                                                             
   Description                                                                                      
     l       E           TYP  RCUT    TYP  RCUT                                                     
     0    -17.2561641     23  1.900                                                                 
     0    -15.8743224     23  1.900                                                                 
     1     -7.0085400     23  1.900                                                                 
     1     -2.7779785     23  1.900                                                                 
     2     -6.8029130     23  1.900                                                                 
  local pseudopotential read in
  partial core-charges read in
  partial kinetic energy density read in
  atomic valenz-charges read in
  non local Contribution for L=           0  read in
    real space projection operators read in
  non local Contribution for L=           0  read in
    real space projection operators read in
  non local Contribution for L=           1  read in
    real space projection operators read in
  non local Contribution for L=           1  read in
    real space projection operators read in
    PAW grid and wavefunctions read in

   number of l-projection  operators is LMAX  =           4
   number of lm-projection operators is LMMAX =           8

 Optimization of the real space projectors (new method)

 maximal supplied QI-value         = 17.01
 optimisation between [QCUT,QGAM] = [ 10.20, 20.41] = [ 29.16,116.64] Ry 
 Optimized for a Real-space Cutoff    1.30 Angstroem

   l    n(q)    QCUT    max X(q) W(low)/X(q) W(high)/X(q)  e(spline) 
   1      7    10.205     4.940    0.23E-03    0.84E-03    0.11E-06
   1      7    10.205     6.253    0.40E-03    0.13E-02    0.18E-06
   0      8    10.205    37.438    0.23E-03    0.37E-03    0.42E-07
   0      8    10.205     9.606    0.16E-03    0.26E-03    0.31E-07
 Optimization of the real space projectors (new method)

 maximal supplied QI-value         = 19.84
 optimisation between [QCUT,QGAM] = [ 10.12, 20.44] = [ 28.68,116.96] Ry 
 Optimized for a Real-space Cutoff    1.23 Angstroem

   l    n(q)    QCUT    max X(q) W(low)/X(q) W(high)/X(q)  e(spline) 
   0      7    10.119   159.560    0.56E-04    0.22E-03    0.45E-07
   0      7    10.119   115.863    0.56E-04    0.21E-03    0.45E-07
   1      7    10.119    88.339    0.34E-03    0.49E-03    0.11E-06
   1      7    10.119    48.592    0.33E-03    0.48E-03    0.11E-06
 Optimization of the real space projectors (new method)

 maximal supplied QI-value         = 19.84
 optimisation between [QCUT,QGAM] = [ 10.12, 20.44] = [ 28.68,116.96] Ry 
 Optimized for a Real-space Cutoff    1.23 Angstroem

   l    n(q)    QCUT    max X(q) W(low)/X(q) W(high)/X(q)  e(spline) 
   0      7    10.119   187.594    0.62E-04    0.28E-03    0.52E-07
   0      7    10.119   164.243    0.61E-04    0.28E-03    0.52E-07
   1      7    10.119    67.533    0.45E-03    0.63E-03    0.13E-06
   1      7    10.119    50.729    0.44E-03    0.62E-03    0.12E-06
  PAW_PBE Na_pv 19Sep2006               :
 energy of atom  1       EATOM= -766.0439
 kinetic energy error for atom=    0.0103 (will be added to EATOM!!)
  PAW_PBE Si 05Jan2001                  :
 energy of atom  2       EATOM= -103.0669
 kinetic energy error for atom=    0.0012 (will be added to EATOM!!)
  PAW_PBE S 06Sep2000                   :
 energy of atom  3       EATOM= -276.8230
 kinetic energy error for atom=    0.0046 (will be added to EATOM!!)


 POSCAR: Na12 Si4 S14
  positions in direct lattice
  No initial velocities read in
 exchange correlation table for  LEXCH =        8
   RHO(1)=    0.500       N(1)  =     2000
   RHO(2)=  100.500       N(2)  =     4000



--------------------------------------------------------------------------------------------------------


 ion  position               nearest neighbor table
   1  0.579  0.421  0.750-  20 2.70  19 2.70  28 2.77  27 2.77
   2  0.421  0.579  0.250-  22 2.70  21 2.70  30 2.77  29 2.77
   3  0.500  0.500  0.000-  23 2.73  25 2.73
   4  0.500  0.500  0.500-  24 2.73  26 2.73
   5  0.263  0.971  0.925-
   6  0.029  0.737  0.575-
   7  0.737  0.029  0.075-
   8  0.971  0.263  0.425-
   9  0.511  0.950  0.639-
  10  0.050  0.489  0.861-
  11  0.489  0.050  0.361-
  12  0.950  0.511  0.139-
  13  0.766  0.924  0.860-  19 2.10  27 2.12  23 2.13  17 2.19
  14  0.076  0.234  0.640-  20 2.10  28 2.12  24 2.13  17 2.19
  15  0.924  0.766  0.360-  22 2.10  30 2.12  26 2.13  18 2.19
  16  0.234  0.076  0.140-  21 2.10  29 2.12  25 2.13  18 2.19
  17  0.034  0.966  0.750-  13 2.19  14 2.19
  18  0.966  0.034  0.250-  16 2.19  15 2.19
  19  0.694  0.196  0.893-  13 2.10   1 2.70
  20  0.804  0.306  0.607-  14 2.10   1 2.70
  21  0.306  0.804  0.107-  16 2.10   2 2.70
  22  0.196  0.694  0.393-  15 2.10   2 2.70
  23  0.866  0.744  0.969-  13 2.13   3 2.73
  24  0.256  0.134  0.531-  14 2.13   4 2.73
  25  0.134  0.256  0.031-  16 2.13   3 2.73
  26  0.744  0.866  0.469-  15 2.13   4 2.73
  27  0.519  0.760  0.822-  13 2.12   1 2.77
  28  0.240  0.481  0.678-  14 2.12   1 2.77
  29  0.481  0.240  0.178-  16 2.12   2 2.77
  30  0.760  0.519  0.322-  15 2.12   2 2.77

  LATTYP: Found a base centered monoclinic cell.
 ALAT       =     8.9994725029
 B/A-ratio  =     1.1435021010
 C/A-ratio  =     1.6558811703
 COS(beta)  =    -0.2652046102
  
  Lattice vectors:
  
 A1 = (  -6.7304733229,   0.0000000000,  -1.1933506884)
 A2 = (   1.1369477288,  -6.6337494860,  -1.1933509090)
 A3 = (   0.0000000000,   0.0000000000,  14.9020570600)


Analysis of symmetry for initial positions (statically):
=====================================================================
 Subroutine PRICEL returns:
 Original cell was already a primitive cell.
 

 Routine SETGRP: Setting up the symmetry group for a 
 base centered monoclinic supercell.


 Subroutine GETGRP returns: Found  4 space group operations
 (whereof  2 operations were pure point group operations)
 out of a pool of  4 trial point group operations.


The static configuration has the point symmetry S_2 .
 The point group associated with its full space group is C_2h.


Analysis of symmetry for dynamics (positions and initial velocities):
=====================================================================
 Subroutine PRICEL returns:
 Original cell was already a primitive cell.
 

 Routine SETGRP: Setting up the symmetry group for a 
 base centered monoclinic supercell.


 Subroutine GETGRP returns: Found  4 space group operations
 (whereof  2 operations were pure point group operations)
 out of a pool of  4 trial point group operations.


The dynamic configuration has the point symmetry S_2 .
 The point group associated with its full space group is C_2h.


 Subroutine INISYM returns: Found  4 space group operations
 (whereof  2 operations are pure point group operations),
 and found     1 'primitive' translations


----------------------------------------------------------------------------------------

                                     Primitive cell                                     

  volume of cell :     665.3511

  direct lattice vectors                    reciprocal lattice vectors
     6.730473323  0.000000000  1.193350688     0.148577961  0.025464539 -0.000000000
    -1.136947729  6.633749486  1.193350909     0.000000000  0.150744312  0.000000000
     0.000000000  0.000000000 14.902057060    -0.011898063 -0.014110736  0.067104830

  length of vectors
     6.835448560  6.835449420 14.902057060     0.150744330  0.150744312  0.069596946

  position of ions in fractional coordinates (direct lattice)
     0.579482100  0.420517900  0.750000000
     0.420517900  0.579482100  0.250000000
     0.500000000  0.500000000  1.000000000
     0.500000000  0.500000000  0.500000000
     0.263496310  0.971003350  0.925249300
     0.028996650  0.736503690  0.574750700
     0.736503690  0.028996650  0.074750700
     0.971003350  0.263496310  0.425249300
     0.510553700  0.950496960  0.639081140
     0.049503040  0.489446300  0.860918860
     0.489446300  0.049503040  0.360918860
     0.950496960  0.510553700  0.139081140
     0.765556400  0.923829590  0.860411640
     0.076170410  0.234443600  0.639588360
     0.923829590  0.765556400  0.360411640
     0.234443600  0.076170410  0.139588360
     0.033975920  0.966024080  0.750000000
     0.966024080  0.033975920  0.250000000
     0.694051030  0.196093610  0.893254220
     0.803906390  0.305948970  0.606745780
     0.305948970  0.803906390  0.106745780
     0.196093610  0.694051030  0.393254220
     0.866179560  0.743805310  0.969043700
     0.256194690  0.133820440  0.530956300
     0.133820440  0.256194690  0.030956300
     0.743805310  0.866179560  0.469043700
     0.518975300  0.759806420  0.821744190
     0.240193580  0.481024700  0.678255810
     0.481024700  0.240193580  0.178255810
     0.759806420  0.518975300  0.321744190

  ion indices of the primitive-cell ions
   primitive index   ion index
                 1           1
                 2           2
                 3           3
                 4           4
                 5           5
                 6           6
                 7           7
                 8           8
                 9           9
                10          10
                11          11
                12          12
                13          13
                14          14
                15          15
                16          16
                17          17
                18          18
                19          19
                20          20
                21          21
                22          22
                23          23
                24          24
                25          25
                26          26
                27          27
                28          28
                29          29
                30          30

----------------------------------------------------------------------------------------



 KPOINTS: pymatgen with grid density = 500 / numbe

Automatic generation of k-mesh.
 Grid dimensions read from file:
 generate k-points for:    3    3    1

 Generating k-lattice:

  Cartesian coordinates                     Fractional coordinates (reciprocal lattice)
     0.049525987  0.008488180 -0.000000000     0.333333333 -0.000000000  0.000000000
     0.000000000  0.050248104  0.000000000     0.000000000  0.333333333  0.000000000
    -0.011898063 -0.014110736  0.067104830     0.000000000 -0.000000000  1.000000000

  Length of vectors
     0.050248110  0.050248104  0.069596946

  Shift w.r.t. Gamma in fractional coordinates (k-lattice)
     0.000000000  0.000000000  0.000000000

 
 Subroutine IBZKPT returns following result:
 ===========================================
 
 Found      4 irreducible k-points:
 
 Following reciprocal coordinates:
            Coordinates               Weight
  0.000000  0.000000  0.000000      1.000000
  0.333333  0.000000  0.000000      4.000000
  0.333333  0.333333  0.000000      2.000000
 -0.333333  0.333333  0.000000      2.000000
 
 Following cartesian coordinates:
            Coordinates               Weight
  0.000000  0.000000  0.000000      1.000000
  0.049526  0.008488  0.000000      4.000000
  0.049526  0.058736  0.000000      2.000000
 -0.049526  0.041760  0.000000      2.000000
 


--------------------------------------------------------------------------------------------------------




 Dimension of arrays:
   k-points           NKPTS =      4   k-points in BZ     NKDIM =      4   number of bands    NBANDS=    128
   number of dos      NEDOS =    301   number of ions     NIONS =     30
   non local maximal  LDIM  =      4   non local SUM 2l+1 LMDIM =      8
   total plane-waves  NPLWV = 103680
   max r-space proj   IRMAX =   1488   max aug-charges    IRDMAX=   5409
   dimension x,y,z NGX =    36 NGY =   36 NGZ =   80
   dimension x,y,z NGXF=    72 NGYF=   72 NGZF=  160
   support grid    NGXF=    72 NGYF=   72 NGZF=  160
   ions per type =              12   4  14
   NGX,Y,Z   is equivalent  to a cutoff of   8.76,  8.76,  8.92 a.u.
   NGXF,Y,Z  is equivalent  to a cutoff of  17.51, 17.51, 17.85 a.u.

 SYSTEM =  unknown system                          
 POSCAR =  Na12 Si4 S14                            

 Startparameter for this run:
   NWRITE =      2    write-flag & timer
   PREC   = normal    normal or accurate (medium, high low for compatibility)
   ISTART =      0    job   : 0-new  1-cont  2-samecut
   ICHARG =      2    charge: 1-file 2-atom 10-const
   ISPIN  =      1    spin polarized calculation?
   LNONCOLLINEAR =      F non collinear calculations
   LSORBIT =      F    spin-orbit coupling
   INIWAV =      1    electr: 0-lowe 1-rand  2-diag
   LASPH  =      F    aspherical Exc in radial PAW
 Electronic Relaxation 1
   ENCUT  =  400.0 eV  29.40 Ry    5.42 a.u.  11.15 11.15 24.30*2*pi/ulx,y,z
   ENINI  =  400.0     initial cutoff
   ENAUG  =  368.1 eV  augmentation charge cutoff
   NELM   =     60;   NELMIN=  2; NELMDL= -5     # of ELM steps 
   EDIFF  = 0.1E-04   stopping-criterion for ELM
   LREAL  =      T    real-space projection
   NLSPLINE    = F    spline interpolate recip. space projectors
   LCOMPAT=      F    compatible to vasp.4.4
   GGA_COMPAT  = T    GGA compatible to vasp.4.4-vasp.4.6
   LMAXPAW     = -100 max onsite density
   LMAXMIX     =    2 max onsite mixed and CHGCAR
   VOSKOWN=      0    Vosko Wilk Nusair interpolation
   ROPT   =   -0.00050  -0.00050  -0.00050
 Ionic relaxation
   EDIFFG = -.5E-01   stopping-criterion for IOM
   NSW    =    100    number of steps for IOM
   NBLOCK =      1;   KBLOCK =    100    inner block; outer block 
   IBRION =      2    ionic relax: 0-MD 1-quasi-New 2-CG
   NFREE  =      1    steps in history (QN), initial steepest desc. (CG)
   ISIF   =      3    stress and relaxation
   IWAVPR =     11    prediction:  0-non 1-charg 2-wave 3-comb
   ISYM   =      2    0-nonsym 1-usesym 2-fastsym
   LCORR  =      T    Harris-Foulkes like correction to forces

   POTIM  = 0.5000    time-step for ionic-motion
   TEIN   =    0.0    initial temperature
   TEBEG  =    0.0;   TEEND  =   0.0 temperature during run
   SMASS  =  -3.00    Nose mass-parameter (am)
   estimated Nose-frequenzy (Omega)   =  0.10E-29 period in steps = 0.13E+47 mass=  -0.107E-26a.u.
   SCALEE = 1.0000    scale energy and forces
   NPACO  =    256;   APACO  = 10.0  distance and # of slots for P.C.
   PSTRESS=    0.0 pullay stress

  Mass of Ions in am
   POMASS =  22.99 28.09 32.07
  Ionic Valenz
   ZVAL   =   7.00  4.00  6.00
  Atomic Wigner-Seitz radii
   RWIGS  =  -1.00 -1.00 -1.00
  virtual crystal weights 
   VCA    =   1.00  1.00  1.00
   NELECT =     184.0000    total number of electrons
   NUPDOWN=      -1.0000    fix difference up-down

 DOS related values:
   EMIN   =  10.00;   EMAX   =-10.00  energy-range for DOS
   EFERMI =   0.00
   ISMEAR =     0;   SIGMA  =   0.05  broadening in eV -4-tet -1-fermi 0-gaus

 Electronic relaxation 2 (details)
   IALGO  =     38    algorithm
   LDIAG  =      T    sub-space diagonalisation (order eigenvalues)
   LSUBROT=      F    optimize rotation matrix (better conditioning)
   TURBO    =      0    0=normal 1=particle mesh
   IRESTART =      0    0=no restart 2=restart with 2 vectors
   NREBOOT  =      0    no. of reboots
   NMIN     =      0    reboot dimension
   EREF     =   0.00    reference energy to select bands
   IMIX   =      4    mixing-type and parameters
     AMIX     =   0.40;   BMIX     =  1.00
     AMIX_MAG =   1.60;   BMIX_MAG =  1.00
     AMIN     =   0.10
     WC   =   100.;   INIMIX=   1;  MIXPRE=   1;  MAXMIX= -45

 Intra band minimization:
   WEIMIN = 0.0010     energy-eigenvalue tresh-hold
   EBREAK =  0.20E-07  absolut break condition
   DEPER  =   0.30     relativ break condition  

   TIME   =   0.40     timestep for ELM

  volume/ion in A,a.u.               =      22.18       149.67
  Fermi-wavevector in a.u.,A,eV,Ry     =   1.066589  2.015561 15.478155  1.137612
  Thomas-Fermi vector in A             =   2.202178

 Write flags
   LWAVE        =      F    write WAVECAR
   LDOWNSAMPLE  =      F    k-point downsampling of WAVECAR
   LCHARG       =      F    write CHGCAR
   LVTOT        =      F    write LOCPOT, total local potential
   LVHAR        =      F    write LOCPOT, Hartree potential only
   LELF         =      F    write electronic localiz. function (ELF)
   LORBIT       =      0    0 simple, 1 ext, 2 COOP (PROOUT), +10 PAW based schemes


 Dipole corrections
   LMONO  =      F    monopole corrections only (constant potential shift)
   LDIPOL =      F    correct potential (dipole corrections)
   IDIPOL =      0    1-x, 2-y, 3-z, 4-all directions 
   EPSILON=  1.0000000 bulk dielectric constant

 Exchange correlation treatment:
   GGA     =    --    GGA type
   LEXCH   =     8    internal setting for exchange type
   LIBXC   =     F    Libxc                    
   VOSKOWN =     0    Vosko Wilk Nusair interpolation
   LHFCALC =     F    Hartree Fock is set to
   LHFONE  =     F    Hartree Fock one center treatment
   AEXX    =    0.0000 exact exchange contribution

 Linear response parameters
   LEPSILON=     F    determine dielectric tensor
   LRPA    =     F    only Hartree local field effects (RPA)
   LNABLA  =     F    use nabla operator in PAW spheres
   LVEL    =     F    velocity operator in full k-point grid
   CSHIFT  =0.1000    complex shift for real part using Kramers Kronig
   OMEGAMAX=  -1.0    maximum frequency
   DEG_THRESHOLD= 0.2000000E-02 threshold for treating states as degnerate
   RTIME   =   -0.100 relaxation time in fs
  (WPLASMAI=    0.000 imaginary part of plasma frequency in eV, 0.658/RTIME)
   DFIELD  = 0.0000000 0.0000000 0.0000000 field for delta impulse in time

  Optional k-point grid parameters
   LKPOINTS_OPT  =     F    use optional k-point grid
   KPOINTS_OPT_MODE=     1    mode for optional k-point grid

 Orbital magnetization related:
   ORBITALMAG=     F  switch on orbital magnetization
   LCHIMAG   =     F  perturbation theory with respect to B field
   DQ        =  0.001000  dq finite difference perturbation B field
   LLRAUG    =     F  two centre corrections for induced B field



--------------------------------------------------------------------------------------------------------


 conjugate gradient relaxation of ions
 charge density and potential will be updated during run
 non-spin polarized calculation
 Variant of blocked Davidson
 Davidson routine will perform the subspace rotation
 perform sub-space diagonalisation
    after iterative eigenvector-optimisation
 modified Broyden-mixing scheme, WC =      100.0
 initial mixing is a Kerker type mixing with AMIX =  0.4000 and BMIX =      1.0000
 Hartree-type preconditioning will be used
 using additional bands           36
 real space projection scheme for non local part
 use partial core corrections
 calculate Harris-corrections to forces   (improved forces if not selfconsistent)
 use gradient corrections 
 use of overlap-Matrix (Vanderbilt PP)
 Gauss-broadening in eV      SIGMA  =   0.05


--------------------------------------------------------------------------------------------------------


  energy-cutoff  :      400.00
  volume of cell :      665.35
      direct lattice vectors                 reciprocal lattice vectors
     6.730473323  0.000000000  1.193350688     0.148577961  0.025464539 -0.000000000
    -1.136947729  6.633749486  1.193350909     0.000000000  0.150744312  0.000000000
     0.000000000  0.000000000 14.902057060    -0.011898063 -0.014110736  0.067104830

  length of vectors
     6.835448560  6.835449420 14.902057060     0.150744330  0.150744312  0.069596946



 k-points in units of 2pi/SCALE and weight: pymatgen with grid density = 500 / numbe
   0.00000000  0.00000000  0.00000000       0.111
   0.04952599  0.00848818  0.00000000       0.444
   0.04952599  0.05873628  0.00000000       0.222
  -0.04952599  0.04175992  0.00000000       0.222

 k-points in reciprocal lattice and weights: pymatgen with grid density = 500 / numbe
   0.00000000  0.00000000  0.00000000       0.111
   0.33333333  0.00000000  0.00000000       0.444
   0.33333333  0.33333333  0.00000000       0.222
  -0.33333333  0.33333333  0.00000000       0.222

 position of ions in fractional coordinates (direct lattice) 
   0.57948210  0.42051790  0.75000000
   0.42051790  0.57948210  0.25000000
   0.50000000  0.50000000  0.00000000
   0.50000000  0.50000000  0.50000000
   0.26349631  0.97100335  0.92524930
   0.02899665  0.73650369  0.57475070
   0.73650369  0.02899665  0.07475070
   0.97100335  0.26349631  0.42524930
   0.51055370  0.95049696  0.63908114
   0.04950304  0.48944630  0.86091886
   0.48944630  0.04950304  0.36091886
   0.95049696  0.51055370  0.13908114
   0.76555640  0.92382959  0.86041164
   0.07617041  0.23444360  0.63958836
   0.92382959  0.76555640  0.36041164
   0.23444360  0.07617041  0.13958836
   0.03397592  0.96602408  0.75000000
   0.96602408  0.03397592  0.25000000
   0.69405103  0.19609361  0.89325422
   0.80390639  0.30594897  0.60674578
   0.30594897  0.80390639  0.10674578
   0.19609361  0.69405103  0.39325422
   0.86617956  0.74380531  0.96904370
   0.25619469  0.13382044  0.53095630
   0.13382044  0.25619469  0.03095630
   0.74380531  0.86617956  0.46904370
   0.51897530  0.75980642  0.82174419
   0.24019358  0.48102470  0.67825581
   0.48102470  0.24019358  0.17825581
   0.75980642  0.51897530  0.32174419

 position of ions in cartesian coordinates  (Angst):
   3.42208194  2.78961040 12.36989358
   2.17144365  3.84413908  4.91886508
   2.79676280  3.31687474  1.19335080
   2.79676280  3.31687474  8.64437933
   0.66947483  6.44139297 15.26130910
  -0.64220502  4.88578097  9.47847825
   4.92405076  0.19235651  2.02744956
   6.23573061  1.74796851  7.81028041
   2.35560270  6.30535872 11.26716963
  -0.22329597  3.24686414 13.47261765
   3.23792290  0.32839077  6.02158902
   5.81682156  3.38688534  3.81614101
   4.10221097  6.12845407 14.83793349
   0.24611279  1.55524011  9.90185373
   5.34741280  5.07850938  7.38690493
   1.49131462  0.50529542  2.45082517
  -0.86964486  6.40836174 12.36989370
   6.46317045  0.22538774  4.91886496
   4.44834376  1.30083588 14.37358012
   5.06282253  2.02958882 10.36620696
   1.14518184  5.33291360  2.91517854
   0.53070307  4.60416066  6.92255170
   4.98413066  4.93421809 16.36202123
   1.57216468  0.88773128  8.37776593
   0.60939493  1.69953139  0.92673743
   4.02136091  5.74601821  8.91099273
   2.62908923  5.04036545 13.77171402
   1.06971654  3.19099736 10.96807322
   2.96443637  1.59338404  3.51704464
   4.52380905  3.44275213  6.32068544



--------------------------------------------------------------------------------------------------------


 k-point   1 :   0.0000 0.0000 0.0000  plane waves:   12099
 k-point   2 :   0.3333 0.0000 0.0000  plane waves:   12069
 k-point   3 :   0.3333 0.3333 0.0000  plane waves:   12116
 k-point   4 :  -0.3333 0.3333 0.0000  plane waves:   12101

 maximum and minimum number of plane-waves per node :     12116    12069

 maximum number of plane-waves:     12116
 maximum index in each direction: 
   IXMAX=   11   IYMAX=   11   IZMAX=   24
   IXMIN=  -11   IYMIN=  -11   IZMIN=  -24


 serial   3D FFT for wavefunctions
 parallel 3D FFT for charge:
    minimum data exchange during FFTs selected (reduces bandwidth)


 total amount of memory used by VASP MPI-rank0    44587. kBytes
=======================================================================

   base      :      30000. kBytes
   nonlr-proj:       3385. kBytes
   fftplans  :       1540. kBytes
   grid      :       6400. kBytes
   one-center:         92. kBytes
   wavefun   :       3170. kBytes

     INWAV:  cpu time      0.0000: real time      0.0002
 Broyden mixing: mesh for mixing (old mesh)
   NGX = 23   NGY = 23   NGZ = 49
  (NGX  = 72   NGY  = 72   NGZ  =160)
  gives a total of  25921 points

 initial charge density was supplied:
 charge density of overlapping atoms calculated
 number of electron     184.0000000 magnetization 
 keeping initial charge density in first step


--------------------------------------------------------------------------------------------------------


 Maximum index for non-local projection operator         1396
 Maximum index for augmentation-charges          596 (set IRDMAX)


--------------------------------------------------------------------------------------------------------


 First call to EWALD:  gamma=   0.203
 Maximum number of real-space cells 3x 3x 2
 Maximum number of reciprocal cells 2x 2x 4

    FEWALD:  cpu time      0.0010: real time      0.0011


--------------------------------------- Iteration      1(   1)  ---------------------------------------


    POTLOK:  cpu time      0.0277: real time      0.0279
    SETDIJ:  cpu time      0.0023: real time      0.0027
     EDDAV:  cpu time      0.7167: real time      0.7175
       DOS:  cpu time      0.0006: real time      0.0008
    --------------------------------------------
      LOOP:  cpu time      0.7473: real time      0.7488

 eigenvalue-minimisations  :  1024
 total energy-change (2. order) : 0.1475339E+04  (-0.7563484E+04)
 number of electron     184.0000000 magnetization 
 augmentation part      184.0000000 magnetization 

 Free energy of the ion-electron system (eV)
  ---------------------------------------------------
  alpha Z        PSCENC =       251.25739050
  Ewald energy   TEWEN  =     -8117.24313764
  -Hartree energ DENC   =     -3350.51614634
  -exchange      EXHF   =         0.00000000
  -V(xc)+E(xc)   XCENC  =       431.40931710
  PAW double counting   =      9425.44734996   -10373.28386006
  entropy T*S    EENTRO =        -0.01548831
  eigenvalues    EBANDS =      -271.83976644
  atomic energy  EATOM  =     13480.12355608
  Solvation  Ediel_sol  =         0.00000000
  ---------------------------------------------------
  free energy    TOTEN  =      1475.33921484 eV

  energy without entropy =     1475.35470316  energy(sigma->0) =     1475.34695900


--------------------------------------------------------------------------------------------------------




--------------------------------------- Iteration      1(   2)  ---------------------------------------


     EDDAV:  cpu time      0.8107: real time      0.8117
       DOS:  cpu time      0.0002: real time      0.0003
    --------------------------------------------
      LOOP:  cpu time      0.8109: real time      0.8121

 eigenvalue-minimisations  :  1152
 total energy-change (2. order) :-0.1469965E+04  (-0.1412705E+04)
 number of electron     184.0000000 magnetization 
 augmentation part      184.0000000 magnetization 

 Free energy of the ion-electron system (eV)
  ---------------------------------------------------
  alpha Z        PSCENC =       251.25739050
  Ewald energy   TEWEN  =     -8117.24313764
  -Hartree energ DENC   =     -3350.51614634
  -exchange      EXHF   =         0.00000000
  -V(xc)+E(xc)   XCENC  =       431.40931710
  PAW double counting   =      9425.44734996   -10373.28386006
  entropy T*S    EENTRO =        -0.00000000
  eigenvalues    EBANDS =     -1741.82019184
  atomic energy  EATOM  =     13480.12355608
  Solvation  Ediel_sol  =         0.00000000
  ---------------------------------------------------
  free energy    TOTEN  =         5.37427776 eV

  energy without entropy =        5.37427776  energy(sigma->0) =        5.37427776


--------------------------------------------------------------------------------------------------------




--------------------------------------- Iteration      1(   3)  ---------------------------------------


     EDDAV:  cpu time      0.9031: real time      0.9043
       DOS:  cpu time      0.0003: real time      0.0004
    --------------------------------------------
      LOOP:  cpu time      0.9034: real time      0.9046

 eigenvalue-minimisations  :  1248
 total energy-change (2. order) :-0.1337356E+03  (-0.1323223E+03)
 number of electron     184.0000000 magnetization 
 augmentation part      184.0000000 magnetization 

 Free energy of the ion-electron system (eV)
  ---------------------------------------------------
  alpha Z        PSCENC =       251.25739050
  Ewald energy   TEWEN  =     -8117.24313764
  -Hartree energ DENC   =     -3350.51614634
  -exchange      EXHF   =         0.00000000
  -V(xc)+E(xc)   XCENC  =       431.40931710
  PAW double counting   =      9425.44734996   -10373.28386006
  entropy T*S    EENTRO =        -0.00000000
  eigenvalues    EBANDS =     -1875.55575973
  atomic energy  EATOM  =     13480.12355608
  Solvation  Ediel_sol  =         0.00000000
  ---------------------------------------------------
  free energy    TOTEN  =      -128.36129013 eV

  energy without entropy =     -128.36129013  energy(sigma->0) =     -128.36129013


--------------------------------------------------------------------------------------------------------




--------------------------------------- Iteration      1(   4)  ---------------------------------------


     EDDAV:  cpu time      1.0253: real time      1.0263
       DOS:  cpu time      0.0002: real time      0.0003
    --------------------------------------------
      LOOP:  cpu time      1.0255: real time      1.0266

 eigenvalue-minimisations  :  1376
 total energy-change (2. order) :-0.4537173E+01  (-0.4521644E+01)
 number of electron     184.0000000 magnetization 
 augmentation part      184.0000000 magnetization 

 Free energy of the ion-electron system (eV)
  ---------------------------------------------------
  alpha Z        PSCENC =       251.25739050
  Ewald energy   TEWEN  =     -8117.24313764
  -Hartree energ DENC   =     -3350.51614634
  -exchange      EXHF   =         0.00000000
  -V(xc)+E(xc)   XCENC  =       431.40931710
  PAW double counting   =      9425.44734996   -10373.28386006
  entropy T*S    EENTRO =        -0.00000000
  eigenvalues    EBANDS =     -1880.09293239
  atomic energy  EATOM  =     13480.12355608
  Solvation  Ediel_sol  =         0.00000000
  ---------------------------------------------------
  free energy    TOTEN  =      -132.89846279 eV

  energy without entropy =     -132.89846279  energy(sigma->0) =     -132.89846279


--------------------------------------------------------------------------------------------------------




--------------------------------------- Iteration      1(   5)  ---------------------------------------


     EDDAV:  cpu time      0.9862: real time      0.9870
       DOS:  cpu time      0.0002: real time      0.0003
    CHARGE:  cpu time      0.0381: real time      0.0385
    MIXING:  cpu time      0.0012: real time      0.0013
    --------------------------------------------
      LOOP:  cpu time      1.0257: real time      1.0272

 eigenvalue-minimisations  :  1376
 total energy-change (2. order) :-0.1164565E+00  (-0.1164406E+00)
 number of electron     184.0000179 magnetization 
 augmentation part       40.6852256 magnetization 

 Broyden mixing:
  rms(total) = 0.24400E+01    rms(broyden)= 0.24400E+01
  rms(prec ) = 0.25843E+01
  weight for this iteration     100.00

 Free energy of the ion-electron system (eV)
  ---------------------------------------------------
  alpha Z        PSCENC =       251.25739050
  Ewald energy   TEWEN  =     -8117.24313764
  -Hartree energ DENC   =     -3350.51614634
  -exchange      EXHF   =         0.00000000
  -V(xc)+E(xc)   XCENC  =       431.40931710
  PAW double counting   =      9425.44734996   -10373.28386006
  entropy T*S    EENTRO =        -0.00000000
  eigenvalues    EBANDS =     -1880.20938885
  atomic energy  EATOM  =     13480.12355608
  Solvation  Ediel_sol  =         0.00000000
  ---------------------------------------------------
  free energy    TOTEN  =      -133.01491925 eV

  energy without entropy =     -133.01491925  energy(sigma->0) =     -133.01491925


--------------------------------------------------------------------------------------------------------




--------------------------------------- Iteration      1(   6)  ---------------------------------------


    POTLOK:  cpu time      0.0203: real time      0.0205
    SETDIJ:  cpu time      0.0016: real time      0.0016
     EDDAV:  cpu time      0.9462: real time      0.9467
       DOS:  cpu time      0.0002: real time      0.0004
    CHARGE:  cpu time      0.0374: real time      0.0378
    MIXING:  cpu time      0.0009: real time      0.0009
    --------------------------------------------
      LOOP:  cpu time      1.0067: real time      1.0079

 eigenvalue-minimisations  :  1280
 total energy-change (2. order) : 0.5185255E+01  (-0.8631692E+00)
 number of electron     184.0000179 magnetization 
 augmentation part       41.1197671 magnetization 

 Broyden mixing:
  rms(total) = 0.15833E+01    rms(broyden)= 0.15833E+01
  rms(prec ) = 0.16258E+01
  weight for this iteration     100.00

 eigenvalues of (default mixing * dielectric matrix)
  average eigenvalue GAMMA=   2.3093
  2.3093

 Free energy of the ion-electron system (eV)
  ---------------------------------------------------
  alpha Z        PSCENC =       251.25739050
  Ewald energy   TEWEN  =     -8117.24313764
  -Hartree energ DENC   =     -3391.06481794
  -exchange      EXHF   =         0.00000000
  -V(xc)+E(xc)   XCENC  =       436.43146376
  PAW double counting   =     11473.67446238   -12421.34945405
  entropy T*S    EENTRO =        -0.00000000
  eigenvalues    EBANDS =     -1839.65912685
  atomic energy  EATOM  =     13480.12355608
  Solvation  Ediel_sol  =         0.00000000
  ---------------------------------------------------
  free energy    TOTEN  =      -127.82966377 eV

  energy without entropy =     -127.82966377  energy(sigma->0) =     -127.82966377


--------------------------------------------------------------------------------------------------------




--------------------------------------- Iteration      1(   7)  ---------------------------------------


    POTLOK:  cpu time      0.0208: real time      0.0210
    SETDIJ:  cpu time      0.0017: real time      0.0017
     EDDAV:  cpu time      1.0352: real time      1.0359
       DOS:  cpu time      0.0002: real time      0.0004
    CHARGE:  cpu time      0.0372: real time      0.0372
    MIXING:  cpu time      0.0007: real time      0.0007
    --------------------------------------------
      LOOP:  cpu time      1.0959: real time      1.0969

 eigenvalue-minimisations  :  1408
 total energy-change (2. order) : 0.5151977E+00  (-0.5654493E+00)
 number of electron     184.0000178 magnetization 
 augmentation part       41.4659997 magnetization 

 Broyden mixing:
  rms(total) = 0.56562E+00    rms(broyden)= 0.56562E+00
  rms(prec ) = 0.58126E+00
  weight for this iteration     100.00

 eigenvalues of (default mixing * dielectric matrix)
  average eigenvalue GAMMA=   2.0489
  1.4948  2.6031

 Free energy of the ion-electron system (eV)
  ---------------------------------------------------
  alpha Z        PSCENC =       251.25739050
  Ewald energy   TEWEN  =     -8117.24313764
  -Hartree energ DENC   =     -3422.78497310
  -exchange      EXHF   =         0.00000000
  -V(xc)+E(xc)   XCENC  =       441.41592116
  PAW double counting   =     15626.39180807   -16577.05766190
  entropy T*S    EENTRO =        -0.00000000
  eigenvalues    EBANDS =     -1809.41736921
  atomic energy  EATOM  =     13480.12355608
  Solvation  Ediel_sol  =         0.00000000
  ---------------------------------------------------
  free energy    TOTEN  =      -127.31446605 eV

  energy without entropy =     -127.31446605  energy(sigma->0) =     -127.31446605


--------------------------------------------------------------------------------------------------------




--------------------------------------- Iteration      1(   8)  ---------------------------------------


    POTLOK:  cpu time      0.0208: real time      0.0210
    SETDIJ:  cpu time      0.0017: real time      0.0017
     EDDAV:  cpu time      0.8727: real time      0.8733
       DOS:  cpu time      0.0002: real time      0.0004
    CHARGE:  cpu time      0.0372: real time      0.0372
    MIXING:  cpu time      0.0007: real time      0.0007
    --------------------------------------------
      LOOP:  cpu time      0.9333: real time      0.9342

 eigenvalue-minimisations  :  1216
 total energy-change (2. order) : 0.6011396E-01  (-0.6938598E-01)
 number of electron     184.0000178 magnetization 
 augmentation part       41.3617891 magnetization 

 Broyden mixing:
  rms(total) = 0.13517E+00    rms(broyden)= 0.13517E+00
  rms(prec ) = 0.13807E+00
  weight for this iteration     100.00

 eigenvalues of (default mixing * dielectric matrix)
  average eigenvalue GAMMA=   1.7032
  2.6910  1.2092  1.2092

 Free energy of the ion-electron system (eV)
  ---------------------------------------------------
  alpha Z        PSCENC =       251.25739050
  Ewald energy   TEWEN  =     -8117.24313764
  -Hartree energ DENC   =     -3413.04819019
  -exchange      EXHF   =         0.00000000
  -V(xc)+E(xc)   XCENC  =       441.33298242
  PAW double counting   =     16966.85420011   -17919.74236781
  entropy T*S    EENTRO =        -0.00000000
  eigenvalues    EBANDS =     -1816.78878557
  atomic energy  EATOM  =     13480.12355608
  Solvation  Ediel_sol  =         0.00000000
  ---------------------------------------------------
  free energy    TOTEN  =      -127.25435208 eV

  energy without entropy =     -127.25435208  energy(sigma->0) =     -127.25435208


--------------------------------------------------------------------------------------------------------




--------------------------------------- Iteration      1(   9)  ---------------------------------------


    POTLOK:  cpu time      0.0209: real time      0.0390
    SETDIJ:  cpu time      0.0017: real time      0.0017
     EDDAV:  cpu time      0.9528: real time      0.9537
       DOS:  cpu time      0.0002: real time      0.0004
    CHARGE:  cpu time      0.0379: real time      0.0379
    MIXING:  cpu time      0.0008: real time      0.0008
    --------------------------------------------
      LOOP:  cpu time      1.0143: real time      1.0335

 eigenvalue-minimisations  :  1280
 total energy-change (2. order) :-0.4627105E-02  (-0.3936614E-02)
 number of electron     184.0000178 magnetization 
 augmentation part       41.3635847 magnetization 

 Broyden mixing:
  rms(total) = 0.67337E-01    rms(broyden)= 0.67337E-01
  rms(prec ) = 0.68582E-01
  weight for this iteration     100.00

 eigenvalues of (default mixing * dielectric matrix)
  average eigenvalue GAMMA=   1.6040
  2.3654  1.3101  1.3703  1.3703

 Free energy of the ion-electron system (eV)
  ---------------------------------------------------
  alpha Z        PSCENC =       251.25739050
  Ewald energy   TEWEN  =     -8117.24313764
  -Hartree energ DENC   =     -3414.15484625
  -exchange      EXHF   =         0.00000000
  -V(xc)+E(xc)   XCENC  =       441.51118900
  PAW double counting   =     16977.47512572   -17930.13385709
  entropy T*S    EENTRO =        -0.00000000
  eigenvalues    EBANDS =     -1816.09439951
  atomic energy  EATOM  =     13480.12355608
  Solvation  Ediel_sol  =         0.00000000
  ---------------------------------------------------
  free energy    TOTEN  =      -127.25897919 eV

  energy without entropy =     -127.25897919  energy(sigma->0) =     -127.25897919


--------------------------------------------------------------------------------------------------------




--------------------------------------- Iteration      1(  10)  ---------------------------------------


    POTLOK:  cpu time      0.0214: real time      0.0216
    SETDIJ:  cpu time      0.0017: real time      0.0017
     EDDAV:  cpu time      1.0757: real time      1.0767
       DOS:  cpu time      0.0002: real time      0.0004
    CHARGE:  cpu time      0.0372: real time      0.0372
    MIXING:  cpu time      0.0007: real time      0.0007
    --------------------------------------------
      LOOP:  cpu time      1.1369: real time      1.1383

 eigenvalue-minimisations  :  1440
 total energy-change (2. order) :-0.2444446E-02  (-0.4170218E-03)
 number of electron     184.0000178 magnetization 
 augmentation part       41.3661370 magnetization 

 Broyden mixing:
  rms(total) = 0.34773E-01    rms(broyden)= 0.34773E-01
  rms(prec ) = 0.36253E-01
  weight for this iteration     100.00

 eigenvalues of (default mixing * dielectric matrix)
  average eigenvalue GAMMA=   1.7690
  2.7004  2.7004  1.2448  1.2448  0.9547

 Free energy of the ion-electron system (eV)
  ---------------------------------------------------
  alpha Z        PSCENC =       251.25739050
  Ewald energy   TEWEN  =     -8117.24313764
  -Hartree energ DENC   =     -3414.01693476
  -exchange      EXHF   =         0.00000000
  -V(xc)+E(xc)   XCENC  =       441.46152286
  PAW double counting   =     16753.62031251   -17706.13327433
  entropy T*S    EENTRO =        -0.00000000
  eigenvalues    EBANDS =     -1816.33085886
  atomic energy  EATOM  =     13480.12355608
  Solvation  Ediel_sol  =         0.00000000
  ---------------------------------------------------
  free energy    TOTEN  =      -127.26142363 eV

  energy without entropy =     -127.26142363  energy(sigma->0) =     -127.26142363


--------------------------------------------------------------------------------------------------------




--------------------------------------- Iteration      1(  11)  ---------------------------------------


    POTLOK:  cpu time      0.0203: real time      0.0205
    SETDIJ:  cpu time      0.0016: real time      0.0016
     EDDAV:  cpu time      1.0319: real time      1.0331
       DOS:  cpu time      0.0002: real time      0.0004
    CHARGE:  cpu time      0.0373: real time      0.0373
    MIXING:  cpu time      0.0007: real time      0.0007
    --------------------------------------------
      LOOP:  cpu time      1.0921: real time      1.0937

 eigenvalue-minimisations  :  1408
 total energy-change (2. order) :-0.2578760E-02  (-0.3056910E-03)
 number of electron     184.0000178 magnetization 
 augmentation part       41.3650650 magnetization 

 Broyden mixing:
  rms(total) = 0.11541E-01    rms(broyden)= 0.11541E-01
  rms(prec ) = 0.11972E-01
  weight for this iteration     100.00

 eigenvalues of (default mixing * dielectric matrix)
  average eigenvalue GAMMA=   1.5616
  2.4628  2.4628  1.1603  1.1603  1.0617  1.0617

 Free energy of the ion-electron system (eV)
  ---------------------------------------------------
  alpha Z        PSCENC =       251.25739050
  Ewald energy   TEWEN  =     -8117.24313764
  -Hartree energ DENC   =     -3413.95795118
  -exchange      EXHF   =         0.00000000
  -V(xc)+E(xc)   XCENC  =       441.51307374
  PAW double counting   =     16725.18300955   -17677.79099860
  entropy T*S    EENTRO =        -0.00000000
  eigenvalues    EBANDS =     -1816.34894485
  atomic energy  EATOM  =     13480.12355608
  Solvation  Ediel_sol  =         0.00000000
  ---------------------------------------------------
  free energy    TOTEN  =      -127.26400239 eV

  energy without entropy =     -127.26400239  energy(sigma->0) =     -127.26400239


--------------------------------------------------------------------------------------------------------




--------------------------------------- Iteration      1(  12)  ---------------------------------------


    POTLOK:  cpu time      0.0203: real time      0.0205
    SETDIJ:  cpu time      0.0017: real time      0.0017
     EDDAV:  cpu time      0.9191: real time      0.9197
       DOS:  cpu time      0.0002: real time      0.0005
    CHARGE:  cpu time      0.0372: real time      0.0372
    MIXING:  cpu time      0.0008: real time      0.0008
    --------------------------------------------
      LOOP:  cpu time      0.9794: real time      0.9804

 eigenvalue-minimisations  :  1280
 total energy-change (2. order) : 0.9084563E-04  (-0.1277702E-04)
 number of electron     184.0000178 magnetization 
 augmentation part       41.3651792 magnetization 

 Broyden mixing:
  rms(total) = 0.67518E-02    rms(broyden)= 0.67518E-02
  rms(prec ) = 0.75034E-02
  weight for this iteration     100.00

 eigenvalues of (default mixing * dielectric matrix)
  average eigenvalue GAMMA=   1.6192
  2.6697  2.6697  1.3509  1.3509  1.2195  1.2195  0.8546

 Free energy of the ion-electron system (eV)
  ---------------------------------------------------
  alpha Z        PSCENC =       251.25739050
  Ewald energy   TEWEN  =     -8117.24313764
  -Hartree energ DENC   =     -3414.08722809
  -exchange      EXHF   =         0.00000000
  -V(xc)+E(xc)   XCENC  =       441.51058597
  PAW double counting   =     16714.52571480   -17667.13212453
  entropy T*S    EENTRO =        -0.00000000
  eigenvalues    EBANDS =     -1816.21866864
  atomic energy  EATOM  =     13480.12355608
  Solvation  Ediel_sol  =         0.00000000
  ---------------------------------------------------
  free energy    TOTEN  =      -127.26391155 eV

  energy without entropy =     -127.26391155  energy(sigma->0) =     -127.26391155


--------------------------------------------------------------------------------------------------------




--------------------------------------- Iteration      1(  13)  ---------------------------------------


    POTLOK:  cpu time      0.0204: real time      0.0206
    SETDIJ:  cpu time      0.0017: real time      0.0017
     EDDAV:  cpu time      0.9327: real time      0.9331
       DOS:  cpu time      0.0003: real time      0.0004
    CHARGE:  cpu time      0.0372: real time      0.0372
    MIXING:  cpu time      0.0008: real time      0.0008
    --------------------------------------------
      LOOP:  cpu time      0.9930: real time      0.9938

 eigenvalue-minimisations  :  1280
 total energy-change (2. order) :-0.2769251E-03  (-0.3140998E-04)
 number of electron     184.0000178 magnetization 
 augmentation part       41.3657070 magnetization 

 Broyden mixing:
  rms(total) = 0.35802E-02    rms(broyden)= 0.35802E-02
  rms(prec ) = 0.37899E-02
  weight for this iteration     100.00

 eigenvalues of (default mixing * dielectric matrix)
  average eigenvalue GAMMA=   1.6131
  3.0960  2.3060  1.8940  1.6019  1.1449  1.1449  0.9766  0.7408

 Free energy of the ion-electron system (eV)
  ---------------------------------------------------
  alpha Z        PSCENC =       251.25739050
  Ewald energy   TEWEN  =     -8117.24313764
  -Hartree energ DENC   =     -3414.24226271
  -exchange      EXHF   =         0.00000000
  -V(xc)+E(xc)   XCENC  =       441.53249509
  PAW double counting   =     16705.34037389   -17657.97963774
  entropy T*S    EENTRO =        -0.00000000
  eigenvalues    EBANDS =     -1816.05296594
  atomic energy  EATOM  =     13480.12355608
  Solvation  Ediel_sol  =         0.00000000
  ---------------------------------------------------
  free energy    TOTEN  =      -127.26418847 eV

  energy without entropy =     -127.26418847  energy(sigma->0) =     -127.26418847


--------------------------------------------------------------------------------------------------------




--------------------------------------- Iteration      1(  14)  ---------------------------------------


    POTLOK:  cpu time      0.0210: real time      0.0212
    SETDIJ:  cpu time      0.0016: real time      0.0016
     EDDAV:  cpu time      0.9139: real time      0.9147
       DOS:  cpu time      0.0002: real time      0.0004
    CHARGE:  cpu time      0.0372: real time      0.0372
    MIXING:  cpu time      0.0008: real time      0.0008
    --------------------------------------------
      LOOP:  cpu time      0.9748: real time      0.9760

 eigenvalue-minimisations  :  1248
 total energy-change (2. order) :-0.3883247E-04  (-0.5385958E-05)
 number of electron     184.0000178 magnetization 
 augmentation part       41.3654318 magnetization 

 Broyden mixing:
  rms(total) = 0.34923E-02    rms(broyden)= 0.34923E-02
  rms(prec ) = 0.35320E-02
  weight for this iteration     100.00

 eigenvalues of (default mixing * dielectric matrix)
  average eigenvalue GAMMA=   1.4987
  3.0963  2.1995  2.1995  1.5076  1.1053  1.1053  1.0061  0.6345  0.6345

 Free energy of the ion-electron system (eV)
  ---------------------------------------------------
  alpha Z        PSCENC =       251.25739050
  Ewald energy   TEWEN  =     -8117.24313764
  -Hartree energ DENC   =     -3414.27516424
  -exchange      EXHF   =         0.00000000
  -V(xc)+E(xc)   XCENC  =       441.54372598
  PAW double counting   =     16717.28251596   -17669.94311089
  entropy T*S    EENTRO =        -0.00000000
  eigenvalues    EBANDS =     -1816.01000306
  atomic energy  EATOM  =     13480.12355608
  Solvation  Ediel_sol  =         0.00000000
  ---------------------------------------------------
  free energy    TOTEN  =      -127.26422731 eV

  energy without entropy =     -127.26422731  energy(sigma->0) =     -127.26422731


--------------------------------------------------------------------------------------------------------




--------------------------------------- Iteration      1(  15)  ---------------------------------------


    POTLOK:  cpu time      0.0208: real time      0.0210
    SETDIJ:  cpu time      0.0016: real time      0.0016
     EDDAV:  cpu time      0.8421: real time      0.8426
       DOS:  cpu time      0.0002: real time      0.0003
    --------------------------------------------
      LOOP:  cpu time      0.8647: real time      0.8655

 eigenvalue-minimisations  :  1088
 total energy-change (2. order) :-0.3020905E-05  (-0.3426672E-06)
 number of electron     184.0000178 magnetization 
 augmentation part       41.3654318 magnetization 

 Free energy of the ion-electron system (eV)
  ---------------------------------------------------
  alpha Z        PSCENC =       251.25739050
  Ewald energy   TEWEN  =     -8117.24313764
  -Hartree energ DENC   =     -3414.28498169
  -exchange      EXHF   =         0.00000000
  -V(xc)+E(xc)   XCENC  =       441.54365828
  PAW double counting   =     16716.06383597   -17668.72365252
  entropy T*S    EENTRO =        -0.00000000
  eigenvalues    EBANDS =     -1816.00089931
  atomic energy  EATOM  =     13480.12355608
  Solvation  Ediel_sol  =         0.00000000
  ---------------------------------------------------
  free energy    TOTEN  =      -127.26423033 eV

  energy without entropy =     -127.26423033  energy(sigma->0) =     -127.26423033


--------------------------------------------------------------------------------------------------------




 average (electrostatic) potential at core
  the test charge radii are     0.9254  0.9892  0.9698
  (the norm of the test charge is              1.0000)
       1 -46.5447       2 -46.5447       3 -46.4849       4 -46.4849       5 -46.4526
       6 -46.4526       7 -46.4526       8 -46.4526       9 -46.8550      10 -46.8550
      11 -46.8550      12 -46.8550      13 -87.4803      14 -87.4803      15 -87.4803
      16 -87.4803      17 -88.8038      18 -88.8038      19 -88.0319      20 -88.0319
      21 -88.0319      22 -88.0319      23 -88.0924      24 -88.0924      25 -88.0924
      26 -88.0924      27 -88.1004      28 -88.1004      29 -88.1004      30 -88.1004



 E-fermi :   1.8227     XC(G=0):  -8.3324     alpha+bet : -8.8947

 Fermi energy:         1.8227201856

 k-point     1 :       0.0000    0.0000    0.0000
  band No.  band energies     occupation 
      1     -21.0780      2.00000
      2     -21.0780      2.00000
      3     -21.0777      2.00000
      4     -21.0777      2.00000
      5     -21.0444      2.00000
      6     -21.0440      2.00000
      7     -21.0437      2.00000
      8     -21.0432      2.00000
      9     -21.0239      2.00000
     10     -21.0235      2.00000
     11     -21.0200      2.00000
     12     -21.0196      2.00000
     13     -20.7869      2.00000
     14     -20.7868      2.00000
     15     -20.7362      2.00000
     16     -20.7338      2.00000
     17     -20.7202      2.00000
     18     -20.7199      2.00000
     19     -20.7112      2.00000
     20     -20.7096      2.00000
     21     -20.6803      2.00000
     22     -20.6799      2.00000
     23     -20.6728      2.00000
     24     -20.6727      2.00000
     25     -20.6721      2.00000
     26     -20.6717      2.00000
     27     -20.6615      2.00000
     28     -20.6614      2.00000
     29     -20.6434      2.00000
     30     -20.6433      2.00000
     31     -20.6420      2.00000
     32     -20.6419      2.00000
     33     -20.6354      2.00000
     34     -20.6354      2.00000
     35     -20.6290      2.00000
     36     -20.6289      2.00000
     37     -11.5536      2.00000
     38     -11.4791      2.00000
     39     -10.8406      2.00000
     40     -10.6726      2.00000
     41      -9.9258      2.00000
     42      -9.8346      2.00000
     43      -9.5087      2.00000
     44      -9.4718      2.00000
     45      -9.4634      2.00000
     46      -9.4469      2.00000
     47      -9.4346      2.00000
     48      -9.4150      2.00000
     49      -9.3856      2.00000
     50      -9.3755      2.00000
     51      -4.8953      2.00000
     52      -4.7294      2.00000
     53      -4.1314      2.00000
     54      -3.9732      2.00000
     55      -2.3226      2.00000
     56      -2.2643      2.00000
     57      -1.8656      2.00000
     58      -1.7461      2.00000
     59      -1.7386      2.00000
     60      -1.6533      2.00000
     61      -1.6131      2.00000
     62      -1.5299      2.00000
     63      -1.2722      2.00000
     64      -1.2653      2.00000
     65      -1.0549      2.00000
     66      -1.0410      2.00000
     67      -0.2898      2.00000
     68      -0.2148      2.00000
     69      -0.1441      2.00000
     70      -0.1204      2.00000
     71       0.0670      2.00000
     72       0.1067      2.00000
     73       0.3556      2.00000
     74       0.3669      2.00000
     75       0.4376      2.00000
     76       0.4804      2.00000
     77       0.5195      2.00000
     78       0.7075      2.00000
     79       0.7447      2.00000
     80       0.7531      2.00000
     81       0.8458      2.00000
     82       0.8974      2.00000
     83       0.9644      2.00000
     84       0.9918      2.00000
     85       1.1652      2.00000
     86       1.1813      2.00000
     87       1.2061      2.00000
     88       1.2938      2.00000
     89       1.3165      2.00000
     90       1.3335      2.00000
     91       1.4982      2.00000
     92       1.5363      2.00000
     93       4.7922      0.00000
     94       5.3540      0.00000
     95       5.5305      0.00000
     96       5.6913      0.00000
     97       5.9544      0.00000
     98       5.9677      0.00000
     99       6.4559      0.00000
    100       6.6026      0.00000
    101       6.6852      0.00000
    102       6.7153      0.00000
    103       6.7424      0.00000
    104       6.8339      0.00000
    105       6.9149      0.00000
    106       7.0520      0.00000
    107       7.1236      0.00000
    108       7.1351      0.00000
    109       7.3757      0.00000
    110       7.4040      0.00000
    111       7.7469      0.00000
    112       7.7937      0.00000
    113       7.9065      0.00000
    114       8.2147      0.00000
    115       8.2714      0.00000
    116       8.4292      0.00000
    117       8.5685      0.00000
    118       8.6841      0.00000
    119       8.7558      0.00000
    120       8.7691      0.00000
    121       8.8612      0.00000
    122       8.9651      0.00000
    123       9.0346      0.00000
    124       9.1192      0.00000
    125       9.1939      0.00000
    126       9.2130      0.00000
    127       9.2393      0.00000
    128       9.2686      0.00000

 k-point     2 :       0.3333    0.0000    0.0000
  band No.  band energies     occupation 
      1     -21.0780      2.00000
      2     -21.0779      2.00000
      3     -21.0777      2.00000
      4     -21.0777      2.00000
      5     -21.0443      2.00000
      6     -21.0441      2.00000
      7     -21.0434      2.00000
      8     -21.0432      2.00000
      9     -21.0239      2.00000
     10     -21.0236      2.00000
     11     -21.0199      2.00000
     12     -21.0197      2.00000
     13     -20.7869      2.00000
     14     -20.7868      2.00000
     15     -20.7361      2.00000
     16     -20.7338      2.00000
     17     -20.7202      2.00000
     18     -20.7200      2.00000
     19     -20.7111      2.00000
     20     -20.7095      2.00000
     21     -20.6806      2.00000
     22     -20.6799      2.00000
     23     -20.6732      2.00000
     24     -20.6731      2.00000
     25     -20.6714      2.00000
     26     -20.6712      2.00000
     27     -20.6615      2.00000
     28     -20.6614      2.00000
     29     -20.6445      2.00000
     30     -20.6431      2.00000
     31     -20.6422      2.00000
     32     -20.6409      2.00000
     33     -20.6353      2.00000
     34     -20.6352      2.00000
     35     -20.6291      2.00000
     36     -20.6290      2.00000
     37     -11.5083      2.00000
     38     -11.4704      2.00000
     39     -10.7893      2.00000
     40     -10.7240      2.00000
     41      -9.8886      2.00000
     42      -9.8524      2.00000
     43      -9.5623      2.00000
     44      -9.5397      2.00000
     45      -9.4894      2.00000
     46      -9.4599      2.00000
     47      -9.4343      2.00000
     48      -9.4132      2.00000
     49      -9.3812      2.00000
     50      -9.3767      2.00000
     51      -4.8620      2.00000
     52      -4.8465      2.00000
     53      -3.8790      2.00000
     54      -3.8106      2.00000
     55      -2.3592      2.00000
     56      -2.3129      2.00000
     57      -1.9033      2.00000
     58      -1.8582      2.00000
     59      -1.8075      2.00000
     60      -1.6894      2.00000
     61      -1.4401      2.00000
     62      -1.3780      2.00000
     63      -1.2535      2.00000
     64      -1.1995      2.00000
     65      -0.9711      2.00000
     66      -0.8733      2.00000
     67      -0.4464      2.00000
     68      -0.3849      2.00000
     69      -0.2104      2.00000
     70      -0.0620      2.00000
     71       0.0502      2.00000
     72       0.1201      2.00000
     73       0.1568      2.00000
     74       0.3306      2.00000
     75       0.3824      2.00000
     76       0.4572      2.00000
     77       0.5210      2.00000
     78       0.5907      2.00000
     79       0.6736      2.00000
     80       0.8022      2.00000
     81       0.9000      2.00000
     82       0.9578      2.00000
     83       0.9763      2.00000
     84       1.0181      2.00000
     85       1.0899      2.00000
     86       1.1683      2.00000
     87       1.2128      2.00000
     88       1.3096      2.00000
     89       1.3341      2.00000
     90       1.3667      2.00000
     91       1.4534      2.00000
     92       1.5085      2.00000
     93       5.3028      0.00000
     94       5.4841      0.00000
     95       5.6146      0.00000
     96       5.8110      0.00000
     97       5.9119      0.00000
     98       6.0811      0.00000
     99       6.1886      0.00000
    100       6.3542      0.00000
    101       6.4814      0.00000
    102       6.5153      0.00000
    103       6.5586      0.00000
    104       6.7349      0.00000
    105       6.8456      0.00000
    106       7.0087      0.00000
    107       7.0885      0.00000
    108       7.2413      0.00000
    109       7.3830      0.00000
    110       7.4112      0.00000
    111       7.4572      0.00000
    112       7.6594      0.00000
    113       7.9343      0.00000
    114       8.0621      0.00000
    115       8.2588      0.00000
    116       8.3414      0.00000
    117       8.4434      0.00000
    118       8.5545      0.00000
    119       8.6703      0.00000
    120       8.7906      0.00000
    121       8.9293      0.00000
    122       9.0273      0.00000
    123       9.0422      0.00000
    124       9.1322      0.00000
    125       9.1982      0.00000
    126       9.3167      0.00000
    127       9.4091      0.00000
    128       9.4648      0.00000

 k-point     3 :       0.3333    0.3333    0.0000
  band No.  band energies     occupation 
      1     -21.0780      2.00000
      2     -21.0779      2.00000
      3     -21.0777      2.00000
      4     -21.0777      2.00000
      5     -21.0443      2.00000
      6     -21.0441      2.00000
      7     -21.0435      2.00000
      8     -21.0433      2.00000
      9     -21.0239      2.00000
     10     -21.0237      2.00000
     11     -21.0199      2.00000
     12     -21.0197      2.00000
     13     -20.7869      2.00000
     14     -20.7869      2.00000
     15     -20.7361      2.00000
     16     -20.7338      2.00000
     17     -20.7203      2.00000
     18     -20.7201      2.00000
     19     -20.7111      2.00000
     20     -20.7095      2.00000
     21     -20.6808      2.00000
     22     -20.6803      2.00000
     23     -20.6726      2.00000
     24     -20.6726      2.00000
     25     -20.6717      2.00000
     26     -20.6716      2.00000
     27     -20.6616      2.00000
     28     -20.6616      2.00000
     29     -20.6444      2.00000
     30     -20.6442      2.00000
     31     -20.6411      2.00000
     32     -20.6411      2.00000
     33     -20.6356      2.00000
     34     -20.6355      2.00000
     35     -20.6289      2.00000
     36     -20.6289      2.00000
     37     -11.4723      2.00000
     38     -11.4620      2.00000
     39     -10.7433      2.00000
     40     -10.7367      2.00000
     41      -9.8909      2.00000
     42      -9.8641      2.00000
     43      -9.5642      2.00000
     44      -9.5234      2.00000
     45      -9.5129      2.00000
     46      -9.4896      2.00000
     47      -9.4866      2.00000
     48      -9.4312      2.00000
     49      -9.4135      2.00000
     50      -9.3880      2.00000
     51      -4.8520      2.00000
     52      -4.8046      2.00000
     53      -3.7469      2.00000
     54      -3.6968      2.00000
     55      -2.3542      2.00000
     56      -2.2668      2.00000
     57      -1.9509      2.00000
     58      -1.9418      2.00000
     59      -1.8762      2.00000
     60      -1.5871      2.00000
     61      -1.5451      2.00000
     62      -1.2827      2.00000
     63      -1.2604      2.00000
     64      -1.0612      2.00000
     65      -0.9212      2.00000
     66      -0.8613      2.00000
     67      -0.5257      2.00000
     68      -0.3527      2.00000
     69      -0.1287      2.00000
     70      -0.1198      2.00000
     71      -0.0454      2.00000
     72       0.0811      2.00000
     73       0.1590      2.00000
     74       0.3029      2.00000
     75       0.3113      2.00000
     76       0.3429      2.00000
     77       0.5009      2.00000
     78       0.5799      2.00000
     79       0.7004      2.00000
     80       0.8043      2.00000
     81       0.8315      2.00000
     82       0.8621      2.00000
     83       0.9845      2.00000
     84       1.0664      2.00000
     85       1.1044      2.00000
     86       1.1442      2.00000
     87       1.2144      2.00000
     88       1.2712      2.00000
     89       1.4181      2.00000
     90       1.4319      2.00000
     91       1.4703      2.00000
     92       1.4835      2.00000
     93       5.1926      0.00000
     94       5.4886      0.00000
     95       5.6054      0.00000
     96       5.9115      0.00000
     97       6.0236      0.00000
     98       6.0533      0.00000
     99       6.1784      0.00000
    100       6.2933      0.00000
    101       6.3768      0.00000
    102       6.5404      0.00000
    103       6.6453      0.00000
    104       6.6946      0.00000
    105       6.8997      0.00000
    106       6.9454      0.00000
    107       7.0384      0.00000
    108       7.2186      0.00000
    109       7.3769      0.00000
    110       7.4981      0.00000
[...]
     72      -0.0719      2.00000
     73       0.0057      2.00000
     74       0.1320      2.00000
     75       0.1509      2.00000
     76       0.1822      2.00000
     77       0.3321      2.00000
     78       0.4049      2.00000
     79       0.5264      2.00000
     80       0.6331      2.00000
     81       0.6655      2.00000
     82       0.6859      2.00000
     83       0.8035      2.00000
     84       0.8795      2.00000
     85       0.9179      2.00000
     86       0.9608      2.00000
     87       1.0354      2.00000
     88       1.0933      2.00000
     89       1.2243      2.00000
     90       1.2322      2.00000
     91       1.2808      2.00000
     92       1.2912      2.00000
     93       4.9434      0.00000
     94       5.2266      0.00000
     95       5.3148      0.00000
     96       5.6471      0.00000
     97       5.7251      0.00000
     98       5.7911      0.00000
     99       5.9639      0.00000
    100       6.0357      0.00000
    101       6.1401      0.00000
    102       6.2872      0.00000
    103       6.3415      0.00000
    104       6.4519      0.00000
    105       6.6273      0.00000
    106       6.6886      0.00000
    107       6.7935      0.00000
    108       6.9313      0.00000
    109       7.0908      0.00000
    110       7.1922      0.00000
    111       7.3227      0.00000
    112       7.4377      0.00000
    113       7.4911      0.00000
    114       7.6521      0.00000
    115       7.7529      0.00000
    116       7.9597      0.00000
    117       8.0800      0.00000
    118       8.1342      0.00000
    119       8.2174      0.00000
    120       8.2436      0.00000
    121       8.4726      0.00000
    122       8.4895      0.00000
    123       8.8720      0.00000
    124       8.8747      0.00000
    125       8.9379      0.00000
    126       8.9527      0.00000
    127       9.0518      0.00000
    128       9.1125      0.00000

 k-point     4 :      -0.3333    0.3333    0.0000
  band No.  band energies     occupation 
      1     -21.3433      2.00000
      2     -21.3432      2.00000
      3     -21.3431      2.00000
      4     -21.3431      2.00000
      5     -21.3089      2.00000
      6     -21.3086      2.00000
      7     -21.3084      2.00000
      8     -21.3080      2.00000
      9     -21.2873      2.00000
     10     -21.2869      2.00000
     11     -21.2841      2.00000
     12     -21.2837      2.00000
     13     -21.0463      2.00000
     14     -21.0463      2.00000
     15     -20.9957      2.00000
     16     -20.9927      2.00000
     17     -20.9829      2.00000
     18     -20.9806      2.00000
     19     -20.9781      2.00000
     20     -20.9779      2.00000
     21     -20.9520      2.00000
     22     -20.9515      2.00000
     23     -20.9324      2.00000
     24     -20.9322      2.00000
     25     -20.9314      2.00000
     26     -20.9312      2.00000
     27     -20.9286      2.00000
     28     -20.9286      2.00000
     29     -20.9020      2.00000
     30     -20.9018      2.00000
     31     -20.8991      2.00000
     32     -20.8990      2.00000
     33     -20.8919      2.00000
     34     -20.8919      2.00000
     35     -20.8865      2.00000
     36     -20.8865      2.00000
     37     -11.5842      2.00000
     38     -11.5564      2.00000
     39     -10.8660      2.00000
     40     -10.8063      2.00000
     41     -10.0763      2.00000
     42     -10.0230      2.00000
     43      -9.6753      2.00000
     44      -9.6586      2.00000
     45      -9.6446      2.00000
     46      -9.6265      2.00000
     47      -9.6087      2.00000
     48      -9.6080      2.00000
     49      -9.5794      2.00000
     50      -9.5621      2.00000
     51      -4.9541      2.00000
     52      -4.9317      2.00000
     53      -4.0825      2.00000
     54      -3.9571      2.00000
     55      -2.4046      2.00000
     56      -2.2658      2.00000
     57      -2.1051      2.00000
     58      -1.9698      2.00000
     59      -1.8588      2.00000
     60      -1.8366      2.00000
     61      -1.7133      2.00000
     62      -1.6139      2.00000
     63      -1.4765      2.00000
     64      -1.1973      2.00000
     65      -1.1081      2.00000
     66      -0.9915      2.00000
     67      -0.5202      2.00000
     68      -0.3511      2.00000
     69      -0.2970      2.00000
     70      -0.2570      2.00000
     71      -0.1659      2.00000
     72      -0.1631      2.00000
     73      -0.0702      2.00000
     74       0.0275      2.00000
     75       0.1855      2.00000
     76       0.2038      2.00000
     77       0.4474      2.00000
     78       0.4557      2.00000
     79       0.5828      2.00000
     80       0.6214      2.00000
     81       0.6529      2.00000
     82       0.7364      2.00000
     83       0.7682      2.00000
     84       0.8672      2.00000
     85       0.8813      2.00000
     86       0.9612      2.00000
     87       0.9887      2.00000
     88       1.0595      2.00000
     89       1.1445      2.00000
     90       1.2080      2.00000
     91       1.2922      2.00000
     92       1.3862      2.00000
     93       5.1916      0.00000
     94       5.1999      0.00000
     95       5.2039      0.00000
     96       5.4587      0.00000
     97       5.6892      0.00000
     98       5.8277      0.00000
     99       5.8515      0.00000
    100       5.9691      0.00000
    101       6.1354      0.00000
    102       6.1599      0.00000
    103       6.4724      0.00000
    104       6.5266      0.00000
    105       6.5905      0.00000
    106       6.7955      0.00000
    107       6.7976      0.00000
    108       6.9813      0.00000
    109       7.0475      0.00000
    110       7.0943      0.00000
    111       7.3414      0.00000
    112       7.3459      0.00000
    113       7.6018      0.00000
    114       7.7044      0.00000
    115       7.8338      0.00000
    116       8.0045      0.00000
    117       8.0549      0.00000
    118       8.2072      0.00000
    119       8.2372      0.00000
    120       8.3699      0.00000
    121       8.4474      0.00000
    122       8.6057      0.00000
    123       8.6715      0.00000
    124       8.7530      0.00000
    125       8.9312      0.00000
    126       8.9483      0.00000
    127       9.0191      0.00000
    128       9.1053      0.00000


--------------------------------------------------------------------------------------------------------


 soft charge-density along one line, spin component           1
         0         1         2         3         4         5         6         7         8         9
 total charge-density along one line

 pseudopotential strength for first ion, spin component:           1
-25.159   0.005  -0.022   2.468  -0.002   0.009   0.002   0.007
  0.005 -25.143   0.004  -0.002   2.462  -0.002  -0.000  -0.000
 -0.022   0.004 -25.152   0.009  -0.002   2.465  -0.003  -0.009
  2.468  -0.002   0.009   6.605   0.000  -0.001  -0.000   0.000
 -0.002   2.462  -0.002   0.000   6.607   0.000   0.000  -0.000
  0.009  -0.002   2.465  -0.001   0.000   6.606   0.000  -0.000
  0.002  -0.000  -0.003  -0.000   0.000   0.000   1.433   7.007
  0.007  -0.000  -0.009   0.000  -0.000  -0.000   7.007  34.027
 total augmentation occupancy for first ion, spin component:           1
  2.001  -0.000   0.000   0.000  -0.001   0.003  -0.008   0.003
 -0.000   2.001  -0.000  -0.001  -0.002  -0.001  -0.000   0.000
  0.000  -0.000   2.001   0.003  -0.001  -0.001   0.009  -0.003
  0.000  -0.001   0.003   0.017   0.001  -0.008  -0.004  -0.000
 -0.001  -0.002  -0.001   0.001   0.025   0.001  -0.000  -0.000
  0.003  -0.001  -0.001  -0.008   0.001   0.020   0.005   0.000
 -0.008  -0.000   0.009  -0.004  -0.000   0.005   0.543  -0.001
  0.003   0.000  -0.003  -0.000  -0.000   0.000  -0.001   0.000


------------------------ aborting loop because EDIFF is reached ----------------------------------------


    CHARGE:  cpu time      0.0375: real time      0.0375
    FORLOC:  cpu time      0.0036: real time      0.0036
    FORNL :  cpu time      0.1955: real time      0.1956
    STRESS:  cpu time      0.5865: real time      0.5870
    FORCOR:  cpu time      0.0226: real time      0.0226
    FORHAR:  cpu time      0.0073: real time      0.0073
    MIXING:  cpu time      0.0005: real time      0.0005
    OFIELD:  cpu time      0.0000: real time      0.0000

  FORCE on cell =-STRESS in cart. coord.  units (eV):
  Direction    XX          YY          ZZ          XY          YZ          ZX
  --------------------------------------------------------------------------------------
  Alpha Z   243.31446   243.31446   243.31446
  Ewald   -2683.69446 -2697.15862 -2644.90865   -39.27920    15.88480    13.39401
  Hartree  1143.16665  1140.05383  1178.20425    -9.08134     8.61859     7.26714
  E(xc)    -805.92955  -805.94977  -805.78757    -0.05899    -0.09166    -0.07729
  Local    -877.07875  -862.84207  -959.25073    41.53419   -24.61368   -20.75410
  n-local   897.34025   899.48189   896.60303    -1.52101     3.48005     1.98874
  augment   240.21269   240.09277   240.34927    -0.34995    -0.02248    -0.01883
  Kinetic  1841.29238  1844.21010  1851.23582     8.47004    -2.74182    -2.40478
  Fock        0.00000     0.00000     0.00000     0.00000     0.00000     0.00000
  -------------------------------------------------------------------------------------
  Total      -0.07614    -0.09760    -0.24012    -0.06261     0.00201     0.00169
  in kB      -0.17755    -0.22760    -0.55993    -0.14601     0.00469     0.00395
  external pressure =       -0.32 kB  Pullay stress =        0.00 kB


 VOLUME and BASIS-vectors are now :
 -----------------------------------------------------------------------------
  energy-cutoff  :      400.00
  volume of cell :      687.07
      direct lattice vectors                 reciprocal lattice vectors
     6.799292139  0.003530624  1.199118596     0.147026358  0.025084778  0.000197043
    -1.145093088  6.702175735  1.199118819    -0.000112199  0.149150855  0.000197043
    -0.016796384 -0.019919990 15.068794189    -0.011690882 -0.013865026  0.066330951

  length of vectors
     6.904221278  6.904222165 15.068816717     0.149151047  0.149151028  0.068765621


 FORCES acting on ions
    electron-ion (+dipol)            ewald-force                    non-local-force                 convergence-correction
 -----------------------------------------------------------------------------------------------
   0.503E+01 -.424E+01 -.823E-05   -.437E+01 0.369E+01 0.111E-04   -.653E+00 0.551E+00 0.183E-07   0.365E-02 -.307E-02 -.203E-08
   -.503E+01 0.424E+01 0.823E-05   0.437E+01 -.369E+01 -.111E-04   0.653E+00 -.551E+00 -.183E-07   -.365E-02 0.307E-02 0.202E-08
   -.283E-11 -.351E-11 0.411E-10   0.148E-12 0.264E-12 -.124E-12   -.558E-24 0.411E-24 0.248E-24   -.455E-12 0.445E-12 0.162E-11
   0.124E-10 0.954E-11 0.750E-11   0.149E-12 0.358E-12 -.853E-13   -.126E-24 0.369E-24 -.132E-24   0.397E-12 0.158E-12 -.181E-11
   0.451E+01 -.173E+02 0.400E+02   -.431E+01 0.158E+02 -.379E+02   -.201E+00 0.154E+01 -.211E+01   0.570E-02 0.362E-03 -.107E-02
   0.178E+02 -.152E+01 -.400E+02   -.163E+02 0.158E+01 0.379E+02   -.155E+01 -.614E-01 0.211E+01   0.606E-03 -.568E-02 0.107E-02
   -.451E+01 0.173E+02 -.400E+02   0.431E+01 -.158E+02 0.379E+02   0.201E+00 -.154E+01 0.211E+01   -.570E-02 -.362E-03 0.107E-02
   -.178E+02 0.152E+01 0.400E+02   0.163E+02 -.158E+01 -.379E+02   0.155E+01 0.614E-01 -.211E+01   -.606E-03 0.568E-02 -.107E-02
   -.245E+00 0.192E+02 -.142E+02   0.542E+00 -.173E+02 0.147E+02   -.288E+00 -.188E+01 -.502E+00   0.138E-02 0.278E-02 0.564E-02
   -.190E+02 -.300E+01 0.142E+02   0.171E+02 0.239E+01 -.147E+02   0.181E+01 0.603E+00 0.502E+00   -.251E-02 -.183E-02 -.564E-02
   0.245E+00 -.192E+02 0.142E+02   -.542E+00 0.173E+02 -.147E+02   0.288E+00 0.188E+01 0.502E+00   -.138E-02 -.278E-02 -.564E-02
   0.190E+02 0.300E+01 -.142E+02   -.171E+02 -.239E+01 0.147E+02   -.181E+01 -.603E+00 -.502E+00   0.251E-02 0.183E-02 0.564E-02
   -.685E+01 -.638E+01 0.190E+02   0.551E+01 0.629E+01 -.179E+02   0.133E+01 0.826E-01 -.107E+01   -.560E-03 0.245E-02 -.260E-02
   0.513E+01 0.783E+01 -.190E+02   -.527E+01 -.649E+01 0.179E+02   0.143E+00 -.132E+01 0.107E+01   -.251E-02 0.139E-03 0.260E-02
   -.513E+01 -.783E+01 0.190E+02   0.527E+01 0.649E+01 -.179E+02   -.143E+00 0.132E+01 -.107E+01   0.251E-02 -.139E-03 -.260E-02
   0.685E+01 0.638E+01 -.190E+02   -.551E+01 -.629E+01 0.179E+02   -.133E+01 -.826E-01 0.107E+01   0.560E-03 -.245E-02 0.260E-02
   -.320E+02 0.270E+02 0.600E-05   0.349E+02 -.295E+02 -.110E-04   -.292E+01 0.247E+01 0.821E-07   -.225E-02 0.190E-02 0.993E-09
   0.320E+02 -.270E+02 -.600E-05   -.349E+02 0.295E+02 0.110E-04   0.292E+01 -.247E+01 -.821E-07   0.225E-02 -.190E-02 -.991E-09
   0.924E+01 -.375E+02 -.178E+01   -.100E+02 0.389E+02 0.267E+01   0.776E+00 -.138E+01 -.897E+00   0.935E-03 -.127E-02 -.384E-02
   0.385E+02 -.277E+01 0.178E+01   -.400E+02 0.330E+01 -.267E+01   0.150E+01 -.531E+00 0.897E+00   0.141E-02 -.707E-03 0.384E-02
   -.924E+01 0.375E+02 0.178E+01   0.100E+02 -.389E+02 -.267E+01   -.776E+00 0.138E+01 0.897E+00   -.935E-03 0.127E-02 0.384E-02
   -.385E+02 0.277E+01 -.178E+01   0.400E+02 -.330E+01 0.267E+01   -.150E+01 0.531E+00 -.897E+00   -.141E-02 0.707E-03 -.384E-02
   -.223E+02 0.269E+02 -.335E+02   0.233E+02 -.276E+02 0.346E+02   -.954E+00 0.716E+00 -.110E+01   -.307E-05 0.949E-03 -.146E-02
   -.303E+02 0.175E+02 0.335E+02   0.311E+02 -.183E+02 -.346E+02   -.867E+00 0.819E+00 0.110E+01   -.936E-03 -.157E-03 0.146E-02
   0.223E+02 -.269E+02 0.335E+02   -.233E+02 0.276E+02 -.346E+02   0.954E+00 -.716E+00 0.110E+01   0.307E-05 -.949E-03 0.146E-02
   0.303E+02 -.175E+02 -.335E+02   -.311E+02 0.183E+02 0.346E+02   0.867E+00 -.819E+00 -.110E+01   0.936E-03 0.157E-03 -.146E-02
   0.271E+02 0.155E+02 0.388E+02   -.284E+02 -.162E+02 -.396E+02   0.130E+01 0.610E+00 0.803E+00   0.202E-02 0.210E-02 -.119E-02
   -.107E+02 -.293E+02 -.388E+02   0.111E+02 0.307E+02 0.396E+02   -.381E+00 -.139E+01 -.803E+00   -.173E-02 -.234E-02 0.119E-02
   -.271E+02 -.155E+02 -.388E+02   0.284E+02 0.162E+02 0.396E+02   -.130E+01 -.610E+00 -.803E+00   -.202E-02 -.210E-02 0.119E-02
   0.107E+02 0.293E+02 0.388E+02   -.111E+02 -.307E+02 -.396E+02   0.381E+00 0.139E+01 0.803E+00   0.173E-02 0.234E-02 -.119E-02
 -----------------------------------------------------------------------------------------------
   0.280E-09 -.239E-09 0.117E-08   -.853E-13 -.213E-13 -.426E-13   -.278E-15 0.666E-15 0.222E-15   -.113E-12 0.736E-12 -.413E-11


 POSITION                                       TOTAL-FORCE (eV/Angst)
 -----------------------------------------------------------------------------------
      3.45100      2.80122     12.50071         0.009868     -0.008320     -0.000000
      2.18640      3.88457      4.96632        -0.009868      0.008320      0.000000
      2.82710      3.35285      1.19912         0.000000     -0.000000      0.000000
      2.81870      3.34289      8.73352         0.000000     -0.000000      0.000000
      0.66841      6.49087     15.42262         0.009036     -0.005107      0.018077
     -0.65567      4.92055      9.57880         0.006560     -0.008044     -0.018077
      4.96900      0.19492      2.04441        -0.009036      0.005107     -0.018077
      6.29307      1.76523      7.88823        -0.006560      0.008044      0.018077
      2.37327      6.36790     11.38663         0.009713      0.027921      0.011107
     -0.24648      3.26096     13.61480        -0.025879     -0.014290     -0.011107
      3.26413      0.31789      6.08040        -0.009713     -0.027921     -0.011107
      5.88388      3.42482      3.85223         0.025879      0.014290      0.011107
      4.13622      6.17942     14.98057        -0.014834     -0.006604      0.007086
      0.23710      1.55518     10.02086         0.004003      0.015737     -0.007086
      5.40030      5.13060      7.44617        -0.004003     -0.015737      0.007086
      1.50118      0.50636      2.48647         0.014834      0.006604     -0.007086
     -0.89171      6.46297     12.50071         0.022971     -0.019369     -0.000000
      6.52912      0.22282      4.96632        -0.022971      0.019369      0.000000
      4.48440      1.29032     14.52401         0.000794      0.011603     -0.008708
      5.11476      2.03790     10.47742        -0.011302     -0.002742      0.008708
      1.15300      5.39547      2.94303        -0.000794     -0.011603      0.008708
      0.52265      4.64788      6.98961         0.011302      0.002742     -0.008708
      5.01844      4.97429     16.51662         0.010215     -0.001396     -0.032591
      1.57394      0.88922      8.48481         0.003101     -0.009832      0.032591
      0.61896      1.71149      0.95041        -0.010215      0.001396      0.032591
      4.06346      5.79656      8.98223        -0.003101      0.009832     -0.032591
      2.64944      5.08314     13.91343         0.000516     -0.002872     -0.033201
      1.06648      3.20579     11.08799         0.002918     -0.000024      0.033201
      2.98796      1.60265      3.55360        -0.000516      0.002872      0.033201
      4.57092      3.48000      6.37904        -0.002918      0.000024     -0.033201
 -----------------------------------------------------------------------------------
    total drift:                                0.000000     -0.000000      0.000000


--------------------------------------------------------------------------------------------------------



  FREE ENERGIE OF THE ION-ELECTRON SYSTEM (eV)
  ---------------------------------------------------
  free  energy   TOTEN  =      -127.34014867 eV

  energy  without entropy=     -127.34014867  energy(sigma->0) =     -127.34014867

 d Force = 0.1741670E-02[ 0.887E-03, 0.260E-02]  d Energy = 0.1789513E-02-0.478E-04
 d Force =-0.3614238E+00[-0.375E+00,-0.348E+00]  d Ewald  =-0.2950222E+01 0.259E+01


--------------------------------------------------------------------------------------------------------


    POTLOK:  cpu time      0.0228: real time      0.0228


--------------------------------------------------------------------------------------------------------


 Conjugate gradient step on ions:
 trial-energy change:   -0.001790  1 .order   -0.001723   -0.002656   -0.000790
  (g-gl).g = 0.229E-02      g.g   = 0.226E-02  gl.gl    = 0.705E-02
 g(Force)  = 0.218E-02   g(Stress)= 0.742E-04 ortho     =-0.663E-04
 gamma     =   0.32464
 trial     =   1.18859
 opt step  =   1.58105  (harmonic =   1.69216) maximal distance =0.00547588
 next E    =  -127.340282   (d E  =  -0.00192)


--------------------------------------------------------------------------------------------------------


  
 reached required accuracy - stopping structural energy minimisation
     LOOP+:  cpu time      5.7380: real time      5.7523
    4ORBIT:  cpu time      0.0000: real time      0.0000

 total amount of memory used by VASP MPI-rank0    44587. kBytes
=======================================================================

   base      :      30000. kBytes
   nonlr-proj:       3385. kBytes
   fftplans  :       1540. kBytes
   grid      :       6400. kBytes
   one-center:         92. kBytes
   wavefun   :       3170. kBytes

  
  
 General timing and accounting informations for this job:
 ========================================================
  
                  Total CPU time used (sec):       74.891
                            User time (sec):       71.391
                          System time (sec):        3.501
                         Elapsed time (sec):       75.655
  
                   Maximum memory used (kb):      144608.
                   Average memory used (kb):          N/A
  
                          Minor page faults:       661487
                          Major page faults:          114
                 Voluntary context switches:         1202
