  79  79   0   0
  0.2352942E+02  0.1210264E-08  0.7093817E-09  0.2165102E-08  0.0000000E+00
   1.0000000000000000E-004
  CAR 
 NEB_refined                             
      8.96552788    -23.90006037  301      0.87415841      1.00000000
    -23.900  0.0000E+00  0.0000E+00
    -23.791  0.0000E+00  0.0000E+00
    -23.681  0.0000E+00  0.0000E+00
    -23.571 -0.9756E-31 -0.1069E-31
    -23.462 -0.6840E-27 -0.7494E-28
    -23.352 -0.2563E-23 -0.2808E-24
    -23.243 -0.5268E-20 -0.5774E-21
    -23.133 -0.5940E-17 -0.6513E-18
    -23.024 -0.3563E-14 -0.3910E-15
    -22.914 -0.1198E-11 -0.1316E-12
    -22.805 -0.2200E-09 -0.2423E-10
    -22.695 -0.2198E-07 -0.2432E-08
    -22.585 -0.1188E-05 -0.1326E-06
    -22.476 -0.3443E-04 -0.3904E-05
    -22.366 -0.5248E-03 -0.6140E-04
    -22.257 -0.4053E-02 -0.5054E-03
    -22.147 -0.1432E-01 -0.2074E-02
    -22.038 -0.1227E-01 -0.3417E-02
    -21.928  0.6701E-01  0.3924E-02
    -21.819  0.3145E+00  0.3837E-01
    -21.709  0.7973E+00  0.1257E+00
    -21.599  0.1232E+01  0.2607E+00
    -21.490  0.1126E+01  0.3841E+00
    -21.380  0.6197E+00  0.4520E+00
    -21.271  0.1834E+00  0.4721E+00
    -21.161 -0.3311E-02  0.4717E+00
    -21.052 -0.2414E-01  0.4691E+00
    -20.942 -0.8227E-02  0.4681E+00
    -20.833 -0.1261E-02  0.4680E+00
    -20.723 -0.9988E-04  0.4680E+00
    -20.614 -0.4242E-05  0.4680E+00
    -20.504 -0.9792E-07  0.4680E+00
    -20.394 -0.1235E-08  0.4680E+00
    -20.285 -0.8535E-11  0.4680E+00
    -20.175 -0.3234E-13  0.4680E+00
    -20.066 -0.6486E-16  0.4680E+00
    -19.956  0.0000E+00  0.4680E+00
    -19.847  0.0000E+00  0.4680E+00
    -19.737  0.0000E+00  0.4680E+00
    -19.628  0.0000E+00  0.4680E+00
    -19.518  0.0000E+00  0.4680E+00
    -19.408  0.0000E+00  0.4680E+00
    -19.299  0.0000E+00  0.4680E+00
    -19.189  0.0000E+00  0.4680E+00
    -19.080  0.0000E+00  0.4680E+00
    -18.970  0.0000E+00  0.4680E+00
    -18.861  0.0000E+00  0.4680E+00
    -18.751  0.0000E+00  0.4680E+00
    -18.642  0.0000E+00  0.4680E+00
    -18.532  0.0000E+00  0.4680E+00
    -18.422  0.0000E+00  0.4680E+00
    -18.313  0.0000E+00  0.4680E+00
    -18.203  0.0000E+00  0.4680E+00
    -18.094  0.0000E+00  0.4680E+00
    -17.984  0.0000E+00  0.4680E+00
    -17.875  0.0000E+00  0.4680E+00
    -17.765  0.0000E+00  0.4680E+00
    -17.656  0.0000E+00  0.4680E+00
    -17.546  0.0000E+00  0.4680E+00
    -17.436  0.0000E+00  0.4680E+00
    -17.327  0.0000E+00  0.4680E+00
    -17.217  0.0000E+00  0.4680E+00
    -17.108  0.0000E+00  0.4680E+00
    -16.998  0.0000E+00  0.4680E+00
    -16.889  0.0000E+00  0.4680E+00
    -16.779  0.0000E+00  0.4680E+00
    -16.670  0.0000E+00  0.4680E+00
    -16.560  0.0000E+00  0.4680E+00
    -16.451  0.0000E+00  0.4680E+00
    -16.341  0.0000E+00  0.4680E+00
    -16.231  0.0000E+00  0.4680E+00
    -16.122  0.0000E+00  0.4680E+00
    -16.012  0.0000E+00  0.4680E+00
    -15.903  0.0000E+00  0.4680E+00
    -15.793  0.0000E+00  0.4680E+00
    -15.684  0.0000E+00  0.4680E+00
    -15.574  0.0000E+00  0.4680E+00
    -15.465  0.0000E+00  0.4680E+00
    -15.355  0.0000E+00  0.4680E+00
    -15.245  0.0000E+00  0.4680E+00
    -15.136  0.0000E+00  0.4680E+00
    -15.026  0.0000E+00  0.4680E+00
    -14.917  0.0000E+00  0.4680E+00
    -14.807  0.0000E+00  0.4680E+00
    -14.698  0.0000E+00  0.4680E+00
    -14.588  0.0000E+00  0.4680E+00
    -14.479  0.0000E+00  0.4680E+00
    -14.369  0.0000E+00  0.4680E+00
    -14.259  0.0000E+00  0.4680E+00
    -14.150  0.0000E+00  0.4680E+00
    -14.040  0.0000E+00  0.4680E+00
    -13.931  0.0000E+00  0.4680E+00
    -13.821  0.0000E+00  0.4680E+00
    -13.712  0.0000E+00  0.4680E+00
    -13.602  0.0000E+00  0.4680E+00
    -13.493  0.0000E+00  0.4680E+00
    -13.383  0.0000E+00  0.4680E+00
    -13.274  0.0000E+00  0.4680E+00
    -13.164  0.0000E+00  0.4680E+00
    -13.054  0.0000E+00  0.4680E+00
    -12.945  0.0000E+00  0.4680E+00
    -12.835  0.0000E+00  0.4680E+00
    -12.726  0.0000E+00  0.4680E+00
    -12.616  0.0000E+00  0.4680E+00
    -12.507  0.0000E+00  0.4680E+00
    -12.397  0.0000E+00  0.4680E+00
    -12.288  0.0000E+00  0.4680E+00
    -12.178 -0.4534E-29  0.4680E+00
    -12.068 -0.2176E-25  0.4680E+00
    -11.959 -0.5715E-22  0.4680E+00
    -11.849 -0.8215E-19  0.4680E+00
    -11.740 -0.6260E-16  0.4680E+00
    -11.630 -0.2687E-13  0.4680E+00
    -11.521 -0.6280E-11  0.4680E+00
    -11.411 -0.8004E-09  0.4680E+00
    -11.302 -0.5548E-07  0.4680E+00
    -11.192 -0.2080E-05  0.4680E+00
    -11.082 -0.4163E-04  0.4680E+00
    -10.973 -0.4323E-03  0.4679E+00
    -10.863 -0.2137E-02  0.4677E+00
    -10.754 -0.3202E-02  0.4674E+00
    -10.644  0.1119E-01  0.4686E+00
    -10.535  0.5442E-01  0.4746E+00
    -10.425  0.9641E-01  0.4851E+00
    -10.316  0.9005E-01  0.4950E+00
    -10.206  0.4205E-01  0.4996E+00
    -10.097 -0.4529E-03  0.4995E+00
     -9.987 -0.5505E-02  0.4989E+00
     -9.877  0.5226E-01  0.5047E+00
     -9.768  0.1800E+00  0.5244E+00
     -9.658  0.2914E+00  0.5563E+00
     -9.549  0.2584E+00  0.5846E+00
     -9.439  0.1113E+00  0.5968E+00
     -9.330  0.8040E-02  0.5977E+00
     -9.220 -0.1072E-01  0.5965E+00
     -9.111 -0.3969E-02  0.5961E+00
     -9.001 -0.5947E-03  0.5960E+00
     -8.891 -0.4474E-04  0.5960E+00
     -8.782 -0.1788E-05  0.5960E+00
     -8.672 -0.3876E-07  0.5960E+00
     -8.563 -0.4593E-09  0.5960E+00
     -8.453 -0.2985E-11  0.5960E+00
     -8.344 -0.1064E-13  0.5960E+00
     -8.234 -0.2432E-16  0.5960E+00
     -8.125  0.0000E+00  0.5960E+00
     -8.015  0.0000E+00  0.5960E+00
     -7.905  0.0000E+00  0.5960E+00
     -7.796  0.0000E+00  0.5960E+00
     -7.686  0.0000E+00  0.5960E+00
     -7.577  0.0000E+00  0.5960E+00
     -7.467  0.0000E+00  0.5960E+00
     -7.358  0.0000E+00  0.5960E+00
     -7.248  0.0000E+00  0.5960E+00
     -7.139  0.0000E+00  0.5960E+00
     -7.029  0.0000E+00  0.5960E+00
     -6.920  0.0000E+00  0.5960E+00
     -6.810  0.0000E+00  0.5960E+00
     -6.700  0.0000E+00  0.5960E+00
     -6.591  0.0000E+00  0.5960E+00
     -6.481  0.0000E+00  0.5960E+00
     -6.372  0.0000E+00  0.5960E+00
     -6.262  0.0000E+00  0.5960E+00
     -6.153  0.0000E+00  0.5960E+00
     -6.043  0.0000E+00  0.5960E+00
     -5.934  0.0000E+00  0.5960E+00
     -5.824  0.0000E+00  0.5960E+00
     -5.714  0.0000E+00  0.5960E+00
     -5.605  0.0000E+00  0.5960E+00
     -5.495  0.0000E+00  0.5960E+00
     -5.386  0.0000E+00  0.5960E+00
     -5.276  0.0000E+00  0.5960E+00
     -5.167  0.0000E+00  0.5960E+00
     -5.057  0.0000E+00  0.5960E+00
     -4.948 -0.3809E-31  0.5960E+00
     -4.838 -0.2512E-27  0.5960E+00
     -4.728 -0.9032E-24  0.5960E+00
     -4.619 -0.1774E-20  0.5960E+00
     -4.509 -0.1901E-17  0.5960E+00
     -4.400 -0.1077E-14  0.5960E+00
     -4.290 -0.3411E-12  0.5960E+00
     -4.181 -0.5870E-10  0.5960E+00
     -4.071 -0.5481E-08  0.5960E+00
     -3.962 -0.2769E-06  0.5960E+00
     -3.852 -0.7522E-05  0.5960E+00
     -3.742 -0.1085E-03  0.5960E+00
     -3.633 -0.8016E-03  0.5959E+00
     -3.523 -0.2643E-02  0.5956E+00
     -3.414 -0.5303E-03  0.5956E+00
     -3.304  0.2152E-01  0.5979E+00
     -3.195  0.6564E-01  0.6051E+00
     -3.085  0.9423E-01  0.6154E+00
     -2.976  0.7740E-01  0.6239E+00
     -2.866  0.3601E-01  0.6278E+00
     -2.757  0.5803E-02  0.6285E+00
     -2.647 -0.2625E-02  0.6282E+00
     -2.537 -0.1472E-02  0.6280E+00
     -2.428 -0.2818E-03  0.6280E+00
     -2.318 -0.3112E-04  0.6280E+00
     -2.209 -0.9592E-04  0.6280E+00
     -2.099 -0.8791E-03  0.6279E+00
     -1.990 -0.3895E-02  0.6275E+00
     -1.880 -0.4706E-02  0.6270E+00
     -1.771  0.2206E-01  0.6294E+00
     -1.661  0.9414E-01  0.6397E+00
     -1.551  0.1634E+00  0.6576E+00
     -1.442  0.1803E+00  0.6773E+00
     -1.332  0.1688E+00  0.6958E+00
     -1.223  0.1452E+00  0.7117E+00
     -1.113  0.9028E-01  0.7216E+00
     -1.004  0.2519E-01  0.7244E+00
     -0.894 -0.7767E-02  0.7235E+00
     -0.785  0.7351E-02  0.7243E+00
     -0.675  0.7372E-01  0.7324E+00
     -0.565  0.1407E+00  0.7478E+00
     -0.456  0.1495E+00  0.7642E+00
     -0.346  0.1322E+00  0.7787E+00
     -0.237  0.1307E+00  0.7930E+00
     -0.127  0.1459E+00  0.8090E+00
     -0.018  0.1546E+00  0.8259E+00
      0.092  0.1471E+00  0.8421E+00
      0.201  0.1526E+00  0.8588E+00
      0.311  0.1749E+00  0.8779E+00
      0.420  0.2036E+00  0.9002E+00
      0.530  0.2304E+00  0.9255E+00
      0.640  0.2183E+00  0.9494E+00
      0.749  0.1623E+00  0.9672E+00
      0.859  0.9125E-01  0.9772E+00
      0.968  0.3053E-01  0.9805E+00
      1.078  0.5499E-03  0.9806E+00
      1.187 -0.3774E-02  0.9802E+00
      1.297 -0.1380E-02  0.9800E+00
      1.406 -0.2196E-03  0.9800E+00
      1.516 -0.1780E-04  0.9800E+00
      1.626 -0.7644E-06  0.9800E+00
      1.735 -0.1764E-07  0.9800E+00
      1.845 -0.2202E-09  0.9800E+00
      1.954 -0.1492E-11  0.9800E+00
      2.064 -0.5505E-14  0.9800E+00
      2.173 -0.8108E-17  0.9800E+00
      2.283 -0.2104E-18  0.9800E+00
      2.392 -0.1448E-15  0.9800E+00
      2.502 -0.5519E-13  0.9800E+00
      2.612 -0.1141E-10  0.9800E+00
      2.721 -0.1269E-08  0.9800E+00
      2.831 -0.7533E-07  0.9800E+00
      2.940 -0.2354E-05  0.9800E+00
      3.050 -0.3762E-04  0.9800E+00
      3.159 -0.2869E-03  0.9800E+00
      3.269 -0.8104E-03  0.9799E+00
      3.378  0.9322E-03  0.9800E+00
      3.488  0.9085E-02  0.9810E+00
      3.597  0.1619E-01  0.9827E+00
      3.707  0.1083E-01  0.9839E+00
      3.817  0.1840E-02  0.9841E+00
      3.926 -0.1041E-02  0.9840E+00
      4.036 -0.1492E-02  0.9839E+00
      4.145 -0.1170E-02  0.9837E+00
      4.255  0.8361E-02  0.9846E+00
      4.364  0.2733E-01  0.9876E+00
      4.474  0.2998E-01  0.9909E+00
      4.583  0.1170E-01  0.9922E+00
      4.693 -0.1386E-02  0.9921E+00
      4.803 -0.3309E-02  0.9917E+00
      4.912  0.4658E-02  0.9922E+00
      5.022  0.2594E-01  0.9950E+00
      5.131  0.4184E-01  0.9996E+00
      5.241  0.4367E-01  0.1004E+01
      5.350  0.5553E-01  0.1010E+01
      5.460  0.7743E-01  0.1019E+01
      5.569  0.9798E-01  0.1030E+01
      5.679  0.1178E+00  0.1043E+01
      5.789  0.1273E+00  0.1057E+01
      5.898  0.1103E+00  0.1069E+01
      6.008  0.7826E-01  0.1077E+01
      6.117  0.7177E-01  0.1085E+01
      6.227  0.8757E-01  0.1095E+01
      6.336  0.9048E-01  0.1105E+01
      6.446  0.8641E-01  0.1114E+01
      6.555  0.1002E+00  0.1125E+01
      6.665  0.1169E+00  0.1138E+01
      6.774  0.1144E+00  0.1150E+01
      6.884  0.1087E+00  0.1162E+01
      6.994  0.8911E-01  0.1172E+01
      7.103  0.3968E-01  0.1176E+01
      7.213  0.2380E-02  0.1177E+01
      7.322 -0.4189E-02  0.1176E+01
      7.432 -0.1434E-02  0.1176E+01
      7.541 -0.1965E-03  0.1176E+01
      7.651 -0.1326E-04  0.1176E+01
      7.760 -0.4678E-06  0.1176E+01
      7.870 -0.8829E-08  0.1176E+01
      7.980 -0.9016E-10  0.1176E+01
      8.089 -0.5009E-12  0.1176E+01
      8.199 -0.1532E-14  0.1176E+01
      8.308  0.0000E+00  0.1176E+01
      8.418  0.0000E+00  0.1176E+01
      8.527  0.0000E+00  0.1176E+01
      8.637  0.0000E+00  0.1176E+01
      8.746  0.0000E+00  0.1176E+01
      8.856  0.0000E+00  0.1176E+01
      8.966  0.0000E+00  0.1176E+01
