       N       E                     dE             d eps       ncg     rms          rms(c)
DAV:   1     0.466024208193E+04    0.46602E+04   -0.19999E+05   633   0.140E+03
DAV:   2     0.322094848126E+03   -0.43381E+04   -0.41826E+04   651   0.401E+02
DAV:   3    -0.285436779258E+03   -0.60753E+03   -0.60087E+03   693   0.164E+02
DAV:   4    -0.321562023565E+03   -0.36125E+02   -0.35730E+02   672   0.375E+01
DAV:   5    -0.323210060252E+03   -0.16480E+01   -0.16454E+01   843   0.813E+00    0.268E+01
RMM:   6    -0.305419459561E+03    0.17791E+02   -0.30633E+01   636   0.586E+00    0.178E+01
RMM:   7    -0.304700053739E+03    0.71941E+00   -0.38561E+01   631   0.551E+00    0.109E+01
RMM:   8    -0.304158700486E+03    0.54135E+00   -0.26541E+00   717   0.282E+00    0.605E+00
RMM:   9    -0.304174648412E+03   -0.15948E-01   -0.22505E+00   640   0.187E+00    0.282E+00
RMM:  10    -0.304036012812E+03    0.13864E+00   -0.21291E-01   689   0.103E+00    0.192E+00
RMM:  11    -0.304003550349E+03    0.32462E-01   -0.96575E-02   722   0.439E-01    0.101E+00
RMM:  12    -0.304002177984E+03    0.13724E-02   -0.54303E-02   740   0.286E-01    0.747E-01
RMM:  13    -0.304008844227E+03   -0.66662E-02   -0.19921E-02   628   0.205E-01    0.599E-01
RMM:  14    -0.304009675298E+03   -0.83107E-03   -0.87078E-03   697   0.143E-01    0.379E-01
RMM:  15    -0.304006474175E+03    0.32011E-02   -0.31440E-03   698   0.835E-02    0.257E-01
RMM:  16    -0.304005981801E+03    0.49237E-03   -0.16059E-03   692   0.549E-02    0.164E-01
RMM:  17    -0.304006536021E+03   -0.55422E-03   -0.11306E-03   639   0.478E-02    0.995E-02
RMM:  18    -0.304006215318E+03    0.32070E-03   -0.20173E-04   571   0.245E-02    0.454E-02
RMM:  19    -0.304006201620E+03    0.13698E-04   -0.45032E-05   562   0.144E-02    0.276E-02
RMM:  20    -0.304006185088E+03    0.16531E-04   -0.27153E-05   422   0.911E-03    0.187E-02
RMM:  21    -0.304006177958E+03    0.71302E-05   -0.13489E-05   356   0.642E-03
   1 F= -.30400618E+03 E0= -.30405296E+03  d E =-.304006E+03
       N       E                     dE             d eps       ncg     rms          rms(c)
DAV:   1    -0.304006178038E+03    0.70507E-05   -0.38528E-06   357   0.655E-03    0.358E-03
RMM:   2    -0.304006178501E+03   -0.46333E-06   -0.18620E-06   341   0.312E-03
   2 F= -.30400618E+03 E0= -.30405296E+03  d E =-.542874E-06
       N       E                     dE             d eps       ncg     rms          rms(c)
DAV:   1    -0.304006178476E+03   -0.43867E-06   -0.74955E-07   393   0.311E-03    0.252E-03
RMM:   2    -0.304006178743E+03   -0.26650E-06   -0.85770E-08   168   0.137E-03
   3 F= -.30400618E+03 E0= -.30405296E+03  d E =-.241838E-06
       N       E                     dE             d eps       ncg     rms          rms(c)
DAV:   1    -0.304006178514E+03   -0.37478E-07   -0.61837E-07   429   0.251E-03    0.139E-03
RMM:   2    -0.304006178573E+03   -0.58804E-07   -0.25349E-09    77   0.109E-03
   4 F= -.30400618E+03 E0= -.30405296E+03  d E =0.170214E-06
       N       E                     dE             d eps       ncg     rms          rms(c)
DAV:   1    -0.304006178549E+03   -0.34750E-07   -0.34500E-07   384   0.144E-03    0.977E-04
RMM:   2    -0.304006178537E+03    0.11256E-07   -0.28479E-09    67   0.872E-04
   5 F= -.30400618E+03 E0= -.30405296E+03  d E =0.353102E-07
       N       E                     dE             d eps       ncg     rms          rms(c)
DAV:   1    -0.304006178511E+03    0.37646E-07   -0.13674E-07   366   0.111E-03    0.662E-04
RMM:   2    -0.304006178511E+03   -0.21828E-10    0.18019-229    49   0.672E-04
   6 F= -.30400618E+03 E0= -.30405296E+03  d E =0.263681E-07
       N       E                     dE             d eps       ncg     rms          rms(c)
DAV:   1    -0.304006178502E+03    0.86584E-08   -0.83739E-08   357   0.746E-04    0.529E-04
RMM:   2    -0.304006178507E+03   -0.46784E-08    0.33588-222    49   0.504E-04
   7 F= -.30400618E+03 E0= -.30405296E+03  d E =0.400178E-08
       N       E                     dE             d eps       ncg     rms          rms(c)
DAV:   1    -0.304006178503E+03   -0.30559E-09   -0.36572E-08   339   0.586E-04    0.377E-04
RMM:   2    -0.304006178505E+03   -0.24811E-08    0.10730-256    39   0.353E-04
   8 F= -.30400618E+03 E0= -.30405296E+03  d E =0.189175E-08
       N       E                     dE             d eps       ncg     rms          rms(c)
DAV:   1    -0.304006178502E+03    0.64756E-09   -0.19885E-08   339   0.400E-04    0.293E-04
RMM:   2    -0.304006178501E+03    0.14625E-08    0.55336-230    36   0.262E-04
   9 F= -.30400618E+03 E0= -.30405296E+03  d E =0.459113E-08
       N       E                     dE             d eps       ncg     rms          rms(c)
DAV:   1    -0.304006178499E+03    0.27285E-08   -0.11235E-08   339   0.295E-04    0.306E-04
RMM:   2    -0.304006178500E+03   -0.55297E-09    0.27294-289    30   0.189E-04
  10 F= -.30400618E+03 E0= -.30405296E+03  d E =0.713044E-09
       N       E                     dE             d eps       ncg     rms          rms(c)
DAV:   1    -0.304006178499E+03    0.10914E-09   -0.66087E-09   339   0.263E-04    0.165E-04
RMM:   2    -0.304006178498E+03    0.87311E-09    0.88409-290    26   0.143E-04
  11 F= -.30400618E+03 E0= -.30405296E+03  d E =0.153523E-08
       N       E                     dE             d eps       ncg     rms          rms(c)
DAV:   1    -0.304006178497E+03    0.17535E-08   -0.43107E-09   339   0.183E-04    0.120E-04
RMM:   2    -0.304006178497E+03    0.61846E-09    0.73945-290    24   0.118E-04
  12 F= -.30400618E+03 E0= -.30405296E+03  d E =0.149885E-08
       N       E                     dE             d eps       ncg     rms          rms(c)
DAV:   1    -0.304006178496E+03    0.13824E-08   -0.24968E-09   339   0.124E-04    0.150E-04
RMM:   2    -0.304006178497E+03   -0.75670E-09    0.00000E+00    20   0.819E-05
  13 F= -.30400618E+03 E0= -.30405296E+03  d E =0.727596E-11
       N       E                     dE             d eps       ncg     rms          rms(c)
DAV:   1    -0.304006178497E+03   -0.14406E-08   -0.21340E-09   339   0.143E-04    0.751E-05
RMM:   2    -0.304006178496E+03    0.15207E-08    0.00000E+00    18   0.651E-05
  14 F= -.30400618E+03 E0= -.30405296E+03  d E =0.836735E-09
       N       E                     dE             d eps       ncg     rms          rms(c)
DAV:   1    -0.304006178497E+03    0.75670E-09   -0.67824E-10   330   0.782E-05    0.427E-05
RMM:   2    -0.304006178496E+03    0.80036E-09    0.00000E+00    16   0.473E-05
  15 F= -.30400618E+03 E0= -.30405296E+03  d E =0.363798E-10
       N       E                     dE             d eps       ncg     rms          rms(c)
DAV:   1    -0.304006178496E+03    0.25466E-09   -0.52026E-10   312   0.496E-05    0.555E-05
RMM:   2    -0.304006178496E+03    0.69849E-09    0.00000E+00    17   0.326E-05
  16 F= -.30400618E+03 E0= -.30405296E+03  d E =0.152795E-09
       N       E                     dE             d eps       ncg     rms          rms(c)
DAV:   1    -0.304006178495E+03    0.14188E-08   -0.27574E-10   312   0.466E-05    0.360E-05
RMM:   2    -0.304006178495E+03   -0.36380E-09    0.00000E+00    16   0.253E-05
  17 F= -.30400618E+03 E0= -.30405296E+03  d E =0.356522E-09
       N       E                     dE             d eps       ncg     rms          rms(c)
DAV:   1    -0.304006178495E+03   -0.31287E-09   -0.37921E-10   312   0.509E-05    0.268E-05
RMM:   2    -0.304006178495E+03    0.26193E-09    0.00000E+00    17   0.220E-05
  18 F= -.30400618E+03 E0= -.30405296E+03  d E =0.312866E-09
       N       E                     dE             d eps       ncg     rms          rms(c)
DAV:   1    -0.304006178495E+03   -0.10186E-09    0.27854E-11   312   0.267E-05    0.192E-05
RMM:   2    -0.304006178495E+03    0.20373E-09    0.00000E+00    16   0.163E-05
  19 F= -.30400618E+03 E0= -.30405296E+03  d E =-.160071E-09
       N       E                     dE             d eps       ncg     rms          rms(c)
DAV:   1    -0.304006178494E+03    0.13169E-08   -0.31928E-10   312   0.312E-05    0.869E-06
RMM:   2    -0.304006178495E+03   -0.11278E-08    0.00000E+00    14   0.138E-05
  20 F= -.30400618E+03 E0= -.30405296E+03  d E =-.145519E-10
       N       E                     dE             d eps       ncg     rms          rms(c)
DAV:   1    -0.304006178496E+03   -0.14552E-08    0.29276E-11   312   0.137E-05    0.122E-05
RMM:   2    -0.304006178495E+03    0.51659E-09    0.00000E+00    14   0.869E-06
  21 F= -.30400618E+03 E0= -.30405296E+03  d E =0.189175E-09
       N       E                     dE             d eps       ncg     rms          rms(c)
DAV:   1    -0.304006178496E+03   -0.82946E-09   -0.57953E-11   312   0.135E-05    0.626E-06
RMM:   2    -0.304006178496E+03    0.90222E-09    0.00000E+00    14   0.664E-06
  22 F= -.30400618E+03 E0= -.30405296E+03  d E =-.443833E-09
       N       E                     dE             d eps       ncg     rms          rms(c)
DAV:   1    -0.304006178497E+03   -0.58935E-09   -0.57754E-11   312   0.716E-06    0.670E-06
RMM:   2    -0.304006178495E+03    0.17462E-08    0.00000E+00    13   0.484E-06
  23 F= -.30400618E+03 E0= -.30405296E+03  d E =0.254659E-09
       N       E                     dE             d eps       ncg     rms          rms(c)
DAV:   1    -0.304006178495E+03    0.20809E-08    0.64841E-11   312   0.643E-06    0.472E-06
RMM:   2    -0.304006178495E+03    0.36380E-10    0.00000E+00    12   0.377E-06
  24 F= -.30400618E+03 E0= -.30405296E+03  d E =0.371074E-09
       N       E                     dE             d eps       ncg     rms          rms(c)
DAV:   1    -0.304006178495E+03    0.33469E-09   -0.11256E-10   312   0.582E-06    0.239E-06
RMM:   2    -0.304006178495E+03   -0.30559E-09    0.00000E+00    12   0.359E-06
  25 F= -.30400618E+03 E0= -.30405296E+03  d E =-.727596E-11
       N       E                     dE             d eps       ncg     rms          rms(c)
DAV:   1    -0.304006178496E+03   -0.96770E-09    0.65865E-11   312   0.351E-06    0.423E-06
RMM:   2    -0.304006178495E+03    0.36380E-09    0.00000E+00    12   0.243E-06
  26 F= -.30400618E+03 E0= -.30405296E+03  d E =-.298314E-09
       N       E                     dE             d eps       ncg     rms          rms(c)
DAV:   1    -0.304006178495E+03    0.93132E-09   -0.72466E-11   312   0.392E-06    0.233E-06
RMM:   2    -0.304006178495E+03   -0.74942E-09    0.00000E+00    11   0.174E-06
  27 F= -.30400618E+03 E0= -.30405296E+03  d E =-.181899E-09
       N       E                     dE             d eps       ncg     rms          rms(c)
DAV:   1    -0.304006178495E+03   -0.10186E-09   -0.20735E-10   312   0.296E-06    0.112E-06
RMM:   2    -0.304006178495E+03   -0.29104E-09    0.00000E+00    11   0.171E-06
  28 F= -.30400618E+03 E0= -.30405296E+03  d E =0.356522E-09
       N       E                     dE             d eps       ncg     rms          rms(c)
DAV:   1    -0.304006178496E+03   -0.11059E-08    0.88594E-11   312   0.168E-06    0.150E-06
RMM:   2    -0.304006178495E+03    0.55297E-09    0.00000E+00    10   0.107E-06
  29 F= -.30400618E+03 E0= -.30405296E+03  d E =-.261934E-09
       N       E                     dE             d eps       ncg     rms          rms(c)
DAV:   1    -0.304006178495E+03    0.12296E-08    0.11405E-10   312   0.159E-06    0.821E-07
RMM:   2    -0.304006178495E+03   -0.36380E-09    0.00000E+00    10   0.835E-07
  30 F= -.30400618E+03 E0= -.30405296E+03  d E =0.312866E-09
       N       E                     dE             d eps       ncg     rms          rms(c)
DAV:   1    -0.304006178495E+03    0.29104E-10   -0.21747E-10   312   0.968E-07    0.141E-06
RMM:   2    -0.304006178495E+03   -0.79308E-09    0.00000E+00    10   0.693E-07
  31 F= -.30400618E+03 E0= -.30405296E+03  d E =-.400178E-09
       N       E                     dE             d eps       ncg     rms          rms(c)
DAV:   1    -0.304006178494E+03    0.34925E-09    0.13841E-10   312   0.106E-06    0.977E-07
RMM:   2    -0.304006178495E+03   -0.78580E-09    0.00000E+00    10   0.579E-07
  32 F= -.30400618E+03 E0= -.30405296E+03  d E =0.356522E-09
       N       E                     dE             d eps       ncg     rms          rms(c)
DAV:   1    -0.304006178496E+03   -0.17171E-08   -0.97278E-12   312   0.161E-06    0.693E-07
RMM:   2    -0.304006178495E+03    0.64756E-09    0.00000E+00     8   0.459E-07
  33 F= -.30400618E+03 E0= -.30405296E+03  d E =-.283762E-09
       N       E                     dE             d eps       ncg     rms          rms(c)
DAV:   1    -0.304006178495E+03    0.10405E-08    0.12009E-10   312   0.673E-07    0.451E-07
RMM:   2    -0.304006178495E+03    0.14552E-10    0.00000E+00     8   0.377E-07
  34 F= -.30400618E+03 E0= -.30405296E+03  d E =0.407454E-09
       N       E                     dE             d eps       ncg     rms          rms(c)
DAV:   1    -0.304006178495E+03    0.72760E-11    0.80730E-12   312   0.808E-07    0.970E-08
RMM:   2    -0.304006178495E+03   -0.44383E-09    0.00000E+00     7   0.299E-07
  35 F= -.30400618E+03 E0= -.30405296E+03  d E =-.451109E-09
       N       E                     dE             d eps       ncg     rms          rms(c)
DAV:   1    -0.304006178496E+03   -0.11278E-08   -0.48539E-12   312   0.328E-07    0.189E-07
RMM:   2    -0.304006178495E+03    0.85856E-09    0.00000E+00     7   0.205E-07
  36 F= -.30400618E+03 E0= -.30405296E+03  d E =0.174623E-09
       N       E                     dE             d eps       ncg     rms          rms(c)
DAV:   1    -0.304006178495E+03    0.11569E-08    0.13133E-10   312   0.241E-07    0.164E-07
RMM:   2    -0.304006178495E+03   -0.45111E-09    0.00000E+00     6   0.138E-07
  37 F= -.30400618E+03 E0= -.30405296E+03  d E =-.152795E-09
       N       E                     dE             d eps       ncg     rms          rms(c)
DAV:   1    -0.304006178494E+03    0.99681E-09   -0.18178E-10   312   0.286E-07    0.549E-08
RMM:   2    -0.304006178495E+03   -0.13752E-08    0.00000E+00     7   0.119E-07
  38 F= -.30400618E+03 E0= -.30405296E+03  d E =0.727596E-10
       N       E                     dE             d eps       ncg     rms          rms(c)
DAV:   1    -0.304006178494E+03   -0.25466E-09   -0.59096E-11   312   0.122E-07    0.595E-08
RMM:   2    -0.304006178495E+03   -0.11496E-08    0.00000E+00     5   0.907E-08
  39 F= -.30400618E+03 E0= -.30405296E+03  d E =-.291038E-10
       N       E                     dE             d eps       ncg     rms          rms(c)
DAV:   1    -0.304006178495E+03   -0.40745E-09    0.27004E-10   312   0.112E-07    0.398E-08
RMM:   2    -0.304006178495E+03   -0.82946E-09    0.00000E+00     6   0.563E-08
  40 F= -.30400618E+03 E0= -.30405296E+03  d E =-.873115E-10
       N       E                     dE             d eps       ncg     rms          rms(c)
DAV:   1    -0.304006178495E+03   -0.16735E-09   -0.71025E-11   312   0.643E-08    0.257E-08
RMM:   2    -0.304006178495E+03   -0.68394E-09    0.00000E+00     5   0.469E-08
  41 F= -.30400618E+03 E0= -.30405296E+03  d E =-.218279E-10
       N       E                     dE             d eps       ncg     rms          rms(c)
DAV:   1    -0.304006178496E+03   -0.17390E-08   -0.22577E-11   312   0.527E-08    0.149E-08
RMM:   2    -0.304006178495E+03    0.11642E-08    0.00000E+00     5   0.372E-08
  42 F= -.30400618E+03 E0= -.30405296E+03  d E =0.109139E-09
       N       E                     dE             d eps       ncg     rms          rms(c)
DAV:   1    -0.304006178497E+03   -0.80036E-10   -0.54620E-11   312   0.384E-08    0.835E-09
RMM:   2    -0.304006178495E+03    0.13606E-08    0.00000E+00     5   0.237E-08
  43 F= -.30400618E+03 E0= -.30405296E+03  d E =0.116415E-09
       N       E                     dE             d eps       ncg     rms          rms(c)
DAV:   1    -0.304006178495E+03    0.10987E-08   -0.93499E-12   312   0.267E-08    0.196E-08
RMM:   2    -0.304006178495E+03    0.65484E-10    0.00000E+00     5   0.191E-08
  44 F= -.30400618E+03 E0= -.30405296E+03  d E =-.196451E-09
       N       E                     dE             d eps       ncg     rms          rms(c)
DAV:   1    -0.304006178497E+03   -0.10768E-08    0.16012E-10   312   0.231E-08    0.104E-08
RMM:   2    -0.304006178495E+03    0.12878E-08    0.00000E+00     4   0.131E-08
  45 F= -.30400618E+03 E0= -.30405296E+03  d E =0.145519E-09
       N       E                     dE             d eps       ncg     rms          rms(c)
DAV:   1    -0.304006178494E+03    0.24520E-08    0.55524E-13   312   0.193E-08    0.387E-09
RMM:   2    -0.304006178495E+03   -0.11132E-08    0.00000E+00     5   0.112E-08
  46 F= -.30400618E+03 E0= -.30405296E+03  d E =0.509317E-10
       N       E                     dE             d eps       ncg     rms          rms(c)
DAV:   1    -0.304006178497E+03   -0.25393E-08    0.10567E-11   312   0.119E-08    0.345E-09
RMM:   2    -0.304006178495E+03    0.12951E-08    0.00000E+00     4   0.770E-09
  47 F= -.30400618E+03 E0= -.30405296E+03  d E =-.130967E-09
       N       E                     dE             d eps       ncg     rms          rms(c)
DAV:   1    -0.304006178495E+03    0.18408E-08    0.67971E-11   312   0.983E-09    0.169E-09
RMM:   2    -0.304006178495E+03   -0.45111E-09    0.00000E+00     5   0.582E-09
  48 F= -.30400618E+03 E0= -.30405296E+03  d E =0.945874E-10
       N       E                     dE             d eps       ncg     rms          rms(c)
DAV:   1    -0.304006178494E+03    0.33469E-09   -0.18048E-12   312   0.633E-09    0.312E-09
RMM:   2    -0.304006178495E+03   -0.78580E-09    0.00000E+00     4   0.480E-09
  49 F= -.30400618E+03 E0= -.30405296E+03  d E =0.000000E+00
       N       E                     dE             d eps       ncg     rms          rms(c)
DAV:   1    -0.304006178495E+03   -0.37107E-09    0.65595E-11   312   0.637E-09    0.166E-09
RMM:   2    -0.304006178495E+03   -0.51659E-09    0.00000E+00     4   0.340E-09
  50 F= -.30400618E+03 E0= -.30405296E+03  d E =-.101863E-09
       N       E                     dE             d eps       ncg     rms          rms(c)
DAV:   1    -0.304006178497E+03   -0.17317E-08    0.13088E-10   312   0.392E-09    0.841E-10
RMM:   2    -0.304006178495E+03    0.13388E-08    0.00000E+00     3   0.276E-09
  51 F= -.30400618E+03 E0= -.30405296E+03  d E =0.123691E-09
       N       E                     dE             d eps       ncg     rms          rms(c)
DAV:   1    -0.304006178496E+03    0.92405E-09    0.17225E-10   312   0.309E-09    0.141E-09
RMM:   2    -0.304006178495E+03    0.39290E-09    0.00000E+00     4   0.212E-09
  52 F= -.30400618E+03 E0= -.30405296E+03  d E =-.218279E-10
       N       E                     dE             d eps       ncg     rms          rms(c)
DAV:   1    -0.304006178496E+03   -0.36380E-10    0.31958E-11   312   0.247E-09    0.862E-10
RMM:   2    -0.304006178495E+03    0.37835E-09    0.00000E+00     3   0.159E-09
  53 F= -.30400618E+03 E0= -.30405296E+03  d E =-.509317E-10
       N       E                     dE             d eps       ncg     rms          rms(c)
DAV:   1    -0.304006178495E+03    0.80036E-09    0.14294E-10   312   0.215E-09    0.524E-10
RMM:   2    -0.304006178495E+03   -0.35652E-09    0.00000E+00     3   0.133E-09
  54 F= -.30400618E+03 E0= -.30405296E+03  d E =0.654836E-10
       N       E                     dE             d eps       ncg     rms          rms(c)
DAV:   1    -0.304006178495E+03   -0.54570E-09    0.29325E-11   312   0.149E-09    0.666E-10
RMM:   2    -0.304006178495E+03    0.87311E-10    0.00000E+00     3   0.102E-09
  55 F= -.30400618E+03 E0= -.30405296E+03  d E =-.101863E-09
       N       E                     dE             d eps       ncg     rms          rms(c)
DAV:   1    -0.304006178495E+03    0.82946E-09    0.21286E-10   312   0.125E-09    0.506E-10
RMM:   2    -0.304006178495E+03   -0.71304E-09    0.00000E+00     3   0.795E-10
  56 F= -.30400618E+03 E0= -.30405296E+03  d E =0.291038E-10
       N       E                     dE             d eps       ncg     rms          rms(c)
DAV:   1    -0.304006178494E+03    0.33469E-09    0.39737E-11   312   0.933E-10    0.522E-10
RMM:   2    -0.304006178495E+03   -0.98953E-09    0.00000E+00     3   0.663E-10
  57 F= -.30400618E+03 E0= -.30405296E+03  d E =0.582077E-10
       N       E                     dE             d eps       ncg     rms          rms(c)
DAV:   1    -0.304006178495E+03   -0.44383E-09    0.62033E-11   312   0.775E-10    0.459E-10
RMM:   2    -0.304006178495E+03   -0.62573E-09    0.00000E+00     3   0.512E-10
  58 F= -.30400618E+03 E0= -.30405296E+03  d E =-.800355E-10
       N       E                     dE             d eps       ncg     rms          rms(c)
DAV:   1    -0.304006178496E+03   -0.10405E-08   -0.13152E-10   312   0.756E-10    0.331E-10
RMM:   2    -0.304006178495E+03    0.48749E-09    0.00000E+00     3   0.446E-10
  59 F= -.30400618E+03 E0= -.30405296E+03  d E =0.727596E-10
       N       E                     dE             d eps       ncg     rms          rms(c)
DAV:   1    -0.304006178495E+03    0.64756E-09   -0.18368E-10   312   0.531E-10    0.357E-10
RMM:   2    -0.304006178495E+03   -0.24011E-09    0.00000E+00     3   0.334E-10
  60 F= -.30400618E+03 E0= -.30405296E+03  d E =-.800355E-10
       N       E                     dE             d eps       ncg     rms          rms(c)
DAV:   1    -0.304006178495E+03   -0.31287E-09   -0.97639E-12   312   0.399E-10    0.264E-10
RMM:   2    -0.304006178495E+03    0.16735E-09    0.00000E+00     2   0.267E-10
  61 F= -.30400618E+03 E0= -.30405296E+03  d E =0.945874E-10
       N       E                     dE             d eps       ncg     rms          rms(c)
DAV:   1    -0.304006178495E+03    0.14552E-09    0.53454E-11   312   0.379E-10    0.315E-10
RMM:   2    -0.304006178495E+03   -0.36380E-10    0.00000E+00     2   0.227E-10
  62 F= -.30400618E+03 E0= -.30405296E+03  d E =-.582077E-10
       N       E                     dE             d eps       ncg     rms          rms(c)
DAV:   1    -0.304006178495E+03    0.17462E-09    0.54914E-11   312   0.406E-10    0.220E-10
RMM:   2    -0.304006178495E+03   -0.20373E-09    0.00000E+00     2   0.203E-10
  63 F= -.30400618E+03 E0= -.30405296E+03  d E =0.727596E-11
       N       E                     dE             d eps       ncg     rms          rms(c)
DAV:   1    -0.304006178496E+03   -0.86584E-09   -0.13676E-11   312   0.279E-10    0.257E-10
RMM:   2    -0.304006178495E+03    0.66939E-09    0.00000E+00     2   0.169E-10
  64 F= -.30400618E+03 E0= -.30405296E+03  d E =0.727596E-11
       N       E                     dE             d eps       ncg     rms          rms(c)
DAV:   1    -0.304006178495E+03    0.10405E-08   -0.74871E-11   312   0.292E-10    0.210E-10
RMM:   2    -0.304006178495E+03   -0.37107E-09    0.00000E+00     2   0.164E-10
  65 F= -.30400618E+03 E0= -.30405296E+03  d E =0.000000E+00
       N       E                     dE             d eps       ncg     rms          rms(c)
DAV:   1    -0.304006178496E+03   -0.64028E-09    0.21088E-10   312   0.232E-10    0.262E-10
RMM:   2    -0.304006178495E+03    0.31287E-09    0.00000E+00     2   0.125E-10
  66 F= -.30400618E+03 E0= -.30405296E+03  d E =0.436557E-10
       N       E                     dE             d eps       ncg     rms          rms(c)
DAV:   1    -0.304006178495E+03    0.46566E-09   -0.12595E-10   312   0.212E-10    0.247E-10
RMM:   2    -0.304006178495E+03   -0.18190E-09    0.00000E+00     2   0.131E-10
  67 F= -.30400618E+03 E0= -.30405296E+03  d E =-.291038E-10
       N       E                     dE             d eps       ncg     rms          rms(c)
DAV:   1    -0.304006178495E+03   -0.34197E-09    0.17215E-10   312   0.328E-10    0.167E-10
RMM:   2    -0.304006178495E+03    0.15280E-09    0.00000E+00     2   0.119E-10
  68 F= -.30400618E+03 E0= -.30405296E+03  d E =-.727596E-11
       N       E                     dE             d eps       ncg     rms          rms(c)
DAV:   1    -0.304006178494E+03    0.93132E-09    0.43202E-11   312   0.178E-10    0.321E-10
RMM:   2    -0.304006178495E+03   -0.82218E-09    0.00000E+00     2   0.109E-10
  69 F= -.30400618E+03 E0= -.30405296E+03  d E =-.436557E-10
       N       E                     dE             d eps       ncg     rms          rms(c)
DAV:   1    -0.304006178495E+03   -0.29104E-09    0.13752E-11   312   0.322E-10    0.284E-10
RMM:   2    -0.304006178495E+03   -0.53114E-09    0.00000E+00     2   0.117E-10
  70 F= -.30400618E+03 E0= -.30405296E+03  d E =0.000000E+00
       N       E                     dE             d eps       ncg     rms          rms(c)
DAV:   1    -0.304006178496E+03   -0.10259E-08    0.23764E-10   312   0.231E-10    0.175E-10
RMM:   2    -0.304006178495E+03    0.54570E-09    0.00000E+00     2   0.926E-11
  71 F= -.30400618E+03 E0= -.30405296E+03  d E =0.509317E-10
       N       E                     dE             d eps       ncg     rms          rms(c)
DAV:   1    -0.304006178496E+03   -0.22555E-09   -0.54964E-11   312   0.144E-10    0.258E-10
RMM:   2    -0.304006178495E+03    0.77125E-09    0.00000E+00     2   0.850E-11
  72 F= -.30400618E+03 E0= -.30405296E+03  d E =0.000000E+00
       N       E                     dE             d eps       ncg     rms          rms(c)
DAV:   1    -0.304006178496E+03    0.72760E-11    0.97808E-11   312   0.232E-10    0.282E-10
RMM:   2    -0.304006178495E+03    0.70577E-09    0.00000E+00     2   0.944E-11
  73 F= -.30400618E+03 E0= -.30405296E+03  d E =-.582077E-10
       N       E                     dE             d eps       ncg     rms          rms(c)
DAV:   1    -0.304006178495E+03    0.14988E-08    0.46514E-11   312   0.245E-10    0.414E-10
RMM:   2    -0.304006178495E+03   -0.65484E-09    0.00000E+00     2   0.112E-10
  74 F= -.30400618E+03 E0= -.30405296E+03  d E =0.138243E-09
       N       E                     dE             d eps       ncg     rms          rms(c)
DAV:   1    -0.304006178495E+03   -0.47294E-09    0.12320E-10   312   0.305E-10    0.242E-10
RMM:   2    -0.304006178495E+03   -0.22555E-09    0.00000E+00     2   0.103E-10
  75 F= -.30400618E+03 E0= -.30405296E+03  d E =-.436557E-10
       N       E                     dE             d eps       ncg     rms          rms(c)
DAV:   1    -0.304006178495E+03    0.24738E-09    0.38023E-11   312   0.311E-10    0.167E-10
RMM:   2    -0.304006178495E+03   -0.48749E-09    0.00000E+00     2   0.961E-11
  76 F= -.30400618E+03 E0= -.30405296E+03  d E =-.145519E-10
       N       E                     dE             d eps       ncg     rms          rms(c)
DAV:   1    -0.304006178495E+03   -0.56752E-09    0.35233E-11   312   0.108E-10    0.250E-10
RMM:   2    -0.304006178495E+03    0.36380E-10    0.00000E+00     2   0.813E-11
  77 F= -.30400618E+03 E0= -.30405296E+03  d E =-.436557E-10
       N       E                     dE             d eps       ncg     rms          rms(c)
DAV:   1    -0.304006178496E+03   -0.56025E-09    0.11951E-10   312   0.137E-10    0.164E-10
RMM:   2    -0.304006178495E+03    0.61846E-09    0.00000E+00     2   0.830E-11
  78 F= -.30400618E+03 E0= -.30405296E+03  d E =0.218279E-10
       N       E                     dE             d eps       ncg     rms          rms(c)
DAV:   1    -0.304006178495E+03    0.73487E-09    0.87414E-11   312   0.148E-10    0.273E-10
RMM:   2    -0.304006178495E+03   -0.16007E-09    0.00000E+00     2   0.810E-11
  79 F= -.30400618E+03 E0= -.30405296E+03  d E =-.436557E-10
       N       E                     dE             d eps       ncg     rms          rms(c)
DAV:   1    -0.304006178494E+03    0.65484E-09    0.59972E-11   312   0.204E-10    0.193E-10
RMM:   2    -0.304006178495E+03   -0.77853E-09    0.00000E+00     2   0.765E-11
  80 F= -.30400618E+03 E0= -.30405296E+03  d E =0.363798E-10
       N       E                     dE             d eps       ncg     rms          rms(c)
DAV:   1    -0.304006178495E+03   -0.33469E-09   -0.19408E-10   312   0.931E-11    0.324E-10
RMM:   2    -0.304006178495E+03   -0.49477E-09    0.00000E+00     2   0.886E-11
  81 F= -.30400618E+03 E0= -.30405296E+03  d E =-.509317E-10
       N       E                     dE             d eps       ncg     rms          rms(c)
DAV:   1    -0.304006178496E+03   -0.80763E-09    0.43112E-11   312   0.272E-10    0.222E-10
RMM:   2    -0.304006178495E+03    0.36380E-09    0.00000E+00     2   0.679E-11
  82 F= -.30400618E+03 E0= -.30405296E+03  d E =0.509317E-10
       N       E                     dE             d eps       ncg     rms          rms(c)
DAV:   1    -0.304006178495E+03    0.66211E-09   -0.29727E-11   312   0.229E-10    0.253E-10
RMM:   2    -0.304006178495E+03   -0.29104E-09    0.00000E+00     2   0.895E-11
  83 F= -.30400618E+03 E0= -.30405296E+03  d E =0.727596E-11
       N       E                     dE             d eps       ncg     rms          rms(c)
DAV:   1    -0.304006178495E+03    0.12369E-09   -0.69856E-11   312   0.269E-10    0.245E-10
RMM:   2    -0.304006178495E+03   -0.47294E-09    0.00000E+00     2   0.805E-11
  84 F= -.30400618E+03 E0= -.30405296E+03  d E =-.582077E-10
       N       E                     dE             d eps       ncg     rms          rms(c)
DAV:   1    -0.304006178495E+03    0.16735E-09    0.21446E-10   306   0.248E-10    0.181E-10
RMM:   2    -0.304006178495E+03   -0.54570E-09    0.00000E+00     1   0.715E-11
  85 F= -.30400618E+03 E0= -.30405296E+03  d E =0.945874E-10
       N       E                     dE             d eps       ncg     rms          rms(c)
DAV:   1    -0.304006178496E+03   -0.11059E-08   -0.72442E-11   312   0.190E-10    0.242E-10
RMM:   2    -0.304006178495E+03    0.48021E-09    0.00000E+00     2   0.803E-11
  86 F= -.30400618E+03 E0= -.30405296E+03  d E =-.800355E-10
       N       E                     dE             d eps       ncg     rms          rms(c)
DAV:   1    -0.304006178495E+03    0.12515E-08    0.26734E-11   306   0.248E-10    0.187E-10
RMM:   2    -0.304006178495E+03   -0.69122E-09    0.00000E+00     1   0.720E-11
  87 F= -.30400618E+03 E0= -.30405296E+03  d E =0.800355E-10
       N       E                     dE             d eps       ncg     rms          rms(c)
DAV:   1    -0.304006178496E+03   -0.13679E-08   -0.18510E-10   294   0.168E-10    0.232E-10
RMM:   2    -0.304006178495E+03    0.55297E-09    0.00000E+00     1   0.848E-11
  88 F= -.30400618E+03 E0= -.30405296E+03  d E =-.123691E-09
       N       E                     dE             d eps       ncg     rms          rms(c)
DAV:   1    -0.304006178496E+03    0.72760E-10    0.12609E-10   294   0.213E-10    0.358E-10
RMM:   2    -0.304006178495E+03    0.49477E-09    0.00000E+00     1   0.958E-11
  89 F= -.30400618E+03 E0= -.30405296E+03  d E =0.145519E-10
       N       E                     dE             d eps       ncg     rms          rms(c)
DAV:   1    -0.304006178496E+03   -0.47294E-09   -0.94798E-11   294   0.241E-10    0.219E-10
RMM:   2    -0.304006178495E+03    0.10332E-08    0.00000E+00     1   0.867E-11
  90 F= -.30400618E+03 E0= -.30405296E+03  d E =0.654836E-10
       N       E                     dE             d eps       ncg     rms          rms(c)
DAV:   1    -0.304006178494E+03    0.20082E-08   -0.75713E-11   294   0.206E-10    0.331E-10
RMM:   2    -0.304006178495E+03   -0.98225E-09    0.00000E+00     1   0.113E-10
  91 F= -.30400618E+03 E0= -.30405296E+03  d E =-.727596E-11
       N       E                     dE             d eps       ncg     rms          rms(c)
DAV:   1    -0.304006178495E+03   -0.55297E-09   -0.34746E-11   294   0.278E-10    0.286E-10
RMM:   2    -0.304006178495E+03   -0.50932E-09    0.00000E+00     1   0.871E-11
  92 F= -.30400618E+03 E0= -.30405296E+03  d E =-.800355E-10
       N       E                     dE             d eps       ncg     rms          rms(c)
DAV:   1    -0.304006178495E+03   -0.62573E-09   -0.11508E-10   294   0.336E-10    0.348E-10
RMM:   2    -0.304006178495E+03    0.16735E-09    0.00000E+00     1   0.103E-10
  93 F= -.30400618E+03 E0= -.30405296E+03  d E =0.509317E-10
       N       E                     dE             d eps       ncg     rms          rms(c)
DAV:   1    -0.304006178496E+03   -0.45111E-09    0.12916E-10   294   0.324E-10    0.303E-10
RMM:   2    -0.304006178495E+03    0.55297E-09    0.00000E+00     1   0.772E-11
  94 F= -.30400618E+03 E0= -.30405296E+03  d E =-.654836E-10
       N       E                     dE             d eps       ncg     rms          rms(c)
DAV:   1    -0.304006178495E+03    0.45839E-09    0.16517E-10   294   0.243E-10    0.245E-10
RMM:   2    -0.304006178495E+03    0.18190E-09    0.00000E+00     1   0.732E-11
  95 F= -.30400618E+03 E0= -.30405296E+03  d E =0.873115E-10
       N       E                     dE             d eps       ncg     rms          rms(c)
DAV:   1    -0.304006178495E+03    0.33469E-09   -0.95396E-12   294   0.118E-10    0.325E-10
RMM:   2    -0.304006178495E+03   -0.17462E-09    0.00000E+00     1   0.824E-11
  96 F= -.30400618E+03 E0= -.30405296E+03  d E =-.218279E-10
       N       E                     dE             d eps       ncg     rms          rms(c)
DAV:   1    -0.304006178495E+03    0.24738E-09   -0.98798E-11   294   0.237E-10    0.261E-10
RMM:   2    -0.304006178495E+03   -0.33469E-09    0.00000E+00     1   0.846E-11
  97 F= -.30400618E+03 E0= -.30405296E+03  d E =0.873115E-10
       N       E                     dE             d eps       ncg     rms          rms(c)
DAV:   1    -0.304006178496E+03   -0.96770E-09    0.26077E-11   294   0.242E-10    0.345E-10
RMM:   2    -0.304006178495E+03    0.53114E-09    0.00000E+00     1   0.987E-11
  98 F= -.30400618E+03 E0= -.30405296E+03  d E =-.101863E-09
       N       E                     dE             d eps       ncg     rms          rms(c)
DAV:   1    -0.304006178495E+03    0.69849E-09    0.13024E-11   294   0.243E-10    0.320E-10
RMM:   2    -0.304006178495E+03   -0.13097E-09    0.00000E+00     1   0.948E-11
  99 F= -.30400618E+03 E0= -.30405296E+03  d E =0.363798E-10
       N       E                     dE             d eps       ncg     rms          rms(c)
DAV:   1    -0.304006178496E+03   -0.42928E-09    0.17024E-10   294   0.243E-10    0.267E-10
RMM:   2    -0.304006178495E+03    0.32014E-09    0.00000E+00     1   0.892E-11
 100 F= -.30400618E+03 E0= -.30405296E+03  d E =0.218279E-10
       N       E                     dE             d eps       ncg     rms          rms(c)
DAV:   1    -0.304006178497E+03   -0.11860E-08   -0.12396E-10   294   0.280E-10    0.260E-10
RMM:   2    -0.304006178495E+03    0.15498E-08    0.00000E+00     1   0.756E-11
 101 F= -.30400618E+03 E0= -.30405296E+03  d E =0.436557E-10
       N       E                     dE             d eps       ncg     rms          rms(c)
DAV:   1    -0.304006178495E+03    0.22264E-08   -0.12822E-10   294   0.224E-10    0.194E-10
RMM:   2    -0.304006178495E+03   -0.75670E-09    0.00000E+00     1   0.633E-11
 102 F= -.30400618E+03 E0= -.30405296E+03  d E =-.800355E-10
       N       E                     dE             d eps       ncg     rms          rms(c)
DAV:   1    -0.304006178494E+03    0.14552E-09   -0.75371E-11   294   0.146E-10    0.342E-10
RMM:   2    -0.304006178495E+03   -0.80036E-09    0.00000E+00     1   0.953E-11
 103 F= -.30400618E+03 E0= -.30405296E+03  d E =0.101863E-09
       N       E                     dE             d eps       ncg     rms          rms(c)
DAV:   1    -0.304006178494E+03   -0.36380E-10   -0.51900E-11   294   0.247E-10    0.203E-10
RMM:   2    -0.304006178495E+03   -0.82946E-09    0.00000E+00     1   0.875E-11
 104 F= -.30400618E+03 E0= -.30405296E+03  d E =-.654836E-10
       N       E                     dE             d eps       ncg     rms          rms(c)
DAV:   1    -0.304006178496E+03   -0.13169E-08    0.94061E-11   294   0.203E-10    0.251E-10
RMM:   2    -0.304006178495E+03    0.48749E-09    0.00000E+00     1   0.870E-11
 105 F= -.30400618E+03 E0= -.30405296E+03  d E =0.000000E+00
       N       E                     dE             d eps       ncg     rms          rms(c)
DAV:   1    -0.304006178495E+03    0.40018E-09    0.11507E-10   294   0.222E-10    0.251E-10
RMM:   2    -0.304006178495E+03    0.14552E-10    0.00000E+00     1   0.723E-11
 106 F= -.30400618E+03 E0= -.30405296E+03  d E =-.727596E-10
       N       E                     dE             d eps       ncg     rms          rms(c)
DAV:   1    -0.304006178496E+03   -0.35652E-09    0.54250E-11   294   0.182E-10    0.341E-10
RMM:   2    -0.304006178495E+03    0.40018E-09    0.00000E+00     1   0.988E-11
 107 F= -.30400618E+03 E0= -.30405296E+03  d E =0.291038E-10
       N       E                     dE             d eps       ncg     rms          rms(c)
DAV:   1    -0.304006178495E+03    0.24011E-09    0.21282E-10   294   0.410E-10    0.150E-10
RMM:   2    -0.304006178495E+03    0.10186E-09    0.00000E+00     1   0.829E-11
 108 F= -.30400618E+03 E0= -.30405296E+03  d E =-.582077E-10
       N       E                     dE             d eps       ncg     rms          rms(c)
DAV:   1    -0.304006178494E+03    0.10332E-08    0.10304E-11   294   0.147E-10    0.250E-10
RMM:   2    -0.304006178495E+03   -0.80763E-09    0.00000E+00     1   0.850E-11
 109 F= -.30400618E+03 E0= -.30405296E+03  d E =0.123691E-09
       N       E                     dE             d eps       ncg     rms          rms(c)
DAV:   1    -0.304006178495E+03   -0.90222E-09   -0.67017E-11   294   0.179E-10    0.335E-10
RMM:   2    -0.304006178495E+03    0.94587E-10    0.00000E+00     1   0.919E-11
 110 F= -.30400618E+03 E0= -.30405296E+03  d E =0.000000E+00
       N       E                     dE             d eps       ncg     rms          rms(c)
DAV:   1    -0.304006178494E+03    0.10477E-08   -0.73432E-11   294   0.287E-10    0.244E-10
RMM:   2    -0.304006178495E+03   -0.94587E-09    0.00000E+00     1   0.766E-11
 111 F= -.30400618E+03 E0= -.30405296E+03  d E =0.727596E-11
       N       E                     dE             d eps       ncg     rms          rms(c)
DAV:   1    -0.304006178495E+03   -0.69849E-09    0.94144E-11   294   0.167E-10    0.297E-10
RMM:   2    -0.304006178495E+03   -0.30559E-09    0.00000E+00     1   0.852E-11
 112 F= -.30400618E+03 E0= -.30405296E+03  d E =-.582077E-10
       N       E                     dE             d eps       ncg     rms          rms(c)
DAV:   1    -0.304006178495E+03   -0.16735E-09    0.16074E-10   294   0.264E-10    0.155E-10
RMM:   2    -0.304006178495E+03   -0.94587E-10    0.00000E+00     1   0.838E-11
 113 F= -.30400618E+03 E0= -.30405296E+03  d E =0.436557E-10
       N       E                     dE             d eps       ncg     rms          rms(c)
DAV:   1    -0.304006178494E+03    0.86584E-09    0.12832E-10   294   0.142E-10    0.421E-10
RMM:   2    -0.304006178495E+03   -0.10987E-08    0.00000E+00     1   0.988E-11
 114 F= -.30400618E+03 E0= -.30405296E+03  d E =-.138243E-09
       N       E                     dE             d eps       ncg     rms          rms(c)
DAV:   1    -0.304006178496E+03   -0.17244E-08    0.57459E-11   294   0.140E-10    0.299E-10
RMM:   2    -0.304006178495E+03    0.78580E-09    0.00000E+00     1   0.849E-11
 115 F= -.30400618E+03 E0= -.30405296E+03  d E =0.160071E-09
       N       E                     dE             d eps       ncg     rms          rms(c)
DAV:   1    -0.304006178495E+03    0.98225E-09   -0.96073E-12   294   0.271E-10    0.258E-10
RMM:   2    -0.304006178495E+03   -0.24738E-09    0.00000E+00     1   0.877E-11
 116 F= -.30400618E+03 E0= -.30405296E+03  d E =-.509317E-10
       N       E                     dE             d eps       ncg     rms          rms(c)
DAV:   1    -0.304006178495E+03    0.43656E-10    0.13099E-10   294   0.288E-10    0.206E-10
RMM:   2    -0.304006178495E+03   -0.26193E-09    0.00000E+00     1   0.862E-11
 117 F= -.30400618E+03 E0= -.30405296E+03  d E =0.291038E-10
       N       E                     dE             d eps       ncg     rms          rms(c)
DAV:   1    -0.304006178495E+03   -0.40018E-09    0.12673E-11   294   0.178E-10    0.353E-10
RMM:   2    -0.304006178495E+03    0.18190E-09    0.00000E+00     1   0.990E-11
 118 F= -.30400618E+03 E0= -.30405296E+03  d E =0.436557E-10
       N       E                     dE             d eps       ncg     rms          rms(c)
DAV:   1    -0.304006178494E+03    0.87311E-09   -0.24626E-11   294   0.241E-10    0.197E-10
RMM:   2    -0.304006178495E+03   -0.79308E-09    0.00000E+00     1   0.713E-11
 119 F= -.30400618E+03 E0= -.30405296E+03  d E =-.101863E-09
       N       E                     dE             d eps       ncg     rms          rms(c)
DAV:   1    -0.304006178496E+03   -0.16444E-08    0.20859E-10   294   0.191E-10    0.201E-10
RMM:   2    -0.304006178495E+03    0.85856E-09    0.00000E+00     1   0.765E-11
 120 F= -.30400618E+03 E0= -.30405296E+03  d E =0.727596E-11
       N       E                     dE             d eps       ncg     rms          rms(c)
DAV:   1    -0.304006178496E+03    0.40745E-09    0.18326E-10   294   0.201E-10    0.189E-10
RMM:   2    -0.304006178495E+03    0.51659E-09    0.00000E+00     1   0.889E-11
 121 F= -.30400618E+03 E0= -.30405296E+03  d E =0.654836E-10
       N       E                     dE             d eps       ncg     rms          rms(c)
DAV:   1    -0.304006178496E+03    0.15280E-09   -0.22989E-10   294   0.220E-10    0.284E-10
RMM:   2    -0.304006178495E+03    0.27649E-09    0.00000E+00     1   0.872E-11
 122 F= -.30400618E+03 E0= -.30405296E+03  d E =-.873115E-10
       N       E                     dE             d eps       ncg     rms          rms(c)
DAV:   1    -0.304006178495E+03    0.58208E-09   -0.40500E-11   294   0.156E-10    0.228E-10
RMM:   2    -0.304006178495E+03   -0.16007E-09    0.00000E+00     1   0.685E-11
 123 F= -.30400618E+03 E0= -.30405296E+03  d E =0.145519E-09
       N       E                     dE             d eps       ncg     rms          rms(c)
DAV:   1    -0.304006178495E+03   -0.26921E-09    0.16155E-10   294   0.193E-10    0.292E-10
RMM:   2    -0.304006178495E+03    0.14552E-10    0.00000E+00     1   0.939E-11
 124 F= -.30400618E+03 E0= -.30405296E+03  d E =-.945874E-10
       N       E                     dE             d eps       ncg     rms          rms(c)
DAV:   1    -0.304006178495E+03    0.87311E-10    0.32334E-10   294   0.343E-10    0.294E-10
RMM:   2    -0.304006178495E+03   -0.72760E-11    0.00000E+00     1   0.865E-11
 125 F= -.30400618E+03 E0= -.30405296E+03  d E =0.654836E-10
       N       E                     dE             d eps       ncg     rms          rms(c)
DAV:   1    -0.304006178497E+03   -0.22264E-08    0.12494E-10   294   0.262E-10    0.287E-10
RMM:   2    -0.304006178495E+03    0.21391E-08    0.00000E+00     1   0.895E-11
 126 F= -.30400618E+03 E0= -.30405296E+03  d E =-.800355E-10
       N       E                     dE             d eps       ncg     rms          rms(c)
DAV:   1    -0.304006178496E+03    0.18335E-08    0.96901E-12   294   0.190E-10    0.292E-10
RMM:   2    -0.304006178495E+03    0.25466E-09    0.00000E+00     1   0.931E-11
 127 F= -.30400618E+03 E0= -.30405296E+03  d E =-.509317E-10
       N       E                     dE             d eps       ncg     rms          rms(c)
DAV:   1    -0.304006178495E+03    0.70577E-09    0.16401E-10   294   0.329E-10    0.229E-10
RMM:   2    -0.304006178495E+03   -0.48021E-09    0.00000E+00     1   0.833E-11
 128 F= -.30400618E+03 E0= -.30405296E+03  d E =-.291038E-10
       N       E                     dE             d eps       ncg     rms          rms(c)
DAV:   1    -0.304006178496E+03   -0.11059E-08    0.23764E-10   294   0.221E-10    0.246E-10
RMM:   2    -0.304006178495E+03    0.65484E-09    0.00000E+00     1   0.855E-11
 129 F= -.30400618E+03 E0= -.30405296E+03  d E =0.291038E-10
       N       E                     dE             d eps       ncg     rms          rms(c)
DAV:   1    -0.304006178495E+03    0.93860E-09    0.66070E-11   294   0.231E-10    0.210E-10
RMM:   2    -0.304006178495E+03   -0.21828E-09    0.00000E+00     1   0.870E-11
 130 F= -.30400618E+03 E0= -.30405296E+03  d E =0.654836E-10
       N       E                     dE             d eps       ncg     rms          rms(c)
DAV:   1    -0.304006178497E+03   -0.18990E-08    0.13627E-10   294   0.178E-10    0.262E-10
RMM:   2    -0.304006178495E+03    0.17026E-08    0.00000E+00     1   0.779E-11
 131 F= -.30400618E+03 E0= -.30405296E+03  d E =0.218279E-10
       N       E                     dE             d eps       ncg     rms          rms(c)
DAV:   1    -0.304006178496E+03    0.12078E-08    0.63963E-11   294   0.170E-10    0.296E-10
RMM:   2    -0.304006178495E+03    0.50204E-09    0.00000E+00     1   0.864E-11
 132 F= -.30400618E+03 E0= -.30405296E+03  d E =0.727596E-11
       N       E                     dE             d eps       ncg     rms          rms(c)
DAV:   1    -0.304006178495E+03    0.90949E-09   -0.15286E-10   294   0.215E-10    0.310E-10
RMM:   2    -0.304006178495E+03   -0.49477E-09    0.00000E+00     1   0.943E-11
 133 F= -.30400618E+03 E0= -.30405296E+03  d E =-.873115E-10
       N       E                     dE             d eps       ncg     rms          rms(c)
DAV:   1    -0.304006178497E+03   -0.19718E-08   -0.80562E-12   294   0.362E-10    0.248E-10
RMM:   2    -0.304006178495E+03    0.15061E-08    0.00000E+00     1   0.963E-11
 134 F= -.30400618E+03 E0= -.30405296E+03  d E =0.291038E-10
       N       E                     dE             d eps       ncg     rms          rms(c)
DAV:   1    -0.304006178495E+03    0.22555E-08    0.12198E-11   294   0.273E-10    0.241E-10
RMM:   2    -0.304006178495E+03   -0.72760E-09    0.00000E+00     1   0.734E-11
 135 F= -.30400618E+03 E0= -.30405296E+03  d E =0.218279E-10
       N       E                     dE             d eps       ncg     rms          rms(c)
DAV:   1    -0.304006178495E+03   -0.30559E-09    0.11510E-10   294   0.215E-10    0.274E-10
RMM:   2    -0.304006178495E+03   -0.55297E-09    0.00000E+00     1   0.855E-11
 136 F= -.30400618E+03 E0= -.30405296E+03  d E =-.130967E-09
       N       E                     dE             d eps       ncg     rms          rms(c)
DAV:   1    -0.304006178496E+03   -0.98225E-09    0.24122E-10   294   0.306E-10    0.240E-10
RMM:   2    -0.304006178495E+03    0.57480E-09    0.00000E+00     1   0.908E-11
 137 F= -.30400618E+03 E0= -.30405296E+03  d E =0.145519E-09
       N       E                     dE             d eps       ncg     rms          rms(c)
DAV:   1    -0.304006178496E+03   -0.50932E-09   -0.19982E-10   294   0.247E-10    0.209E-10
RMM:   2    -0.304006178495E+03    0.10259E-08    0.00000E+00     1   0.740E-11
 138 F= -.30400618E+03 E0= -.30405296E+03  d E =-.582077E-10
       N       E                     dE             d eps       ncg     rms          rms(c)
DAV:   1    -0.304006178496E+03    0.39290E-09   -0.98894E-11   294   0.198E-10    0.233E-10
RMM:   2    -0.304006178495E+03    0.66211E-09    0.00000E+00     1   0.785E-11
 139 F= -.30400618E+03 E0= -.30405296E+03  d E =0.291038E-10
       N       E                     dE             d eps       ncg     rms          rms(c)
DAV:   1    -0.304006178496E+03    0.32014E-09   -0.13904E-10   294   0.217E-10    0.304E-10
RMM:   2    -0.304006178495E+03    0.31287E-09    0.00000E+00     1   0.828E-11
 140 F= -.30400618E+03 E0= -.30405296E+03  d E =-.291038E-10
       N       E                     dE             d eps       ncg     rms          rms(c)
DAV:   1    -0.304006178495E+03    0.28376E-09    0.14775E-10   294   0.119E-10    0.267E-10
RMM:   2    -0.304006178495E+03    0.14552E-10    0.00000E+00     1   0.778E-11
 141 F= -.30400618E+03 E0= -.30405296E+03  d E =-.145519E-10
       N       E                     dE             d eps       ncg     rms          rms(c)
DAV:   1    -0.304006178495E+03    0.13824E-09    0.23626E-10   294   0.264E-10    0.264E-10
RMM:   2    -0.304006178495E+03   -0.58208E-10    0.00000E+00     1   0.719E-11
 142 F= -.30400618E+03 E0= -.30405296E+03  d E =0.654836E-10
       N       E                     dE             d eps       ncg     rms          rms(c)
DAV:   1    -0.304006178497E+03   -0.21028E-08    0.46936E-11   294   0.195E-10    0.267E-10
RMM:   2    -0.304006178495E+03    0.20518E-08    0.00000E+00     1   0.779E-11
 143 F= -.30400618E+03 E0= -.30405296E+03  d E =0.727596E-11
       N       E                     dE             d eps       ncg     rms          rms(c)
DAV:   1    -0.304006178496E+03    0.13824E-08    0.40067E-11   294   0.315E-10    0.264E-10
RMM:   2    -0.304006178495E+03    0.76398E-09    0.00000E+00     1   0.838E-11
 144 F= -.30400618E+03 E0= -.30405296E+03  d E =0.945874E-10
       N       E                     dE             d eps       ncg     rms          rms(c)
DAV:   1    -0.304006178495E+03    0.13824E-08   -0.13442E-10   294   0.249E-10    0.381E-10
RMM:   2    -0.304006178495E+03   -0.72760E-09    0.00000E+00     1   0.931E-11
 145 F= -.30400618E+03 E0= -.30405296E+03  d E =-.109139E-09
       N       E                     dE             d eps       ncg     rms          rms(c)
DAV:   1    -0.304006178496E+03   -0.17244E-08    0.10857E-10   294   0.322E-10    0.238E-10
RMM:   2    -0.304006178495E+03    0.93132E-09    0.00000E+00     1   0.876E-11
 146 F= -.30400618E+03 E0= -.30405296E+03  d E =-.654836E-10
       N       E                     dE             d eps       ncg     rms          rms(c)
DAV:   1    -0.304006178495E+03    0.15207E-08   -0.70567E-11   294   0.282E-10    0.193E-10
RMM:   2    -0.304006178495E+03   -0.44383E-09    0.00000E+00     1   0.834E-11
 147 F= -.30400618E+03 E0= -.30405296E+03  d E =0.145519E-09
       N       E                     dE             d eps       ncg     rms          rms(c)
DAV:   1    -0.304006178496E+03   -0.82218E-09   -0.15896E-11   294   0.235E-10    0.353E-10
RMM:   2    -0.304006178495E+03    0.26193E-09    0.00000E+00     1   0.962E-11
 148 F= -.30400618E+03 E0= -.30405296E+03  d E =-.116415E-09
       N       E                     dE             d eps       ncg     rms          rms(c)
DAV:   1    -0.304006178494E+03    0.13169E-08    0.58804E-11   294   0.271E-10    0.270E-10
RMM:   2    -0.304006178495E+03   -0.10550E-08    0.00000E+00     1   0.979E-11
 149 F= -.30400618E+03 E0= -.30405296E+03  d E =0.000000E+00
       N       E                     dE             d eps       ncg     rms          rms(c)
DAV:   1    -0.304006178497E+03   -0.26266E-08   -0.63671E-11   294   0.325E-10    0.257E-10
RMM:   2    -0.304006178495E+03    0.15280E-08    0.00000E+00     1   0.108E-10
 150 F= -.30400618E+03 E0= -.30405296E+03  d E =-.436557E-10
       N       E                     dE             d eps       ncg     rms          rms(c)
DAV:   1    -0.304006178497E+03    0.26921E-09    0.92566E-11   294   0.281E-10    0.317E-10
RMM:   2    -0.304006178495E+03    0.13824E-08    0.00000E+00     1   0.972E-11
 151 F= -.30400618E+03 E0= -.30405296E+03  d E =0.123691E-09
       N       E                     dE             d eps       ncg     rms          rms(c)
DAV:   1    -0.304006178497E+03   -0.18190E-09    0.27276E-11   294   0.297E-10    0.331E-10
RMM:   2    -0.304006178495E+03    0.14552E-08    0.00000E+00     1   0.863E-11
 152 F= -.30400618E+03 E0= -.30405296E+03  d E =-.109139E-09
       N       E                     dE             d eps       ncg     rms          rms(c)
DAV:   1    -0.304006178496E+03    0.11496E-08    0.26565E-10   294   0.330E-10    0.260E-10
RMM:   2    -0.304006178495E+03    0.40745E-09    0.00000E+00     1   0.856E-11
 153 F= -.30400618E+03 E0= -.30405296E+03  d E =0.101863E-09
       N       E                     dE             d eps       ncg     rms          rms(c)
DAV:   1    -0.304006178496E+03    0.65484E-10    0.44104E-11   294   0.346E-10    0.225E-10
RMM:   2    -0.304006178495E+03    0.19645E-09    0.00000E+00     1   0.819E-11
 154 F= -.30400618E+03 E0= -.30405296E+03  d E =-.145519E-09
       N       E                     dE             d eps       ncg     rms          rms(c)
DAV:   1    -0.304006178496E+03   -0.23283E-09    0.23285E-11   294   0.181E-10    0.239E-10
RMM:   2    -0.304006178495E+03    0.54570E-09    0.00000E+00     1   0.875E-11
 155 F= -.30400618E+03 E0= -.30405296E+03  d E =0.116415E-09
       N       E                     dE             d eps       ncg     rms          rms(c)
DAV:   1    -0.304006178496E+03   -0.69122E-09   -0.19042E-10   294   0.298E-10    0.218E-10
RMM:   2    -0.304006178495E+03    0.12224E-08    0.00000E+00     1   0.823E-11
 156 F= -.30400618E+03 E0= -.30405296E+03  d E =-.145519E-10
       N       E                     dE             d eps       ncg     rms          rms(c)
DAV:   1    -0.304006178496E+03    0.70577E-09    0.20162E-11   294   0.207E-10    0.279E-10
RMM:   2    -0.304006178495E+03    0.58208E-09    0.00000E+00     1   0.880E-11
 157 F= -.30400618E+03 E0= -.30405296E+03  d E =0.654836E-10
       N       E                     dE             d eps       ncg     rms          rms(c)
DAV:   1    -0.304006178495E+03    0.59663E-09   -0.40427E-11   294   0.266E-10    0.363E-10
RMM:   2    -0.304006178495E+03   -0.43656E-10    0.00000E+00     1   0.988E-11
 158 F= -.30400618E+03 E0= -.30405296E+03  d E =-.291038E-10
       N       E                     dE             d eps       ncg     rms          rms(c)
DAV:   1    -0.304006178495E+03    0.36380E-10   -0.78854E-11   294   0.345E-10    0.254E-10
RMM:   2    -0.304006178495E+03   -0.21828E-10    0.00000E+00     1   0.109E-10
 159 F= -.30400618E+03 E0= -.30405296E+03  d E =0.582077E-10
       N       E                     dE             d eps       ncg     rms          rms(c)
DAV:   1    -0.304006178495E+03    0.32014E-09   -0.16763E-10   294   0.363E-10    0.280E-10
RMM:   2    -0.304006178495E+03   -0.42928E-09    0.00000E+00     1   0.108E-10
 160 F= -.30400618E+03 E0= -.30405296E+03  d E =-.873115E-10
       N       E                     dE             d eps       ncg     rms          rms(c)
DAV:   1    -0.304006178497E+03   -0.19936E-08   -0.13300E-10   294   0.316E-10    0.299E-10
RMM:   2    -0.304006178495E+03    0.15789E-08    0.00000E+00     1   0.992E-11
 161 F= -.30400618E+03 E0= -.30405296E+03  d E =0.145519E-10
       N       E                     dE             d eps       ncg     rms          rms(c)
DAV:   1    -0.304006178496E+03    0.12806E-08   -0.79371E-11   294   0.281E-10    0.313E-10
RMM:   2    -0.304006178495E+03    0.23283E-09    0.00000E+00     1   0.104E-10
 162 F= -.30400618E+03 E0= -.30405296E+03  d E =-.654836E-10
       N       E                     dE             d eps       ncg     rms          rms(c)
DAV:   1    -0.304006178495E+03    0.72760E-10   -0.18855E-10   294   0.274E-10    0.325E-10
RMM:   2    -0.304006178495E+03    0.27649E-09    0.00000E+00     1   0.113E-10
 163 F= -.30400618E+03 E0= -.30405296E+03  d E =0.116415E-09
       N       E                     dE             d eps       ncg     rms          rms(c)
DAV:   1    -0.304006178495E+03    0.89494E-09    0.46951E-11   294   0.361E-10    0.391E-10
RMM:   2    -0.304006178495E+03   -0.65484E-09    0.00000E+00     1   0.115E-10
 164 F= -.30400618E+03 E0= -.30405296E+03  d E =-.363798E-10
       N       E                     dE             d eps       ncg     rms          rms(c)
DAV:   1    -0.304006178495E+03    0.50932E-10    0.51734E-11   294   0.328E-10    0.303E-10
RMM:   2    -0.304006178495E+03   -0.74215E-09    0.00000E+00     1   0.905E-11
 165 F= -.30400618E+03 E0= -.30405296E+03  d E =-.363798E-10
       N       E                     dE             d eps       ncg     rms          rms(c)
DAV:   1    -0.304006178497E+03   -0.24520E-08    0.25711E-10   294   0.338E-10    0.252E-10
RMM:   2    -0.304006178495E+03    0.17317E-08    0.00000E+00     1   0.849E-11
 166 F= -.30400618E+03 E0= -.30405296E+03  d E =0.218279E-10
       N       E                     dE             d eps       ncg     rms          rms(c)
DAV:   1    -0.304006178497E+03    0.17462E-09   -0.11772E-10   294   0.268E-10    0.225E-10
RMM:   2    -0.304006178495E+03    0.14552E-08    0.00000E+00     1   0.775E-11
 167 F= -.30400618E+03 E0= -.30405296E+03  d E =-.101863E-09
       N       E                     dE             d eps       ncg     rms          rms(c)
DAV:   1    -0.304006178496E+03    0.66211E-09    0.73509E-11   294   0.236E-10    0.301E-10
RMM:   2    -0.304006178495E+03    0.82218E-09    0.00000E+00     1   0.101E-10
 168 F= -.30400618E+03 E0= -.30405296E+03  d E =0.291038E-10
       N       E                     dE             d eps       ncg     rms          rms(c)
DAV:   1    -0.304006178497E+03   -0.37835E-09    0.13421E-10   294   0.285E-10    0.237E-10
RMM:   2    -0.304006178495E+03    0.11860E-08    0.00000E+00     1   0.839E-11
 169 F= -.30400618E+03 E0= -.30405296E+03  d E =-.145519E-10
       N       E                     dE             d eps       ncg     rms          rms(c)
DAV:   1    -0.304006178495E+03    0.17972E-08    0.41783E-11   294   0.172E-10    0.429E-10
RMM:   2    -0.304006178495E+03   -0.57480E-09    0.00000E+00     1   0.113E-10
 170 F= -.30400618E+03 E0= -.30405296E+03  d E =0.363798E-10
       N       E                     dE             d eps       ncg     rms          rms(c)
DAV:   1    -0.304006178495E+03   -0.27649E-09    0.47656E-11   294   0.405E-10    0.269E-10
RMM:   2    -0.304006178495E+03   -0.26921E-09    0.00000E+00     1   0.105E-10
 171 F= -.30400618E+03 E0= -.30405296E+03  d E =0.291038E-10
       N       E                     dE             d eps       ncg     rms          rms(c)
DAV:   1    -0.304006178496E+03   -0.90949E-09   -0.12025E-10   294   0.319E-10    0.379E-10
RMM:   2    -0.304006178495E+03    0.64028E-09    0.00000E+00     1   0.121E-10
 172 F= -.30400618E+03 E0= -.30405296E+03  d E =0.000000E+00
       N       E                     dE             d eps       ncg     rms          rms(c)
DAV:   1    -0.304006178494E+03    0.20736E-08    0.88225E-11   294   0.357E-10    0.255E-10
RMM:   2    -0.304006178495E+03   -0.13897E-08    0.00000E+00     1   0.763E-11
 173 F= -.30400618E+03 E0= -.30405296E+03  d E =0.436557E-10
       N       E                     dE             d eps       ncg     rms          rms(c)
DAV:   1    -0.304006178495E+03   -0.92405E-09   -0.24282E-11   294   0.231E-10    0.334E-10
RMM:   2    -0.304006178495E+03   -0.50932E-09    0.00000E+00     1   0.882E-11
 174 F= -.30400618E+03 E0= -.30405296E+03  d E =-.436557E-10
       N       E                     dE             d eps       ncg     rms          rms(c)
DAV:   1    -0.304006178496E+03   -0.10841E-08   -0.81153E-12   294   0.318E-10    0.189E-10
RMM:   2    -0.304006178495E+03    0.54570E-09    0.00000E+00     1   0.890E-11
 175 F= -.30400618E+03 E0= -.30405296E+03  d E =-.291038E-10
       N       E                     dE             d eps       ncg     rms          rms(c)
DAV:   1    -0.304006178494E+03    0.14406E-08    0.24752E-10   294   0.241E-10    0.231E-10
RMM:   2    -0.304006178495E+03   -0.86584E-09    0.00000E+00     1   0.864E-11
 176 F= -.30400618E+03 E0= -.30405296E+03  d E =0.291038E-10
       N       E                     dE             d eps       ncg     rms          rms(c)
DAV:   1    -0.304006178495E+03   -0.22555E-09    0.11305E-10   294   0.137E-10    0.276E-10
RMM:   2    -0.304006178495E+03   -0.64028E-09    0.00000E+00     1   0.853E-11
 177 F= -.30400618E+03 E0= -.30405296E+03  d E =0.000000E+00
       N       E                     dE             d eps       ncg     rms          rms(c)
DAV:   1    -0.304006178495E+03   -0.83674E-09   -0.10198E-10   294   0.253E-10    0.423E-10
RMM:   2    -0.304006178495E+03    0.26193E-09    0.00000E+00     1   0.126E-10
 178 F= -.30400618E+03 E0= -.30405296E+03  d E =0.654836E-10
       N       E                     dE             d eps       ncg     rms          rms(c)
DAV:   1    -0.304006178496E+03   -0.29104E-09   -0.32385E-11   294   0.427E-10    0.225E-10
RMM:   2    -0.304006178495E+03    0.58208E-09    0.00000E+00     1   0.810E-11
 179 F= -.30400618E+03 E0= -.30405296E+03  d E =0.291038E-10
       N       E                     dE             d eps       ncg     rms          rms(c)
DAV:   1    -0.304006178496E+03   -0.16007E-09    0.12866E-11   294   0.262E-10    0.180E-10
RMM:   2    -0.304006178495E+03    0.66939E-09    0.00000E+00     1   0.804E-11
 180 F= -.30400618E+03 E0= -.30405296E+03  d E =-.727596E-10
       N       E                     dE             d eps       ncg     rms          rms(c)
DAV:   1    -0.304006178495E+03    0.50932E-09   -0.24390E-11   294   0.195E-10    0.251E-10
RMM:   2    -0.304006178495E+03    0.43656E-10    0.00000E+00     1   0.737E-11
 181 F= -.30400618E+03 E0= -.30405296E+03  d E =-.116415E-09
       N       E                     dE             d eps       ncg     rms          rms(c)
DAV:   1    -0.304006178496E+03   -0.82946E-09    0.18811E-10   294   0.160E-10    0.261E-10
RMM:   2    -0.304006178495E+03    0.90949E-09    0.00000E+00     1   0.738E-11
 182 F= -.30400618E+03 E0= -.30405296E+03  d E =0.363798E-10
       N       E                     dE             d eps       ncg     rms          rms(c)
DAV:   1    -0.304006178495E+03    0.14479E-08    0.22157E-10   294   0.184E-10    0.192E-10
RMM:   2    -0.304006178495E+03   -0.55297E-09    0.00000E+00     1   0.725E-11
 183 F= -.30400618E+03 E0= -.30405296E+03  d E =-.145519E-10
       N       E                     dE             d eps       ncg     rms          rms(c)
DAV:   1    -0.304006178494E+03    0.58208E-09   -0.46508E-11   294   0.160E-10    0.246E-10
RMM:   2    -0.304006178495E+03   -0.10114E-08    0.00000E+00     1   0.765E-11
 184 F= -.30400618E+03 E0= -.30405296E+03  d E =0.123691E-09
       N       E                     dE             d eps       ncg     rms          rms(c)
DAV:   1    -0.304006178496E+03   -0.19718E-08    0.13504E-11   294   0.134E-10    0.340E-10
RMM:   2    -0.304006178495E+03    0.95315E-09    0.00000E+00     1   0.904E-11
 185 F= -.30400618E+03 E0= -.30405296E+03  d E =-.727596E-11
       N       E                     dE             d eps       ncg     rms          rms(c)
DAV:   1    -0.304006178496E+03    0.36380E-10   -0.23187E-11   294   0.309E-10    0.260E-10
RMM:   2    -0.304006178495E+03    0.80763E-09    0.00000E+00     1   0.930E-11
 186 F= -.30400618E+03 E0= -.30405296E+03  d E =-.109139E-09
       N       E                     dE             d eps       ncg     rms          rms(c)
DAV:   1    -0.304006178495E+03    0.14988E-08    0.29091E-11   294   0.255E-10    0.252E-10
RMM:   2    -0.304006178495E+03   -0.53114E-09    0.00000E+00     1   0.844E-11
 187 F= -.30400618E+03 E0= -.30405296E+03  d E =0.160071E-09
       N       E                     dE             d eps       ncg     rms          rms(c)
DAV:   1    -0.304006178495E+03   -0.18917E-09   -0.11381E-10   294   0.237E-10    0.324E-10
RMM:   2    -0.304006178495E+03   -0.40745E-09    0.00000E+00     1   0.954E-11
 188 F= -.30400618E+03 E0= -.30405296E+03  d E =-.654836E-10
       N       E                     dE             d eps       ncg     rms          rms(c)
DAV:   1    -0.304006178495E+03   -0.21828E-09   -0.97732E-12   294   0.328E-10    0.256E-10
RMM:   2    -0.304006178495E+03   -0.17462E-09    0.00000E+00     1   0.755E-11
 189 F= -.30400618E+03 E0= -.30405296E+03  d E =0.145519E-10
       N       E                     dE             d eps       ncg     rms          rms(c)
DAV:   1    -0.304006178496E+03   -0.11496E-08   -0.14320E-10   294   0.222E-10    0.239E-10
RMM:   2    -0.304006178495E+03    0.92405E-09    0.00000E+00     1   0.722E-11
 190 F= -.30400618E+03 E0= -.30405296E+03  d E =-.509317E-10
       N       E                     dE             d eps       ncg     rms          rms(c)
DAV:   1    -0.304006178494E+03    0.23210E-08    0.45921E-11   294   0.216E-10    0.256E-10
RMM:   2    -0.304006178495E+03   -0.13242E-08    0.00000E+00     1   0.775E-11
 191 F= -.30400618E+03 E0= -.30405296E+03  d E =0.727596E-10
       N       E                     dE             d eps       ncg     rms          rms(c)
DAV:   1    -0.304006178496E+03   -0.23865E-08    0.49396E-11   294   0.217E-10    0.214E-10
RMM:   2    -0.304006178495E+03    0.10041E-08    0.00000E+00     1   0.832E-11
 192 F= -.30400618E+03 E0= -.30405296E+03  d E =-.582077E-10
       N       E                     dE             d eps       ncg     rms          rms(c)
DAV:   1    -0.304006178495E+03    0.16225E-08   -0.73582E-13   294   0.207E-10    0.249E-10
RMM:   2    -0.304006178495E+03   -0.71304E-09    0.00000E+00     1   0.814E-11
 193 F= -.30400618E+03 E0= -.30405296E+03  d E =-.945874E-10
       N       E                     dE             d eps       ncg     rms          rms(c)
DAV:   1    -0.304006178495E+03   -0.42201E-09   -0.50098E-12   294   0.259E-10    0.205E-10
RMM:   2    -0.304006178495E+03   -0.15280E-09    0.00000E+00     1   0.928E-11
 194 F= -.30400618E+03 E0= -.30405296E+03  d E =0.138243E-09
       N       E                     dE             d eps       ncg     rms          rms(c)
DAV:   1    -0.304006178496E+03   -0.72760E-09   -0.61683E-11   294   0.230E-10    0.368E-10
RMM:   2    -0.304006178495E+03    0.48021E-09    0.00000E+00     1   0.112E-10
 195 F= -.30400618E+03 E0= -.30405296E+03  d E =-.945874E-10
       N       E                     dE             d eps       ncg     rms          rms(c)
DAV:   1    -0.304006178495E+03    0.75670E-09    0.18137E-11   294   0.246E-10    0.256E-10
RMM:   2    -0.304006178495E+03   -0.14552E-09    0.00000E+00     1   0.794E-11
 196 F= -.30400618E+03 E0= -.30405296E+03  d E =0.130967E-09
       N       E                     dE             d eps       ncg     rms          rms(c)
DAV:   1    -0.304006178495E+03   -0.18917E-09    0.16416E-10   294   0.259E-10    0.224E-10
RMM:   2    -0.304006178495E+03   -0.21828E-10    0.00000E+00     1   0.745E-11
 197 F= -.30400618E+03 E0= -.30405296E+03  d E =-.654836E-10
       N       E                     dE             d eps       ncg     rms          rms(c)
DAV:   1    -0.304006178495E+03    0.72760E-10    0.36706E-11   294   0.162E-10    0.245E-10
RMM:   2    -0.304006178495E+03   -0.65484E-10    0.00000E+00     1   0.725E-11
 198 F= -.30400618E+03 E0= -.30405296E+03  d E =0.291038E-10
       N       E                     dE             d eps       ncg     rms          rms(c)
DAV:   1    -0.304006178495E+03    0.16735E-09   -0.14763E-10   294   0.213E-10    0.222E-10
RMM:   2    -0.304006178495E+03   -0.28376E-09    0.00000E+00     1   0.777E-11
 199 F= -.30400618E+03 E0= -.30405296E+03  d E =-.509317E-10
       N       E                     dE             d eps       ncg     rms          rms(c)
DAV:   1    -0.304006178494E+03    0.10841E-08   -0.76446E-11   294   0.126E-10    0.262E-10
RMM:   2    -0.304006178495E+03   -0.14479E-08    0.00000E+00     1   0.707E-11
 200 F= -.30400618E+03 E0= -.30405296E+03  d E =-.800355E-10
       N       E                     dE             d eps       ncg     rms          rms(c)
DAV:   1    -0.304006178496E+03   -0.19354E-08    0.26557E-10   294   0.192E-10    0.286E-10
RMM:   2    -0.304006178495E+03    0.56752E-09    0.00000E+00     1   0.741E-11
 201 F= -.30400618E+03 E0= -.30405296E+03  d E =0.800355E-10
       N       E                     dE             d eps       ncg     rms          rms(c)
DAV:   1    -0.304006178495E+03    0.67666E-09    0.27713E-11   294   0.248E-10    0.206E-10
RMM:   2    -0.304006178495E+03   -0.15280E-09    0.00000E+00     1   0.753E-11
 202 F= -.30400618E+03 E0= -.30405296E+03  d E =-.436557E-10
       N       E                     dE             d eps       ncg     rms          rms(c)
DAV:   1    -0.304006178496E+03   -0.56752E-09    0.11623E-10   294   0.193E-10    0.207E-10
RMM:   2    -0.304006178495E+03    0.50932E-09    0.00000E+00     1   0.787E-11
 203 F= -.30400618E+03 E0= -.30405296E+03  d E =0.945874E-10
       N       E                     dE             d eps       ncg     rms          rms(c)
DAV:   1    -0.304006178496E+03   -0.32742E-09   -0.26721E-10   294   0.206E-10    0.220E-10
RMM:   2    -0.304006178495E+03    0.80036E-09    0.00000E+00     1   0.843E-11
 204 F= -.30400618E+03 E0= -.30405296E+03  d E =-.363798E-10
       N       E                     dE             d eps       ncg     rms          rms(c)
DAV:   1    -0.304006178495E+03    0.11423E-08    0.74403E-11   294   0.191E-10    0.259E-10
RMM:   2    -0.304006178495E+03   -0.38563E-09    0.00000E+00     1   0.690E-11
 205 F= -.30400618E+03 E0= -.30405296E+03  d E =-.436557E-10
       N       E                     dE             d eps       ncg     rms          rms(c)
DAV:   1    -0.304006178496E+03   -0.63301E-09    0.20402E-11   294   0.220E-10    0.207E-10
RMM:   2    -0.304006178495E+03    0.31287E-09    0.00000E+00     1   0.649E-11
 206 F= -.30400618E+03 E0= -.30405296E+03  d E =0.654836E-10
       N       E                     dE             d eps       ncg     rms          rms(c)
DAV:   1    -0.304006178496E+03   -0.69122E-09   -0.31389E-11   294   0.168E-10    0.257E-10
RMM:   2    -0.304006178495E+03    0.95315E-09    0.00000E+00     1   0.748E-11
 207 F= -.30400618E+03 E0= -.30405296E+03  d E =-.509317E-10
       N       E                     dE             d eps       ncg     rms          rms(c)
DAV:   1    -0.304006178495E+03    0.96770E-09   -0.11777E-10   294   0.245E-10    0.274E-10
RMM:   2    -0.304006178495E+03    0.29104E-10    0.00000E+00     1   0.797E-11
 208 F= -.30400618E+03 E0= -.30405296E+03  d E =0.436557E-10
       N       E                     dE             d eps       ncg     rms          rms(c)
DAV:   1    -0.304006178496E+03   -0.48749E-09   -0.21413E-10   294   0.269E-10    0.234E-10
RMM:   2    -0.304006178495E+03    0.50204E-09    0.00000E+00     1   0.778E-11
 209 F= -.30400618E+03 E0= -.30405296E+03  d E =-.145519E-10
       N       E                     dE             d eps       ncg     rms          rms(c)
DAV:   1    -0.304006178495E+03    0.53114E-09   -0.95141E-11   294   0.208E-10    0.250E-10
RMM:   2    -0.304006178495E+03    0.21828E-10    0.00000E+00     1   0.884E-11
 210 F= -.30400618E+03 E0= -.30405296E+03  d E =0.509317E-10
       N       E                     dE             d eps       ncg     rms          rms(c)
DAV:   1    -0.304006178495E+03   -0.21100E-09   -0.14207E-10   294   0.263E-10    0.261E-10
RMM:   2    -0.304006178495E+03    0.13824E-09    0.00000E+00     1   0.964E-11
 211 F= -.30400618E+03 E0= -.30405296E+03  d E =-.945874E-10
       N       E                     dE             d eps       ncg     rms          rms(c)
DAV:   1    -0.304006178495E+03    0.54570E-09   -0.23631E-10   294   0.274E-10    0.223E-10
RMM:   2    -0.304006178495E+03   -0.34925E-09    0.00000E+00     1   0.785E-11
 212 F= -.30400618E+03 E0= -.30405296E+03  d E =0.582077E-10
       N       E                     dE             d eps       ncg     rms          rms(c)
DAV:   1    -0.304006178496E+03   -0.14261E-08    0.11851E-10   294   0.247E-10    0.285E-10
RMM:   2    -0.304006178495E+03    0.10332E-08    0.00000E+00     1   0.773E-11
 213 F= -.30400618E+03 E0= -.30405296E+03  d E =-.436557E-10
       N       E                     dE             d eps       ncg     rms          rms(c)
DAV:   1    -0.304006178496E+03    0.00000E+00    0.15783E-10   294   0.291E-10    0.274E-10
RMM:   2    -0.304006178495E+03    0.10914E-08    0.00000E+00     1   0.781E-11
 214 F= -.30400618E+03 E0= -.30405296E+03  d E =0.582077E-10
       N       E                     dE             d eps       ncg     rms          rms(c)
DAV:   1    -0.304006178495E+03    0.82946E-09    0.79543E-11   294   0.195E-10    0.302E-10
RMM:   2    -0.304006178495E+03    0.25466E-09    0.00000E+00     1   0.860E-11
 215 F= -.30400618E+03 E0= -.30405296E+03  d E =-.727596E-11
       N       E                     dE             d eps       ncg     rms          rms(c)
DAV:   1    -0.304006178495E+03    0.65484E-09   -0.13665E-10   294   0.314E-10    0.183E-10
RMM:   2    -0.304006178495E+03   -0.45839E-09    0.00000E+00     1   0.669E-11
 216 F= -.30400618E+03 E0= -.30405296E+03  d E =-.582077E-10
       N       E                     dE             d eps       ncg     rms          rms(c)
DAV:   1    -0.304006178495E+03   -0.22555E-09   -0.10241E-10   294   0.165E-10    0.224E-10
RMM:   2    -0.304006178495E+03   -0.18917E-09    0.00000E+00     1   0.758E-11
 217 F= -.30400618E+03 E0= -.30405296E+03  d E =0.436557E-10
       N       E                     dE             d eps       ncg     rms          rms(c)
DAV:   1    -0.304006178496E+03   -0.14334E-08    0.83289E-12   294   0.144E-10    0.214E-10
RMM:   2    -0.304006178495E+03    0.12369E-08    0.00000E+00     1   0.718E-11
 218 F= -.30400618E+03 E0= -.30405296E+03  d E =-.727596E-11
       N       E                     dE             d eps       ncg     rms          rms(c)
DAV:   1    -0.304006178495E+03    0.16735E-08    0.13025E-10   294   0.122E-10    0.319E-10
RMM:   2    -0.304006178495E+03   -0.51659E-09    0.00000E+00     1   0.783E-11
 219 F= -.30400618E+03 E0= -.30405296E+03  d E =-.800355E-10
       N       E                     dE             d eps       ncg     rms          rms(c)
DAV:   1    -0.304006178496E+03   -0.11132E-08    0.16872E-10   294   0.210E-10    0.237E-10
RMM:   2    -0.304006178495E+03    0.69849E-09    0.00000E+00     1   0.801E-11
 220 F= -.30400618E+03 E0= -.30405296E+03  d E =0.101863E-09
       N       E                     dE             d eps       ncg     rms          rms(c)
DAV:   1    -0.304006178495E+03    0.68394E-09    0.11056E-10   294   0.184E-10    0.219E-10
RMM:   2    -0.304006178495E+03   -0.72760E-11    0.00000E+00     1   0.803E-11
 221 F= -.30400618E+03 E0= -.30405296E+03  d E =-.218279E-10
       N       E                     dE             d eps       ncg     rms          rms(c)
DAV:   1    -0.304006178497E+03   -0.13024E-08    0.98356E-11   294   0.204E-10    0.212E-10
RMM:   2    -0.304006178495E+03    0.13461E-08    0.00000E+00     1   0.852E-11
 222 F= -.30400618E+03 E0= -.30405296E+03  d E =0.509317E-10
       N       E                     dE             d eps       ncg     rms          rms(c)
DAV:   1    -0.304006178495E+03    0.16589E-08   -0.12352E-10   294   0.175E-10    0.346E-10
RMM:   2    -0.304006178495E+03   -0.42928E-09    0.00000E+00     1   0.868E-11
 223 F= -.30400618E+03 E0= -.30405296E+03  d E =-.116415E-09
       N       E                     dE             d eps       ncg     rms          rms(c)
DAV:   1    -0.304006178496E+03   -0.93860E-09   -0.83557E-11   294   0.169E-10    0.419E-10
RMM:   2    -0.304006178495E+03    0.50204E-09    0.00000E+00     1   0.109E-10
 224 F= -.30400618E+03 E0= -.30405296E+03  d E =-.727596E-11
       N       E                     dE             d eps       ncg     rms          rms(c)
DAV:   1    -0.304006178495E+03    0.11059E-08   -0.63614E-11   294   0.383E-10    0.306E-10
RMM:   2    -0.304006178495E+03   -0.60390E-09    0.00000E+00     1   0.922E-11
 225 F= -.30400618E+03 E0= -.30405296E+03  d E =0.000000E+00
       N       E                     dE             d eps       ncg     rms          rms(c)
DAV:   1    -0.304006178496E+03   -0.16225E-08   -0.38555E-11   294   0.320E-10    0.247E-10
RMM:   2    -0.304006178495E+03    0.10696E-08    0.00000E+00     1   0.990E-11
 226 F= -.30400618E+03 E0= -.30405296E+03  d E =0.509317E-10
       N       E                     dE             d eps       ncg     rms          rms(c)
DAV:   1    -0.304006178496E+03    0.45839E-09    0.46227E-11   294   0.250E-10    0.217E-10
RMM:   2    -0.304006178495E+03    0.63301E-09    0.00000E+00     1   0.765E-11
 227 F= -.30400618E+03 E0= -.30405296E+03  d E =0.218279E-10
       N       E                     dE             d eps       ncg     rms          rms(c)
DAV:   1    -0.304006178497E+03   -0.81491E-09   -0.17503E-10   294   0.202E-10    0.206E-10
RMM:   2    -0.304006178495E+03    0.14770E-08    0.00000E+00     1   0.878E-11
 228 F= -.30400618E+03 E0= -.30405296E+03  d E =0.291038E-10
       N       E                     dE             d eps       ncg     rms          rms(c)
DAV:   1    -0.304006178494E+03    0.24447E-08    0.13421E-10   294   0.191E-10    0.248E-10
RMM:   2    -0.304006178495E+03   -0.93860E-09    0.00000E+00     1   0.677E-11
 229 F= -.30400618E+03 E0= -.30405296E+03  d E =0.291038E-10
       N       E                     dE             d eps       ncg     rms          rms(c)
DAV:   1    -0.304006178495E+03   -0.74942E-09   -0.11896E-11   294   0.182E-10    0.237E-10
RMM:   2    -0.304006178495E+03   -0.29104E-09    0.00000E+00     1   0.783E-11
 230 F= -.30400618E+03 E0= -.30405296E+03  d E =-.101863E-09
       N       E                     dE             d eps       ncg     rms          rms(c)
DAV:   1    -0.304006178495E+03   -0.15280E-09   -0.83234E-11   294   0.219E-10    0.312E-10
RMM:   2    -0.304006178495E+03   -0.14552E-09    0.00000E+00     1   0.923E-11
 231 F= -.30400618E+03 E0= -.30405296E+03  d E =-.727596E-11
       N       E                     dE             d eps       ncg     rms          rms(c)
DAV:   1    -0.304006178494E+03    0.10332E-08   -0.80164E-11   294   0.295E-10    0.269E-10
RMM:   2    -0.304006178495E+03   -0.11642E-08    0.00000E+00     1   0.926E-11
 232 F= -.30400618E+03 E0= -.30405296E+03  d E =0.145519E-10
       N       E                     dE             d eps       ncg     rms          rms(c)
DAV:   1    -0.304006178496E+03   -0.18626E-08   -0.13779E-10   294   0.331E-10    0.278E-10
RMM:   2    -0.304006178495E+03    0.66211E-09    0.00000E+00     1   0.918E-11
 233 F= -.30400618E+03 E0= -.30405296E+03  d E =-.363798E-10
       N       E                     dE             d eps       ncg     rms          rms(c)
DAV:   1    -0.304006178496E+03   -0.45839E-09    0.42633E-11   294   0.181E-10    0.194E-10
RMM:   2    -0.304006178495E+03    0.11423E-08    0.00000E+00     1   0.630E-11
 234 F= -.30400618E+03 E0= -.30405296E+03  d E =0.218279E-10
       N       E                     dE             d eps       ncg     rms          rms(c)
DAV:   1    -0.304006178495E+03    0.14916E-08    0.18082E-10   294   0.157E-10    0.296E-10
RMM:   2    -0.304006178495E+03   -0.34197E-09    0.00000E+00     1   0.776E-11
 235 F= -.30400618E+03 E0= -.30405296E+03  d E =0.727596E-11
       N       E                     dE             d eps       ncg     rms          rms(c)
DAV:   1    -0.304006178496E+03   -0.68394E-09    0.93435E-11   294   0.298E-10    0.243E-10
RMM:   2    -0.304006178495E+03    0.33469E-09    0.00000E+00     1   0.863E-11
 236 F= -.30400618E+03 E0= -.30405296E+03  d E =-.727596E-11
       N       E                     dE             d eps       ncg     rms          rms(c)
DAV:   1    -0.304006178495E+03    0.98953E-09    0.91377E-11   294   0.300E-10    0.197E-10
RMM:   2    -0.304006178495E+03   -0.69122E-09    0.00000E+00     1   0.741E-11
 237 F= -.30400618E+03 E0= -.30405296E+03  d E =-.363798E-10
       N       E                     dE             d eps       ncg     rms          rms(c)
DAV:   1    -0.304006178496E+03   -0.12005E-08   -0.21516E-11   294   0.136E-10    0.240E-10
RMM:   2    -0.304006178495E+03    0.64756E-09    0.00000E+00     1   0.705E-11
 238 F= -.30400618E+03 E0= -.30405296E+03  d E =0.138243E-09
       N       E                     dE             d eps       ncg     rms          rms(c)
DAV:   1    -0.304006178495E+03    0.70577E-09    0.76932E-11   294   0.132E-10    0.208E-10
RMM:   2    -0.304006178495E+03   -0.14552E-09    0.00000E+00     0   0.719E-11
 239 F= -.30400618E+03 E0= -.30405296E+03  d E =-.873115E-10
       N       E                     dE             d eps       ncg     rms          rms(c)
DAV:   1    -0.304006178496E+03   -0.10768E-08    0.59039E-12   294   0.151E-10    0.280E-10
RMM:   2    -0.304006178495E+03    0.95315E-09    0.00000E+00     0   0.831E-11
 240 F= -.30400618E+03 E0= -.30405296E+03  d E =0.218279E-10
[...]
 439 F= -.30400618E+03 E0= -.30405296E+03  d E =0.101863E-09
       N       E                     dE             d eps       ncg     rms          rms(c)
DAV:   1    -0.304006178496E+03   -0.22628E-08    0.13489E-10   294   0.153E-10    0.265E-10
RMM:   2    -0.304006178495E+03    0.65484E-09    0.00000E+00     0   0.711E-11
 440 F= -.30400618E+03 E0= -.30405296E+03  d E =-.363798E-10
       N       E                     dE             d eps       ncg     rms          rms(c)
DAV:   1    -0.304006178495E+03    0.11642E-08   -0.17009E-10   294   0.203E-10    0.248E-10
RMM:   2    -0.304006178495E+03   -0.56752E-09    0.00000E+00     0   0.857E-11
 441 F= -.30400618E+03 E0= -.30405296E+03  d E =-.582077E-10
       N       E                     dE             d eps       ncg     rms          rms(c)
DAV:   1    -0.304006178496E+03   -0.13461E-08    0.37056E-11   294   0.277E-10    0.218E-10
RMM:   2    -0.304006178495E+03    0.85856E-09    0.00000E+00     0   0.884E-11
 442 F= -.30400618E+03 E0= -.30405296E+03  d E =0.800355E-10
       N       E                     dE             d eps       ncg     rms          rms(c)
DAV:   1    -0.304006178495E+03    0.77853E-09    0.17043E-10   294   0.248E-10    0.265E-10
RMM:   2    -0.304006178495E+03    0.10914E-09    0.00000E+00     0   0.855E-11
 443 F= -.30400618E+03 E0= -.30405296E+03  d E =0.291038E-10
       N       E                     dE             d eps       ncg     rms          rms(c)
DAV:   1    -0.304006178496E+03   -0.50932E-09    0.64599E-11   294   0.292E-10    0.239E-10
RMM:   2    -0.304006178495E+03    0.56025E-09    0.00000E+00     0   0.912E-11
 444 F= -.30400618E+03 E0= -.30405296E+03  d E =-.582077E-10
       N       E                     dE             d eps       ncg     rms          rms(c)
DAV:   1    -0.304006178496E+03   -0.13097E-09   -0.86892E-11   294   0.262E-10    0.276E-10
RMM:   2    -0.304006178495E+03    0.70577E-09    0.00000E+00     0   0.728E-11
 445 F= -.30400618E+03 E0= -.30405296E+03  d E =0.145519E-10
       N       E                     dE             d eps       ncg     rms          rms(c)
DAV:   1    -0.304006178495E+03    0.13242E-08   -0.11923E-10   294   0.175E-10    0.246E-10
RMM:   2    -0.304006178495E+03   -0.59663E-09    0.00000E+00     0   0.802E-11
 446 F= -.30400618E+03 E0= -.30405296E+03  d E =0.218279E-10
       N       E                     dE             d eps       ncg     rms          rms(c)
DAV:   1    -0.304006178496E+03   -0.14479E-08   -0.27378E-11   294   0.239E-10    0.236E-10
RMM:   2    -0.304006178495E+03    0.90222E-09    0.00000E+00     0   0.789E-11
 447 F= -.30400618E+03 E0= -.30405296E+03  d E =0.509317E-10
       N       E                     dE             d eps       ncg     rms          rms(c)
DAV:   1    -0.304006178495E+03    0.14916E-08    0.27768E-11   294   0.197E-10    0.264E-10
RMM:   2    -0.304006178495E+03   -0.64756E-09    0.00000E+00     0   0.826E-11
 448 F= -.30400618E+03 E0= -.30405296E+03  d E =-.582077E-10
       N       E                     dE             d eps       ncg     rms          rms(c)
DAV:   1    -0.304006178494E+03    0.12369E-09   -0.12057E-10   294   0.298E-10    0.191E-10
RMM:   2    -0.304006178495E+03   -0.81491E-09    0.00000E+00     0   0.856E-11
 449 F= -.30400618E+03 E0= -.30405296E+03  d E =-.436557E-10
       N       E                     dE             d eps       ncg     rms          rms(c)
DAV:   1    -0.304006178494E+03    0.66211E-09    0.10388E-10   294   0.201E-10    0.222E-10
RMM:   2    -0.304006178495E+03   -0.13606E-08    0.00000E+00     0   0.715E-11
 450 F= -.30400618E+03 E0= -.30405296E+03  d E =0.116415E-09
       N       E                     dE             d eps       ncg     rms          rms(c)
DAV:   1    -0.304006178495E+03   -0.16444E-08   -0.73333E-11   294   0.166E-10    0.297E-10
RMM:   2    -0.304006178495E+03    0.16735E-09    0.00000E+00     0   0.767E-11
 451 F= -.30400618E+03 E0= -.30405296E+03  d E =-.116415E-09
       N       E                     dE             d eps       ncg     rms          rms(c)
DAV:   1    -0.304006178496E+03   -0.79308E-09    0.95140E-12   294   0.191E-10    0.277E-10
RMM:   2    -0.304006178495E+03    0.93132E-09    0.00000E+00     0   0.784E-11
 452 F= -.30400618E+03 E0= -.30405296E+03  d E =-.291038E-10
       N       E                     dE             d eps       ncg     rms          rms(c)
DAV:   1    -0.304006178495E+03    0.88039E-09    0.12910E-10   294   0.265E-10    0.250E-10
RMM:   2    -0.304006178495E+03    0.23283E-09    0.00000E+00     0   0.829E-11
 453 F= -.30400618E+03 E0= -.30405296E+03  d E =0.181899E-09
       N       E                     dE             d eps       ncg     rms          rms(c)
DAV:   1    -0.304006178494E+03    0.18335E-08    0.13313E-10   294   0.251E-10    0.240E-10
RMM:   2    -0.304006178495E+03   -0.16735E-08    0.00000E+00     0   0.965E-11
 454 F= -.30400618E+03 E0= -.30405296E+03  d E =-.727596E-10
       N       E                     dE             d eps       ncg     rms          rms(c)
DAV:   1    -0.304006178495E+03   -0.15280E-08   -0.20739E-11   294   0.164E-10    0.418E-10
RMM:   2    -0.304006178495E+03   -0.23283E-09    0.00000E+00     0   0.108E-10
 455 F= -.30400618E+03 E0= -.30405296E+03  d E =-.873115E-10
       N       E                     dE             d eps       ncg     rms          rms(c)
DAV:   1    -0.304006178494E+03    0.58208E-09    0.77484E-11   294   0.338E-10    0.202E-10
RMM:   2    -0.304006178495E+03   -0.73487E-09    0.00000E+00     0   0.905E-11
 456 F= -.30400618E+03 E0= -.30405296E+03  d E =0.800355E-10
       N       E                     dE             d eps       ncg     rms          rms(c)
DAV:   1    -0.304006178494E+03    0.39290E-09    0.22954E-10   294   0.282E-10    0.159E-10
RMM:   2    -0.304006178495E+03   -0.11860E-08    0.00000E+00     0   0.905E-11
 457 F= -.30400618E+03 E0= -.30405296E+03  d E =-.582077E-10
       N       E                     dE             d eps       ncg     rms          rms(c)
DAV:   1    -0.304006178495E+03   -0.58208E-09    0.54286E-11   294   0.153E-10    0.250E-10
RMM:   2    -0.304006178495E+03   -0.59663E-09    0.00000E+00     0   0.802E-11
 458 F= -.30400618E+03 E0= -.30405296E+03  d E =0.727596E-11
       N       E                     dE             d eps       ncg     rms          rms(c)
DAV:   1    -0.304006178495E+03   -0.47294E-09    0.14201E-10   294   0.159E-10    0.269E-10
RMM:   2    -0.304006178495E+03   -0.72760E-10    0.00000E+00     0   0.826E-11
 459 F= -.30400618E+03 E0= -.30405296E+03  d E =0.509317E-10
       N       E                     dE             d eps       ncg     rms          rms(c)
DAV:   1    -0.304006178494E+03    0.87311E-09   -0.77788E-11   294   0.210E-10    0.253E-10
RMM:   2    -0.304006178495E+03   -0.10186E-08    0.00000E+00     0   0.726E-11
 460 F= -.30400618E+03 E0= -.30405296E+03  d E =-.727596E-10
       N       E                     dE             d eps       ncg     rms          rms(c)
DAV:   1    -0.304006178496E+03   -0.13824E-08   -0.16028E-10   294   0.264E-10    0.246E-10
RMM:   2    -0.304006178495E+03    0.33469E-09    0.00000E+00     0   0.824E-11
 461 F= -.30400618E+03 E0= -.30405296E+03  d E =-.291038E-10
       N       E                     dE             d eps       ncg     rms          rms(c)
DAV:   1    -0.304006178496E+03   -0.72760E-09   -0.14951E-10   294   0.307E-10    0.241E-10
RMM:   2    -0.304006178495E+03    0.11278E-08    0.00000E+00     0   0.845E-11
 462 F= -.30400618E+03 E0= -.30405296E+03  d E =0.654836E-10
       N       E                     dE             d eps       ncg     rms          rms(c)
DAV:   1    -0.304006178496E+03    0.83674E-09   -0.85320E-11   294   0.119E-10    0.266E-10
RMM:   2    -0.304006178495E+03    0.24011E-09    0.00000E+00     0   0.721E-11
 463 F= -.30400618E+03 E0= -.30405296E+03  d E =-.509317E-10
       N       E                     dE             d eps       ncg     rms          rms(c)
DAV:   1    -0.304006178496E+03   -0.53842E-09   -0.17327E-10   294   0.198E-10    0.228E-10
RMM:   2    -0.304006178495E+03    0.88039E-09    0.00000E+00     0   0.738E-11
 464 F= -.30400618E+03 E0= -.30405296E+03  d E =0.101863E-09
       N       E                     dE             d eps       ncg     rms          rms(c)
DAV:   1    -0.304006178496E+03    0.13824E-09    0.20658E-10   294   0.244E-10    0.201E-10
RMM:   2    -0.304006178495E+03    0.79308E-09    0.00000E+00     0   0.795E-11
 465 F= -.30400618E+03 E0= -.30405296E+03  d E =0.509317E-10
       N       E                     dE             d eps       ncg     rms          rms(c)
DAV:   1    -0.304006178495E+03    0.13169E-08   -0.55901E-11   294   0.236E-10    0.202E-10
RMM:   2    -0.304006178495E+03   -0.67666E-09    0.00000E+00     0   0.791E-11
 466 F= -.30400618E+03 E0= -.30405296E+03  d E =-.152795E-09
       N       E                     dE             d eps       ncg     rms          rms(c)
DAV:   1    -0.304006178495E+03   -0.21828E-10    0.55135E-11   294   0.171E-10    0.310E-10
RMM:   2    -0.304006178495E+03   -0.59663E-09    0.00000E+00     0   0.805E-11
 467 F= -.30400618E+03 E0= -.30405296E+03  d E =0.582077E-10
       N       E                     dE             d eps       ncg     rms          rms(c)
DAV:   1    -0.304006178495E+03   -0.80036E-09   -0.10010E-10   294   0.206E-10    0.238E-10
RMM:   2    -0.304006178495E+03    0.17462E-09    0.00000E+00     0   0.766E-11
 468 F= -.30400618E+03 E0= -.30405296E+03  d E =-.291038E-10
       N       E                     dE             d eps       ncg     rms          rms(c)
DAV:   1    -0.304006178494E+03    0.11569E-08    0.20601E-10   294   0.201E-10    0.346E-10
RMM:   2    -0.304006178495E+03   -0.93132E-09    0.00000E+00     0   0.897E-11
 469 F= -.30400618E+03 E0= -.30405296E+03  d E =0.509317E-10
       N       E                     dE             d eps       ncg     rms          rms(c)
DAV:   1    -0.304006178495E+03   -0.11642E-08    0.39451E-11   294   0.277E-10    0.182E-10
RMM:   2    -0.304006178495E+03    0.24738E-09    0.00000E+00     0   0.733E-11
 470 F= -.30400618E+03 E0= -.30405296E+03  d E =0.145519E-10
       N       E                     dE             d eps       ncg     rms          rms(c)
DAV:   1    -0.304006178496E+03   -0.64756E-09    0.13358E-10   294   0.181E-10    0.202E-10
RMM:   2    -0.304006178495E+03    0.88767E-09    0.00000E+00     0   0.781E-11
 471 F= -.30400618E+03 E0= -.30405296E+03  d E =-.727596E-11
       N       E                     dE             d eps       ncg     rms          rms(c)
DAV:   1    -0.304006178495E+03    0.76398E-09   -0.26698E-10   294   0.200E-10    0.253E-10
RMM:   2    -0.304006178495E+03    0.15280E-09    0.00000E+00     0   0.845E-11
 472 F= -.30400618E+03 E0= -.30405296E+03  d E =0.291038E-10
       N       E                     dE             d eps       ncg     rms          rms(c)
DAV:   1    -0.304006178497E+03   -0.14406E-08   -0.21080E-10   294   0.295E-10    0.207E-10
RMM:   2    -0.304006178495E+03    0.15716E-08    0.00000E+00     0   0.763E-11
 473 F= -.30400618E+03 E0= -.30405296E+03  d E =-.218279E-10
       N       E                     dE             d eps       ncg     rms          rms(c)
DAV:   1    -0.304006178496E+03    0.12587E-08   -0.11551E-10   294   0.218E-10    0.213E-10
RMM:   2    -0.304006178495E+03    0.32742E-09    0.00000E+00     0   0.795E-11
 474 F= -.30400618E+03 E0= -.30405296E+03  d E =0.145519E-10
       N       E                     dE             d eps       ncg     rms          rms(c)
DAV:   1    -0.304006178495E+03    0.56025E-09    0.48269E-11   294   0.225E-10    0.233E-10
RMM:   2    -0.304006178495E+03   -0.16735E-09    0.00000E+00     0   0.627E-11
 475 F= -.30400618E+03 E0= -.30405296E+03  d E =0.654836E-10
       N       E                     dE             d eps       ncg     rms          rms(c)
DAV:   1    -0.304006178496E+03   -0.11496E-08    0.32611E-11   294   0.150E-10    0.265E-10
RMM:   2    -0.304006178495E+03    0.85856E-09    0.00000E+00     0   0.828E-11
 476 F= -.30400618E+03 E0= -.30405296E+03  d E =-.123691E-09
       N       E                     dE             d eps       ncg     rms          rms(c)
DAV:   1    -0.304006178494E+03    0.21464E-08   -0.44519E-11   294   0.236E-10    0.183E-10
RMM:   2    -0.304006178495E+03   -0.12151E-08    0.00000E+00     0   0.590E-11
 477 F= -.30400618E+03 E0= -.30405296E+03  d E =0.727596E-10
       N       E                     dE             d eps       ncg     rms          rms(c)
DAV:   1    -0.304006178496E+03   -0.18845E-08   -0.85840E-11   294   0.181E-10    0.201E-10
RMM:   2    -0.304006178495E+03    0.49477E-09    0.00000E+00     0   0.714E-11
 478 F= -.30400618E+03 E0= -.30405296E+03  d E =-.174623E-09
       N       E                     dE             d eps       ncg     rms          rms(c)
DAV:   1    -0.304006178495E+03    0.12224E-08    0.12281E-10   294   0.176E-10    0.279E-10
RMM:   2    -0.304006178495E+03   -0.61846E-09    0.00000E+00     0   0.765E-11
 479 F= -.30400618E+03 E0= -.30405296E+03  d E =0.109139E-09
       N       E                     dE             d eps       ncg     rms          rms(c)
DAV:   1    -0.304006178495E+03   -0.69849E-09    0.99985E-11   294   0.235E-10    0.234E-10
RMM:   2    -0.304006178495E+03    0.43656E-10    0.00000E+00     0   0.649E-11
 480 F= -.30400618E+03 E0= -.30405296E+03  d E =-.363798E-10
       N       E                     dE             d eps       ncg     rms          rms(c)
DAV:   1    -0.304006178496E+03   -0.45111E-09    0.19169E-11   294   0.219E-10    0.219E-10
RMM:   2    -0.304006178495E+03    0.45839E-09    0.00000E+00     0   0.645E-11
 481 F= -.30400618E+03 E0= -.30405296E+03  d E =-.363798E-10
       N       E                     dE             d eps       ncg     rms          rms(c)
DAV:   1    -0.304006178495E+03    0.62573E-09    0.10771E-10   294   0.169E-10    0.217E-10
RMM:   2    -0.304006178495E+03   -0.17462E-09    0.00000E+00     0   0.755E-11
 482 F= -.30400618E+03 E0= -.30405296E+03  d E =-.727596E-11
       N       E                     dE             d eps       ncg     rms          rms(c)
DAV:   1    -0.304006178495E+03    0.41473E-09    0.45151E-12   294   0.232E-10    0.245E-10
RMM:   2    -0.304006178495E+03   -0.50204E-09    0.00000E+00     0   0.772E-11
 483 F= -.30400618E+03 E0= -.30405296E+03  d E =0.873115E-10
       N       E                     dE             d eps       ncg     rms          rms(c)
DAV:   1    -0.304006178495E+03   -0.65484E-09   -0.80498E-11   294   0.254E-10    0.200E-10
RMM:   2    -0.304006178495E+03    0.20373E-09    0.00000E+00     0   0.799E-11
 484 F= -.30400618E+03 E0= -.30405296E+03  d E =0.509317E-10
       N       E                     dE             d eps       ncg     rms          rms(c)
DAV:   1    -0.304006178495E+03    0.20373E-09    0.56492E-12   294   0.148E-10    0.224E-10
RMM:   2    -0.304006178495E+03   -0.15280E-09    0.00000E+00     0   0.770E-11
 485 F= -.30400618E+03 E0= -.30405296E+03  d E =-.152795E-09
       N       E                     dE             d eps       ncg     rms          rms(c)
DAV:   1    -0.304006178496E+03   -0.46566E-09    0.29000E-11   294   0.123E-10    0.408E-10
RMM:   2    -0.304006178495E+03    0.40745E-09    0.00000E+00     0   0.901E-11
 486 F= -.30400618E+03 E0= -.30405296E+03  d E =0.945874E-10
       N       E                     dE             d eps       ncg     rms          rms(c)
DAV:   1    -0.304006178495E+03    0.90949E-09    0.11418E-10   294   0.200E-10    0.239E-10
RMM:   2    -0.304006178495E+03   -0.61846E-09    0.00000E+00     0   0.825E-11
 487 F= -.30400618E+03 E0= -.30405296E+03  d E =-.116415E-09
       N       E                     dE             d eps       ncg     rms          rms(c)
DAV:   1    -0.304006178495E+03   -0.60390E-09    0.84046E-11   294   0.198E-10    0.288E-10
RMM:   2    -0.304006178495E+03    0.10914E-09    0.00000E+00     0   0.855E-11
 488 F= -.30400618E+03 E0= -.30405296E+03  d E =0.123691E-09
       N       E                     dE             d eps       ncg     rms          rms(c)
DAV:   1    -0.304006178495E+03    0.51659E-09    0.14975E-10   294   0.301E-10    0.187E-10
RMM:   2    -0.304006178495E+03   -0.42928E-09    0.00000E+00     0   0.851E-11
 489 F= -.30400618E+03 E0= -.30405296E+03  d E =-.218279E-10
       N       E                     dE             d eps       ncg     rms          rms(c)
DAV:   1    -0.304006178494E+03    0.34197E-09    0.20681E-10   294   0.154E-10    0.317E-10
RMM:   2    -0.304006178495E+03   -0.81491E-09    0.00000E+00     0   0.773E-11
 490 F= -.30400618E+03 E0= -.30405296E+03  d E =-.436557E-10
       N       E                     dE             d eps       ncg     rms          rms(c)
DAV:   1    -0.304006178495E+03   -0.53842E-09   -0.41038E-11   294   0.148E-10    0.231E-10
RMM:   2    -0.304006178495E+03   -0.22555E-09    0.00000E+00     0   0.785E-11
 491 F= -.30400618E+03 E0= -.30405296E+03  d E =0.509317E-10
       N       E                     dE             d eps       ncg     rms          rms(c)
DAV:   1    -0.304006178497E+03   -0.15352E-08    0.59427E-12   294   0.158E-10    0.259E-10
RMM:   2    -0.304006178495E+03    0.12951E-08    0.00000E+00     0   0.880E-11
 492 F= -.30400618E+03 E0= -.30405296E+03  d E =-.145519E-10
       N       E                     dE             d eps       ncg     rms          rms(c)
DAV:   1    -0.304006178495E+03    0.18917E-08    0.62618E-11   294   0.277E-10    0.352E-10
RMM:   2    -0.304006178495E+03   -0.45839E-09    0.00000E+00     0   0.883E-11
 493 F= -.30400618E+03 E0= -.30405296E+03  d E =0.138243E-09
       N       E                     dE             d eps       ncg     rms          rms(c)
DAV:   1    -0.304006178495E+03   -0.35652E-09    0.11063E-10   294   0.279E-10    0.215E-10
RMM:   2    -0.304006178495E+03   -0.23283E-09    0.00000E+00     0   0.826E-11
 494 F= -.30400618E+03 E0= -.30405296E+03  d E =-.130967E-09
       N       E                     dE             d eps       ncg     rms          rms(c)
DAV:   1    -0.304006178496E+03   -0.51659E-09    0.27617E-10   294   0.241E-10    0.223E-10
RMM:   2    -0.304006178495E+03    0.31287E-09    0.00000E+00     0   0.958E-11
 495 F= -.30400618E+03 E0= -.30405296E+03  d E =0.291038E-10
       N       E                     dE             d eps       ncg     rms          rms(c)
DAV:   1    -0.304006178494E+03    0.10696E-08    0.69989E-11   294   0.268E-10    0.183E-10
RMM:   2    -0.304006178495E+03   -0.75670E-09    0.00000E+00     0   0.855E-11
 496 F= -.30400618E+03 E0= -.30405296E+03  d E =0.000000E+00
       N       E                     dE             d eps       ncg     rms          rms(c)
DAV:   1    -0.304006178496E+03   -0.14770E-08    0.17740E-10   294   0.175E-10    0.230E-10
RMM:   2    -0.304006178495E+03    0.75670E-09    0.00000E+00     0   0.896E-11
 497 F= -.30400618E+03 E0= -.30405296E+03  d E =0.363798E-10
       N       E                     dE             d eps       ncg     rms          rms(c)
DAV:   1    -0.304006178496E+03   -0.50932E-10    0.86976E-11   294   0.201E-10    0.208E-10
RMM:   2    -0.304006178495E+03    0.80763E-09    0.00000E+00     0   0.797E-11
 498 F= -.30400618E+03 E0= -.30405296E+03  d E =0.000000E+00
       N       E                     dE             d eps       ncg     rms          rms(c)
DAV:   1    -0.304006178496E+03    0.16007E-09   -0.37061E-11   294   0.142E-10    0.296E-10
RMM:   2    -0.304006178495E+03    0.60390E-09    0.00000E+00     0   0.830E-11
 499 F= -.30400618E+03 E0= -.30405296E+03  d E =-.436557E-10
       N       E                     dE             d eps       ncg     rms          rms(c)
DAV:   1    -0.304006178495E+03    0.10114E-08   -0.16157E-10   294   0.227E-10    0.265E-10
RMM:   2    -0.304006178495E+03   -0.37835E-09    0.00000E+00     0   0.817E-11
 500 F= -.30400618E+03 E0= -.30405296E+03  d E =0.291038E-10
