  55  55   0   0
  0.2301251E+02  0.1218282E-08  0.7661564E-09  0.1373046E-08  0.0000000E+00
   1.0000000000000000E-004
  CAR 
 NEB                                     
      9.38573281    -23.52685596  301      1.27667718      1.00000000
    -23.527  0.0000E+00  0.0000E+00
    -23.417  0.0000E+00  0.0000E+00
    -23.307  0.0000E+00  0.0000E+00
    -23.198 -0.1584E-30 -0.1738E-31
    -23.088 -0.1127E-26 -0.1236E-27
    -22.978 -0.4330E-23 -0.4752E-24
    -22.869 -0.9119E-20 -0.1001E-20
    -22.759 -0.1052E-16 -0.1156E-17
    -22.649 -0.6463E-14 -0.7102E-15
    -22.539 -0.2220E-11 -0.2443E-12
    -22.430 -0.4174E-09 -0.4604E-10
    -22.320 -0.4279E-07 -0.4740E-08
    -22.210 -0.2382E-05 -0.2661E-06
    -22.101 -0.7144E-04 -0.8103E-05
    -21.991 -0.1134E-02 -0.1326E-03
    -21.881 -0.9141E-02 -0.1135E-02
    -21.772 -0.3254E-01 -0.4706E-02
    -21.662 -0.1179E-01 -0.5999E-02
    -21.552  0.2453E+00  0.2091E-01
    -21.442  0.7657E+00  0.1049E+00
    -21.333  0.1176E+01  0.2339E+00
    -21.223  0.1129E+01  0.3578E+00
    -21.113  0.6765E+00  0.4320E+00
    -21.004  0.2298E+00  0.4572E+00
    -20.894  0.4085E-01  0.4617E+00
    -20.784 -0.2991E-02  0.4614E+00
    -20.674 -0.8380E-02  0.4605E+00
    -20.565 -0.3633E-02  0.4601E+00
    -20.455 -0.6761E-03  0.4600E+00
    -20.345 -0.6094E-04  0.4600E+00
    -20.236 -0.2801E-05  0.4600E+00
    -20.126 -0.6747E-07  0.4600E+00
    -20.016 -0.8649E-09  0.4600E+00
    -19.906 -0.5957E-11  0.4600E+00
    -19.797 -0.2218E-13  0.4600E+00
    -19.687 -0.4048E-16  0.4600E+00
    -19.577  0.0000E+00  0.4600E+00
    -19.468  0.0000E+00  0.4600E+00
    -19.358  0.0000E+00  0.4600E+00
    -19.248  0.0000E+00  0.4600E+00
    -19.139  0.0000E+00  0.4600E+00
    -19.029  0.0000E+00  0.4600E+00
    -18.919  0.0000E+00  0.4600E+00
    -18.809  0.0000E+00  0.4600E+00
    -18.700  0.0000E+00  0.4600E+00
    -18.590  0.0000E+00  0.4600E+00
    -18.480  0.0000E+00  0.4600E+00
    -18.371  0.0000E+00  0.4600E+00
    -18.261  0.0000E+00  0.4600E+00
    -18.151  0.0000E+00  0.4600E+00
    -18.041  0.0000E+00  0.4600E+00
    -17.932  0.0000E+00  0.4600E+00
    -17.822  0.0000E+00  0.4600E+00
    -17.712  0.0000E+00  0.4600E+00
    -17.603  0.0000E+00  0.4600E+00
    -17.493  0.0000E+00  0.4600E+00
    -17.383  0.0000E+00  0.4600E+00
    -17.273  0.0000E+00  0.4600E+00
    -17.164  0.0000E+00  0.4600E+00
    -17.054  0.0000E+00  0.4600E+00
    -16.944  0.0000E+00  0.4600E+00
    -16.835  0.0000E+00  0.4600E+00
    -16.725  0.0000E+00  0.4600E+00
    -16.615  0.0000E+00  0.4600E+00
    -16.506  0.0000E+00  0.4600E+00
    -16.396  0.0000E+00  0.4600E+00
    -16.286  0.0000E+00  0.4600E+00
    -16.176  0.0000E+00  0.4600E+00
    -16.067  0.0000E+00  0.4600E+00
    -15.957  0.0000E+00  0.4600E+00
    -15.847  0.0000E+00  0.4600E+00
    -15.738  0.0000E+00  0.4600E+00
    -15.628  0.0000E+00  0.4600E+00
    -15.518  0.0000E+00  0.4600E+00
    -15.408  0.0000E+00  0.4600E+00
    -15.299  0.0000E+00  0.4600E+00
    -15.189  0.0000E+00  0.4600E+00
    -15.079  0.0000E+00  0.4600E+00
    -14.970  0.0000E+00  0.4600E+00
    -14.860  0.0000E+00  0.4600E+00
    -14.750  0.0000E+00  0.4600E+00
    -14.640  0.0000E+00  0.4600E+00
    -14.531  0.0000E+00  0.4600E+00
    -14.421  0.0000E+00  0.4600E+00
    -14.311  0.0000E+00  0.4600E+00
    -14.202  0.0000E+00  0.4600E+00
    -14.092  0.0000E+00  0.4600E+00
    -13.982  0.0000E+00  0.4600E+00
    -13.872  0.0000E+00  0.4600E+00
    -13.763  0.0000E+00  0.4600E+00
    -13.653  0.0000E+00  0.4600E+00
    -13.543  0.0000E+00  0.4600E+00
    -13.434  0.0000E+00  0.4600E+00
    -13.324  0.0000E+00  0.4600E+00
    -13.214  0.0000E+00  0.4600E+00
    -13.105  0.0000E+00  0.4600E+00
    -12.995  0.0000E+00  0.4600E+00
    -12.885  0.0000E+00  0.4600E+00
    -12.775  0.0000E+00  0.4600E+00
    -12.666  0.0000E+00  0.4600E+00
    -12.556 -0.3276E-30  0.4600E+00
    -12.446 -0.1953E-26  0.4600E+00
    -12.337 -0.6345E-23  0.4600E+00
    -12.227 -0.1123E-19  0.4600E+00
    -12.117 -0.1081E-16  0.4600E+00
    -12.007 -0.5469E-14  0.4600E+00
    -11.898 -0.1539E-11  0.4600E+00
    -11.788 -0.2336E-09  0.4600E+00
    -11.678 -0.1903E-07  0.4600E+00
    -11.569 -0.8250E-06  0.4600E+00
    -11.459 -0.1878E-04  0.4600E+00
    -11.349 -0.2186E-03  0.4600E+00
    -11.239 -0.1212E-02  0.4598E+00
    -11.130 -0.2341E-02  0.4596E+00
    -11.020  0.4679E-02  0.4601E+00
    -10.910  0.3082E-01  0.4635E+00
    -10.801  0.6369E-01  0.4705E+00
    -10.691  0.7207E-01  0.4784E+00
    -10.581  0.5142E-01  0.4840E+00
    -10.472  0.2306E-01  0.4865E+00
    -10.362  0.2500E-02  0.4868E+00
    -10.252 -0.4245E-02  0.4864E+00
    -10.142  0.3838E-02  0.4868E+00
    -10.033  0.2958E-01  0.4900E+00
     -9.923  0.6755E-01  0.4974E+00
     -9.813  0.1089E+00  0.5094E+00
     -9.704  0.1458E+00  0.5254E+00
     -9.594  0.1615E+00  0.5431E+00
     -9.484  0.1712E+00  0.5619E+00
     -9.374  0.1962E+00  0.5834E+00
     -9.265  0.1899E+00  0.6042E+00
     -9.155  0.1186E+00  0.6172E+00
     -9.045  0.3471E-01  0.6211E+00
     -8.936 -0.3075E-02  0.6207E+00
     -8.826 -0.5006E-02  0.6202E+00
     -8.716 -0.1337E-02  0.6200E+00
     -8.606 -0.1624E-03  0.6200E+00
     -8.497 -0.1012E-04  0.6200E+00
     -8.387 -0.3350E-06  0.6200E+00
     -8.277 -0.5978E-08  0.6200E+00
     -8.168 -0.5787E-10  0.6200E+00
     -8.058 -0.3046E-12  0.6200E+00
     -7.948 -0.8770E-15  0.6200E+00
     -7.839  0.0000E+00  0.6200E+00
     -7.729  0.0000E+00  0.6200E+00
     -7.619  0.0000E+00  0.6200E+00
     -7.509  0.0000E+00  0.6200E+00
     -7.400  0.0000E+00  0.6200E+00
     -7.290  0.0000E+00  0.6200E+00
     -7.180  0.0000E+00  0.6200E+00
     -7.071  0.0000E+00  0.6200E+00
     -6.961  0.0000E+00  0.6200E+00
     -6.851  0.0000E+00  0.6200E+00
     -6.741  0.0000E+00  0.6200E+00
     -6.632  0.0000E+00  0.6200E+00
     -6.522  0.0000E+00  0.6200E+00
     -6.412  0.0000E+00  0.6200E+00
     -6.303  0.0000E+00  0.6200E+00
     -6.193  0.0000E+00  0.6200E+00
     -6.083  0.0000E+00  0.6200E+00
     -5.973  0.0000E+00  0.6200E+00
     -5.864  0.0000E+00  0.6200E+00
     -5.754  0.0000E+00  0.6200E+00
     -5.644  0.0000E+00  0.6200E+00
     -5.535  0.0000E+00  0.6200E+00
     -5.425  0.0000E+00  0.6200E+00
     -5.315  0.0000E+00  0.6200E+00
     -5.206  0.0000E+00  0.6200E+00
     -5.096  0.0000E+00  0.6200E+00
     -4.986  0.0000E+00  0.6200E+00
     -4.876 -0.2075E-30  0.6200E+00
     -4.767 -0.1284E-26  0.6200E+00
     -4.657 -0.4314E-23  0.6200E+00
     -4.547 -0.7903E-20  0.6200E+00
     -4.438 -0.7888E-17  0.6200E+00
     -4.328 -0.4149E-14  0.6200E+00
     -4.218 -0.1218E-11  0.6200E+00
     -4.108 -0.1936E-09  0.6200E+00
     -3.999 -0.1660E-07  0.6200E+00
     -3.889 -0.7635E-06  0.6200E+00
     -3.779 -0.1860E-04  0.6200E+00
     -3.670 -0.2340E-03  0.6200E+00
     -3.560 -0.1428E-02  0.6198E+00
     -3.450 -0.3321E-02  0.6195E+00
     -3.340  0.3478E-02  0.6198E+00
     -3.231  0.3410E-01  0.6236E+00
     -3.121  0.8384E-01  0.6328E+00
     -3.011  0.1251E+00  0.6465E+00
     -2.902  0.1216E+00  0.6598E+00
     -2.792  0.7646E-01  0.6682E+00
     -2.682  0.3618E-01  0.6722E+00
     -2.573  0.1259E-01  0.6736E+00
     -2.463  0.2497E-03  0.6736E+00
     -2.353 -0.1827E-02  0.6734E+00
     -2.243 -0.1057E-02  0.6733E+00
     -2.134 -0.2093E-02  0.6731E+00
     -2.024 -0.2592E-02  0.6728E+00
     -1.914  0.1004E-01  0.6739E+00
     -1.805  0.4718E-01  0.6791E+00
     -1.695  0.9259E-01  0.6892E+00
     -1.585  0.1141E+00  0.7017E+00
     -1.475  0.1097E+00  0.7138E+00
     -1.366  0.1074E+00  0.7256E+00
     -1.256  0.1080E+00  0.7374E+00
     -1.146  0.9720E-01  0.7481E+00
     -1.037  0.8848E-01  0.7578E+00
     -0.927  0.8285E-01  0.7669E+00
     -0.817  0.7271E-01  0.7748E+00
     -0.707  0.6386E-01  0.7819E+00
     -0.598  0.6765E-01  0.7893E+00
     -0.488  0.1115E+00  0.8015E+00
     -0.378  0.1832E+00  0.8216E+00
     -0.269  0.2127E+00  0.8449E+00
     -0.159  0.1907E+00  0.8659E+00
     -0.049  0.1594E+00  0.8834E+00
      0.060  0.1393E+00  0.8986E+00
      0.170  0.1326E+00  0.9132E+00
      0.280  0.1190E+00  0.9262E+00
      0.390  0.1045E+00  0.9377E+00
      0.499  0.1148E+00  0.9503E+00
      0.609  0.1607E+00  0.9679E+00
      0.719  0.2096E+00  0.9909E+00
      0.828  0.2301E+00  0.1016E+01
      0.938  0.2276E+00  0.1041E+01
      1.048  0.2122E+00  0.1064E+01
      1.158  0.1772E+00  0.1084E+01
      1.267  0.1109E+00  0.1096E+01
      1.377  0.4011E-01  0.1100E+01
      1.487  0.2473E-02  0.1101E+01
      1.596 -0.4222E-02  0.1100E+01
      1.706 -0.1748E-02  0.1100E+01
      1.816 -0.3018E-03  0.1100E+01
      1.926 -0.2609E-04  0.1100E+01
      2.035 -0.1178E-05  0.1100E+01
      2.145 -0.2827E-07  0.1100E+01
      2.255 -0.3634E-09  0.1100E+01
      2.364 -0.2516E-11  0.1100E+01
      2.474 -0.9418E-14  0.1100E+01
      2.584 -0.1349E-16  0.1100E+01
      2.694 -0.4959E-25  0.1100E+01
      2.803 -0.1270E-21  0.1100E+01
      2.913 -0.1771E-18  0.1100E+01
      3.023 -0.1309E-15  0.1100E+01
      3.132 -0.5332E-13  0.1100E+01
      3.242 -0.1178E-10  0.1100E+01
      3.352 -0.1398E-08  0.1100E+01
      3.461 -0.8855E-07  0.1100E+01
      3.571 -0.2951E-05  0.1100E+01
      3.681 -0.5038E-04  0.1100E+01
      3.791 -0.4135E-03  0.1100E+01
      3.900 -0.1310E-02  0.1100E+01
      4.010  0.9305E-03  0.1100E+01
      4.120  0.1371E-01  0.1101E+01
      4.229  0.2671E-01  0.1104E+01
      4.339  0.1938E-01  0.1106E+01
      4.449  0.3947E-02  0.1107E+01
      4.559 -0.1315E-02  0.1107E+01
      4.668 -0.6969E-03  0.1107E+01
      4.778 -0.1716E-03  0.1107E+01
      4.888 -0.5660E-03  0.1107E+01
      4.997 -0.2383E-02  0.1106E+01
      5.107 -0.2350E-02  0.1106E+01
      5.217  0.1482E-01  0.1108E+01
      5.327  0.5635E-01  0.1114E+01
      5.436  0.9153E-01  0.1124E+01
      5.546  0.9683E-01  0.1135E+01
      5.656  0.9168E-01  0.1145E+01
      5.765  0.8802E-01  0.1154E+01
      5.875  0.8173E-01  0.1163E+01
      5.985  0.7538E-01  0.1172E+01
      6.094  0.7122E-01  0.1179E+01
      6.204  0.8788E-01  0.1189E+01
      6.314  0.1302E+00  0.1203E+01
      6.424  0.1574E+00  0.1221E+01
      6.533  0.1406E+00  0.1236E+01
      6.643  0.1005E+00  0.1247E+01
      6.753  0.7951E-01  0.1256E+01
      6.862  0.7970E-01  0.1264E+01
      6.972  0.7501E-01  0.1273E+01
      7.082  0.8360E-01  0.1282E+01
      7.192  0.1057E+00  0.1293E+01
      7.301  0.1107E+00  0.1306E+01
      7.411  0.9002E-01  0.1315E+01
      7.521  0.4292E-01  0.1320E+01
      7.630  0.4503E-02  0.1321E+01
      7.740 -0.4107E-02  0.1320E+01
      7.850 -0.1618E-02  0.1320E+01
      7.960 -0.2397E-03  0.1320E+01
      8.069 -0.1717E-04  0.1320E+01
      8.179 -0.6355E-06  0.1320E+01
      8.289 -0.1248E-07  0.1320E+01
      8.398 -0.1316E-09  0.1320E+01
      8.508 -0.7507E-12  0.1320E+01
      8.618 -0.2321E-14  0.1320E+01
      8.727  0.0000E+00  0.1320E+01
      8.837  0.0000E+00  0.1320E+01
      8.947  0.0000E+00  0.1320E+01
      9.057  0.0000E+00  0.1320E+01
      9.166  0.0000E+00  0.1320E+01
      9.276  0.0000E+00  0.1320E+01
      9.386  0.0000E+00  0.1320E+01
