       N       E                     dE             d eps       ncg     rms          rms(c)
DAV:   1     0.295023878962E+04    0.29502E+04   -0.13334E+05   432   0.137E+03
DAV:   2     0.180911849320E+03   -0.27693E+04   -0.26712E+04   432   0.380E+02
DAV:   3    -0.213682910772E+03   -0.39459E+03   -0.39090E+03   474   0.155E+02
DAV:   4    -0.233722122582E+03   -0.20039E+02   -0.19931E+02   468   0.340E+01
DAV:   5    -0.234490945954E+03   -0.76882E+00   -0.76785E+00   540   0.706E+00    0.249E+01
RMM:   6    -0.223169642110E+03    0.11321E+02   -0.20232E+01   423   0.593E+00    0.165E+01
RMM:   7    -0.222691531629E+03    0.47811E+00   -0.24258E+01   432   0.561E+00    0.979E+00
RMM:   8    -0.222368443063E+03    0.32309E+00   -0.20529E+00   516   0.296E+00    0.610E+00
RMM:   9    -0.222251925670E+03    0.11652E+00   -0.13468E+00   420   0.168E+00    0.209E+00
RMM:  10    -0.222159451063E+03    0.92475E-01   -0.36954E-01   524   0.108E+00    0.187E+00
RMM:  11    -0.222114569969E+03    0.44881E-01   -0.54793E-02   478   0.432E-01    0.128E+00
RMM:  12    -0.222106075476E+03    0.84945E-02   -0.45508E-02   447   0.301E-01    0.591E-01
RMM:  13    -0.222111629885E+03   -0.55544E-02   -0.24913E-02   517   0.233E-01    0.571E-01
RMM:  14    -0.222110718188E+03    0.91170E-03   -0.82922E-03   407   0.145E-01    0.248E-01
RMM:  15    -0.222110500261E+03    0.21793E-03   -0.34033E-03   490   0.972E-02    0.281E-01
RMM:  16    -0.222110838087E+03   -0.33783E-03   -0.11433E-03   407   0.632E-02    0.141E-01
RMM:  17    -0.222110642067E+03    0.19602E-03   -0.11102E-03   417   0.530E-02    0.980E-02
RMM:  18    -0.222110569938E+03    0.72129E-04   -0.11672E-04   390   0.254E-02    0.318E-02
RMM:  19    -0.222110565660E+03    0.42776E-05   -0.52011E-05   362   0.157E-02
   1 F= -.22211057E+03 E0= -.22213183E+03  d E =-.222111E+03
       N       E                     dE             d eps       ncg     rms          rms(c)
DAV:   1    -0.222110568095E+03    0.18423E-05   -0.39646E-05   300   0.106E-02    0.117E-02
RMM:   2    -0.222110572070E+03   -0.39747E-05   -0.90963E-06   239   0.626E-03
   2 F= -.22211057E+03 E0= -.22213191E+03  d E =-.640999E-05
       N       E                     dE             d eps       ncg     rms          rms(c)
DAV:   1    -0.222110566074E+03    0.20218E-05   -0.45489E-05   276   0.784E-03    0.687E-03
RMM:   2    -0.222110566387E+03   -0.31329E-06   -0.32291E-06   226   0.351E-03
   3 F= -.22211057E+03 E0= -.22213182E+03  d E =0.568321E-05
       N       E                     dE             d eps       ncg     rms          rms(c)
DAV:   1    -0.222110566437E+03   -0.36357E-06   -0.12627E-06   300   0.267E-03    0.390E-03
RMM:   2    -0.222110566482E+03   -0.45282E-07   -0.51352E-08    66   0.144E-03
   4 F= -.22211057E+03 E0= -.22213183E+03  d E =-.955588E-07
       N       E                     dE             d eps       ncg     rms          rms(c)
DAV:   1    -0.222110566446E+03   -0.86984E-08   -0.10602E-06   264   0.174E-03    0.211E-03
RMM:   2    -0.222110566477E+03   -0.30988E-07    0.16109-189    34   0.101E-03
   5 F= -.22211057E+03 E0= -.22213183E+03  d E =0.559521E-08
       N       E                     dE             d eps       ncg     rms          rms(c)
DAV:   1    -0.222110566419E+03    0.26648E-07   -0.63574E-07   252   0.130E-03    0.110E-03
RMM:   2    -0.222110566411E+03    0.79526E-08    0.81476-190    25   0.774E-04
   6 F= -.22211057E+03 E0= -.22213182E+03  d E =0.655891E-07
       N       E                     dE             d eps       ncg     rms          rms(c)
DAV:   1    -0.222110566410E+03    0.92041E-08   -0.17037E-07   252   0.834E-04    0.838E-04
RMM:   2    -0.222110566406E+03    0.38926E-08    0.24941-267    21   0.598E-04
   7 F= -.22211057E+03 E0= -.22213182E+03  d E =0.514410E-08
       N       E                     dE             d eps       ncg     rms          rms(c)
DAV:   1    -0.222110566397E+03    0.13057E-07   -0.94160E-08   252   0.700E-04    0.436E-04
RMM:   2    -0.222110566394E+03    0.25575E-08    0.26779-274    18   0.340E-04
   8 F= -.22211057E+03 E0= -.22213182E+03  d E =0.117216E-07
       N       E                     dE             d eps       ncg     rms          rms(c)
DAV:   1    -0.222110566393E+03    0.34379E-08   -0.27396E-08   252   0.371E-04    0.360E-04
RMM:   2    -0.222110566389E+03    0.47730E-08    0.17327-274    15   0.262E-04
   9 F= -.22211057E+03 E0= -.22213182E+03  d E =0.565342E-08
       N       E                     dE             d eps       ncg     rms          rms(c)
DAV:   1    -0.222110566386E+03    0.69740E-08   -0.15397E-08   252   0.309E-04    0.192E-04
RMM:   2    -0.222110566385E+03    0.12988E-08    0.00000E+00    14   0.165E-04
  10 F= -.22211057E+03 E0= -.22213182E+03  d E =0.349974E-08
       N       E                     dE             d eps       ncg     rms          rms(c)
DAV:   1    -0.222110566384E+03    0.25357E-08   -0.61781E-09   228   0.183E-04    0.129E-04
RMM:   2    -0.222110566384E+03   -0.10914E-10    0.00000E+00    12   0.130E-04
  11 F= -.22211057E+03 E0= -.22213182E+03  d E =0.122600E-08
       N       E                     dE             d eps       ncg     rms          rms(c)
DAV:   1    -0.222110566383E+03    0.55661E-09   -0.24317E-09   216   0.148E-04    0.895E-05
RMM:   2    -0.222110566383E+03    0.13824E-09    0.00000E+00    12   0.954E-05
  12 F= -.22211057E+03 E0= -.22213182E+03  d E =0.705768E-09
       N       E                     dE             d eps       ncg     rms          rms(c)
DAV:   1    -0.222110566383E+03    0.45111E-09   -0.17574E-09   216   0.105E-04    0.522E-05
RMM:   2    -0.222110566383E+03    0.33833E-09    0.00000E+00    11   0.702E-05
  13 F= -.22211057E+03 E0= -.22213182E+03  d E =0.651198E-09
       N       E                     dE             d eps       ncg     rms          rms(c)
DAV:   1    -0.222110566382E+03    0.10114E-08   -0.46667E-10   216   0.788E-05    0.449E-05
RMM:   2    -0.222110566382E+03   -0.53478E-09    0.00000E+00    10   0.547E-05
  14 F= -.22211057E+03 E0= -.22213182E+03  d E =0.138243E-09
       N       E                     dE             d eps       ncg     rms          rms(c)
DAV:   1    -0.222110566382E+03   -0.31287E-09   -0.47889E-10   216   0.598E-05    0.247E-05
RMM:   2    -0.222110566382E+03    0.23647E-09    0.00000E+00    10   0.384E-05
  15 F= -.22211057E+03 E0= -.22213182E+03  d E =0.458385E-09
       N       E                     dE             d eps       ncg     rms          rms(c)
DAV:   1    -0.222110566382E+03   -0.80036E-10   -0.15741E-10   216   0.427E-05    0.201E-05
RMM:   2    -0.222110566382E+03    0.37471E-09    0.00000E+00    10   0.300E-05
  16 F= -.22211057E+03 E0= -.22213182E+03  d E =0.582077E-10
       N       E                     dE             d eps       ncg     rms          rms(c)
DAV:   1    -0.222110566382E+03    0.32378E-09   -0.13805E-10   216   0.332E-05    0.122E-05
RMM:   2    -0.222110566382E+03    0.87311E-10    0.00000E+00     8   0.224E-05
  17 F= -.22211057E+03 E0= -.22213182E+03  d E =0.363798E-10
       N       E                     dE             d eps       ncg     rms          rms(c)
DAV:   1    -0.222110566382E+03    0.19281E-09   -0.35995E-11   216   0.251E-05    0.772E-06
RMM:   2    -0.222110566382E+03    0.18190E-10    0.00000E+00     8   0.174E-05
  18 F= -.22211057E+03 E0= -.22213182E+03  d E =0.123691E-09
       N       E                     dE             d eps       ncg     rms          rms(c)
DAV:   1    -0.222110566382E+03   -0.40018E-09   -0.16654E-10   216   0.192E-05    0.666E-06
RMM:   2    -0.222110566382E+03    0.44747E-09    0.00000E+00     7   0.139E-05
  19 F= -.22211057E+03 E0= -.22213182E+03  d E =0.291038E-10
       N       E                     dE             d eps       ncg     rms          rms(c)
DAV:   1    -0.222110566382E+03   -0.19281E-09    0.20472E-11   216   0.154E-05    0.364E-06
RMM:   2    -0.222110566382E+03    0.66575E-09    0.00000E+00     7   0.100E-05
  20 F= -.22211057E+03 E0= -.22213182E+03  d E =0.254659E-10
       N       E                     dE             d eps       ncg     rms          rms(c)
DAV:   1    -0.222110566382E+03    0.48021E-09    0.64664E-12   216   0.109E-05    0.315E-06
RMM:   2    -0.222110566382E+03    0.20736E-09    0.00000E+00     7   0.805E-06
  21 F= -.22211057E+03 E0= -.22213182E+03  d E =0.218279E-10
       N       E                     dE             d eps       ncg     rms          rms(c)
DAV:   1    -0.222110566382E+03    0.80036E-10   -0.22679E-11   216   0.900E-06    0.193E-06
RMM:   2    -0.222110566382E+03    0.20736E-09    0.00000E+00     7   0.595E-06
  22 F= -.22211057E+03 E0= -.22213182E+03  d E =0.800355E-10
       N       E                     dE             d eps       ncg     rms          rms(c)
DAV:   1    -0.222110566381E+03    0.11096E-08    0.95225E-11   216   0.647E-06    0.142E-06
RMM:   2    -0.222110566382E+03   -0.94587E-09    0.00000E+00     6   0.475E-06
  23 F= -.22211057E+03 E0= -.22213182E+03  d E =-.436557E-10
       N       E                     dE             d eps       ncg     rms          rms(c)
DAV:   1    -0.222110566381E+03   -0.17826E-09   -0.21005E-10   216   0.533E-06    0.107E-06
RMM:   2    -0.222110566382E+03   -0.91677E-09    0.00000E+00     6   0.367E-06
  24 F= -.22211057E+03 E0= -.22213182E+03  d E =-.149157E-09
       N       E                     dE             d eps       ncg     rms          rms(c)
DAV:   1    -0.222110566381E+03   -0.25466E-10   -0.64314E-11   216   0.401E-06    0.696E-07
RMM:   2    -0.222110566382E+03   -0.90222E-09    0.00000E+00     6   0.283E-06
  25 F= -.22211057E+03 E0= -.22213182E+03  d E =-.109139E-10
       N       E                     dE             d eps       ncg     rms          rms(c)
DAV:   1    -0.222110566382E+03   -0.79308E-09    0.48536E-11   216   0.315E-06    0.642E-07
RMM:   2    -0.222110566382E+03   -0.94587E-10    0.00000E+00     5   0.227E-06
  26 F= -.22211057E+03 E0= -.22213182E+03  d E =0.145519E-10
       N       E                     dE             d eps       ncg     rms          rms(c)
DAV:   1    -0.222110566382E+03   -0.14188E-09   -0.29513E-11   216   0.250E-06    0.411E-07
RMM:   2    -0.222110566382E+03    0.17462E-09    0.00000E+00     6   0.171E-06
  27 F= -.22211057E+03 E0= -.22213182E+03  d E =0.127329E-09
       N       E                     dE             d eps       ncg     rms          rms(c)
DAV:   1    -0.222110566381E+03    0.37835E-09   -0.23762E-11   216   0.188E-06    0.330E-07
RMM:   2    -0.222110566382E+03   -0.17826E-09    0.00000E+00     5   0.136E-06
  28 F= -.22211057E+03 E0= -.22213182E+03  d E =0.254659E-10
       N       E                     dE             d eps       ncg     rms          rms(c)
DAV:   1    -0.222110566380E+03    0.11823E-08   -0.57278E-11   216   0.152E-06    0.247E-07
RMM:   2    -0.222110566382E+03   -0.14552E-08    0.00000E+00     4   0.105E-06
  29 F= -.22211057E+03 E0= -.22213182E+03  d E =-.945874E-10
       N       E                     dE             d eps       ncg     rms          rms(c)
DAV:   1    -0.222110566382E+03   -0.19245E-08   -0.39655E-11   216   0.117E-06    0.176E-07
RMM:   2    -0.222110566382E+03    0.61846E-09    0.00000E+00     4   0.825E-07
  30 F= -.22211057E+03 E0= -.22213182E+03  d E =0.149157E-09
       N       E                     dE             d eps       ncg     rms          rms(c)
DAV:   1    -0.222110566382E+03    0.40018E-09   -0.12140E-10   216   0.915E-07    0.151E-07
RMM:   2    -0.222110566382E+03    0.94587E-10    0.00000E+00     3   0.655E-07
  31 F= -.22211057E+03 E0= -.22213182E+03  d E =-.123691E-09
       N       E                     dE             d eps       ncg     rms          rms(c)
DAV:   1    -0.222110566381E+03    0.54570E-09    0.58227E-11   216   0.732E-07    0.108E-07
RMM:   2    -0.222110566382E+03   -0.38926E-09    0.00000E+00     3   0.503E-07
  32 F= -.22211057E+03 E0= -.22213182E+03  d E =0.618456E-10
       N       E                     dE             d eps       ncg     rms          rms(c)
DAV:   1    -0.222110566383E+03   -0.13497E-08   -0.40138E-11   216   0.556E-07    0.883E-08
RMM:   2    -0.222110566382E+03    0.10295E-08    0.00000E+00     3   0.402E-07
  33 F= -.22211057E+03 E0= -.22213182E+03  d E =0.691216E-10
       N       E                     dE             d eps       ncg     rms          rms(c)
DAV:   1    -0.222110566382E+03    0.10441E-08   -0.64134E-11   216   0.451E-07    0.676E-08
RMM:   2    -0.222110566382E+03   -0.98225E-10    0.00000E+00     3   0.311E-07
  34 F= -.22211057E+03 E0= -.22213182E+03  d E =-.836735E-10
       N       E                     dE             d eps       ncg     rms          rms(c)
DAV:   1    -0.222110566382E+03   -0.34925E-09    0.75981E-11   216   0.344E-07    0.505E-08
RMM:   2    -0.222110566382E+03    0.29104E-09    0.00000E+00     3   0.245E-07
  35 F= -.22211057E+03 E0= -.22213182E+03  d E =0.400178E-10
       N       E                     dE             d eps       ncg     rms          rms(c)
DAV:   1    -0.222110566383E+03   -0.68394E-09    0.24752E-11   216   0.275E-07    0.421E-08
RMM:   2    -0.222110566382E+03    0.89494E-09    0.00000E+00     3   0.194E-07
  36 F= -.22211057E+03 E0= -.22213182E+03  d E =-.800355E-10
       N       E                     dE             d eps       ncg     rms          rms(c)
DAV:   1    -0.222110566382E+03    0.10659E-08    0.15582E-10   216   0.215E-07    0.313E-08
RMM:   2    -0.222110566382E+03   -0.25102E-09    0.00000E+00     3   0.151E-07
  37 F= -.22211057E+03 E0= -.22213182E+03  d E =-.800355E-10
       N       E                     dE             d eps       ncg     rms          rms(c)
DAV:   1    -0.222110566381E+03    0.23647E-09    0.96715E-11   216   0.169E-07    0.256E-08
RMM:   2    -0.222110566382E+03   -0.29831E-09    0.00000E+00     3   0.120E-07
  38 F= -.22211057E+03 E0= -.22213182E+03  d E =0.189175E-09
       N       E                     dE             d eps       ncg     rms          rms(c)
DAV:   1    -0.222110566383E+03   -0.12442E-08    0.98745E-11   216   0.134E-07    0.197E-08
RMM:   2    -0.222110566382E+03    0.78580E-09    0.00000E+00     2   0.933E-08
  39 F= -.22211057E+03 E0= -.22213182E+03  d E =-.160071E-09
       N       E                     dE             d eps       ncg     rms          rms(c)
DAV:   1    -0.222110566382E+03    0.51296E-09    0.14205E-10   216   0.105E-07    0.155E-08
RMM:   2    -0.222110566382E+03    0.33833E-09    0.00000E+00     2   0.737E-08
  40 F= -.22211057E+03 E0= -.22213182E+03  d E =0.654836E-10
       N       E                     dE             d eps       ncg     rms          rms(c)
DAV:   1    -0.222110566382E+03   -0.14552E-09    0.21783E-10   216   0.820E-08    0.122E-08
RMM:   2    -0.222110566382E+03    0.42564E-09    0.00000E+00     2   0.579E-08
  41 F= -.22211057E+03 E0= -.22213182E+03  d E =-.582077E-10
       N       E                     dE             d eps       ncg     rms          rms(c)
DAV:   1    -0.222110566381E+03    0.70941E-09    0.90739E-11   216   0.651E-08    0.941E-09
RMM:   2    -0.222110566382E+03   -0.17826E-09    0.00000E+00     2   0.455E-08
  42 F= -.22211057E+03 E0= -.22213182E+03  d E =0.105501E-09
       N       E                     dE             d eps       ncg     rms          rms(c)
DAV:   1    -0.222110566381E+03    0.39290E-09   -0.31884E-11   216   0.512E-08    0.768E-09
RMM:   2    -0.222110566382E+03   -0.49113E-09    0.00000E+00     1   0.360E-08
  43 F= -.22211057E+03 E0= -.22213182E+03  d E =0.800355E-10
       N       E                     dE             d eps       ncg     rms          rms(c)
DAV:   1    -0.222110566380E+03    0.90222E-09    0.51634E-11   198   0.405E-08    0.582E-09
RMM:   2    -0.222110566382E+03   -0.15316E-08    0.00000E+00     1   0.282E-08
  44 F= -.22211057E+03 E0= -.22213182E+03  d E =-.138243E-09
       N       E                     dE             d eps       ncg     rms          rms(c)
DAV:   1    -0.222110566381E+03   -0.97498E-09    0.17022E-11   198   0.313E-08    0.464E-09
RMM:   2    -0.222110566382E+03   -0.44747E-09    0.00000E+00     1   0.223E-08
  45 F= -.22211057E+03 E0= -.22213182E+03  d E =0.109139E-09
       N       E                     dE             d eps       ncg     rms          rms(c)
DAV:   1    -0.222110566383E+03   -0.17790E-08    0.11584E-11   198   0.252E-08    0.365E-09
RMM:   2    -0.222110566382E+03    0.12442E-08    0.00000E+00     1   0.175E-08
  46 F= -.22211057E+03 E0= -.22213182E+03  d E =-.873115E-10
       N       E                     dE             d eps       ncg     rms          rms(c)
DAV:   1    -0.222110566382E+03    0.99681E-09    0.12526E-12   198   0.200E-08    0.316E-09
RMM:   2    -0.222110566382E+03    0.22192E-09    0.00000E+00     1   0.139E-08
  47 F= -.22211057E+03 E0= -.22213182E+03  d E =-.254659E-10
       N       E                     dE             d eps       ncg     rms          rms(c)
DAV:   1    -0.222110566382E+03   -0.20009E-09    0.68865E-11   198   0.155E-08    0.210E-09
RMM:   2    -0.222110566382E+03    0.30923E-09    0.00000E+00     1   0.108E-08
  48 F= -.22211057E+03 E0= -.22213182E+03  d E =-.112777E-09
       N       E                     dE             d eps       ncg     rms          rms(c)
DAV:   1    -0.222110566382E+03    0.49113E-09    0.92738E-11   198   0.127E-08    0.226E-09
RMM:   2    -0.222110566382E+03   -0.29104E-10    0.00000E+00     1   0.884E-09
  49 F= -.22211057E+03 E0= -.22213182E+03  d E =0.152795E-09
       N       E                     dE             d eps       ncg     rms          rms(c)
DAV:   1    -0.222110566382E+03   -0.24011E-09   -0.16496E-11   198   0.996E-09    0.128E-09
RMM:   2    -0.222110566382E+03    0.21464E-09    0.00000E+00     1   0.665E-09
  50 F= -.22211057E+03 E0= -.22213182E+03  d E =0.363798E-11
       N       E                     dE             d eps       ncg     rms          rms(c)
DAV:   1    -0.222110566383E+03   -0.86584E-09    0.88574E-11   198   0.788E-09    0.138E-09
RMM:   2    -0.222110566382E+03    0.10878E-08    0.00000E+00     1   0.556E-09
  51 F= -.22211057E+03 E0= -.22213182E+03  d E =0.727596E-11
       N       E                     dE             d eps       ncg     rms          rms(c)
DAV:   1    -0.222110566381E+03    0.20118E-08    0.83855E-11   198   0.657E-09    0.921E-10
RMM:   2    -0.222110566382E+03   -0.87675E-09    0.00000E+00     1   0.419E-09
  52 F= -.22211057E+03 E0= -.22213182E+03  d E =0.472937E-10
       N       E                     dE             d eps       ncg     rms          rms(c)
DAV:   1    -0.222110566382E+03   -0.14588E-08    0.14950E-10   198   0.459E-09    0.637E-10
RMM:   2    -0.222110566382E+03    0.61846E-09    0.00000E+00     1   0.338E-09
  53 F= -.22211057E+03 E0= -.22213182E+03  d E =0.363798E-10
       N       E                     dE             d eps       ncg     rms          rms(c)
DAV:   1    -0.222110566382E+03    0.21100E-09   -0.54915E-11   198   0.389E-09    0.634E-10
RMM:   2    -0.222110566382E+03    0.23647E-09    0.00000E+00     1   0.269E-09
  54 F= -.22211057E+03 E0= -.22213182E+03  d E =-.170985E-09
       N       E                     dE             d eps       ncg     rms          rms(c)
DAV:   1    -0.222110566382E+03   -0.15643E-09    0.67193E-11   198   0.331E-09    0.556E-10
RMM:   2    -0.222110566382E+03    0.49840E-09    0.00000E+00     1   0.215E-09
  55 F= -.22211057E+03 E0= -.22213182E+03  d E =0.105501E-09
       N       E                     dE             d eps       ncg     rms          rms(c)
DAV:   1    -0.222110566381E+03    0.75670E-09    0.66173E-11   198   0.240E-09    0.348E-10
RMM:   2    -0.222110566382E+03   -0.29468E-09    0.00000E+00     1   0.166E-09
  56 F= -.22211057E+03 E0= -.22213182E+03  d E =-.363798E-10
       N       E                     dE             d eps       ncg     rms          rms(c)
DAV:   1    -0.222110566381E+03    0.90586E-09    0.25519E-11   198   0.185E-09    0.365E-10
RMM:   2    -0.222110566382E+03   -0.11314E-08    0.00000E+00     1   0.135E-09
  57 F= -.22211057E+03 E0= -.22213182E+03  d E =0.691216E-10
       N       E                     dE             d eps       ncg     rms          rms(c)
DAV:   1    -0.222110566382E+03   -0.17390E-08    0.11649E-10   198   0.151E-09    0.275E-10
RMM:   2    -0.222110566382E+03    0.58571E-09    0.00000E+00     1   0.103E-09
  58 F= -.22211057E+03 E0= -.22213182E+03  d E =-.218279E-10
       N       E                     dE             d eps       ncg     rms          rms(c)
DAV:   1    -0.222110566382E+03    0.61482E-09    0.95044E-12   198   0.114E-09    0.357E-10
RMM:   2    -0.222110566382E+03   -0.12733E-09    0.00000E+00     1   0.872E-10
  59 F= -.22211057E+03 E0= -.22213182E+03  d E =-.982254E-10
       N       E                     dE             d eps       ncg     rms          rms(c)
DAV:   1    -0.222110566382E+03   -0.12733E-09    0.41956E-12   198   0.996E-10    0.223E-10
RMM:   2    -0.222110566382E+03    0.94587E-10    0.00000E+00     1   0.666E-10
  60 F= -.22211057E+03 E0= -.22213182E+03  d E =0.945874E-10
       N       E                     dE             d eps       ncg     rms          rms(c)
DAV:   1    -0.222110566381E+03    0.99317E-09    0.97359E-11   198   0.787E-10    0.238E-10
RMM:   2    -0.222110566382E+03   -0.10587E-08    0.00000E+00     1   0.557E-10
  61 F= -.22211057E+03 E0= -.22213182E+03  d E =-.160071E-09
       N       E                     dE             d eps       ncg     rms          rms(c)
DAV:   1    -0.222110566381E+03   -0.52387E-09    0.90648E-11   198   0.630E-10    0.270E-10
RMM:   2    -0.222110566382E+03   -0.37835E-09    0.00000E+00     1   0.458E-10
  62 F= -.22211057E+03 E0= -.22213182E+03  d E =0.156433E-09
       N       E                     dE             d eps       ncg     rms          rms(c)
DAV:   1    -0.222110566382E+03   -0.38563E-09    0.35303E-11   198   0.517E-10    0.259E-10
RMM:   2    -0.222110566382E+03   -0.12733E-09    0.00000E+00     1   0.384E-10
  63 F= -.22211057E+03 E0= -.22213182E+03  d E =-.134605E-09
       N       E                     dE             d eps       ncg     rms          rms(c)
DAV:   1    -0.222110566383E+03   -0.96043E-09   -0.68320E-11   198   0.448E-10    0.223E-10
RMM:   2    -0.222110566382E+03    0.92041E-09    0.00000E+00     1   0.326E-10
  64 F= -.22211057E+03 E0= -.22213182E+03  d E =0.873115E-10
       N       E                     dE             d eps       ncg     rms          rms(c)
DAV:   1    -0.222110566383E+03   -0.50932E-10   -0.39805E-11   198   0.371E-10    0.262E-10
RMM:   2    -0.222110566382E+03    0.93132E-09    0.00000E+00     1   0.262E-10
  65 F= -.22211057E+03 E0= -.22213182E+03  d E =-.400178E-10
       N       E                     dE             d eps       ncg     rms          rms(c)
DAV:   1    -0.222110566383E+03    0.16371E-09   -0.18125E-11   198   0.301E-10    0.303E-10
RMM:   2    -0.222110566382E+03    0.81127E-09    0.00000E+00     1   0.233E-10
  66 F= -.22211057E+03 E0= -.22213182E+03  d E =0.436557E-10
       N       E                     dE             d eps       ncg     rms          rms(c)
DAV:   1    -0.222110566383E+03   -0.54570E-10   -0.87282E-12   198   0.303E-10    0.276E-10
RMM:   2    -0.222110566382E+03    0.93860E-09    0.00000E+00     1   0.203E-10
  67 F= -.22211057E+03 E0= -.22213182E+03  d E =0.727596E-10
       N       E                     dE             d eps       ncg     rms          rms(c)
DAV:   1    -0.222110566381E+03    0.20482E-08    0.62913E-11   198   0.238E-10    0.346E-10
RMM:   2    -0.222110566382E+03   -0.11278E-08    0.00000E+00     1   0.215E-10
  68 F= -.22211057E+03 E0= -.22213182E+03  d E =-.181899E-10
       N       E                     dE             d eps       ncg     rms          rms(c)
DAV:   1    -0.222110566382E+03   -0.12296E-08    0.34892E-11   198   0.259E-10    0.234E-10
RMM:   2    -0.222110566382E+03    0.12733E-09    0.00000E+00     1   0.149E-10
  69 F= -.22211057E+03 E0= -.22213182E+03  d E =0.254659E-10
       N       E                     dE             d eps       ncg     rms          rms(c)
DAV:   1    -0.222110566382E+03   -0.56025E-09    0.51444E-11   198   0.177E-10    0.199E-10
RMM:   2    -0.222110566382E+03    0.54570E-09    0.00000E+00     1   0.125E-10
  70 F= -.22211057E+03 E0= -.22213182E+03  d E =-.141881E-09
       N       E                     dE             d eps       ncg     rms          rms(c)
DAV:   1    -0.222110566382E+03    0.78944E-09   -0.76447E-12   198   0.144E-10    0.281E-10
RMM:   2    -0.222110566382E+03   -0.16371E-09    0.00000E+00     1   0.143E-10
  71 F= -.22211057E+03 E0= -.22213182E+03  d E =0.800355E-10
       N       E                     dE             d eps       ncg     rms          rms(c)
DAV:   1    -0.222110566381E+03    0.19645E-09    0.88810E-11   198   0.176E-10    0.317E-10
RMM:   2    -0.222110566382E+03   -0.36744E-09    0.00000E+00     1   0.141E-10
  72 F= -.22211057E+03 E0= -.22213182E+03  d E =-.727596E-11
       N       E                     dE             d eps       ncg     rms          rms(c)
DAV:   1    -0.222110566381E+03    0.61846E-10    0.12411E-10   198   0.187E-10    0.318E-10
RMM:   2    -0.222110566382E+03   -0.47294E-09    0.00000E+00     1   0.135E-10
  73 F= -.22211057E+03 E0= -.22213182E+03  d E =-.436557E-10
       N       E                     dE             d eps       ncg     rms          rms(c)
DAV:   1    -0.222110566382E+03   -0.54933E-09    0.49088E-12   198   0.180E-10    0.233E-10
RMM:   2    -0.222110566382E+03    0.14188E-09    0.00000E+00     1   0.108E-10
  74 F= -.22211057E+03 E0= -.22213182E+03  d E =0.654836E-10
       N       E                     dE             d eps       ncg     rms          rms(c)
DAV:   1    -0.222110566382E+03    0.43656E-10    0.62892E-11   198   0.121E-10    0.352E-10
RMM:   2    -0.222110566382E+03    0.21828E-10    0.00000E+00     1   0.116E-10
  75 F= -.22211057E+03 E0= -.22213182E+03  d E =-.763976E-10
       N       E                     dE             d eps       ncg     rms          rms(c)
DAV:   1    -0.222110566381E+03    0.60754E-09    0.11934E-10   198   0.175E-10    0.189E-10
RMM:   2    -0.222110566382E+03   -0.67666E-09    0.00000E+00     1   0.961E-11
  76 F= -.22211057E+03 E0= -.22213182E+03  d E =-.909495E-10
       N       E                     dE             d eps       ncg     rms          rms(c)
DAV:   1    -0.222110566381E+03    0.69122E-10    0.95029E-11   198   0.996E-11    0.347E-10
RMM:   2    -0.222110566382E+03   -0.67303E-09    0.00000E+00     1   0.120E-10
  77 F= -.22211057E+03 E0= -.22213182E+03  d E =0.727596E-10
       N       E                     dE             d eps       ncg     rms          rms(c)
DAV:   1    -0.222110566381E+03    0.35288E-09   -0.36443E-11   198   0.142E-10    0.379E-10
RMM:   2    -0.222110566382E+03   -0.10259E-08    0.00000E+00     1   0.134E-10
  78 F= -.22211057E+03 E0= -.22213182E+03  d E =0.000000E+00
       N       E                     dE             d eps       ncg     rms          rms(c)
DAV:   1    -0.222110566382E+03   -0.14043E-08    0.12697E-10   198   0.211E-10    0.292E-10
RMM:   2    -0.222110566382E+03    0.44747E-09    0.00000E+00     1   0.122E-10
  79 F= -.22211057E+03 E0= -.22213182E+03  d E =0.691216E-10
       N       E                     dE             d eps       ncg     rms          rms(c)
DAV:   1    -0.222110566382E+03    0.21828E-09    0.35563E-11   198   0.197E-10    0.245E-10
RMM:   2    -0.222110566382E+03    0.20009E-09    0.00000E+00     1   0.979E-11
  80 F= -.22211057E+03 E0= -.22213182E+03  d E =-.291038E-10
       N       E                     dE             d eps       ncg     rms          rms(c)
DAV:   1    -0.222110566381E+03    0.13097E-08    0.14638E-10   198   0.121E-10    0.247E-10
RMM:   2    -0.222110566382E+03   -0.10441E-08    0.00000E+00     1   0.857E-11
  81 F= -.22211057E+03 E0= -.22213182E+03  d E =0.654836E-10
       N       E                     dE             d eps       ncg     rms          rms(c)
DAV:   1    -0.222110566381E+03   -0.46202E-09    0.66934E-11   198   0.109E-10    0.254E-10
RMM:   2    -0.222110566382E+03   -0.58935E-09    0.00000E+00     1   0.907E-11
  82 F= -.22211057E+03 E0= -.22213182E+03  d E =-.727596E-11
       N       E                     dE             d eps       ncg     rms          rms(c)
DAV:   1    -0.222110566381E+03   -0.35652E-09    0.72741E-11   198   0.124E-10    0.230E-10
RMM:   2    -0.222110566382E+03   -0.23647E-09    0.00000E+00     1   0.870E-11
  83 F= -.22211057E+03 E0= -.22213182E+03  d E =-.363798E-11
       N       E                     dE             d eps       ncg     rms          rms(c)
DAV:   1    -0.222110566382E+03   -0.96043E-09    0.66154E-11   198   0.110E-10    0.262E-10
RMM:   2    -0.222110566382E+03    0.64756E-09    0.00000E+00     1   0.967E-11
  84 F= -.22211057E+03 E0= -.22213182E+03  d E =-.763976E-10
       N       E                     dE             d eps       ncg     rms          rms(c)
DAV:   1    -0.222110566382E+03    0.22919E-09    0.84339E-11   198   0.140E-10    0.243E-10
RMM:   2    -0.222110566382E+03    0.47658E-09    0.00000E+00     1   0.826E-11
  85 F= -.22211057E+03 E0= -.22213182E+03  d E =0.582077E-10
       N       E                     dE             d eps       ncg     rms          rms(c)
DAV:   1    -0.222110566382E+03    0.43656E-09    0.18113E-11   198   0.103E-10    0.424E-10
RMM:   2    -0.222110566382E+03    0.10914E-09    0.00000E+00     1   0.121E-10
  86 F= -.22211057E+03 E0= -.22213182E+03  d E =0.691216E-10
       N       E                     dE             d eps       ncg     rms          rms(c)
DAV:   1    -0.222110566380E+03    0.15607E-08    0.35848E-11   198   0.193E-10    0.289E-10
RMM:   2    -0.222110566382E+03   -0.14988E-08    0.00000E+00     1   0.105E-10
  87 F= -.22211057E+03 E0= -.22213182E+03  d E =-.472937E-10
       N       E                     dE             d eps       ncg     rms          rms(c)
DAV:   1    -0.222110566381E+03   -0.11059E-08   -0.13507E-11   198   0.148E-10    0.266E-10
RMM:   2    -0.222110566382E+03   -0.32742E-09    0.00000E+00     1   0.896E-11
  88 F= -.22211057E+03 E0= -.22213182E+03  d E =0.654836E-10
       N       E                     dE             d eps       ncg     rms          rms(c)
DAV:   1    -0.222110566382E+03   -0.12114E-08    0.43831E-12   198   0.106E-10    0.346E-10
RMM:   2    -0.222110566382E+03    0.77489E-09    0.00000E+00     1   0.122E-10
  89 F= -.22211057E+03 E0= -.22213182E+03  d E =-.109139E-09
       N       E                     dE             d eps       ncg     rms          rms(c)
DAV:   1    -0.222110566381E+03    0.14079E-08    0.49130E-11   198   0.184E-10    0.281E-10
RMM:   2    -0.222110566382E+03   -0.72760E-09    0.00000E+00     1   0.937E-11
  90 F= -.22211057E+03 E0= -.22213182E+03  d E =-.945874E-10
       N       E                     dE             d eps       ncg     rms          rms(c)
DAV:   1    -0.222110566383E+03   -0.14224E-08    0.50527E-11   198   0.120E-10    0.297E-10
RMM:   2    -0.222110566382E+03    0.73123E-09    0.00000E+00     1   0.111E-10
  91 F= -.22211057E+03 E0= -.22213182E+03  d E =0.363798E-10
       N       E                     dE             d eps       ncg     rms          rms(c)
DAV:   1    -0.222110566383E+03   -0.76398E-10    0.65157E-11   198   0.148E-10    0.342E-10
RMM:   2    -0.222110566382E+03    0.82582E-09    0.00000E+00     1   0.944E-11
  92 F= -.22211057E+03 E0= -.22213182E+03  d E =0.181899E-10
       N       E                     dE             d eps       ncg     rms          rms(c)
DAV:   1    -0.222110566382E+03    0.10259E-08    0.12587E-10   198   0.144E-10    0.257E-10
RMM:   2    -0.222110566382E+03   -0.50932E-10    0.00000E+00     1   0.961E-11
  93 F= -.22211057E+03 E0= -.22213182E+03  d E =0.149157E-09
       N       E                     dE             d eps       ncg     rms          rms(c)
DAV:   1    -0.222110566383E+03   -0.10114E-08   -0.41396E-11   198   0.127E-10    0.351E-10
RMM:   2    -0.222110566382E+03    0.94224E-09    0.00000E+00     1   0.104E-10
  94 F= -.22211057E+03 E0= -.22213182E+03  d E =-.181899E-10
       N       E                     dE             d eps       ncg     rms          rms(c)
DAV:   1    -0.222110566382E+03    0.36016E-09    0.10563E-10   198   0.148E-10    0.378E-10
RMM:   2    -0.222110566382E+03    0.47658E-09    0.00000E+00     1   0.133E-10
  95 F= -.22211057E+03 E0= -.22213182E+03  d E =-.105501E-09
       N       E                     dE             d eps       ncg     rms          rms(c)
DAV:   1    -0.222110566382E+03    0.24374E-09    0.11369E-11   198   0.183E-10    0.287E-10
RMM:   2    -0.222110566382E+03    0.25466E-09    0.00000E+00     1   0.119E-10
  96 F= -.22211057E+03 E0= -.22213182E+03  d E =0.218279E-10
       N       E                     dE             d eps       ncg     rms          rms(c)
DAV:   1    -0.222110566381E+03    0.57844E-09    0.17705E-11   198   0.155E-10    0.395E-10
RMM:   2    -0.222110566382E+03   -0.29468E-09    0.00000E+00     1   0.136E-10
  97 F= -.22211057E+03 E0= -.22213182E+03  d E =0.291038E-10
       N       E                     dE             d eps       ncg     rms          rms(c)
DAV:   1    -0.222110566381E+03    0.14552E-09   -0.15661E-11   198   0.244E-10    0.257E-10
RMM:   2    -0.222110566382E+03   -0.55297E-09    0.00000E+00     1   0.979E-11
  98 F= -.22211057E+03 E0= -.22213182E+03  d E =-.112777E-09
       N       E                     dE             d eps       ncg     rms          rms(c)
DAV:   1    -0.222110566381E+03   -0.36380E-11    0.45559E-11   198   0.127E-10    0.299E-10
RMM:   2    -0.222110566382E+03   -0.52751E-09    0.00000E+00     1   0.919E-11
  99 F= -.22211057E+03 E0= -.22213182E+03  d E =0.218279E-10
       N       E                     dE             d eps       ncg     rms          rms(c)
DAV:   1    -0.222110566383E+03   -0.14770E-08   -0.58722E-11   198   0.110E-10    0.269E-10
RMM:   2    -0.222110566382E+03    0.92405E-09    0.00000E+00     1   0.104E-10
 100 F= -.22211057E+03 E0= -.22213182E+03  d E =-.254659E-10
       N       E                     dE             d eps       ncg     rms          rms(c)
DAV:   1    -0.222110566382E+03    0.27285E-09    0.71396E-11   198   0.143E-10    0.279E-10
RMM:   2    -0.222110566382E+03    0.65120E-09    0.00000E+00     1   0.977E-11
 101 F= -.22211057E+03 E0= -.22213182E+03  d E =0.000000E+00
       N       E                     dE             d eps       ncg     rms          rms(c)
DAV:   1    -0.222110566382E+03    0.65484E-10   -0.11354E-11   198   0.136E-10    0.290E-10
RMM:   2    -0.222110566382E+03    0.64028E-09    0.00000E+00     1   0.848E-11
 102 F= -.22211057E+03 E0= -.22213182E+03  d E =0.545697E-10
       N       E                     dE             d eps       ncg     rms          rms(c)
DAV:   1    -0.222110566382E+03    0.69122E-10   -0.44823E-11   198   0.145E-10    0.322E-10
RMM:   2    -0.222110566382E+03    0.67303E-09    0.00000E+00     1   0.102E-10
 103 F= -.22211057E+03 E0= -.22213182E+03  d E =0.101863E-09
       N       E                     dE             d eps       ncg     rms          rms(c)
DAV:   1    -0.222110566382E+03    0.71668E-09   -0.75787E-12   198   0.155E-10    0.282E-10
RMM:   2    -0.222110566382E+03    0.10914E-10    0.00000E+00     1   0.990E-11
 104 F= -.22211057E+03 E0= -.22213182E+03  d E =0.545697E-10
       N       E                     dE             d eps       ncg     rms          rms(c)
DAV:   1    -0.222110566382E+03   -0.21828E-09    0.37161E-11   198   0.153E-10    0.316E-10
RMM:   2    -0.222110566382E+03    0.69122E-10    0.00000E+00     1   0.116E-10
 105 F= -.22211057E+03 E0= -.22213182E+03  d E =-.160071E-09
       N       E                     dE             d eps       ncg     rms          rms(c)
DAV:   1    -0.222110566382E+03    0.18190E-10    0.70761E-11   198   0.158E-10    0.300E-10
RMM:   2    -0.222110566382E+03    0.15643E-09    0.00000E+00     1   0.115E-10
 106 F= -.22211057E+03 E0= -.22213182E+03  d E =0.105501E-09
       N       E                     dE             d eps       ncg     rms          rms(c)
DAV:   1    -0.222110566381E+03    0.69485E-09    0.59466E-11   198   0.179E-10    0.216E-10
RMM:   2    -0.222110566382E+03   -0.56389E-09    0.00000E+00     1   0.994E-11
 107 F= -.22211057E+03 E0= -.22213182E+03  d E =-.254659E-10
       N       E                     dE             d eps       ncg     rms          rms(c)
DAV:   1    -0.222110566381E+03   -0.37471E-09    0.36386E-11   198   0.110E-10    0.497E-10
RMM:   2    -0.222110566382E+03   -0.24738E-09    0.00000E+00     1   0.159E-10
 108 F= -.22211057E+03 E0= -.22213182E+03  d E =-.582077E-10
       N       E                     dE             d eps       ncg     rms          rms(c)
DAV:   1    -0.222110566381E+03    0.73851E-09    0.82127E-11   198   0.258E-10    0.251E-10
RMM:   2    -0.222110566382E+03   -0.91313E-09    0.00000E+00     1   0.112E-10
 109 F= -.22211057E+03 E0= -.22213182E+03  d E =0.727596E-10
       N       E                     dE             d eps       ncg     rms          rms(c)
DAV:   1    -0.222110566383E+03   -0.18772E-08    0.86341E-12   198   0.137E-10    0.487E-10
RMM:   2    -0.222110566382E+03    0.88403E-09    0.00000E+00     1   0.182E-10
 110 F= -.22211057E+03 E0= -.22213182E+03  d E =-.800355E-10
       N       E                     dE             d eps       ncg     rms          rms(c)
DAV:   1    -0.222110566381E+03    0.14516E-08    0.14667E-10   198   0.262E-10    0.476E-10
RMM:   2    -0.222110566382E+03   -0.61482E-09    0.00000E+00     1   0.169E-10
 111 F= -.22211057E+03 E0= -.22213182E+03  d E =-.472937E-10
       N       E                     dE             d eps       ncg     rms          rms(c)
DAV:   1    -0.222110566381E+03    0.94587E-10   -0.66700E-11   198   0.243E-10    0.247E-10
RMM:   2    -0.222110566382E+03   -0.66939E-09    0.00000E+00     1   0.887E-11
 112 F= -.22211057E+03 E0= -.22213182E+03  d E =0.400178E-10
       N       E                     dE             d eps       ncg     rms          rms(c)
DAV:   1    -0.222110566382E+03   -0.57116E-09    0.10536E-10   198   0.127E-10    0.298E-10
RMM:   2    -0.222110566382E+03   -0.21828E-10    0.00000E+00     1   0.904E-11
 113 F= -.22211057E+03 E0= -.22213182E+03  d E =0.763976E-10
       N       E                     dE             d eps       ncg     rms          rms(c)
DAV:   1    -0.222110566381E+03    0.45111E-09    0.65782E-11   198   0.120E-10    0.316E-10
RMM:   2    -0.222110566382E+03   -0.49840E-09    0.00000E+00     1   0.119E-10
 114 F= -.22211057E+03 E0= -.22213182E+03  d E =-.254659E-10
       N       E                     dE             d eps       ncg     rms          rms(c)
DAV:   1    -0.222110566382E+03   -0.10550E-08    0.55532E-13   198   0.190E-10    0.204E-10
RMM:   2    -0.222110566382E+03    0.45111E-09    0.00000E+00     1   0.981E-11
 115 F= -.22211057E+03 E0= -.22213182E+03  d E =-.105501E-09
       N       E                     dE             d eps       ncg     rms          rms(c)
DAV:   1    -0.222110566381E+03    0.17317E-08    0.68078E-11   198   0.128E-10    0.245E-10
RMM:   2    -0.222110566382E+03   -0.11423E-08    0.00000E+00     1   0.951E-11
 116 F= -.22211057E+03 E0= -.22213182E+03  d E =0.138243E-09
       N       E                     dE             d eps       ncg     rms          rms(c)
DAV:   1    -0.222110566381E+03   -0.71304E-09    0.14913E-10   198   0.112E-10    0.369E-10
RMM:   2    -0.222110566382E+03   -0.37471E-09    0.00000E+00     1   0.132E-10
 117 F= -.22211057E+03 E0= -.22213182E+03  d E =0.545697E-10
       N       E                     dE             d eps       ncg     rms          rms(c)
DAV:   1    -0.222110566382E+03   -0.95315E-09    0.72161E-11   198   0.198E-10    0.333E-10
RMM:   2    -0.222110566382E+03    0.49113E-09    0.00000E+00     1   0.138E-10
 118 F= -.22211057E+03 E0= -.22213182E+03  d E =-.873115E-10
       N       E                     dE             d eps       ncg     rms          rms(c)
DAV:   1    -0.222110566381E+03    0.78217E-09    0.72284E-11   198   0.180E-10    0.318E-10
RMM:   2    -0.222110566382E+03   -0.36744E-09    0.00000E+00     1   0.116E-10
 119 F= -.22211057E+03 E0= -.22213182E+03  d E =-.763976E-10
       N       E                     dE             d eps       ncg     rms          rms(c)
DAV:   1    -0.222110566382E+03   -0.91677E-09   -0.33198E-11   198   0.172E-10    0.339E-10
RMM:   2    -0.222110566382E+03    0.61846E-09    0.00000E+00     1   0.114E-10
 120 F= -.22211057E+03 E0= -.22213182E+03  d E =0.691216E-10
       N       E                     dE             d eps       ncg     rms          rms(c)
DAV:   1    -0.222110566382E+03    0.52387E-09   -0.30611E-11   198   0.174E-10    0.533E-10
RMM:   2    -0.222110566382E+03    0.14188E-09    0.00000E+00     1   0.195E-10
 121 F= -.22211057E+03 E0= -.22213182E+03  d E =0.472937E-10
       N       E                     dE             d eps       ncg     rms          rms(c)
DAV:   1    -0.222110566382E+03   -0.21100E-09    0.72755E-11   198   0.303E-10    0.255E-10
RMM:   2    -0.222110566382E+03    0.30923E-09    0.00000E+00     1   0.117E-10
 122 F= -.22211057E+03 E0= -.22213182E+03  d E =-.436557E-10
       N       E                     dE             d eps       ncg     rms          rms(c)
DAV:   1    -0.222110566383E+03   -0.92041E-09    0.41928E-11   198   0.157E-10    0.482E-10
RMM:   2    -0.222110566382E+03    0.13351E-08    0.00000E+00     1   0.173E-10
 123 F= -.22211057E+03 E0= -.22213182E+03  d E =0.105501E-09
       N       E                     dE             d eps       ncg     rms          rms(c)
DAV:   1    -0.222110566381E+03    0.20591E-08   -0.15941E-11   198   0.239E-10    0.290E-10
RMM:   2    -0.222110566382E+03   -0.82218E-09    0.00000E+00     1   0.107E-10
 124 F= -.22211057E+03 E0= -.22213182E+03  d E =-.982254E-10
       N       E                     dE             d eps       ncg     rms          rms(c)
DAV:   1    -0.222110566381E+03   -0.38926E-09    0.52786E-11   198   0.122E-10    0.299E-10
RMM:   2    -0.222110566382E+03   -0.57116E-09    0.00000E+00     1   0.103E-10
 125 F= -.22211057E+03 E0= -.22213182E+03  d E =-.138243E-09
       N       E                     dE             d eps       ncg     rms          rms(c)
DAV:   1    -0.222110566382E+03   -0.30923E-09    0.36336E-11   198   0.165E-10    0.383E-10
RMM:   2    -0.222110566382E+03   -0.24011E-09    0.00000E+00     1   0.133E-10
 126 F= -.22211057E+03 E0= -.22213182E+03  d E =0.218279E-10
       N       E                     dE             d eps       ncg     rms          rms(c)
DAV:   1    -0.222110566383E+03   -0.95679E-09    0.45657E-11   198   0.194E-10    0.359E-10
RMM:   2    -0.222110566382E+03    0.81127E-09    0.00000E+00     1   0.136E-10
 127 F= -.22211057E+03 E0= -.22213182E+03  d E =0.945874E-10
       N       E                     dE             d eps       ncg     rms          rms(c)
DAV:   1    -0.222110566382E+03    0.89494E-09   -0.33786E-11   198   0.208E-10    0.283E-10
RMM:   2    -0.222110566382E+03   -0.20736E-09    0.00000E+00     1   0.109E-10
 128 F= -.22211057E+03 E0= -.22213182E+03  d E =-.123691E-09
       N       E                     dE             d eps       ncg     rms          rms(c)
DAV:   1    -0.222110566381E+03    0.98953E-09    0.11907E-10   198   0.160E-10    0.283E-10
RMM:   2    -0.222110566382E+03   -0.10477E-08    0.00000E+00     0   0.112E-10
 129 F= -.22211057E+03 E0= -.22213182E+03  d E =0.149157E-09
       N       E                     dE             d eps       ncg     rms          rms(c)
DAV:   1    -0.222110566382E+03   -0.14370E-08    0.70496E-11   198   0.160E-10    0.364E-10
RMM:   2    -0.222110566382E+03    0.47294E-09    0.00000E+00     0   0.128E-10
 130 F= -.22211057E+03 E0= -.22213182E+03  d E =0.836735E-10
       N       E                     dE             d eps       ncg     rms          rms(c)
DAV:   1    -0.222110566382E+03   -0.15280E-09    0.55564E-11   198   0.176E-10    0.267E-10
RMM:   2    -0.222110566382E+03    0.37835E-09    0.00000E+00     0   0.810E-11
 131 F= -.22211057E+03 E0= -.22213182E+03  d E =-.247383E-09
       N       E                     dE             d eps       ncg     rms          rms(c)
DAV:   1    -0.222110566382E+03    0.55297E-09    0.61790E-11   198   0.113E-10    0.322E-10
RMM:   2    -0.222110566382E+03   -0.16371E-09    0.00000E+00     0   0.106E-10
 132 F= -.22211057E+03 E0= -.22213182E+03  d E =0.109139E-10
       N       E                     dE             d eps       ncg     rms          rms(c)
DAV:   1    -0.222110566381E+03    0.32014E-09    0.94257E-11   198   0.162E-10    0.242E-10
RMM:   2    -0.222110566382E+03   -0.32014E-09    0.00000E+00     0   0.891E-11
 133 F= -.22211057E+03 E0= -.22213182E+03  d E =0.163709E-09
       N       E                     dE             d eps       ncg     rms          rms(c)
DAV:   1    -0.222110566382E+03   -0.33469E-09    0.69876E-12   198   0.127E-10    0.248E-10
RMM:   2    -0.222110566382E+03    0.29104E-10    0.00000E+00     0   0.827E-11
 134 F= -.22211057E+03 E0= -.22213182E+03  d E =0.145519E-10
       N       E                     dE             d eps       ncg     rms          rms(c)
DAV:   1    -0.222110566382E+03    0.11642E-09   -0.60192E-11   198   0.114E-10    0.238E-10
RMM:   2    -0.222110566382E+03   -0.80036E-10    0.00000E+00     0   0.777E-11
 135 F= -.22211057E+03 E0= -.22213182E+03  d E =0.727596E-11
       N       E                     dE             d eps       ncg     rms          rms(c)
DAV:   1    -0.222110566381E+03    0.24011E-09    0.65834E-11   198   0.915E-11    0.368E-10
RMM:   2    -0.222110566382E+03   -0.30923E-09    0.00000E+00     0   0.125E-10
 136 F= -.22211057E+03 E0= -.22213182E+03  d E =0.109139E-10
       N       E                     dE             d eps       ncg     rms          rms(c)
DAV:   1    -0.222110566382E+03   -0.54206E-09   -0.11347E-10   198   0.188E-10    0.253E-10
RMM:   2    -0.222110566382E+03    0.58208E-10    0.00000E+00     0   0.828E-11
 137 F= -.22211057E+03 E0= -.22213182E+03  d E =-.174623E-09
       N       E                     dE             d eps       ncg     rms          rms(c)
DAV:   1    -0.222110566382E+03    0.30559E-09    0.30647E-11   198   0.122E-10    0.248E-10
RMM:   2    -0.222110566382E+03   -0.47294E-10    0.00000E+00     0   0.913E-11
 138 F= -.22211057E+03 E0= -.22213182E+03  d E =0.200089E-09
       N       E                     dE             d eps       ncg     rms          rms(c)
DAV:   1    -0.222110566382E+03   -0.12005E-09   -0.34742E-11   198   0.127E-10    0.313E-10
RMM:   2    -0.222110566382E+03   -0.98225E-10    0.00000E+00     0   0.114E-10
 139 F= -.22211057E+03 E0= -.22213182E+03  d E =-.170985E-09
       N       E                     dE             d eps       ncg     rms          rms(c)
DAV:   1    -0.222110566381E+03    0.32014E-09    0.17299E-10   198   0.170E-10    0.284E-10
RMM:   2    -0.222110566382E+03   -0.34561E-09    0.00000E+00     0   0.112E-10
 140 F= -.22211057E+03 E0= -.22213182E+03  d E =0.727596E-10
       N       E                     dE             d eps       ncg     rms          rms(c)
DAV:   1    -0.222110566382E+03   -0.21828E-09   -0.53253E-11   198   0.143E-10    0.279E-10
RMM:   2    -0.222110566382E+03   -0.18190E-09    0.00000E+00     0   0.918E-11
 141 F= -.22211057E+03 E0= -.22213182E+03  d E =-.545697E-10
       N       E                     dE             d eps       ncg     rms          rms(c)
DAV:   1    -0.222110566382E+03   -0.47294E-10    0.10463E-10   198   0.135E-10    0.286E-10
RMM:   2    -0.222110566382E+03   -0.11642E-09    0.00000E+00     0   0.959E-11
 142 F= -.22211057E+03 E0= -.22213182E+03  d E =0.181899E-10
       N       E                     dE             d eps       ncg     rms          rms(c)
DAV:   1    -0.222110566382E+03   -0.29104E-10    0.97164E-11   198   0.127E-10    0.363E-10
RMM:   2    -0.222110566382E+03    0.29104E-10    0.00000E+00     0   0.118E-10
 143 F= -.22211057E+03 E0= -.22213182E+03  d E =0.116415E-09
       N       E                     dE             d eps       ncg     rms          rms(c)
DAV:   1    -0.222110566382E+03   -0.37107E-09    0.12265E-10   198   0.200E-10    0.247E-10
RMM:   2    -0.222110566382E+03    0.33833E-09    0.00000E+00     0   0.110E-10
 144 F= -.22211057E+03 E0= -.22213182E+03  d E =-.618456E-10
       N       E                     dE             d eps       ncg     rms          rms(c)
DAV:   1    -0.222110566382E+03   -0.26921E-09    0.40522E-11   198   0.132E-10    0.283E-10
RMM:   2    -0.222110566382E+03    0.54933E-09    0.00000E+00     0   0.997E-11
 145 F= -.22211057E+03 E0= -.22213182E+03  d E =-.582077E-10
       N       E                     dE             d eps       ncg     rms          rms(c)
DAV:   1    -0.222110566382E+03   -0.19281E-09    0.38041E-12   198   0.147E-10    0.295E-10
RMM:   2    -0.222110566382E+03    0.72760E-09    0.00000E+00     0   0.961E-11
 146 F= -.22211057E+03 E0= -.22213182E+03  d E =-.145519E-10
       N       E                     dE             d eps       ncg     rms          rms(c)
DAV:   1    -0.222110566381E+03    0.13970E-08    0.47740E-11   198   0.151E-10    0.314E-10
RMM:   2    -0.222110566382E+03   -0.59299E-09    0.00000E+00     0   0.122E-10
 147 F= -.22211057E+03 E0= -.22213182E+03  d E =0.763976E-10
       N       E                     dE             d eps       ncg     rms          rms(c)
DAV:   1    -0.222110566381E+03   -0.40018E-09    0.56632E-11   198   0.171E-10    0.248E-10
RMM:   2    -0.222110566382E+03   -0.32378E-09    0.00000E+00     0   0.106E-10
 148 F= -.22211057E+03 E0= -.22213182E+03  d E =-.130967E-09
       N       E                     dE             d eps       ncg     rms          rms(c)
DAV:   1    -0.222110566381E+03    0.40018E-10    0.15468E-10   198   0.151E-10    0.253E-10
RMM:   2    -0.222110566382E+03   -0.16371E-09    0.00000E+00     0   0.109E-10
 149 F= -.22211057E+03 E0= -.22213182E+03  d E =0.200089E-09
       N       E                     dE             d eps       ncg     rms          rms(c)
DAV:   1    -0.222110566382E+03   -0.47658E-09    0.14548E-11   198   0.133E-10    0.294E-10
RMM:   2    -0.222110566382E+03    0.24374E-09    0.00000E+00     0   0.121E-10
 150 F= -.22211057E+03 E0= -.22213182E+03  d E =-.691216E-10
       N       E                     dE             d eps       ncg     rms          rms(c)
DAV:   1    -0.222110566382E+03   -0.42928E-09    0.30133E-11   198   0.151E-10    0.237E-10
RMM:   2    -0.222110566382E+03    0.56025E-09    0.00000E+00     0   0.101E-10
 151 F= -.22211057E+03 E0= -.22213182E+03  d E =-.112777E-09
       N       E                     dE             d eps       ncg     rms          rms(c)
DAV:   1    -0.222110566382E+03    0.98225E-10    0.41332E-11   198   0.134E-10    0.214E-10
RMM:   2    -0.222110566382E+03    0.52387E-09    0.00000E+00     0   0.985E-11
 152 F= -.22211057E+03 E0= -.22213182E+03  d E =0.618456E-10
       N       E                     dE             d eps       ncg     rms          rms(c)
DAV:   1    -0.222110566382E+03    0.42564E-09    0.60903E-11   198   0.122E-10    0.320E-10
RMM:   2    -0.222110566382E+03    0.24738E-09    0.00000E+00     0   0.950E-11
 153 F= -.22211057E+03 E0= -.22213182E+03  d E =0.149157E-09
       N       E                     dE             d eps       ncg     rms          rms(c)
DAV:   1    -0.222110566382E+03    0.14552E-10    0.41546E-11   198   0.135E-10    0.257E-10
RMM:   2    -0.222110566382E+03    0.19281E-09    0.00000E+00     0   0.110E-10
 154 F= -.22211057E+03 E0= -.22213182E+03  d E =-.400178E-10
       N       E                     dE             d eps       ncg     rms          rms(c)
DAV:   1    -0.222110566382E+03    0.30559E-09   -0.30190E-11   198   0.150E-10    0.282E-10
RMM:   2    -0.222110566382E+03   -0.30559E-09    0.00000E+00     0   0.901E-11
 155 F= -.22211057E+03 E0= -.22213182E+03  d E =-.192813E-09
       N       E                     dE             d eps       ncg     rms          rms(c)
DAV:   1    -0.222110566381E+03    0.76034E-09    0.90582E-11   198   0.135E-10    0.229E-10
RMM:   2    -0.222110566382E+03   -0.10077E-08    0.00000E+00     0   0.846E-11
 156 F= -.22211057E+03 E0= -.22213182E+03  d E =0.582077E-10
       N       E                     dE             d eps       ncg     rms          rms(c)
DAV:   1    -0.222110566382E+03   -0.15389E-08    0.41342E-12   198   0.109E-10    0.364E-10
RMM:   2    -0.222110566382E+03    0.57116E-09    0.00000E+00     0   0.111E-10
 157 F= -.22211057E+03 E0= -.22213182E+03  d E =0.400178E-10
       N       E                     dE             d eps       ncg     rms          rms(c)
DAV:   1    -0.222110566381E+03    0.10732E-08    0.43411E-11   198   0.160E-10    0.234E-10
RMM:   2    -0.222110566382E+03   -0.52751E-09    0.00000E+00     0   0.908E-11
 158 F= -.22211057E+03 E0= -.22213182E+03  d E =-.254659E-10
       N       E                     dE             d eps       ncg     rms          rms(c)
DAV:   1    -0.222110566381E+03    0.50932E-10    0.88069E-11   198   0.116E-10    0.290E-10
RMM:   2    -0.222110566382E+03   -0.53842E-09    0.00000E+00     0   0.107E-10
 159 F= -.22211057E+03 E0= -.22213182E+03  d E =0.400178E-10
       N       E                     dE             d eps       ncg     rms          rms(c)
DAV:   1    -0.222110566382E+03   -0.10150E-08    0.10682E-10   198   0.157E-10    0.191E-10
RMM:   2    -0.222110566382E+03    0.44747E-09    0.00000E+00     0   0.685E-11
 160 F= -.22211057E+03 E0= -.22213182E+03  d E =-.291038E-10
       N       E                     dE             d eps       ncg     rms          rms(c)
DAV:   1    -0.222110566382E+03   -0.13097E-09    0.10267E-10   198   0.866E-11    0.298E-10
RMM:   2    -0.222110566382E+03    0.50568E-09    0.00000E+00     0   0.922E-11
 161 F= -.22211057E+03 E0= -.22213182E+03  d E =-.727596E-10
       N       E                     dE             d eps       ncg     rms          rms(c)
DAV:   1    -0.222110566382E+03    0.21464E-09    0.66828E-11   198   0.137E-10    0.283E-10
RMM:   2    -0.222110566382E+03    0.42564E-09    0.00000E+00     0   0.945E-11
 162 F= -.22211057E+03 E0= -.22213182E+03  d E =0.134605E-09
       N       E                     dE             d eps       ncg     rms          rms(c)
DAV:   1    -0.222110566381E+03    0.13570E-08    0.91254E-11   198   0.136E-10    0.260E-10
RMM:   2    -0.222110566382E+03   -0.92041E-09    0.00000E+00     0   0.108E-10
 163 F= -.22211057E+03 E0= -.22213182E+03  d E =0.109139E-10
       N       E                     dE             d eps       ncg     rms          rms(c)
DAV:   1    -0.222110566382E+03   -0.89130E-09    0.12900E-10   198   0.129E-10    0.212E-10
RMM:   2    -0.222110566382E+03   -0.10186E-09    0.00000E+00     0   0.865E-11
 164 F= -.22211057E+03 E0= -.22213182E+03  d E =-.727596E-10
       N       E                     dE             d eps       ncg     rms          rms(c)
DAV:   1    -0.222110566381E+03    0.79308E-09    0.44046E-11   198   0.981E-11    0.260E-10
RMM:   2    -0.222110566382E+03   -0.89858E-09    0.00000E+00     0   0.813E-11
 165 F= -.22211057E+03 E0= -.22213182E+03  d E =-.363798E-11
       N       E                     dE             d eps       ncg     rms          rms(c)
DAV:   1    -0.222110566382E+03   -0.12078E-08    0.49141E-11   198   0.109E-10    0.204E-10
RMM:   2    -0.222110566382E+03    0.24738E-09    0.00000E+00     0   0.693E-11
 166 F= -.22211057E+03 E0= -.22213182E+03  d E =-.618456E-10
       N       E                     dE             d eps       ncg     rms          rms(c)
DAV:   1    -0.222110566382E+03    0.10914E-10    0.63464E-11   198   0.833E-11    0.362E-10
RMM:   2    -0.222110566382E+03    0.24011E-09    0.00000E+00     0   0.994E-11
 167 F= -.22211057E+03 E0= -.22213182E+03  d E =0.363798E-11
       N       E                     dE             d eps       ncg     rms          rms(c)
DAV:   1    -0.222110566382E+03    0.23647E-09   -0.49451E-11   198   0.158E-10    0.284E-10
RMM:   2    -0.222110566382E+03    0.18917E-09    0.00000E+00     0   0.104E-10
 168 F= -.22211057E+03 E0= -.22213182E+03  d E =0.185537E-09
       N       E                     dE             d eps       ncg     rms          rms(c)
DAV:   1    -0.222110566380E+03    0.15898E-08    0.76294E-11   198   0.150E-10    0.290E-10
RMM:   2    -0.222110566382E+03   -0.14334E-08    0.00000E+00     0   0.116E-10
 169 F= -.22211057E+03 E0= -.22213182E+03  d E =-.327418E-10
       N       E                     dE             d eps       ncg     rms          rms(c)
DAV:   1    -0.222110566382E+03   -0.14807E-08    0.20006E-12   198   0.163E-10    0.251E-10
RMM:   2    -0.222110566382E+03   -0.32742E-10    0.00000E+00     0   0.101E-10
 170 F= -.22211057E+03 E0= -.22213182E+03  d E =-.800355E-10
       N       E                     dE             d eps       ncg     rms          rms(c)
DAV:   1    -0.222110566382E+03   -0.11278E-09    0.37354E-11   198   0.140E-10    0.398E-10
RMM:   2    -0.222110566382E+03    0.90949E-10    0.00000E+00     0   0.138E-10
 171 F= -.22211057E+03 E0= -.22213182E+03  d E =0.109139E-10
       N       E                     dE             d eps       ncg     rms          rms(c)
DAV:   1    -0.222110566382E+03    0.16007E-09    0.31406E-11   198   0.199E-10    0.352E-10
RMM:   2    -0.222110566382E+03   -0.90949E-10    0.00000E+00     0   0.125E-10
 172 F= -.22211057E+03 E0= -.22213182E+03  d E =-.218279E-10
       N       E                     dE             d eps       ncg     rms          rms(c)
DAV:   1    -0.222110566382E+03   -0.63665E-09    0.93677E-11   198   0.159E-10    0.228E-10
RMM:   2    -0.222110566382E+03    0.58571E-09    0.00000E+00     0   0.830E-11
 173 F= -.22211057E+03 E0= -.22213182E+03  d E =0.400178E-10
       N       E                     dE             d eps       ncg     rms          rms(c)
DAV:   1    -0.222110566382E+03    0.25466E-09    0.15081E-10   198   0.885E-11    0.238E-10
RMM:   2    -0.222110566382E+03    0.22555E-09    0.00000E+00     0   0.916E-11
 174 F= -.22211057E+03 E0= -.22213182E+03  d E =-.105501E-09
       N       E                     dE             d eps       ncg     rms          rms(c)
DAV:   1    -0.222110566382E+03    0.33469E-09    0.83085E-11   198   0.118E-10    0.221E-10
RMM:   2    -0.222110566382E+03    0.98225E-10    0.00000E+00     0   0.816E-11
 175 F= -.22211057E+03 E0= -.22213182E+03  d E =0.207365E-09
       N       E                     dE             d eps       ncg     rms          rms(c)
DAV:   1    -0.222110566382E+03   -0.18190E-10    0.46584E-11   198   0.105E-10    0.415E-10
RMM:   2    -0.222110566382E+03    0.61846E-10    0.00000E+00     0   0.142E-10
 176 F= -.22211057E+03 E0= -.22213182E+03  d E =-.545697E-10
       N       E                     dE             d eps       ncg     rms          rms(c)
DAV:   1    -0.222110566382E+03   -0.57480E-09   -0.25471E-11   198   0.225E-10    0.328E-10
RMM:   2    -0.222110566382E+03    0.47294E-09    0.00000E+00     0   0.121E-10
 177 F= -.22211057E+03 E0= -.22213182E+03  d E =-.163709E-09
       N       E                     dE             d eps       ncg     rms          rms(c)
DAV:   1    -0.222110566381E+03    0.99681E-09    0.17677E-10   198   0.166E-10    0.309E-10
RMM:   2    -0.222110566382E+03   -0.52023E-09    0.00000E+00     0   0.106E-10
 178 F= -.22211057E+03 E0= -.22213182E+03  d E =0.363798E-11
       N       E                     dE             d eps       ncg     rms          rms(c)
DAV:   1    -0.222110566382E+03   -0.76398E-09    0.13919E-10   198   0.127E-10    0.250E-10
RMM:   2    -0.222110566382E+03    0.40382E-09    0.00000E+00     0   0.862E-11
 179 F= -.22211057E+03 E0= -.22213182E+03  d E =0.160071E-09
       N       E                     dE             d eps       ncg     rms          rms(c)
DAV:   1    -0.222110566383E+03   -0.55297E-09    0.13505E-11   198   0.131E-10    0.424E-10
RMM:   2    -0.222110566382E+03    0.85856E-09    0.00000E+00     0   0.116E-10
 180 F= -.22211057E+03 E0= -.22213182E+03  d E =-.982254E-10
       N       E                     dE             d eps       ncg     rms          rms(c)
DAV:   1    -0.222110566382E+03    0.62573E-09    0.35942E-11   198   0.206E-10    0.233E-10
RMM:   2    -0.222110566382E+03    0.34925E-09    0.00000E+00     0   0.880E-11
 181 F= -.22211057E+03 E0= -.22213182E+03  d E =0.116415E-09
       N       E                     dE             d eps       ncg     rms          rms(c)
DAV:   1    -0.222110566382E+03   -0.22555E-09   -0.12939E-11   198   0.108E-10    0.318E-10
RMM:   2    -0.222110566382E+03    0.42928E-09    0.00000E+00     0   0.104E-10
 182 F= -.22211057E+03 E0= -.22213182E+03  d E =-.145519E-09
       N       E                     dE             d eps       ncg     rms          rms(c)
DAV:   1    -0.222110566381E+03    0.14697E-08    0.31805E-11   198   0.155E-10    0.279E-10
RMM:   2    -0.222110566382E+03   -0.10077E-08    0.00000E+00     0   0.811E-11
 183 F= -.22211057E+03 E0= -.22213182E+03  d E =0.327418E-10
       N       E                     dE             d eps       ncg     rms          rms(c)
DAV:   1    -0.222110566382E+03   -0.14625E-08    0.81661E-11   198   0.107E-10    0.322E-10
RMM:   2    -0.222110566382E+03    0.44747E-09    0.00000E+00     0   0.126E-10
 184 F= -.22211057E+03 E0= -.22213182E+03  d E =-.727596E-11
       N       E                     dE             d eps       ncg     rms          rms(c)
DAV:   1    -0.222110566382E+03   -0.22192E-09    0.85916E-11   198   0.179E-10    0.262E-10
RMM:   2    -0.222110566382E+03    0.81127E-09    0.00000E+00     0   0.820E-11
 185 F= -.22211057E+03 E0= -.22213182E+03  d E =0.141881E-09
       N       E                     dE             d eps       ncg     rms          rms(c)
DAV:   1    -0.222110566382E+03    0.52751E-09   -0.35530E-12   198   0.120E-10    0.258E-10
RMM:   2    -0.222110566382E+03    0.61846E-10    0.00000E+00     0   0.934E-11
 186 F= -.22211057E+03 E0= -.22213182E+03  d E =-.221917E-09
       N       E                     dE             d eps       ncg     rms          rms(c)
DAV:   1    -0.222110566383E+03   -0.14479E-08    0.69222E-11   198   0.120E-10    0.267E-10
RMM:   2    -0.222110566382E+03    0.15425E-08    0.00000E+00     0   0.111E-10
 187 F= -.22211057E+03 E0= -.22213182E+03  d E =0.327418E-10
       N       E                     dE             d eps       ncg     rms          rms(c)
DAV:   1    -0.222110566382E+03    0.14224E-08    0.29708E-11   198   0.131E-10    0.355E-10
RMM:   2    -0.222110566382E+03    0.25830E-09    0.00000E+00     0   0.127E-10
 188 F= -.22211057E+03 E0= -.22213182E+03  d E =0.138243E-09
       N       E                     dE             d eps       ncg     rms          rms(c)
DAV:   1    -0.222110566382E+03   -0.16007E-09    0.26172E-11   198   0.215E-10    0.254E-10
RMM:   2    -0.222110566382E+03    0.46930E-09    0.00000E+00     0   0.116E-10
 189 F= -.22211057E+03 E0= -.22213182E+03  d E =0.509317E-10
       N       E                     dE             d eps       ncg     rms          rms(c)
DAV:   1    -0.222110566382E+03    0.32014E-09    0.34817E-11   198   0.168E-10    0.331E-10
RMM:   2    -0.222110566382E+03    0.40018E-10    0.00000E+00     0   0.121E-10
 190 F= -.22211057E+03 E0= -.22213182E+03  d E =-.109139E-09
       N       E                     dE             d eps       ncg     rms          rms(c)
DAV:   1    -0.222110566382E+03    0.36380E-11    0.25625E-11   198   0.180E-10    0.246E-10
RMM:   2    -0.222110566382E+03   -0.76398E-10    0.00000E+00     0   0.958E-11
 191 F= -.22211057E+03 E0= -.22213182E+03  d E =-.112777E-09
       N       E                     dE             d eps       ncg     rms          rms(c)
DAV:   1    -0.222110566381E+03    0.65847E-09   -0.25793E-12   198   0.144E-10    0.429E-10
RMM:   2    -0.222110566382E+03   -0.58571E-09    0.00000E+00     0   0.151E-10
 192 F= -.22211057E+03 E0= -.22213182E+03  d E =0.149157E-09
       N       E                     dE             d eps       ncg     rms          rms(c)
DAV:   1    -0.222110566382E+03   -0.42201E-09   -0.35834E-11   198   0.220E-10    0.244E-10
RMM:   2    -0.222110566382E+03   -0.21100E-09    0.00000E+00     0   0.100E-10
 193 F= -.22211057E+03 E0= -.22213182E+03  d E =-.472937E-10
       N       E                     dE             d eps       ncg     rms          rms(c)
DAV:   1    -0.222110566381E+03    0.51659E-09   -0.90713E-11   198   0.130E-10    0.334E-10
RMM:   2    -0.222110566382E+03   -0.70941E-09    0.00000E+00     0   0.125E-10
 194 F= -.22211057E+03 E0= -.22213182E+03  d E =0.181899E-10
       N       E                     dE             d eps       ncg     rms          rms(c)
DAV:   1    -0.222110566381E+03   -0.27649E-09    0.80465E-11   198   0.181E-10    0.341E-10
RMM:   2    -0.222110566382E+03   -0.53114E-09    0.00000E+00     0   0.125E-10
 195 F= -.22211057E+03 E0= -.22213182E+03  d E =-.982254E-10
       N       E                     dE             d eps       ncg     rms          rms(c)
DAV:   1    -0.222110566382E+03   -0.69849E-09    0.93937E-12   198   0.178E-10    0.221E-10
RMM:   2    -0.222110566382E+03    0.32742E-09    0.00000E+00     0   0.853E-11
 196 F= -.22211057E+03 E0= -.22213182E+03  d E =0.160071E-09
       N       E                     dE             d eps       ncg     rms          rms(c)
DAV:   1    -0.222110566383E+03   -0.70577E-09    0.93432E-11   198   0.128E-10    0.301E-10
RMM:   2    -0.222110566382E+03    0.10004E-08    0.00000E+00     0   0.879E-11
 197 F= -.22211057E+03 E0= -.22213182E+03  d E =-.327418E-10
       N       E                     dE             d eps       ncg     rms          rms(c)
DAV:   1    -0.222110566382E+03    0.46566E-09    0.76019E-11   198   0.119E-10    0.304E-10
RMM:   2    -0.222110566382E+03    0.42928E-09    0.00000E+00     0   0.956E-11
 198 F= -.22211057E+03 E0= -.22213182E+03  d E =-.105501E-09
       N       E                     dE             d eps       ncg     rms          rms(c)
DAV:   1    -0.222110566384E+03   -0.18190E-08   -0.35244E-11   198   0.148E-10    0.275E-10
RMM:   2    -0.222110566382E+03    0.23138E-08    0.00000E+00     0   0.915E-11
 199 F= -.22211057E+03 E0= -.22213182E+03  d E =0.654836E-10
       N       E                     dE             d eps       ncg     rms          rms(c)
DAV:   1    -0.222110566382E+03    0.18699E-08    0.11901E-10   198   0.108E-10    0.263E-10
RMM:   2    -0.222110566382E+03    0.46930E-09    0.00000E+00     0   0.917E-11
 200 F= -.22211057E+03 E0= -.22213182E+03  d E =0.254659E-10
       N       E                     dE             d eps       ncg     rms          rms(c)
DAV:   1    -0.222110566382E+03    0.17099E-09   -0.32745E-11   198   0.106E-10    0.347E-10
RMM:   2    -0.222110566382E+03    0.21828E-09    0.00000E+00     0   0.102E-10
 201 F= -.22211057E+03 E0= -.22213182E+03  d E =-.800355E-10
       N       E                     dE             d eps       ncg     rms          rms(c)
DAV:   1    -0.222110566383E+03   -0.63665E-09   -0.46799E-11   198   0.138E-10    0.294E-10
RMM:   2    -0.222110566382E+03    0.10041E-08    0.00000E+00     0   0.124E-10
 202 F= -.22211057E+03 E0= -.22213182E+03  d E =0.149157E-09
       N       E                     dE             d eps       ncg     rms          rms(c)
DAV:   1    -0.222110566382E+03    0.29104E-09    0.59247E-11   198   0.153E-10    0.266E-10
RMM:   2    -0.222110566382E+03    0.56025E-09    0.00000E+00     0   0.884E-11
 203 F= -.22211057E+03 E0= -.22213182E+03  d E =-.152795E-09
       N       E                     dE             d eps       ncg     rms          rms(c)
DAV:   1    -0.222110566381E+03    0.11460E-08    0.72271E-11   198   0.116E-10    0.275E-10
RMM:   2    -0.222110566382E+03   -0.66211E-09    0.00000E+00     0   0.888E-11
 204 F= -.22211057E+03 E0= -.22213182E+03  d E =-.763976E-10
       N       E                     dE             d eps       ncg     rms          rms(c)
DAV:   1    -0.222110566382E+03   -0.88403E-09    0.72159E-11   198   0.112E-10    0.243E-10
RMM:   2    -0.222110566382E+03    0.29104E-09    0.00000E+00     0   0.784E-11
 205 F= -.22211057E+03 E0= -.22213182E+03  d E =0.691216E-10
       N       E                     dE             d eps       ncg     rms          rms(c)
DAV:   1    -0.222110566382E+03   -0.23283E-09    0.79282E-12   198   0.107E-10    0.303E-10
RMM:   2    -0.222110566382E+03    0.68030E-09    0.00000E+00     0   0.101E-10
 206 F= -.22211057E+03 E0= -.22213182E+03  d E =0.156433E-09
       N       E                     dE             d eps       ncg     rms          rms(c)
DAV:   1    -0.222110566382E+03    0.52751E-09   -0.75722E-12   198   0.155E-10    0.316E-10
RMM:   2    -0.222110566382E+03    0.20009E-09    0.00000E+00     0   0.117E-10
 207 F= -.22211057E+03 E0= -.22213182E+03  d E =0.472937E-10
       N       E                     dE             d eps       ncg     rms          rms(c)
DAV:   1    -0.222110566381E+03    0.62573E-09    0.28923E-11   198   0.174E-10    0.257E-10
RMM:   2    -0.222110566382E+03   -0.57116E-09    0.00000E+00     0   0.894E-11
 208 F= -.22211057E+03 E0= -.22213182E+03  d E =-.145519E-09
       N       E                     dE             d eps       ncg     rms          rms(c)
DAV:   1    -0.222110566383E+03   -0.15643E-08    0.19166E-11   198   0.131E-10    0.222E-10
RMM:   2    -0.222110566382E+03    0.10114E-08    0.00000E+00     0   0.102E-10
 209 F= -.22211057E+03 E0= -.22213182E+03  d E =0.181899E-10
       N       E                     dE             d eps       ncg     rms          rms(c)
DAV:   1    -0.222110566380E+03    0.23356E-08   -0.88688E-13   198   0.129E-10    0.350E-10
RMM:   2    -0.222110566382E+03   -0.14006E-08    0.00000E+00     0   0.114E-10
 210 F= -.22211057E+03 E0= -.22213182E+03  d E =-.763976E-10
       N       E                     dE             d eps       ncg     rms          rms(c)
DAV:   1    -0.222110566381E+03   -0.68030E-09   -0.10081E-11   198   0.174E-10    0.265E-10
RMM:   2    -0.222110566382E+03   -0.58935E-09    0.00000E+00     0   0.830E-11
 211 F= -.22211057E+03 E0= -.22213182E+03  d E =0.130967E-09
       N       E                     dE             d eps       ncg     rms          rms(c)
DAV:   1    -0.222110566381E+03   -0.12005E-09    0.36908E-11   198   0.120E-10    0.359E-10
RMM:   2    -0.222110566382E+03   -0.46566E-09    0.00000E+00     0   0.117E-10
 212 F= -.22211057E+03 E0= -.22213182E+03  d E =0.363798E-11
       N       E                     dE             d eps       ncg     rms          rms(c)
DAV:   1    -0.222110566382E+03   -0.75306E-09    0.60710E-11   198   0.184E-10    0.243E-10
RMM:   2    -0.222110566382E+03    0.90949E-10    0.00000E+00     0   0.829E-11
 213 F= -.22211057E+03 E0= -.22213182E+03  d E =-.196451E-09
       N       E                     dE             d eps       ncg     rms          rms(c)
DAV:   1    -0.222110566382E+03   -0.45111E-09    0.12874E-10   198   0.118E-10    0.325E-10
RMM:   2    -0.222110566382E+03    0.68030E-09    0.00000E+00     0   0.114E-10
 214 F= -.22211057E+03 E0= -.22213182E+03  d E =0.138243E-09
       N       E                     dE             d eps       ncg     rms          rms(c)
DAV:   1    -0.222110566381E+03    0.17535E-08    0.70312E-11   198   0.179E-10    0.254E-10
RMM:   2    -0.222110566382E+03   -0.10732E-08    0.00000E+00     0   0.105E-10
 215 F= -.22211057E+03 E0= -.22213182E+03  d E =0.000000E+00
       N       E                     dE             d eps       ncg     rms          rms(c)
DAV:   1    -0.222110566382E+03   -0.12842E-08    0.26584E-11   198   0.139E-10    0.238E-10
RMM:   2    -0.222110566382E+03    0.24374E-09    0.00000E+00     0   0.919E-11
 216 F= -.22211057E+03 E0= -.22213182E+03  d E =0.327418E-10
       N       E                     dE             d eps       ncg     rms          rms(c)
DAV:   1    -0.222110566381E+03    0.60390E-09    0.60799E-12   198   0.157E-10    0.317E-10
RMM:   2    -0.222110566382E+03   -0.40382E-09    0.00000E+00     0   0.107E-10
 217 F= -.22211057E+03 E0= -.22213182E+03  d E =-.436557E-10
       N       E                     dE             d eps       ncg     rms          rms(c)
DAV:   1    -0.222110566382E+03   -0.53842E-09   -0.10254E-11   198   0.164E-10    0.236E-10
RMM:   2    -0.222110566382E+03    0.10914E-09    0.00000E+00     0   0.747E-11
 218 F= -.22211057E+03 E0= -.22213182E+03  d E =-.254659E-10
       N       E                     dE             d eps       ncg     rms          rms(c)
DAV:   1    -0.222110566383E+03   -0.94224E-09   -0.38236E-11   198   0.961E-11    0.299E-10
RMM:   2    -0.222110566382E+03    0.10041E-08    0.00000E+00     0   0.727E-11
 219 F= -.22211057E+03 E0= -.22213182E+03  d E =-.472937E-10
       N       E                     dE             d eps       ncg     rms          rms(c)
DAV:   1    -0.222110566381E+03    0.14734E-08   -0.43125E-11   198   0.103E-10    0.402E-10
RMM:   2    -0.222110566382E+03   -0.41837E-09    0.00000E+00     0   0.153E-10
 220 F= -.22211057E+03 E0= -.22213182E+03  d E =0.509317E-10
       N       E                     dE             d eps       ncg     rms          rms(c)
DAV:   1    -0.222110566383E+03   -0.14406E-08   -0.10724E-11   198   0.220E-10    0.365E-10
RMM:   2    -0.222110566382E+03    0.10332E-08    0.00000E+00     0   0.146E-10
 221 F= -.22211057E+03 E0= -.22213182E+03  d E =0.109139E-10
       N       E                     dE             d eps       ncg     rms          rms(c)
DAV:   1    -0.222110566381E+03    0.16662E-08   -0.31757E-12   198   0.197E-10    0.318E-10
RMM:   2    -0.222110566382E+03   -0.59663E-09    0.00000E+00     0   0.130E-10
 222 F= -.22211057E+03 E0= -.22213182E+03  d E =0.363798E-10
       N       E                     dE             d eps       ncg     rms          rms(c)
DAV:   1    -0.222110566382E+03   -0.59663E-09    0.54992E-11   198   0.183E-10    0.176E-10
RMM:   2    -0.222110566382E+03    0.10914E-10    0.00000E+00     0   0.717E-11
 223 F= -.22211057E+03 E0= -.22213182E+03  d E =0.109139E-10
       N       E                     dE             d eps       ncg     rms          rms(c)
DAV:   1    -0.222110566382E+03   -0.42201E-09    0.10766E-10   198   0.930E-11    0.214E-10
RMM:   2    -0.222110566382E+03    0.41109E-09    0.00000E+00     0   0.773E-11
 224 F= -.22211057E+03 E0= -.22213182E+03  d E =-.218279E-10
       N       E                     dE             d eps       ncg     rms          rms(c)
DAV:   1    -0.222110566381E+03    0.13060E-08    0.95754E-11   198   0.102E-10    0.260E-10
RMM:   2    -0.222110566382E+03   -0.82946E-09    0.00000E+00     0   0.886E-11
 225 F= -.22211057E+03 E0= -.22213182E+03  d E =0.654836E-10
       N       E                     dE             d eps       ncg     rms          rms(c)
DAV:   1    -0.222110566382E+03   -0.16080E-08   -0.25547E-11   198   0.110E-10    0.247E-10
RMM:   2    -0.222110566382E+03    0.75670E-09    0.00000E+00     0   0.893E-11
 226 F= -.22211057E+03 E0= -.22213182E+03  d E =-.218279E-10
       N       E                     dE             d eps       ncg     rms          rms(c)
DAV:   1    -0.222110566381E+03    0.12406E-08    0.12298E-10   198   0.108E-10    0.238E-10
RMM:   2    -0.222110566382E+03   -0.50204E-09    0.00000E+00     0   0.880E-11
 227 F= -.22211057E+03 E0= -.22213182E+03  d E =-.181899E-10
       N       E                     dE             d eps       ncg     rms          rms(c)
DAV:   1    -0.222110566382E+03   -0.60390E-09   -0.57703E-11   198   0.110E-10    0.260E-10
RMM:   2    -0.222110566382E+03    0.21828E-10    0.00000E+00     0   0.962E-11
 228 F= -.22211057E+03 E0= -.22213182E+03  d E =-.800355E-10
       N       E                     dE             d eps       ncg     rms          rms(c)
DAV:   1    -0.222110566381E+03    0.29831E-09   -0.19867E-11   198   0.136E-10    0.311E-10
RMM:   2    -0.222110566382E+03   -0.18917E-09    0.00000E+00     0   0.940E-11
 229 F= -.22211057E+03 E0= -.22213182E+03  d E =0.873115E-10
       N       E                     dE             d eps       ncg     rms          rms(c)
DAV:   1    -0.222110566382E+03   -0.87311E-09    0.47315E-11   198   0.140E-10    0.293E-10
RMM:   2    -0.222110566382E+03    0.54933E-09    0.00000E+00     0   0.100E-10
 230 F= -.22211057E+03 E0= -.22213182E+03  d E =-.134605E-09
       N       E                     dE             d eps       ncg     rms          rms(c)
DAV:   1    -0.222110566381E+03    0.13279E-08    0.54046E-11   198   0.145E-10    0.353E-10
RMM:   2    -0.222110566382E+03   -0.57844E-09    0.00000E+00     0   0.109E-10
 231 F= -.22211057E+03 E0= -.22213182E+03  d E =0.200089E-09
       N       E                     dE             d eps       ncg     rms          rms(c)
DAV:   1    -0.222110566381E+03    0.28012E-09    0.44642E-11   198   0.164E-10    0.333E-10
RMM:   2    -0.222110566382E+03   -0.88767E-09    0.00000E+00     0   0.111E-10
 232 F= -.22211057E+03 E0= -.22213182E+03  d E =-.291038E-10
       N       E                     dE             d eps       ncg     rms          rms(c)
DAV:   1    -0.222110566381E+03   -0.40018E-10    0.78645E-11   198   0.165E-10    0.232E-10
RMM:   2    -0.222110566382E+03   -0.98225E-09    0.00000E+00     0   0.918E-11
 233 F= -.22211057E+03 E0= -.22213182E+03  d E =-.134605E-09
       N       E                     dE             d eps       ncg     rms          rms(c)
DAV:   1    -0.222110566382E+03   -0.95315E-09   -0.12108E-11   198   0.135E-10    0.313E-10
RMM:   2    -0.222110566382E+03    0.13097E-09    0.00000E+00     0   0.102E-10
 234 F= -.22211057E+03 E0= -.22213182E+03  d E =0.160071E-09
       N       E                     dE             d eps       ncg     rms          rms(c)
DAV:   1    -0.222110566382E+03    0.54570E-10    0.12829E-10   198   0.154E-10    0.439E-10
RMM:   2    -0.222110566382E+03   -0.61846E-10    0.00000E+00     0   0.149E-10
 235 F= -.22211057E+03 E0= -.22213182E+03  d E =-.138243E-09
       N       E                     dE             d eps       ncg     rms          rms(c)
DAV:   1    -0.222110566382E+03   -0.66575E-09    0.45949E-12   198   0.241E-10    0.206E-10
RMM:   2    -0.222110566382E+03    0.61482E-09    0.00000E+00     0   0.893E-11
 236 F= -.22211057E+03 E0= -.22213182E+03  d E =0.109139E-10
       N       E                     dE             d eps       ncg     rms          rms(c)
DAV:   1    -0.222110566382E+03    0.58208E-09    0.51610E-11   198   0.108E-10    0.312E-10
RMM:   2    -0.222110566382E+03   -0.14552E-10    0.00000E+00     0   0.109E-10
 237 F= -.22211057E+03 E0= -.22213182E+03  d E =-.472937E-10
       N       E                     dE             d eps       ncg     rms          rms(c)
DAV:   1    -0.222110566382E+03   -0.26557E-09    0.57741E-11   198   0.157E-10    0.230E-10
RMM:   2    -0.222110566382E+03    0.21464E-09    0.00000E+00     0   0.888E-11
 238 F= -.22211057E+03 E0= -.22213182E+03  d E =-.363798E-10
       N       E                     dE             d eps       ncg     rms          rms(c)
DAV:   1    -0.222110566381E+03    0.11678E-08    0.15848E-11   198   0.107E-10    0.264E-10
RMM:   2    -0.222110566382E+03   -0.89858E-09    0.00000E+00     0   0.845E-11
 239 F= -.22211057E+03 E0= -.22213182E+03  d E =0.545697E-10
       N       E                     dE             d eps       ncg     rms          rms(c)
DAV:   1    -0.222110566381E+03   -0.11278E-09    0.32665E-11   198   0.115E-10    0.314E-10
RMM:   2    -0.222110566382E+03   -0.76761E-09    0.00000E+00     0   0.111E-10
 240 F= -.22211057E+03 E0= -.22213182E+03  d E =0.181899E-10
       N       E                     dE             d eps       ncg     rms          rms(c)
DAV:   1    -0.222110566382E+03   -0.84037E-09    0.35769E-12   198   0.155E-10    0.232E-10
RMM:   2    -0.222110566382E+03    0.14916E-09    0.00000E+00     0   0.865E-11
 241 F= -.22211057E+03 E0= -.22213182E+03  d E =0.763976E-10
       N       E                     dE             d eps       ncg     rms          rms(c)
DAV:   1    -0.222110566382E+03    0.14552E-09    0.11730E-10   198   0.117E-10    0.316E-10
RMM:   2    -0.222110566382E+03   -0.72760E-11    0.00000E+00     0   0.104E-10
 242 F= -.22211057E+03 E0= -.22213182E+03  d E =-.109139E-10
       N       E                     dE             d eps       ncg     rms          rms(c)
DAV:   1    -0.222110566382E+03   -0.54933E-09    0.71367E-11   198   0.132E-10    0.364E-10
RMM:   2    -0.222110566382E+03    0.50204E-09    0.00000E+00     0   0.116E-10
 243 F= -.22211057E+03 E0= -.22213182E+03  d E =-.400178E-10
       N       E                     dE             d eps       ncg     rms          rms(c)
DAV:   1    -0.222110566382E+03    0.72032E-09    0.56437E-11   198   0.200E-10    0.360E-10
RMM:   2    -0.222110566382E+03   -0.15643E-09    0.00000E+00     0   0.116E-10
 244 F= -.22211057E+03 E0= -.22213182E+03  d E =0.618456E-10
       N       E                     dE             d eps       ncg     rms          rms(c)
DAV:   1    -0.222110566382E+03   -0.10186E-09    0.81370E-11   198   0.158E-10    0.255E-10
RMM:   2    -0.222110566382E+03    0.18190E-10    0.00000E+00     0   0.971E-11
 245 F= -.22211057E+03 E0= -.22213182E+03  d E =0.727596E-10
       N       E                     dE             d eps       ncg     rms          rms(c)
DAV:   1    -0.222110566382E+03   -0.33106E-09   -0.31619E-11   198   0.135E-10    0.267E-10
RMM:   2    -0.222110566382E+03    0.27285E-09    0.00000E+00     0   0.942E-11
 246 F= -.22211057E+03 E0= -.22213182E+03  d E =-.763976E-10
       N       E                     dE             d eps       ncg     rms          rms(c)
DAV:   1    -0.222110566381E+03    0.76761E-09   -0.51710E-12   198   0.131E-10    0.307E-10
RMM:   2    -0.222110566382E+03   -0.53842E-09    0.00000E+00     0   0.108E-10
 247 F= -.22211057E+03 E0= -.22213182E+03  d E =-.436557E-10
       N       E                     dE             d eps       ncg     rms          rms(c)
DAV:   1    -0.222110566382E+03   -0.11823E-08    0.11665E-10   198   0.175E-10    0.319E-10
RMM:   2    -0.222110566382E+03    0.74579E-09    0.00000E+00     0   0.115E-10
 248 F= -.22211057E+03 E0= -.22213182E+03  d E =0.101863E-09
       N       E                     dE             d eps       ncg     rms          rms(c)
DAV:   1    -0.222110566382E+03    0.21828E-10    0.11362E-10   198   0.181E-10    0.257E-10
RMM:   2    -0.222110566382E+03    0.56389E-09    0.00000E+00     0   0.795E-11
 249 F= -.22211057E+03 E0= -.22213182E+03  d E =-.160071E-09
       N       E                     dE             d eps       ncg     rms          rms(c)
DAV:   1    -0.222110566382E+03    0.16371E-09    0.12376E-10   198   0.111E-10    0.251E-10
RMM:   2    -0.222110566382E+03    0.54933E-09    0.00000E+00     0   0.930E-11
 250 F= -.22211057E+03 E0= -.22213182E+03  d E =0.149157E-09
       N       E                     dE             d eps       ncg     rms          rms(c)
DAV:   1    -0.222110566381E+03    0.67303E-09    0.45914E-11   198   0.118E-10    0.268E-10
RMM:   2    -0.222110566382E+03   -0.29831E-09    0.00000E+00     0   0.103E-10
 251 F= -.22211057E+03 E0= -.22213182E+03  d E =-.174623E-09
       N       E                     dE             d eps       ncg     rms          rms(c)
DAV:   1    -0.222110566381E+03    0.94587E-10    0.10610E-10   198   0.135E-10    0.245E-10
RMM:   2    -0.222110566382E+03   -0.26557E-09    0.00000E+00     0   0.922E-11
 252 F= -.22211057E+03 E0= -.22213182E+03  d E =0.127329E-09
       N       E                     dE             d eps       ncg     rms          rms(c)
DAV:   1    -0.222110566383E+03   -0.12660E-08    0.11286E-10   198   0.107E-10    0.267E-10
RMM:   2    -0.222110566382E+03    0.98225E-09    0.00000E+00     0   0.946E-11
 253 F= -.22211057E+03 E0= -.22213182E+03  d E =-.181899E-10
       N       E                     dE             d eps       ncg     rms          rms(c)
DAV:   1    -0.222110566382E+03    0.40382E-09    0.46208E-11   198   0.142E-10    0.319E-10
RMM:   2    -0.222110566382E+03    0.53842E-09    0.00000E+00     0   0.959E-11
 254 F= -.22211057E+03 E0= -.22213182E+03  d E =-.400178E-10
       N       E                     dE             d eps       ncg     rms          rms(c)
DAV:   1    -0.222110566381E+03    0.10004E-08   -0.22496E-11   198   0.157E-10    0.254E-10
RMM:   2    -0.222110566382E+03   -0.39290E-09    0.00000E+00     0   0.958E-11
 255 F= -.22211057E+03 E0= -.22213182E+03  d E =0.691216E-10
       N       E                     dE             d eps       ncg     rms          rms(c)
DAV:   1    -0.222110566383E+03   -0.14224E-08   -0.32569E-11   198   0.127E-10    0.267E-10
RMM:   2    -0.222110566382E+03    0.96770E-09    0.00000E+00     0   0.101E-10
 256 F= -.22211057E+03 E0= -.22213182E+03  d E =-.618456E-10
       N       E                     dE             d eps       ncg     rms          rms(c)
DAV:   1    -0.222110566381E+03    0.20591E-08    0.29600E-11   198   0.114E-10    0.310E-10
RMM:   2    -0.222110566382E+03   -0.10477E-08    0.00000E+00     0   0.123E-10
 257 F= -.22211057E+03 E0= -.22213182E+03  d E =0.436557E-10
       N       E                     dE             d eps       ncg     rms          rms(c)
DAV:   1    -0.222110566381E+03   -0.77125E-09    0.86562E-11   198   0.179E-10    0.313E-10
RMM:   2    -0.222110566382E+03   -0.30923E-09    0.00000E+00     0   0.983E-11
 258 F= -.22211057E+03 E0= -.22213182E+03  d E =-.327418E-10
       N       E                     dE             d eps       ncg     rms          rms(c)
DAV:   1    -0.222110566382E+03   -0.19281E-09    0.31187E-11   198   0.127E-10    0.257E-10
RMM:   2    -0.222110566382E+03   -0.80036E-10    0.00000E+00     0   0.866E-11
 259 F= -.22211057E+03 E0= -.22213182E+03  d E =0.363798E-10
       N       E                     dE             d eps       ncg     rms          rms(c)
DAV:   1    -0.222110566381E+03    0.90586E-09    0.94745E-11   198   0.145E-10    0.270E-10
RMM:   2    -0.222110566382E+03   -0.99681E-09    0.00000E+00     0   0.956E-11
 260 F= -.22211057E+03 E0= -.22213182E+03  d E =-.109139E-10
       N       E                     dE             d eps       ncg     rms          rms(c)
DAV:   1    -0.222110566382E+03   -0.11314E-08    0.14068E-10   198   0.128E-10    0.423E-10
RMM:   2    -0.222110566382E+03    0.72760E-11    0.00000E+00     0   0.153E-10
 261 F= -.22211057E+03 E0= -.22213182E+03  d E =-.127329E-09
       N       E                     dE             d eps       ncg     rms          rms(c)
DAV:   1    -0.222110566382E+03   -0.55661E-09    0.46473E-11   198   0.233E-10    0.279E-10
RMM:   2    -0.222110566382E+03    0.69849E-09    0.00000E+00     0   0.116E-10
 262 F= -.22211057E+03 E0= -.22213182E+03  d E =0.134605E-09
       N       E                     dE             d eps       ncg     rms          rms(c)
DAV:   1    -0.222110566382E+03    0.57844E-09    0.72839E-11   198   0.144E-10    0.289E-10
RMM:   2    -0.222110566382E+03    0.40018E-10    0.00000E+00     0   0.114E-10
 263 F= -.22211057E+03 E0= -.22213182E+03  d E =-.800355E-10
       N       E                     dE             d eps       ncg     rms          rms(c)
DAV:   1    -0.222110566382E+03   -0.34561E-09   -0.32927E-11   198   0.176E-10    0.242E-10
RMM:   2    -0.222110566382E+03    0.39654E-09    0.00000E+00     0   0.969E-11
 264 F= -.22211057E+03 E0= -.22213182E+03  d E =0.109139E-10
       N       E                     dE             d eps       ncg     rms          rms(c)
DAV:   1    -0.222110566381E+03    0.11751E-08   -0.60600E-11   198   0.119E-10    0.285E-10
RMM:   2    -0.222110566382E+03   -0.77489E-09    0.00000E+00     0   0.793E-11
 265 F= -.22211057E+03 E0= -.22213182E+03  d E =0.363798E-11
       N       E                     dE             d eps       ncg     rms          rms(c)
DAV:   1    -0.222110566382E+03   -0.14406E-08    0.80461E-11   198   0.130E-10    0.246E-10
RMM:   2    -0.222110566382E+03    0.70941E-09    0.00000E+00     0   0.811E-11
 266 F= -.22211057E+03 E0= -.22213182E+03  d E =0.436557E-10
       N       E                     dE             d eps       ncg     rms          rms(c)
DAV:   1    -0.222110566382E+03    0.72760E-09    0.41716E-11   198   0.115E-10    0.369E-10
RMM:   2    -0.222110566382E+03    0.50932E-10    0.00000E+00     0   0.116E-10
 267 F= -.22211057E+03 E0= -.22213182E+03  d E =0.691216E-10
       N       E                     dE             d eps       ncg     rms          rms(c)
DAV:   1    -0.222110566381E+03    0.32742E-09    0.14082E-10   198   0.206E-10    0.274E-10
RMM:   2    -0.222110566382E+03   -0.32378E-09    0.00000E+00     0   0.106E-10
 268 F= -.22211057E+03 E0= -.22213182E+03  d E =-.472937E-10
       N       E                     dE             d eps       ncg     rms          rms(c)
DAV:   1    -0.222110566382E+03   -0.33833E-09    0.13114E-10   198   0.140E-10    0.276E-10
RMM:   2    -0.222110566382E+03    0.50932E-10    0.00000E+00     0   0.950E-11
 269 F= -.22211057E+03 E0= -.22213182E+03  d E =0.363798E-10
       N       E                     dE             d eps       ncg     rms          rms(c)
DAV:   1    -0.222110566382E+03   -0.18917E-09    0.44077E-11   198   0.125E-10    0.412E-10
RMM:   2    -0.222110566382E+03    0.13097E-09    0.00000E+00     0   0.128E-10
 270 F= -.22211057E+03 E0= -.22213182E+03  d E =-.109139E-09
       N       E                     dE             d eps       ncg     rms          rms(c)
DAV:   1    -0.222110566381E+03    0.98953E-09    0.67327E-11   198   0.210E-10    0.276E-10
RMM:   2    -0.222110566382E+03   -0.78217E-09    0.00000E+00     0   0.109E-10
 271 F= -.22211057E+03 E0= -.22213182E+03  d E =0.763976E-10
       N       E                     dE             d eps       ncg     rms          rms(c)
DAV:   1    -0.222110566381E+03   -0.10550E-09   -0.68259E-12   198   0.128E-10    0.332E-10
RMM:   2    -0.222110566382E+03   -0.71304E-09    0.00000E+00     0   0.120E-10
 272 F= -.22211057E+03 E0= -.22213182E+03  d E =-.363798E-10
       N       E                     dE             d eps       ncg     rms          rms(c)
DAV:   1    -0.222110566380E+03    0.50932E-09    0.54215E-11   198   0.198E-10    0.430E-10
RMM:   2    -0.222110566382E+03   -0.12224E-08    0.00000E+00     0   0.160E-10
 273 F= -.22211057E+03 E0= -.22213182E+03  d E =0.000000E+00
       N       E                     dE             d eps       ncg     rms          rms(c)
DAV:   1    -0.222110566382E+03   -0.14443E-08    0.76731E-12   198   0.245E-10    0.230E-10
RMM:   2    -0.222110566382E+03    0.31287E-09    0.00000E+00     0   0.998E-11
 274 F= -.22211057E+03 E0= -.22213182E+03  d E =0.909495E-10
       N       E                     dE             d eps       ncg     rms          rms(c)
DAV:   1    -0.222110566383E+03   -0.98225E-09    0.12115E-11   198   0.124E-10    0.339E-10
RMM:   2    -0.222110566382E+03    0.12551E-08    0.00000E+00     0   0.129E-10
 275 F= -.22211057E+03 E0= -.22213182E+03  d E =-.400178E-10
       N       E                     dE             d eps       ncg     rms          rms(c)
DAV:   1    -0.222110566381E+03    0.14406E-08    0.11044E-10   198   0.200E-10    0.344E-10
RMM:   2    -0.222110566382E+03   -0.21464E-09    0.00000E+00     0   0.111E-10
 276 F= -.22211057E+03 E0= -.22213182E+03  d E =-.291038E-10
       N       E                     dE             d eps       ncg     rms          rms(c)
DAV:   1    -0.222110566382E+03   -0.70941E-09   -0.80645E-11   198   0.136E-10    0.220E-10
RMM:   2    -0.222110566382E+03    0.57844E-09    0.00000E+00     0   0.865E-11
 277 F= -.22211057E+03 E0= -.22213182E+03  d E =0.836735E-10
       N       E                     dE             d eps       ncg     rms          rms(c)
DAV:   1    -0.222110566382E+03    0.22919E-09   -0.23626E-11   198   0.129E-10    0.337E-10
RMM:   2    -0.222110566382E+03    0.36380E-09    0.00000E+00     0   0.120E-10
 278 F= -.22211057E+03 E0= -.22213182E+03  d E =0.145519E-10
       N       E                     dE             d eps       ncg     rms          rms(c)
DAV:   1    -0.222110566382E+03   -0.17462E-09   -0.13623E-11   198   0.169E-10    0.380E-10
RMM:   2    -0.222110566382E+03    0.47294E-09    0.00000E+00     0   0.123E-10
 279 F= -.22211057E+03 E0= -.22213182E+03  d E =-.654836E-10
       N       E                     dE             d eps       ncg     rms          rms(c)
DAV:   1    -0.222110566382E+03   -0.14916E-09    0.43081E-13   198   0.173E-10    0.313E-10
RMM:   2    -0.222110566382E+03    0.63665E-09    0.00000E+00     0   0.117E-10
 280 F= -.22211057E+03 E0= -.22213182E+03  d E =0.145519E-10
       N       E                     dE             d eps       ncg     rms          rms(c)
DAV:   1    -0.222110566382E+03    0.76398E-10    0.45315E-11   198   0.146E-10    0.352E-10
RMM:   2    -0.222110566382E+03    0.40745E-09    0.00000E+00     0   0.129E-10
 281 F= -.22211057E+03 E0= -.22213182E+03  d E =-.152795E-09
       N       E                     dE             d eps       ncg     rms          rms(c)
DAV:   1    -0.222110566381E+03    0.13606E-08    0.42938E-11   198   0.190E-10    0.405E-10
RMM:   2    -0.222110566382E+03   -0.90949E-09    0.00000E+00     0   0.141E-10
 282 F= -.22211057E+03 E0= -.22213182E+03  d E =0.436557E-10
       N       E                     dE             d eps       ncg     rms          rms(c)
DAV:   1    -0.222110566382E+03   -0.90222E-09    0.83745E-11   198   0.232E-10    0.297E-10
RMM:   2    -0.222110566382E+03    0.13097E-09    0.00000E+00     0   0.934E-11
 283 F= -.22211057E+03 E0= -.22213182E+03  d E =0.138243E-09
       N       E                     dE             d eps       ncg     rms          rms(c)
DAV:   1    -0.222110566381E+03    0.65484E-09   -0.22645E-12   198   0.129E-10    0.329E-10
RMM:   2    -0.222110566382E+03   -0.58571E-09    0.00000E+00     0   0.115E-10
 284 F= -.22211057E+03 E0= -.22213182E+03  d E =-.618456E-10
       N       E                     dE             d eps       ncg     rms          rms(c)
DAV:   1    -0.222110566382E+03   -0.59663E-09    0.19330E-10   198   0.151E-10    0.271E-10
RMM:   2    -0.222110566382E+03    0.21828E-10    0.00000E+00     0   0.833E-11
 285 F= -.22211057E+03 E0= -.22213182E+03  d E =0.109139E-10
       N       E                     dE             d eps       ncg     rms          rms(c)
DAV:   1    -0.222110566381E+03    0.63301E-09    0.13604E-10   198   0.115E-10    0.239E-10
RMM:   2    -0.222110566382E+03   -0.66211E-09    0.00000E+00     0   0.954E-11
 286 F= -.22211057E+03 E0= -.22213182E+03  d E =-.509317E-10
       N       E                     dE             d eps       ncg     rms          rms(c)
DAV:   1    -0.222110566382E+03   -0.90949E-09    0.52353E-12   198   0.137E-10    0.398E-10
RMM:   2    -0.222110566382E+03    0.20009E-09    0.00000E+00     0   0.147E-10
 287 F= -.22211057E+03 E0= -.22213182E+03  d E =-.472937E-10
       N       E                     dE             d eps       ncg     rms          rms(c)
DAV:   1    -0.222110566382E+03    0.37835E-09    0.45902E-11   198   0.226E-10    0.280E-10
RMM:   2    -0.222110566382E+03   -0.54570E-10    0.00000E+00     0   0.107E-10
 288 F= -.22211057E+03 E0= -.22213182E+03  d E =0.123691E-09
       N       E                     dE             d eps       ncg     rms          rms(c)
DAV:   1    -0.222110566381E+03    0.47294E-09    0.20645E-11   198   0.131E-10    0.235E-10
RMM:   2    -0.222110566382E+03   -0.48021E-09    0.00000E+00     0   0.102E-10
 289 F= -.22211057E+03 E0= -.22213182E+03  d E =0.472937E-10
       N       E                     dE             d eps       ncg     rms          rms(c)
DAV:   1    -0.222110566382E+03   -0.46202E-09   -0.64491E-12   198   0.118E-10    0.281E-10
RMM:   2    -0.222110566382E+03   -0.40018E-10    0.00000E+00     0   0.108E-10
 290 F= -.22211057E+03 E0= -.22213182E+03  d E =-.218279E-10
       N       E                     dE             d eps       ncg     rms          rms(c)
DAV:   1    -0.222110566382E+03   -0.63665E-09   -0.70869E-11   198   0.132E-10    0.378E-10
RMM:   2    -0.222110566382E+03    0.46930E-09    0.00000E+00     0   0.136E-10
 291 F= -.22211057E+03 E0= -.22213182E+03  d E =-.127329E-09
       N       E                     dE             d eps       ncg     rms          rms(c)
DAV:   1    -0.222110566382E+03    0.15643E-09   -0.18052E-11   198   0.207E-10    0.218E-10
RMM:   2    -0.222110566382E+03    0.42928E-09    0.00000E+00     0   0.915E-11
 292 F= -.22211057E+03 E0= -.22213182E+03  d E =0.116415E-09
       N       E                     dE             d eps       ncg     rms          rms(c)
DAV:   1    -0.222110566382E+03    0.20373E-09    0.28842E-12   198   0.111E-10    0.263E-10
RMM:   2    -0.222110566382E+03    0.54570E-10    0.00000E+00     0   0.903E-11
 293 F= -.22211057E+03 E0= -.22213182E+03  d E =-.170985E-09
       N       E                     dE             d eps       ncg     rms          rms(c)
DAV:   1    -0.222110566381E+03    0.53114E-09    0.27374E-11   198   0.137E-10    0.274E-10
RMM:   2    -0.222110566382E+03   -0.49113E-09    0.00000E+00     0   0.116E-10
 294 F= -.22211057E+03 E0= -.22213182E+03  d E =-.145519E-10
       N       E                     dE             d eps       ncg     rms          rms(c)
DAV:   1    -0.222110566382E+03   -0.33469E-09    0.16341E-11   198   0.155E-10    0.243E-10
RMM:   2    -0.222110566382E+03   -0.14188E-09    0.00000E+00     0   0.907E-11
 295 F= -.22211057E+03 E0= -.22213182E+03  d E =0.145519E-10
       N       E                     dE             d eps       ncg     rms          rms(c)
DAV:   1    -0.222110566382E+03   -0.13824E-09    0.12427E-11   198   0.101E-10    0.207E-10
RMM:   2    -0.222110566382E+03    0.12005E-09    0.00000E+00     0   0.676E-11
 296 F= -.22211057E+03 E0= -.22213182E+03  d E =0.123691E-09
       N       E                     dE             d eps       ncg     rms          rms(c)
DAV:   1    -0.222110566381E+03    0.88039E-09   -0.17083E-12   198   0.951E-11    0.280E-10
RMM:   2    -0.222110566382E+03   -0.82946E-09    0.00000E+00     0   0.770E-11
 297 F= -.22211057E+03 E0= -.22213182E+03  d E =-.691216E-10
       N       E                     dE             d eps       ncg     rms          rms(c)
DAV:   1    -0.222110566382E+03   -0.11532E-08    0.78998E-11   198   0.122E-10    0.241E-10
RMM:   2    -0.222110566382E+03    0.43656E-09    0.00000E+00     0   0.884E-11
 298 F= -.22211057E+03 E0= -.22213182E+03  d E =0.112777E-09
       N       E                     dE             d eps       ncg     rms          rms(c)
DAV:   1    -0.222110566382E+03    0.30923E-09   -0.42610E-11   198   0.128E-10    0.349E-10
RMM:   2    -0.222110566382E+03    0.12005E-09    0.00000E+00     0   0.100E-10
 299 F= -.22211057E+03 E0= -.22213182E+03  d E =-.727596E-11
       N       E                     dE             d eps       ncg     rms          rms(c)
DAV:   1    -0.222110566382E+03   -0.43656E-09    0.38252E-11   198   0.128E-10    0.330E-10
RMM:   2    -0.222110566382E+03    0.48385E-09    0.00000E+00     0   0.121E-10
 300 F= -.22211057E+03 E0= -.22213182E+03  d E =-.727596E-10
