   4   4   0   0
  0.1831539E+02  0.7042995E-09  0.7042995E-09  0.7042995E-09  0.5000000E-15
   1.0000000000000000E-004
  CAR 
 unknown system                          
     26.23106326    -20.76697957  301      6.22591672      1.00000000
    -20.767  0.0000E+00  0.0000E+00
    -20.610  0.0000E+00  0.0000E+00
    -20.454  0.0000E+00  0.0000E+00
    -20.297  0.0000E+00  0.0000E+00
    -20.140  0.0000E+00  0.0000E+00
    -19.984  0.0000E+00  0.0000E+00
    -19.827  0.0000E+00  0.0000E+00
    -19.670  0.0000E+00  0.0000E+00
    -19.514  0.0000E+00  0.0000E+00
    -19.357  0.0000E+00  0.0000E+00
    -19.200  0.0000E+00  0.0000E+00
    -19.044  0.0000E+00  0.0000E+00
    -18.887  0.4108E-14  0.6436E-15
    -18.730  0.1093E-03  0.1712E-04
    -18.574  0.2277E+00  0.3568E-01
    -18.417  0.1552E+00  0.6000E-01
    -18.260  0.8806E-05  0.6000E-01
    -18.104  0.0000E+00  0.6000E-01
    -17.947  0.0000E+00  0.6000E-01
    -17.790  0.0000E+00  0.6000E-01
    -17.634  0.0000E+00  0.6000E-01
    -17.477  0.0000E+00  0.6000E-01
    -17.320  0.0000E+00  0.6000E-01
    -17.164  0.0000E+00  0.6000E-01
    -17.007  0.0000E+00  0.6000E-01
    -16.850  0.0000E+00  0.6000E-01
    -16.694  0.0000E+00  0.6000E-01
    -16.537  0.0000E+00  0.6000E-01
    -16.380  0.0000E+00  0.6000E-01
    -16.224  0.0000E+00  0.6000E-01
    -16.067  0.0000E+00  0.6000E-01
    -15.911  0.0000E+00  0.6000E-01
    -15.754  0.0000E+00  0.6000E-01
    -15.597  0.0000E+00  0.6000E-01
    -15.441  0.0000E+00  0.6000E-01
    -15.284  0.0000E+00  0.6000E-01
    -15.127  0.0000E+00  0.6000E-01
    -14.971  0.0000E+00  0.6000E-01
    -14.814  0.0000E+00  0.6000E-01
    -14.657  0.0000E+00  0.6000E-01
    -14.501  0.0000E+00  0.6000E-01
    -14.344  0.0000E+00  0.6000E-01
    -14.187  0.0000E+00  0.6000E-01
    -14.031  0.0000E+00  0.6000E-01
    -13.874  0.0000E+00  0.6000E-01
    -13.717  0.0000E+00  0.6000E-01
    -13.561  0.0000E+00  0.6000E-01
    -13.404  0.0000E+00  0.6000E-01
    -13.247  0.0000E+00  0.6000E-01
    -13.091  0.0000E+00  0.6000E-01
    -12.934  0.0000E+00  0.6000E-01
    -12.777  0.0000E+00  0.6000E-01
    -12.621  0.0000E+00  0.6000E-01
    -12.464  0.0000E+00  0.6000E-01
    -12.307  0.0000E+00  0.6000E-01
    -12.151  0.0000E+00  0.6000E-01
    -11.994  0.0000E+00  0.6000E-01
    -11.837  0.0000E+00  0.6000E-01
    -11.681  0.0000E+00  0.6000E-01
    -11.524  0.0000E+00  0.6000E-01
    -11.367  0.0000E+00  0.6000E-01
    -11.211  0.0000E+00  0.6000E-01
    -11.054  0.0000E+00  0.6000E-01
    -10.897  0.0000E+00  0.6000E-01
    -10.741  0.0000E+00  0.6000E-01
    -10.584  0.0000E+00  0.6000E-01
    -10.427  0.0000E+00  0.6000E-01
    -10.271  0.0000E+00  0.6000E-01
    -10.114  0.0000E+00  0.6000E-01
     -9.957  0.3434E-07  0.6000E-01
     -9.801  0.1181E-02  0.6019E-01
     -9.644  0.3809E-02  0.6078E-01
     -9.487  0.3233E-02  0.6129E-01
     -9.331  0.1327E-01  0.6337E-01
     -9.174  0.6726E-02  0.6442E-01
     -9.017  0.4378E-02  0.6511E-01
     -8.861  0.4461E-02  0.6581E-01
     -8.704  0.6885E-02  0.6688E-01
     -8.547  0.1990E-02  0.6720E-01
     -8.391  0.1637E-01  0.6976E-01
     -8.234  0.1046E-01  0.7140E-01
     -8.078  0.1046E-01  0.7304E-01
     -7.921  0.9510E-02  0.7453E-01
     -7.764  0.1771E-01  0.7730E-01
     -7.608  0.2072E-01  0.8055E-01
     -7.451  0.3157E-01  0.8549E-01
     -7.294  0.2977E-01  0.9016E-01
     -7.138  0.6110E-01  0.9973E-01
     -6.981  0.1724E-02  0.1000E+00
     -6.824  0.3161E-09  0.1000E+00
     -6.668  0.0000E+00  0.1000E+00
     -6.511  0.0000E+00  0.1000E+00
     -6.354  0.0000E+00  0.1000E+00
     -6.198  0.0000E+00  0.1000E+00
     -6.041  0.0000E+00  0.1000E+00
     -5.884  0.0000E+00  0.1000E+00
     -5.728  0.0000E+00  0.1000E+00
     -5.571  0.0000E+00  0.1000E+00
     -5.414  0.0000E+00  0.1000E+00
     -5.258  0.0000E+00  0.1000E+00
     -5.101  0.0000E+00  0.1000E+00
     -4.944  0.0000E+00  0.1000E+00
     -4.788  0.0000E+00  0.1000E+00
     -4.631  0.0000E+00  0.1000E+00
     -4.474  0.0000E+00  0.1000E+00
     -4.318  0.0000E+00  0.1000E+00
     -4.161  0.0000E+00  0.1000E+00
     -4.004  0.0000E+00  0.1000E+00
     -3.848  0.0000E+00  0.1000E+00
     -3.691  0.0000E+00  0.1000E+00
     -3.534  0.0000E+00  0.1000E+00
     -3.378  0.0000E+00  0.1000E+00
     -3.221  0.1876E-07  0.1000E+00
     -3.064  0.4645E-02  0.1007E+00
     -2.908  0.2356E-01  0.1044E+00
     -2.751  0.1115E-01  0.1062E+00
     -2.594  0.1147E-01  0.1080E+00
     -2.438  0.4484E-02  0.1087E+00
     -2.281  0.7866E-02  0.1099E+00
     -2.124  0.9249E-02  0.1113E+00
     -1.968  0.1050E-01  0.1130E+00
     -1.811  0.2721E-03  0.1130E+00
     -1.654  0.6181E-02  0.1140E+00
     -1.498  0.7800E-02  0.1152E+00
     -1.341  0.1761E-01  0.1180E+00
     -1.184  0.5077E-02  0.1188E+00
     -1.028  0.5764E-02  0.1197E+00
     -0.871  0.2133E-02  0.1200E+00
     -0.714  0.4925E-02  0.1208E+00
     -0.558  0.2136E-01  0.1241E+00
     -0.401  0.2392E-01  0.1279E+00
     -0.245  0.1817E-01  0.1307E+00
     -0.088  0.1055E-01  0.1324E+00
      0.069  0.9279E-02  0.1338E+00
      0.225  0.1382E-01  0.1360E+00
      0.382  0.1739E-01  0.1387E+00
      0.539  0.1725E-01  0.1414E+00
      0.695  0.1711E-01  0.1441E+00
      0.852  0.1117E-01  0.1459E+00
      1.009  0.1332E-01  0.1479E+00
      1.165  0.2477E-01  0.1518E+00
      1.322  0.2080E-01  0.1551E+00
      1.479  0.1683E-01  0.1577E+00
      1.635  0.3467E-01  0.1632E+00
      1.792  0.2009E-01  0.1663E+00
      1.949  0.1051E-01  0.1679E+00
      2.105  0.1624E-01  0.1705E+00
      2.262  0.1938E-01  0.1735E+00
      2.419  0.1802E-01  0.1763E+00
      2.575  0.3557E-01  0.1819E+00
      2.732  0.3320E-01  0.1871E+00
      2.889  0.2766E-01  0.1915E+00
      3.045  0.3382E-01  0.1968E+00
      3.202  0.2999E-01  0.2015E+00
      3.359  0.3200E-01  0.2065E+00
      3.515  0.3874E-01  0.2125E+00
      3.672  0.2064E-01  0.2158E+00
      3.829  0.1898E-01  0.2187E+00
      3.985  0.8039E-02  0.2200E+00
      4.142  0.1083E-04  0.2200E+00
      4.299  0.0000E+00  0.2200E+00
      4.455  0.0000E+00  0.2200E+00
      4.612  0.5466E-09  0.2200E+00
      4.769  0.3979E-03  0.2201E+00
      4.925  0.1115E-02  0.2202E+00
      5.082  0.6229E-02  0.2212E+00
      5.239  0.4358E-02  0.2219E+00
      5.395  0.6903E-02  0.2230E+00
      5.552  0.3181E-02  0.2235E+00
      5.709  0.7082E-02  0.2246E+00
      5.865  0.5484E-02  0.2254E+00
      6.022  0.9034E-02  0.2269E+00
      6.179  0.1244E-01  0.2288E+00
      6.335  0.1389E-01  0.2310E+00
      6.492  0.1179E-01  0.2328E+00
      6.649  0.1791E-01  0.2356E+00
      6.805  0.1499E-01  0.2380E+00
      6.962  0.4627E-02  0.2387E+00
      7.119  0.6702E-02  0.2398E+00
      7.275  0.1524E-02  0.2400E+00
      7.432  0.2617E-07  0.2400E+00
      7.589  0.1758E-06  0.2400E+00
      7.745  0.3460E-02  0.2405E+00
      7.902  0.3611E-02  0.2411E+00
      8.058  0.6314E-02  0.2421E+00
      8.215  0.2006E-01  0.2452E+00
      8.372  0.1635E-01  0.2478E+00
      8.528  0.2085E-01  0.2511E+00
      8.685  0.3548E-01  0.2566E+00
      8.842  0.7895E-02  0.2579E+00
      8.998  0.1479E-01  0.2602E+00
      9.155  0.1889E-01  0.2631E+00
      9.312  0.3196E-01  0.2681E+00
      9.468  0.2961E-01  0.2728E+00
      9.625  0.3144E-01  0.2777E+00
      9.782  0.3969E-01  0.2839E+00
      9.938  0.4011E-01  0.2902E+00
     10.095  0.3154E-01  0.2952E+00
     10.252  0.2387E-01  0.2989E+00
     10.408  0.2988E-01  0.3036E+00
     10.565  0.2186E-01  0.3070E+00
     10.722  0.3109E-01  0.3119E+00
     10.878  0.2113E-01  0.3152E+00
     11.035  0.2338E-01  0.3188E+00
     11.192  0.1527E-01  0.3212E+00
     11.348  0.1706E-01  0.3239E+00
     11.505  0.2226E-01  0.3274E+00
     11.662  0.2168E-01  0.3308E+00
     11.818  0.1054E-01  0.3324E+00
     11.975  0.2202E-01  0.3359E+00
     12.132  0.1150E-01  0.3377E+00
     12.288  0.2281E-01  0.3413E+00
     12.445  0.2390E-01  0.3450E+00
     12.602  0.1528E-01  0.3474E+00
     12.758  0.1854E-01  0.3503E+00
     12.915  0.1834E-01  0.3532E+00
     13.072  0.1197E-01  0.3551E+00
     13.228  0.2887E-01  0.3596E+00
     13.385  0.2573E-01  0.3636E+00
     13.542  0.2688E-01  0.3678E+00
     13.698  0.2028E-01  0.3710E+00
     13.855  0.2794E-01  0.3754E+00
     14.012  0.2826E-01  0.3798E+00
     14.168  0.1157E-01  0.3816E+00
     14.325  0.1697E-01  0.3843E+00
     14.482  0.2266E-01  0.3878E+00
     14.638  0.2544E-01  0.3918E+00
     14.795  0.1664E-01  0.3944E+00
     14.952  0.2840E-01  0.3989E+00
     15.108  0.2258E-01  0.4024E+00
     15.265  0.1779E-01  0.4052E+00
     15.422  0.1607E-01  0.4077E+00
     15.578  0.2711E-01  0.4120E+00
     15.735  0.2185E-01  0.4154E+00
     15.891  0.3438E-01  0.4208E+00
     16.048  0.2677E-01  0.4250E+00
     16.205  0.1918E-01  0.4280E+00
     16.361  0.3325E-01  0.4332E+00
     16.518  0.2960E-01  0.4378E+00
     16.675  0.3578E-01  0.4434E+00
     16.831  0.2656E-01  0.4476E+00
     16.988  0.2561E-01  0.4516E+00
     17.145  0.1153E-01  0.4534E+00
     17.301  0.2524E-01  0.4573E+00
     17.458  0.1029E-01  0.4590E+00
     17.615  0.3218E-01  0.4640E+00
     17.771  0.3252E-01  0.4691E+00
     17.928  0.6040E-02  0.4700E+00
     18.085  0.1923E-01  0.4731E+00
     18.241  0.3605E-01  0.4787E+00
     18.398  0.2625E-01  0.4828E+00
     18.555  0.1946E-01  0.4859E+00
     18.711  0.1518E-01  0.4882E+00
     18.868  0.3606E-01  0.4939E+00
     19.025  0.2058E-01  0.4971E+00
     19.181  0.3349E-01  0.5024E+00
     19.338  0.2634E-01  0.5065E+00
     19.495  0.3034E-01  0.5112E+00
     19.651  0.3176E-01  0.5162E+00
     19.808  0.3173E-01  0.5212E+00
     19.965  0.2691E-01  0.5254E+00
     20.121  0.2722E-01  0.5297E+00
     20.278  0.1476E-01  0.5320E+00
     20.435  0.4424E-01  0.5389E+00
     20.591  0.3701E-01  0.5447E+00
     20.748  0.1839E-01  0.5476E+00
     20.905  0.2734E-01  0.5519E+00
     21.061  0.3206E-01  0.5569E+00
     21.218  0.3203E-01  0.5619E+00
     21.375  0.1909E-01  0.5649E+00
     21.531  0.2576E-01  0.5689E+00
     21.688  0.2287E-01  0.5725E+00
     21.845  0.3085E-01  0.5774E+00
     22.001  0.4555E-01  0.5845E+00
     22.158  0.1454E-01  0.5868E+00
     22.315  0.2210E-01  0.5902E+00
     22.471  0.2803E-01  0.5946E+00
     22.628  0.2855E-01  0.5991E+00
     22.785  0.2132E-01  0.6024E+00
     22.941  0.3538E-01  0.6080E+00
     23.098  0.3724E-01  0.6138E+00
     23.255  0.2515E-01  0.6177E+00
     23.411  0.3111E-01  0.6226E+00
     23.568  0.1953E-01  0.6257E+00
     23.725  0.4527E-01  0.6328E+00
     23.881  0.1915E-01  0.6358E+00
     24.038  0.2107E-01  0.6391E+00
     24.194  0.5882E-02  0.6400E+00
     24.351  0.1228E-04  0.6400E+00
     24.508  0.0000E+00  0.6400E+00
     24.664  0.0000E+00  0.6400E+00
     24.821  0.0000E+00  0.6400E+00
     24.978  0.0000E+00  0.6400E+00
     25.134  0.0000E+00  0.6400E+00
     25.291  0.0000E+00  0.6400E+00
     25.448  0.0000E+00  0.6400E+00
     25.604  0.0000E+00  0.6400E+00
     25.761  0.0000E+00  0.6400E+00
     25.918  0.0000E+00  0.6400E+00
     26.074  0.0000E+00  0.6400E+00
     26.231  0.0000E+00  0.6400E+00
