 vasp.6.3.2 27Jun22 (build Jun 14 2024 17:29:11) complex                         
 executed on             LinuxGNU date 2026.03.29  20:13:05
 running on   32 total cores
 distrk:  each k-point on   32 cores,    1 groups
 distr:  one band on NCORE=   1 cores,   32 groups


--------------------------------------------------------------------------------------------------------


 INCAR:
   EDIFF = 1e-05
   EDIFFG = -0.05
   ENCUT = 400.0
   IBRION = 2
   ISIF = 3
   ISMEAR = 0
   LCHARG = False
   LREAL = Auto
   LWAVE = False
   NSW = 100
   SIGMA = 0.05

 POTCAR:    PAW_PBE Na_pv 19Sep2006               
 POTCAR:    PAW_PBE Si 05Jan2001                  
 POTCAR:    PAW_PBE S 06Sep2000                   
 -----------------------------------------------------------------------------
|                                                                             |
|           W    W    AA    RRRRR   N    N  II  N    N   GGGG   !!!           |
|           W    W   A  A   R    R  NN   N  II  NN   N  G    G  !!!           |
|           W    W  A    A  R    R  N N  N  II  N N  N  G       !!!           |
|           W WW W  AAAAAA  RRRRR   N  N N  II  N  N N  G  GGG   !            |
|           WW  WW  A    A  R   R   N   NN  II  N   NN  G    G                |
|           W    W  A    A  R    R  N    N  II  N    N   GGGG   !!!           |
|                                                                             |
|     For optimal performance we recommend to set                             |
|       NCORE = 2 up to number-of-cores-per-socket                            |
|     NCORE specifies how many cores store one orbital (NPAR=cpu/NCORE).      |
|     This setting can greatly improve the performance of VASP for DFT.       |
|     The default, NCORE=1 might be grossly inefficient on modern             |
|     multi-core architectures or massively parallel machines. Do your        |
|     own testing! More info at https://www.vasp.at/wiki/index.php/NCORE      |
|     Unfortunately you need to use the default for GW and RPA                |
|     calculations (for HF NCORE is supported but not extensively tested      |
|     yet).                                                                   |
|                                                                             |
 -----------------------------------------------------------------------------

 POTCAR:    PAW_PBE Na_pv 19Sep2006               
   SHA256 =  6a2f546d9e11350984debacf3dc457d8cffc0868e817d445faca461816a32b94 Na_pv/POTCAR          
   COPYR  = (c) Copyright 19Sep2006 Georg Kresse                                                    
   COPYR  = This file is part of the software VASP. Any use, copying, and all other rights are regul
   COPYR  = If you do not have a valid VASP license, you may not use, copy or distribute this file. 
   VRHFIN =Na: p6s1                                                                                 
   LEXCH  = PE                                                                                      
   EATOM  =   766.0439 eV,   56.3026 Ry                                                             
                                                                                                    
   TITEL  = PAW_PBE Na_pv 19Sep2006                                                                 
   LULTRA =        F    use ultrasoft PP ?                                                          
   IUNSCR =        1    unscreen: 0-lin 1-nonlin 2-no                                               
   RPACOR =    1.800    partial core radius                                                         
   POMASS =   22.990; ZVAL   =    7.000    mass and valenz                                          
   RCORE  =    2.200    outmost cutoff radius                                                       
   RWIGS  =    2.200; RWIGS  =    1.164    wigner-seitz radius (au A)                               
   ENMAX  =  259.561; ENMIN  =  194.671 eV                                                          
   ICORE  =        2    local potential                                                             
   LCOR   =        T    correct aug charges                                                         
   LPAW   =        T    paw PP                                                                      
   EAUG   =  368.056                                                                                
   DEXC   =    0.000                                                                                
   RMAX   =    2.245    core radius for proj-oper                                                   
   RAUG   =    1.300    factor for augmentation sphere                                              
   RDEP   =    2.259    radius for radial grids                                                     
   RDEPT  =    1.738    core radius for aug-charge                                                  
                                                                                                    
   Atomic configuration                                                                             
    5 entries                                                                                       
     n  l   j            E        occ.                                                              
     1  0  0.50     -1033.6933   2.0000                                                             
     2  0  0.50       -56.7526   2.0000                                                             
     2  1  1.50       -28.6721   6.0000                                                             
     3  0  0.50        -2.7440   1.0000                                                             
     3  2  1.50        -1.3606   0.0000                                                             
   Description                                                                                      
     l       E           TYP  RCUT    TYP  RCUT                                                     
     1    -28.6720912     23  2.000                                                                 
     1      6.8029130     23  2.000                                                                 
     0     -2.7439560     23  2.200                                                                 
     0     34.0145650     23  2.200                                                                 
     2     -1.3605826     23  2.200                                                                 
  local pseudopotential read in
  partial core-charges read in
  partial kinetic energy density read in
  atomic valenz-charges read in
  non local Contribution for L=           1  read in
    real space projection operators read in
  non local Contribution for L=           1  read in
    real space projection operators read in
  non local Contribution for L=           0  read in
    real space projection operators read in
  non local Contribution for L=           0  read in
    real space projection operators read in
    PAW grid and wavefunctions read in

   number of l-projection  operators is LMAX  =           4
   number of lm-projection operators is LMMAX =           8

 POTCAR:    PAW_PBE Si 05Jan2001                  
   SHA256 =  79d9987ad8750f624c4d6acb2a16d13abf6a777132adc04dc6c8399be72b42bb Si/POTCAR             
   COPYR  = (c) Copyright 05Jan2001 Georg Kresse                                                    
   COPYR  = This file is part of the software VASP. Any use, copying, and all other rights are regul
   COPYR  = If you do not have a valid VASP license, you may not use, copy or distribute this file. 
   VRHFIN =Si: s2p2                                                                                 
   LEXCH  = PE                                                                                      
   EATOM  =   103.0669 eV,    7.5752 Ry                                                             
                                                                                                    
   TITEL  = PAW_PBE Si 05Jan2001                                                                    
   LULTRA =        F    use ultrasoft PP ?                                                          
   IUNSCR =        1    unscreen: 0-lin 1-nonlin 2-no                                               
   RPACOR =    1.500    partial core radius                                                         
   POMASS =   28.085; ZVAL   =    4.000    mass and valenz                                          
   RCORE  =    1.900    outmost cutoff radius                                                       
   RWIGS  =    2.480; RWIGS  =    1.312    wigner-seitz radius (au A)                               
   ENMAX  =  245.345; ENMIN  =  184.009 eV                                                          
   ICORE  =        2    local potential                                                             
   LCOR   =        T    correct aug charges                                                         
   LPAW   =        T    paw PP                                                                      
   EAUG   =  322.069                                                                                
   DEXC   =    0.000                                                                                
   RMAX   =    1.950    core radius for proj-oper                                                   
   RAUG   =    1.300    factor for augmentation sphere                                              
   RDEP   =    1.993    radius for radial grids                                                     
   RDEPT  =    1.837    core radius for aug-charge                                                  
                                                                                                    
   Atomic configuration                                                                             
    6 entries                                                                                       
     n  l   j            E        occ.                                                              
     1  0  0.50     -1785.8828   2.0000                                                             
     2  0  0.50      -139.4969   2.0000                                                             
     2  1  1.50       -95.5546   6.0000                                                             
     3  0  0.50       -10.8127   2.0000                                                             
     3  1  0.50        -4.0811   2.0000                                                             
     3  2  1.50        -4.0817   0.0000                                                             
   Description                                                                                      
     l       E           TYP  RCUT    TYP  RCUT                                                     
     0    -10.8127223     23  1.900                                                                 
     0     -7.6451159     23  1.900                                                                 
     1     -4.0811372     23  1.900                                                                 
     1      2.4879257     23  1.900                                                                 
     2     -4.0817478      7  1.900                                                                 
  local pseudopotential read in
  partial core-charges read in
  partial kinetic energy density read in
  atomic valenz-charges read in
  non local Contribution for L=           0  read in
    real space projection operators read in
  non local Contribution for L=           0  read in
    real space projection operators read in
  non local Contribution for L=           1  read in
    real space projection operators read in
  non local Contribution for L=           1  read in
    real space projection operators read in
    PAW grid and wavefunctions read in

   number of l-projection  operators is LMAX  =           4
   number of lm-projection operators is LMMAX =           8

 POTCAR:    PAW_PBE S 06Sep2000                   
   SHA256 =  0fc7481fb0695f01bdc6462160264c5c84044ae9ec85a907d398b887a2bc3132 S/POTCAR              
   COPYR  = (c) Copyright 06Sep2000 Georg Kresse                                                    
   COPYR  = This file is part of the software VASP. Any use, copying, and all other rights are regul
   COPYR  = If you do not have a valid VASP license, you may not use, copy or distribute this file. 
   VRHFIN =S : s2p4                                                                                 
   LEXCH  = PE                                                                                      
   EATOM  =   276.8230 eV,   20.3459 Ry                                                             
                                                                                                    
   TITEL  = PAW_PBE S 06Sep2000                                                                     
   LULTRA =        F    use ultrasoft PP ?                                                          
   IUNSCR =        1    unscreen: 0-lin 1-nonlin 2-no                                               
   RPACOR =    1.500    partial core radius                                                         
   POMASS =   32.066; ZVAL   =    6.000    mass and valenz                                          
   RCORE  =    1.900    outmost cutoff radius                                                       
   RWIGS  =    2.200; RWIGS  =    1.164    wigner-seitz radius (au A)                               
   ENMAX  =  258.689; ENMIN  =  194.016 eV                                                          
   ICORE  =        2    local potential                                                             
   LCOR   =        T    correct aug charges                                                         
   LPAW   =        T    paw PP                                                                      
   EAUG   =  335.092                                                                                
   DEXC   =    0.000                                                                                
   RMAX   =    1.942    core radius for proj-oper                                                   
   RAUG   =    1.300    factor for augmentation sphere                                              
   RDEP   =    1.954    radius for radial grids                                                     
   RDEPT  =    1.744    core radius for aug-charge                                                  
                                                                                                    
   Atomic configuration                                                                             
    6 entries                                                                                       
     n  l   j            E        occ.                                                              
     1  0  0.50     -2405.8406   2.0000                                                             
     2  0  0.50      -211.7007   2.0000                                                             
     2  1  1.50      -156.4958   6.0000                                                             
     3  0  0.50       -17.2562   2.0000                                                             
     3  1  0.50        -7.0085   4.0000                                                             
     3  2  1.50        -6.8029   0.0000                                                             
   Description                                                                                      
     l       E           TYP  RCUT    TYP  RCUT                                                     
     0    -17.2561641     23  1.900                                                                 
     0    -15.8743224     23  1.900                                                                 
     1     -7.0085400     23  1.900                                                                 
     1     -2.7779785     23  1.900                                                                 
     2     -6.8029130     23  1.900                                                                 
  local pseudopotential read in
  partial core-charges read in
  partial kinetic energy density read in
  atomic valenz-charges read in
  non local Contribution for L=           0  read in
    real space projection operators read in
  non local Contribution for L=           0  read in
    real space projection operators read in
  non local Contribution for L=           1  read in
    real space projection operators read in
  non local Contribution for L=           1  read in
    real space projection operators read in
    PAW grid and wavefunctions read in

   number of l-projection  operators is LMAX  =           4
   number of lm-projection operators is LMMAX =           8

 -----------------------------------------------------------------------------
|                                                                             |
|               ----> ADVICE to this user running VASP <----                  |
|                                                                             |
|     You have a (more or less) 'small supercell' and for smaller cells       |
|     it is recommended to use the reciprocal-space projection scheme!        |
|     The real-space optimization is not efficient for small cells and it     |
|     is also less accurate ...                                               |
|     Therefore, set LREAL=.FALSE. in the INCAR file.                         |
|                                                                             |
 -----------------------------------------------------------------------------

 Optimization of the real space projectors (new method)

 maximal supplied QI-value         = 17.01
 optimisation between [QCUT,QGAM] = [ 10.20, 20.41] = [ 29.16,116.64] Ry 
 Optimized for a Real-space Cutoff    1.30 Angstroem

   l    n(q)    QCUT    max X(q) W(low)/X(q) W(high)/X(q)  e(spline) 
   1      7    10.205     4.940    0.23E-03    0.84E-03    0.11E-06
   1      7    10.205     6.253    0.40E-03    0.13E-02    0.18E-06
   0      8    10.205    37.438    0.23E-03    0.37E-03    0.42E-07
   0      8    10.205     9.606    0.16E-03    0.26E-03    0.31E-07
 Optimization of the real space projectors (new method)

 maximal supplied QI-value         = 19.84
 optimisation between [QCUT,QGAM] = [ 10.12, 20.44] = [ 28.68,116.96] Ry 
 Optimized for a Real-space Cutoff    1.23 Angstroem

   l    n(q)    QCUT    max X(q) W(low)/X(q) W(high)/X(q)  e(spline) 
   0      7    10.119   159.560    0.56E-04    0.22E-03    0.45E-07
   0      7    10.119   115.863    0.56E-04    0.21E-03    0.45E-07
   1      7    10.119    88.339    0.34E-03    0.49E-03    0.11E-06
   1      7    10.119    48.592    0.33E-03    0.48E-03    0.11E-06
 Optimization of the real space projectors (new method)

 maximal supplied QI-value         = 19.84
 optimisation between [QCUT,QGAM] = [ 10.12, 20.44] = [ 28.68,116.96] Ry 
 Optimized for a Real-space Cutoff    1.23 Angstroem

   l    n(q)    QCUT    max X(q) W(low)/X(q) W(high)/X(q)  e(spline) 
   0      7    10.119   187.594    0.62E-04    0.28E-03    0.52E-07
   0      7    10.119   164.243    0.61E-04    0.28E-03    0.52E-07
   1      7    10.119    67.533    0.45E-03    0.63E-03    0.13E-06
   1      7    10.119    50.729    0.44E-03    0.62E-03    0.12E-06
  PAW_PBE Na_pv 19Sep2006               :
 energy of atom  1       EATOM= -766.0439
 kinetic energy error for atom=    0.0103 (will be added to EATOM!!)
  PAW_PBE Si 05Jan2001                  :
 energy of atom  2       EATOM= -103.0669
 kinetic energy error for atom=    0.0012 (will be added to EATOM!!)
  PAW_PBE S 06Sep2000                   :
 energy of atom  3       EATOM= -276.8230
 kinetic energy error for atom=    0.0046 (will be added to EATOM!!)


 POSCAR: Na1 Si1 S2
  positions in direct lattice
  No initial velocities read in
 exchange correlation table for  LEXCH =        8
   RHO(1)=    0.500       N(1)  =     2000
   RHO(2)=  100.500       N(2)  =     4000



--------------------------------------------------------------------------------------------------------


 ion  position               nearest neighbor table
   1  0.165  0.165  0.165-
   2  0.998  0.998  0.998-   3 2.46   3 2.46   3 2.46   4 2.46   4 2.46   4 2.46
   3  0.597  0.597  0.597-   2 2.46   2 2.46   2 2.46
   4  0.399  0.399  0.399-   2 2.46   2 2.46   2 2.46

  LATTYP: Found a trigonal (rhomboedric) cell.
 ALAT       =     7.0429946276
 COS(alpha) =     0.8734742648
  
  Lattice vectors:
  
 A1 = (   1.7714618102,   1.0227539529,   6.7394117497)
 A2 = (  -1.7714618102,   1.0227539529,   6.7394117497)
 A3 = (  -0.0000000000,  -2.0455079059,   6.7394117497)


Analysis of symmetry for initial positions (statically):
=====================================================================
 Subroutine PRICEL returns:
 Original cell was already a primitive cell.
 

 Routine SETGRP: Setting up the symmetry group for a 
 trigonal (rhombohedral) supercell.


 Subroutine GETGRP returns: Found  6 space group operations
 (whereof  6 operations were pure point group operations)
 out of a pool of 12 trial point group operations.


The static configuration has the point symmetry C_3v.


Analysis of symmetry for dynamics (positions and initial velocities):
=====================================================================
 Subroutine PRICEL returns:
 Original cell was already a primitive cell.
 

 Routine SETGRP: Setting up the symmetry group for a 
 trigonal (rhombohedral) supercell.


 Subroutine GETGRP returns: Found  6 space group operations
 (whereof  6 operations were pure point group operations)
 out of a pool of 12 trial point group operations.


The dynamic configuration has the point symmetry C_3v.


 Subroutine INISYM returns: Found  6 space group operations
 (whereof  6 operations are pure point group operations),
 and found     1 'primitive' translations


----------------------------------------------------------------------------------------

                                     Primitive cell                                     

  volume of cell :      73.2616

  direct lattice vectors                    reciprocal lattice vectors
     1.771461810  1.022753953  6.739411750     0.282252768  0.162958712  0.049460301
    -1.771461810  1.022753953  6.739411750    -0.282252768  0.162958712  0.049460301
    -0.000000000 -2.045507906  6.739411750    -0.000000000 -0.325917424  0.049460301

  length of vectors
     7.042994628  7.042994628  7.042994628     0.329649038  0.329649038  0.329649038

  position of ions in fractional coordinates (direct lattice)
     0.165184574  0.165184574  0.165183756
     0.998145828  0.998145828  0.998140922
     0.597252630  0.597252630  0.597249708
     0.399420703  0.399420703  0.399418728

  ion indices of the primitive-cell ions
   primitive index   ion index
                 1           1
                 2           2
                 3           3
                 4           4

----------------------------------------------------------------------------------------



 KPOINTS: pymatgen with grid density = 500 / numbe

Automatic generation of k-mesh.
 Grid dimensions read from file:
 generate k-points for:    5    5    4

 Generating k-lattice:

  Cartesian coordinates                     Fractional coordinates (reciprocal lattice)
     0.056450554  0.032591742  0.009892060     0.200000000 -0.000000000 -0.000000000
    -0.056450554  0.032591742  0.009892060    -0.000000000  0.200000000 -0.000000000
    -0.000000000 -0.081479356  0.012365075    -0.000000000 -0.000000000  0.250000000

  Length of vectors
     0.065929808  0.065929808  0.082412260

  Shift w.r.t. Gamma in fractional coordinates (k-lattice)
     0.000000000  0.000000000  0.000000000

 -----------------------------------------------------------------------------
|                                                                             |
|           W    W    AA    RRRRR   N    N  II  N    N   GGGG   !!!           |
|           W    W   A  A   R    R  NN   N  II  NN   N  G    G  !!!           |
|           W    W  A    A  R    R  N N  N  II  N N  N  G       !!!           |
|           W WW W  AAAAAA  RRRRR   N  N N  II  N  N N  G  GGG   !            |
|           WW  WW  A    A  R   R   N   NN  II  N   NN  G    G                |
|           W    W  A    A  R    R  N    N  II  N    N   GGGG   !!!           |
|                                                                             |
|     Your reciprocal lattice and k-lattice belong to different lattice       |
|     classes:                                                                |
|                                                                             |
|        The reciprocal lattice is rhombohedral (trigonal),                   |
|        whereas your k-lattice is base-centered monoclinic.                  |
|                                                                             |
|     Results are often still useful ...                                      |
|                                                                             |
 -----------------------------------------------------------------------------

 WARNING: IBZKPT: internal override: KBLOWUP is changed to .FALSE.
      ... skipping the blow-up phase ...

 
 Subroutine IBZKPT returns following result:
 ===========================================
 
 Found     33 irreducible k-points:
 
 Following reciprocal coordinates:
            Coordinates               Weight
  0.000000  0.000000  0.000000      1.000000
  0.200000  0.000000  0.000000      4.000000
  0.400000  0.000000  0.000000      4.000000
  0.200000  0.200000  0.000000      2.000000
  0.400000  0.200000  0.000000      4.000000
 -0.400000  0.200000  0.000000      4.000000
 -0.200000  0.200000  0.000000      2.000000
  0.400000  0.400000  0.000000      2.000000
 -0.400000  0.400000  0.000000      2.000000
  0.000000  0.000000  0.250000      2.000000
  0.200000  0.000000  0.250000      4.000000
  0.400000  0.000000  0.250000      4.000000
 -0.400000  0.000000  0.250000      4.000000
 -0.200000  0.000000  0.250000      4.000000
  0.200000  0.200000  0.250000      2.000000
  0.400000  0.200000  0.250000      4.000000
 -0.400000  0.200000  0.250000      4.000000
 -0.200000  0.200000  0.250000      4.000000
  0.400000  0.400000  0.250000      2.000000
 -0.400000  0.400000  0.250000      4.000000
 -0.200000  0.400000  0.250000      4.000000
 -0.400000 -0.400000  0.250000      2.000000
 -0.200000 -0.400000  0.250000      4.000000
 -0.200000 -0.200000  0.250000      2.000000
  0.000000  0.000000  0.500000      1.000000
  0.200000  0.000000  0.500000      4.000000
  0.400000  0.000000  0.500000      4.000000
  0.200000  0.200000  0.500000      2.000000
  0.400000  0.200000  0.500000      4.000000
 -0.400000  0.200000  0.500000      4.000000
 -0.200000  0.200000  0.500000      2.000000
  0.400000  0.400000  0.500000      2.000000
 -0.400000  0.400000  0.500000      2.000000
 
 Following cartesian coordinates:
            Coordinates               Weight
  0.000000 -0.000000  0.000000      1.000000
  0.056451  0.032592  0.009892      4.000000
  0.112901  0.065183  0.019784      4.000000
  0.000000  0.065183  0.019784      2.000000
  0.056451  0.097775  0.029676      4.000000
 -0.169352 -0.032592 -0.009892      4.000000
 -0.112901 -0.000000  0.000000      2.000000
 -0.000000  0.130367  0.039568      2.000000
 -0.225802 -0.000000  0.000000      2.000000
  0.000000 -0.081479  0.012365      2.000000
  0.056451 -0.048888  0.022257      4.000000
  0.112901 -0.016296  0.032149      4.000000
 -0.112901 -0.146663 -0.007419      4.000000
 -0.056451 -0.114071  0.002473      4.000000
  0.000000 -0.016296  0.032149      2.000000
  0.056451  0.016296  0.042041      4.000000
 -0.169352 -0.114071  0.002473      4.000000
 -0.112901 -0.081479  0.012365      4.000000
 -0.000000  0.048888  0.051933      2.000000
 -0.225802 -0.081479  0.012365      4.000000
 -0.169352 -0.048888  0.022257      4.000000
  0.000000 -0.211846 -0.027203      2.000000
  0.056451 -0.179255 -0.017311      4.000000
  0.000000 -0.146663 -0.007419      2.000000
  0.000000 -0.162959  0.024730      1.000000
  0.056451 -0.130367  0.034622      4.000000
  0.112901 -0.097775  0.044514      4.000000
  0.000000 -0.097775  0.044514      2.000000
  0.056451 -0.065183  0.054406      4.000000
 -0.169352 -0.195550  0.014838      4.000000
 -0.112901 -0.162959  0.024730      2.000000
 -0.000000 -0.032592  0.064298      2.000000
 -0.225802 -0.162959  0.024730      2.000000
 


--------------------------------------------------------------------------------------------------------




 Dimension of arrays:
   k-points           NKPTS =     33   k-points in BZ     NKDIM =     33   number of bands    NBANDS=     32
   number of dos      NEDOS =    301   number of ions     NIONS =      4
   non local maximal  LDIM  =      4   non local SUM 2l+1 LMDIM =      8
   total plane-waves  NPLWV =  46656
   max r-space proj   IRMAX =   5928   max aug-charges    IRDMAX=  21490
   dimension x,y,z NGX =    36 NGY =   36 NGZ =   36
   dimension x,y,z NGXF=    72 NGYF=   72 NGZF=   72
   support grid    NGXF=    72 NGYF=   72 NGZF=   72
   ions per type =               1   1   2
   NGX,Y,Z   is equivalent  to a cutoff of   8.50,  8.50,  8.50 a.u.
   NGXF,Y,Z  is equivalent  to a cutoff of  17.00, 17.00, 17.00 a.u.

 SYSTEM =  unknown system                          
 POSCAR =  Na1 Si1 S2                              

 Startparameter for this run:
   NWRITE =      2    write-flag & timer
   PREC   = normal    normal or accurate (medium, high low for compatibility)
   ISTART =      0    job   : 0-new  1-cont  2-samecut
   ICHARG =      2    charge: 1-file 2-atom 10-const
   ISPIN  =      1    spin polarized calculation?
   LNONCOLLINEAR =      F non collinear calculations
   LSORBIT =      F    spin-orbit coupling
   INIWAV =      1    electr: 0-lowe 1-rand  2-diag
   LASPH  =      F    aspherical Exc in radial PAW
 Electronic Relaxation 1
   ENCUT  =  400.0 eV  29.40 Ry    5.42 a.u.  11.49 11.49 11.49*2*pi/ulx,y,z
   ENINI  =  400.0     initial cutoff
   ENAUG  =  368.1 eV  augmentation charge cutoff
   NELM   =     60;   NELMIN=  2; NELMDL= -5     # of ELM steps 
   EDIFF  = 0.1E-04   stopping-criterion for ELM
   LREAL  =      T    real-space projection
   NLSPLINE    = F    spline interpolate recip. space projectors
   LCOMPAT=      F    compatible to vasp.4.4
   GGA_COMPAT  = T    GGA compatible to vasp.4.4-vasp.4.6
   LMAXPAW     = -100 max onsite density
   LMAXMIX     =    2 max onsite mixed and CHGCAR
   VOSKOWN=      0    Vosko Wilk Nusair interpolation
   ROPT   =   -0.00050  -0.00050  -0.00050
 Ionic relaxation
   EDIFFG = -.5E-01   stopping-criterion for IOM
   NSW    =    100    number of steps for IOM
   NBLOCK =      1;   KBLOCK =    100    inner block; outer block 
   IBRION =      2    ionic relax: 0-MD 1-quasi-New 2-CG
   NFREE  =      1    steps in history (QN), initial steepest desc. (CG)
   ISIF   =      3    stress and relaxation
   IWAVPR =     11    prediction:  0-non 1-charg 2-wave 3-comb
   ISYM   =      2    0-nonsym 1-usesym 2-fastsym
   LCORR  =      T    Harris-Foulkes like correction to forces

   POTIM  = 0.5000    time-step for ionic-motion
   TEIN   =    0.0    initial temperature
   TEBEG  =    0.0;   TEEND  =   0.0 temperature during run
   SMASS  =  -3.00    Nose mass-parameter (am)
   estimated Nose-frequenzy (Omega)   =  0.10E-29 period in steps = 0.13E+47 mass=  -0.113E-26a.u.
   SCALEE = 1.0000    scale energy and forces
   NPACO  =    256;   APACO  = 10.0  distance and # of slots for P.C.
   PSTRESS=    0.0 pullay stress

  Mass of Ions in am
   POMASS =  22.99 28.09 32.07
  Ionic Valenz
   ZVAL   =   7.00  4.00  6.00
  Atomic Wigner-Seitz radii
   RWIGS  =  -1.00 -1.00 -1.00
  virtual crystal weights 
   VCA    =   1.00  1.00  1.00
   NELECT =      23.0000    total number of electrons
   NUPDOWN=      -1.0000    fix difference up-down

 DOS related values:
   EMIN   =  10.00;   EMAX   =-10.00  energy-range for DOS
   EFERMI =   0.00
   ISMEAR =     0;   SIGMA  =   0.05  broadening in eV -4-tet -1-fermi 0-gaus

 Electronic relaxation 2 (details)
   IALGO  =     38    algorithm
   LDIAG  =      T    sub-space diagonalisation (order eigenvalues)
   LSUBROT=      F    optimize rotation matrix (better conditioning)
   TURBO    =      0    0=normal 1=particle mesh
   IRESTART =      0    0=no restart 2=restart with 2 vectors
   NREBOOT  =      0    no. of reboots
   NMIN     =      0    reboot dimension
   EREF     =   0.00    reference energy to select bands
   IMIX   =      4    mixing-type and parameters
     AMIX     =   0.40;   BMIX     =  1.00
     AMIX_MAG =   1.60;   BMIX_MAG =  1.00
     AMIN     =   0.10
     WC   =   100.;   INIMIX=   1;  MIXPRE=   1;  MAXMIX= -45

 Intra band minimization:
   WEIMIN = 0.0010     energy-eigenvalue tresh-hold
   EBREAK =  0.78E-07  absolut break condition
   DEPER  =   0.30     relativ break condition  

   TIME   =   0.40     timestep for ELM

  volume/ion in A,a.u.               =      18.32       123.60
  Fermi-wavevector in a.u.,A,eV,Ry     =   1.112650  2.102604 16.843887  1.237991
  Thomas-Fermi vector in A             =   2.249227

 Write flags
   LWAVE        =      F    write WAVECAR
   LDOWNSAMPLE  =      F    k-point downsampling of WAVECAR
   LCHARG       =      F    write CHGCAR
   LVTOT        =      F    write LOCPOT, total local potential
   LVHAR        =      F    write LOCPOT, Hartree potential only
   LELF         =      F    write electronic localiz. function (ELF)
   LORBIT       =      0    0 simple, 1 ext, 2 COOP (PROOUT), +10 PAW based schemes


 Dipole corrections
   LMONO  =      F    monopole corrections only (constant potential shift)
   LDIPOL =      F    correct potential (dipole corrections)
   IDIPOL =      0    1-x, 2-y, 3-z, 4-all directions 
   EPSILON=  1.0000000 bulk dielectric constant

 Exchange correlation treatment:
   GGA     =    --    GGA type
   LEXCH   =     8    internal setting for exchange type
   LIBXC   =     F    Libxc                    
   VOSKOWN =     0    Vosko Wilk Nusair interpolation
   LHFCALC =     F    Hartree Fock is set to
   LHFONE  =     F    Hartree Fock one center treatment
   AEXX    =    0.0000 exact exchange contribution

 Linear response parameters
   LEPSILON=     F    determine dielectric tensor
   LRPA    =     F    only Hartree local field effects (RPA)
   LNABLA  =     F    use nabla operator in PAW spheres
   LVEL    =     F    velocity operator in full k-point grid
   CSHIFT  =0.1000    complex shift for real part using Kramers Kronig
   OMEGAMAX=  -1.0    maximum frequency
   DEG_THRESHOLD= 0.2000000E-02 threshold for treating states as degnerate
   RTIME   =   -0.100 relaxation time in fs
  (WPLASMAI=    0.000 imaginary part of plasma frequency in eV, 0.658/RTIME)
   DFIELD  = 0.0000000 0.0000000 0.0000000 field for delta impulse in time

  Optional k-point grid parameters
   LKPOINTS_OPT  =     F    use optional k-point grid
   KPOINTS_OPT_MODE=     1    mode for optional k-point grid

 Orbital magnetization related:
   ORBITALMAG=     F  switch on orbital magnetization
   LCHIMAG   =     F  perturbation theory with respect to B field
   DQ        =  0.001000  dq finite difference perturbation B field
   LLRAUG    =     F  two centre corrections for induced B field



--------------------------------------------------------------------------------------------------------


 conjugate gradient relaxation of ions
 charge density and potential will be updated during run
 non-spin polarized calculation
 Variant of blocked Davidson
 Davidson routine will perform the subspace rotation
 perform sub-space diagonalisation
    after iterative eigenvector-optimisation
 modified Broyden-mixing scheme, WC =      100.0
 initial mixing is a Kerker type mixing with AMIX =  0.4000 and BMIX =      1.0000
 Hartree-type preconditioning will be used
 using additional bands           20
 real space projection scheme for non local part
 use partial core corrections
 calculate Harris-corrections to forces   (improved forces if not selfconsistent)
 use gradient corrections 
 use of overlap-Matrix (Vanderbilt PP)
 Gauss-broadening in eV      SIGMA  =   0.05


--------------------------------------------------------------------------------------------------------


  energy-cutoff  :      400.00
  volume of cell :       73.26
      direct lattice vectors                 reciprocal lattice vectors
     1.771461810  1.022753953  6.739411750     0.282252768  0.162958712  0.049460301
    -1.771461810  1.022753953  6.739411750    -0.282252768  0.162958712  0.049460301
    -0.000000000 -2.045507906  6.739411750    -0.000000000 -0.325917424  0.049460301

  length of vectors
     7.042994628  7.042994628  7.042994628     0.329649038  0.329649038  0.329649038



 k-points in units of 2pi/SCALE and weight: pymatgen with grid density = 500 / numbe
  -0.00000000 -0.00000000  0.00000000       0.010
   0.05645055  0.03259174  0.00989206       0.040
   0.11290111  0.06518348  0.01978412       0.040
  -0.00000000  0.06518348  0.01978412       0.020
   0.05645055  0.09777523  0.02967618       0.040
  -0.16935166 -0.03259174 -0.00989206       0.040
  -0.11290111 -0.00000000  0.00000000       0.020
  -0.00000000  0.13036697  0.03956824       0.020
  -0.22580221 -0.00000000  0.00000000       0.020
   0.00000000 -0.08147936  0.01236508       0.020
   0.05645055 -0.04888761  0.02225714       0.040
   0.11290111 -0.01629587  0.03214920       0.040
  -0.11290111 -0.14666284 -0.00741905       0.040
  -0.05645055 -0.11407110  0.00247302       0.040
  -0.00000000 -0.01629587  0.03214920       0.020
   0.05645055  0.01629587  0.04204126       0.040
  -0.16935166 -0.11407110  0.00247302       0.040
  -0.11290111 -0.08147936  0.01236508       0.040
   0.00000000  0.04888761  0.05193332       0.020
  -0.22580221 -0.08147936  0.01236508       0.040
  -0.16935166 -0.04888761  0.02225714       0.040
   0.00000000 -0.21184633 -0.02720317       0.020
   0.05645055 -0.17925458 -0.01731111       0.040
   0.00000000 -0.14666284 -0.00741905       0.020
   0.00000000 -0.16295871  0.02473015       0.010
   0.05645055 -0.13036697  0.03462221       0.040
   0.11290111 -0.09777523  0.04451427       0.040
   0.00000000 -0.09777523  0.04451427       0.020
   0.05645055 -0.06518348  0.05440633       0.040
  -0.16935166 -0.19555045  0.01483809       0.040
  -0.11290111 -0.16295871  0.02473015       0.020
   0.00000000 -0.03259174  0.06429839       0.020
  -0.22580221 -0.16295871  0.02473015       0.020

 k-points in reciprocal lattice and weights: pymatgen with grid density = 500 / numbe
   0.00000000  0.00000000  0.00000000       0.010
   0.20000000  0.00000000  0.00000000       0.040
   0.40000000  0.00000000  0.00000000       0.040
   0.20000000  0.20000000  0.00000000       0.020
   0.40000000  0.20000000  0.00000000       0.040
  -0.40000000  0.20000000  0.00000000       0.040
  -0.20000000  0.20000000  0.00000000       0.020
   0.40000000  0.40000000  0.00000000       0.020
  -0.40000000  0.40000000  0.00000000       0.020
   0.00000000  0.00000000  0.25000000       0.020
   0.20000000  0.00000000  0.25000000       0.040
   0.40000000  0.00000000  0.25000000       0.040
  -0.40000000  0.00000000  0.25000000       0.040
  -0.20000000  0.00000000  0.25000000       0.040
   0.20000000  0.20000000  0.25000000       0.020
   0.40000000  0.20000000  0.25000000       0.040
  -0.40000000  0.20000000  0.25000000       0.040
  -0.20000000  0.20000000  0.25000000       0.040
   0.40000000  0.40000000  0.25000000       0.020
  -0.40000000  0.40000000  0.25000000       0.040
  -0.20000000  0.40000000  0.25000000       0.040
  -0.40000000 -0.40000000  0.25000000       0.020
  -0.20000000 -0.40000000  0.25000000       0.040
  -0.20000000 -0.20000000  0.25000000       0.020
   0.00000000  0.00000000  0.50000000       0.010
   0.20000000  0.00000000  0.50000000       0.040
   0.40000000  0.00000000  0.50000000       0.040
   0.20000000  0.20000000  0.50000000       0.020
   0.40000000  0.20000000  0.50000000       0.040
  -0.40000000  0.20000000  0.50000000       0.040
  -0.20000000  0.20000000  0.50000000       0.020
   0.40000000  0.40000000  0.50000000       0.020
  -0.40000000  0.40000000  0.50000000       0.020

 position of ions in fractional coordinates (direct lattice) 
   0.16518457  0.16518457  0.16518376
   0.99814583  0.99814583  0.99814092
   0.59725263  0.59725263  0.59724971
   0.39942070  0.39942070  0.39941873

 position of ions in cartesian coordinates  (Angst):
   0.00000000  0.00000167  3.33973506
   0.00000000  0.00001004 20.18071410
   0.00000000  0.00000598 12.07537448
  -0.00000000  0.00000404  8.07556842



--------------------------------------------------------------------------------------------------------


 k-point   1 :   0.0000 0.0000 0.0000  plane waves:    1311
 k-point   2 :   0.2000 0.0000 0.0000  plane waves:    1326
 k-point   3 :   0.4000 0.0000 0.0000  plane waves:    1335
 k-point   4 :   0.2000 0.2000 0.0000  plane waves:    1333
 k-point   5 :   0.4000 0.2000 0.0000  plane waves:    1327
 k-point   6 :  -0.4000 0.2000 0.0000  plane waves:    1328
 k-point   7 :  -0.2000 0.2000 0.0000  plane waves:    1332
 k-point   8 :   0.4000 0.4000 0.0000  plane waves:    1341
 k-point   9 :  -0.4000 0.4000 0.0000  plane waves:    1320
 k-point  10 :   0.0000 0.0000 0.2500  plane waves:    1328
 k-point  11 :   0.2000 0.0000 0.2500  plane waves:    1332
 k-point  12 :   0.4000 0.0000 0.2500  plane waves:    1335
 k-point  13 :  -0.4000 0.0000 0.2500  plane waves:    1333
 k-point  14 :  -0.2000 0.0000 0.2500  plane waves:    1336
 k-point  15 :   0.2000 0.2000 0.2500  plane waves:    1328
 k-point  16 :   0.4000 0.2000 0.2500  plane waves:    1330
 k-point  17 :  -0.4000 0.2000 0.2500  plane waves:    1336
 k-point  18 :  -0.2000 0.2000 0.2500  plane waves:    1341
 k-point  19 :   0.4000 0.4000 0.2500  plane waves:    1325
 k-point  20 :  -0.4000 0.4000 0.2500  plane waves:    1324
 k-point  21 :  -0.2000 0.4000 0.2500  plane waves:    1332
 k-point  22 :  -0.4000-0.4000 0.2500  plane waves:    1331
 k-point  23 :  -0.2000-0.4000 0.2500  plane waves:    1326
 k-point  24 :  -0.2000-0.2000 0.2500  plane waves:    1338
 k-point  25 :   0.0000 0.0000 0.5000  plane waves:    1350
 k-point  26 :   0.2000 0.0000 0.5000  plane waves:    1333
 k-point  27 :   0.4000 0.0000 0.5000  plane waves:    1332
 k-point  28 :   0.2000 0.2000 0.5000  plane waves:    1331
 k-point  29 :   0.4000 0.2000 0.5000  plane waves:    1328
 k-point  30 :  -0.4000 0.2000 0.5000  plane waves:    1332
 k-point  31 :  -0.2000 0.2000 0.5000  plane waves:    1324
 k-point  32 :   0.4000 0.4000 0.5000  plane waves:    1328
 k-point  33 :  -0.4000 0.4000 0.5000  plane waves:    1320

 maximum and minimum number of plane-waves per node :      1350     1311

 maximum number of plane-waves:      1350
 maximum index in each direction: 
   IXMAX=   11   IYMAX=   11   IZMAX=   11
   IXMIN=  -11   IYMIN=  -11   IZMIN=  -11


 serial   3D FFT for wavefunctions
 parallel 3D FFT for charge:
    minimum data exchange during FFTs selected (reduces bandwidth)


 total amount of memory used by VASP MPI-rank0    36174. kBytes
=======================================================================

   base      :      30000. kBytes
   nonlr-proj:       1808. kBytes
   fftplans  :        708. kBytes
   grid      :       2903. kBytes
   one-center:         12. kBytes
   wavefun   :        743. kBytes

     INWAV:  cpu time      0.0000: real time      0.0007
 Broyden mixing: mesh for mixing (old mesh)
   NGX = 23   NGY = 23   NGZ = 23
  (NGX  = 72   NGY  = 72   NGZ  = 72)
  gives a total of  12167 points

 initial charge density was supplied:
 charge density of overlapping atoms calculated
 number of electron      23.0000000 magnetization 
 keeping initial charge density in first step


--------------------------------------------------------------------------------------------------------


 Maximum index for non-local projection operator         5696
 Maximum index for augmentation-charges         1235 (set IRDMAX)


--------------------------------------------------------------------------------------------------------


 First call to EWALD:  gamma=   0.424
 Maximum number of real-space cells 4x 4x 4
 Maximum number of reciprocal cells 4x 4x 4

    FEWALD:  cpu time      0.0007: real time      0.0008


--------------------------------------- Iteration      1(   1)  ---------------------------------------


    POTLOK:  cpu time      0.0137: real time      0.0140
    SETDIJ:  cpu time      0.0018: real time      0.0020
     EDDAV:  cpu time      0.7715: real time      0.7725
       DOS:  cpu time      0.0007: real time      0.0009
    --------------------------------------------
      LOOP:  cpu time      0.7878: real time      0.7894

 eigenvalue-minimisations  :  2112
 total energy-change (2. order) : 0.3235942E+02  (-0.1062328E+04)
 number of electron      23.0000000 magnetization 
 augmentation part       23.0000000 magnetization 

 Free energy of the ion-electron system (eV)
  ---------------------------------------------------
  alpha Z        PSCENC =        32.11274449
  Ewald energy   TEWEN  =     -1048.06306734
  -Hartree energ DENC   =      -271.86740563
  -exchange      EXHF   =         0.00000000
  -V(xc)+E(xc)   XCENC  =        40.57055441
  PAW double counting   =      1025.43992223    -1090.03883641
  entropy T*S    EENTRO =        -0.00168437
  eigenvalues    EBANDS =       -78.52893759
  atomic energy  EATOM  =      1422.73612946
  Solvation  Ediel_sol  =         0.00000000
  ---------------------------------------------------
  free energy    TOTEN  =        32.35941926 eV

  energy without entropy =       32.36110363  energy(sigma->0) =       32.36026144


--------------------------------------------------------------------------------------------------------




--------------------------------------- Iteration      1(   2)  ---------------------------------------


     EDDAV:  cpu time      1.3075: real time      1.3087
       DOS:  cpu time      0.0004: real time      0.0006
    --------------------------------------------
      LOOP:  cpu time      1.3079: real time      1.3093

 eigenvalue-minimisations  :  3072
 total energy-change (2. order) :-0.4944077E+02  (-0.4931841E+02)
 number of electron      23.0000000 magnetization 
 augmentation part       23.0000000 magnetization 

 Free energy of the ion-electron system (eV)
  ---------------------------------------------------
  alpha Z        PSCENC =        32.11274449
  Ewald energy   TEWEN  =     -1048.06306734
  -Hartree energ DENC   =      -271.86740563
  -exchange      EXHF   =         0.00000000
  -V(xc)+E(xc)   XCENC  =        40.57055441
  PAW double counting   =      1025.43992223    -1090.03883641
  entropy T*S    EENTRO =        -0.00233889
  eigenvalues    EBANDS =      -127.96905568
  atomic energy  EATOM  =      1422.73612946
  Solvation  Ediel_sol  =         0.00000000
  ---------------------------------------------------
  free energy    TOTEN  =       -17.08135335 eV

  energy without entropy =      -17.07901446  energy(sigma->0) =      -17.08018391


--------------------------------------------------------------------------------------------------------




--------------------------------------- Iteration      1(   3)  ---------------------------------------


     EDDAV:  cpu time      0.8962: real time      0.8967
       DOS:  cpu time      0.0003: real time      0.0004
    --------------------------------------------
      LOOP:  cpu time      0.8965: real time      0.8971

 eigenvalue-minimisations  :  2304
 total energy-change (2. order) :-0.5701135E+00  (-0.5700009E+00)
 number of electron      23.0000000 magnetization 
 augmentation part       23.0000000 magnetization 

 Free energy of the ion-electron system (eV)
  ---------------------------------------------------
  alpha Z        PSCENC =        32.11274449
  Ewald energy   TEWEN  =     -1048.06306734
  -Hartree energ DENC   =      -271.86740563
  -exchange      EXHF   =         0.00000000
  -V(xc)+E(xc)   XCENC  =        40.57055441
  PAW double counting   =      1025.43992223    -1090.03883641
  entropy T*S    EENTRO =        -0.00227539
  eigenvalues    EBANDS =      -128.53923270
  atomic energy  EATOM  =      1422.73612946
  Solvation  Ediel_sol  =         0.00000000
  ---------------------------------------------------
  free energy    TOTEN  =       -17.65146688 eV

  energy without entropy =      -17.64919148  energy(sigma->0) =      -17.65032918


--------------------------------------------------------------------------------------------------------




--------------------------------------- Iteration      1(   4)  ---------------------------------------


     EDDAV:  cpu time      2.0704: real time      2.0737
       DOS:  cpu time      0.0005: real time      0.0006
    --------------------------------------------
      LOOP:  cpu time      2.0709: real time      2.0744

 eigenvalue-minimisations  :  4000
 total energy-change (2. order) :-0.1659734E-02  (-0.1659730E-02)
 number of electron      23.0000000 magnetization 
 augmentation part       23.0000000 magnetization 

 Free energy of the ion-electron system (eV)
  ---------------------------------------------------
  alpha Z        PSCENC =        32.11274449
  Ewald energy   TEWEN  =     -1048.06306734
  -Hartree energ DENC   =      -271.86740563
  -exchange      EXHF   =         0.00000000
  -V(xc)+E(xc)   XCENC  =        40.57055441
  PAW double counting   =      1025.43992223    -1090.03883641
  entropy T*S    EENTRO =        -0.00227260
  eigenvalues    EBANDS =      -128.54089523
  atomic energy  EATOM  =      1422.73612946
  Solvation  Ediel_sol  =         0.00000000
  ---------------------------------------------------
  free energy    TOTEN  =       -17.65312661 eV

  energy without entropy =      -17.65085401  energy(sigma->0) =      -17.65199031


--------------------------------------------------------------------------------------------------------




--------------------------------------- Iteration      1(   5)  ---------------------------------------


     EDDAV:  cpu time      0.8879: real time      0.8886
       DOS:  cpu time      0.0004: real time      0.0005
    CHARGE:  cpu time      0.0316: real time      0.0319
    MIXING:  cpu time      0.0008: real time      0.0011
    --------------------------------------------
      LOOP:  cpu time      0.9207: real time      0.9221

 eigenvalue-minimisations  :  2304
 total energy-change (2. order) :-0.1231035E-06  (-0.1226123E-06)
 number of electron      23.0000006 magnetization 
 augmentation part        2.5303326 magnetization 

 Broyden mixing:
  rms(total) = 0.84855E+00    rms(broyden)= 0.84855E+00
  rms(prec ) = 0.96943E+00
  weight for this iteration     100.00

 Free energy of the ion-electron system (eV)
  ---------------------------------------------------
  alpha Z        PSCENC =        32.11274449
  Ewald energy   TEWEN  =     -1048.06306734
  -Hartree energ DENC   =      -271.86740563
  -exchange      EXHF   =         0.00000000
  -V(xc)+E(xc)   XCENC  =        40.57055441
  PAW double counting   =      1025.43992223    -1090.03883641
  entropy T*S    EENTRO =        -0.00227260
  eigenvalues    EBANDS =      -128.54089535
  atomic energy  EATOM  =      1422.73612946
  Solvation  Ediel_sol  =         0.00000000
  ---------------------------------------------------
  free energy    TOTEN  =       -17.65312673 eV

  energy without entropy =      -17.65085413  energy(sigma->0) =      -17.65199043


--------------------------------------------------------------------------------------------------------




--------------------------------------- Iteration      1(   6)  ---------------------------------------


    POTLOK:  cpu time      0.0113: real time      0.0115
    SETDIJ:  cpu time      0.0014: real time      0.0014
     EDDAV:  cpu time      1.4065: real time      1.4075
       DOS:  cpu time      0.0004: real time      0.0005
    CHARGE:  cpu time      0.0305: real time      0.0305
    MIXING:  cpu time      0.0006: real time      0.0006
    --------------------------------------------
      LOOP:  cpu time      1.4507: real time      1.4520

 eigenvalue-minimisations  :  3200
 total energy-change (2. order) : 0.3122795E+00  (-0.1129697E+00)
 number of electron      23.0000006 magnetization 
 augmentation part        2.5665964 magnetization 

 Broyden mixing:
  rms(total) = 0.58555E+00    rms(broyden)= 0.58555E+00
  rms(prec ) = 0.61610E+00
  weight for this iteration     100.00

 eigenvalues of (default mixing * dielectric matrix)
  average eigenvalue GAMMA=   2.6590
  2.6590

 Free energy of the ion-electron system (eV)
  ---------------------------------------------------
  alpha Z        PSCENC =        32.11274449
  Ewald energy   TEWEN  =     -1048.06306734
  -Hartree energ DENC   =      -274.83988792
  -exchange      EXHF   =         0.00000000
  -V(xc)+E(xc)   XCENC  =        40.98695039
  PAW double counting   =      1302.93844765    -1367.60736373
  entropy T*S    EENTRO =        -0.00259795
  eigenvalues    EBANDS =      -125.60220225
  atomic energy  EATOM  =      1422.73612946
  Solvation  Ediel_sol  =         0.00000000
  ---------------------------------------------------
  free energy    TOTEN  =       -17.34084719 eV

  energy without entropy =      -17.33824924  energy(sigma->0) =      -17.33954822


--------------------------------------------------------------------------------------------------------




--------------------------------------- Iteration      1(   7)  ---------------------------------------


    POTLOK:  cpu time      0.0108: real time      0.0110
    SETDIJ:  cpu time      0.0013: real time      0.0013
     EDDAV:  cpu time      1.6694: real time      1.6705
       DOS:  cpu time      0.0004: real time      0.0005
    CHARGE:  cpu time      0.0308: real time      0.0308
    MIXING:  cpu time      0.0006: real time      0.0006
    --------------------------------------------
      LOOP:  cpu time      1.7134: real time      1.7148

 eigenvalue-minimisations  :  3552
 total energy-change (2. order) : 0.2687087E-01  (-0.2269065E-01)
 number of electron      23.0000006 magnetization 
 augmentation part        2.5836446 magnetization 

 Broyden mixing:
  rms(total) = 0.17006E+00    rms(broyden)= 0.17006E+00
  rms(prec ) = 0.18001E+00
  weight for this iteration     100.00

 eigenvalues of (default mixing * dielectric matrix)
  average eigenvalue GAMMA=   1.8071
  1.2614  2.3527

 Free energy of the ion-electron system (eV)
  ---------------------------------------------------
  alpha Z        PSCENC =        32.11274449
  Ewald energy   TEWEN  =     -1048.06306734
  -Hartree energ DENC   =      -276.16218463
  -exchange      EXHF   =         0.00000000
  -V(xc)+E(xc)   XCENC  =        41.32091130
  PAW double counting   =      1762.92911906    -1827.82890929
  entropy T*S    EENTRO =        -0.00221182
  eigenvalues    EBANDS =      -124.35650755
  atomic energy  EATOM  =      1422.73612946
  Solvation  Ediel_sol  =         0.00000000
  ---------------------------------------------------
  free energy    TOTEN  =       -17.31397632 eV

  energy without entropy =      -17.31176450  energy(sigma->0) =      -17.31287041


--------------------------------------------------------------------------------------------------------




--------------------------------------- Iteration      1(   8)  ---------------------------------------


    POTLOK:  cpu time      0.0111: real time      0.0113
    SETDIJ:  cpu time      0.0014: real time      0.0014
     EDDAV:  cpu time      1.3612: real time      1.3619
       DOS:  cpu time      0.0004: real time      0.0006
    CHARGE:  cpu time      0.0302: real time      0.0302
    MIXING:  cpu time      0.0005: real time      0.0005
    --------------------------------------------
      LOOP:  cpu time      1.4047: real time      1.4058

 eigenvalue-minimisations  :  3072
 total energy-change (2. order) : 0.1526114E-03  (-0.1421291E-02)
 number of electron      23.0000006 magnetization 
 augmentation part        2.5817097 magnetization 

 Broyden mixing:
  rms(total) = 0.22028E-01    rms(broyden)= 0.22028E-01
  rms(prec ) = 0.28151E-01
  weight for this iteration     100.00

 eigenvalues of (default mixing * dielectric matrix)
  average eigenvalue GAMMA=   1.7179
  1.1001  2.4389  1.6146

 Free energy of the ion-electron system (eV)
  ---------------------------------------------------
  alpha Z        PSCENC =        32.11274449
  Ewald energy   TEWEN  =     -1048.06306734
  -Hartree energ DENC   =      -275.85746786
  -exchange      EXHF   =         0.00000000
  -V(xc)+E(xc)   XCENC  =        41.38231366
  PAW double counting   =      1931.88604049    -1996.94752331
  entropy T*S    EENTRO =        -0.00210100
  eigenvalues    EBANDS =      -124.56089231
  atomic energy  EATOM  =      1422.73612946
  Solvation  Ediel_sol  =         0.00000000
  ---------------------------------------------------
  free energy    TOTEN  =       -17.31382371 eV

  energy without entropy =      -17.31172270  energy(sigma->0) =      -17.31277320


--------------------------------------------------------------------------------------------------------




--------------------------------------- Iteration      1(   9)  ---------------------------------------


    POTLOK:  cpu time      0.0107: real time      0.0110
    SETDIJ:  cpu time      0.0013: real time      0.0013
     EDDAV:  cpu time      1.4365: real time      1.4375
       DOS:  cpu time      0.0004: real time      0.0006
    CHARGE:  cpu time      0.0303: real time      0.0303
    MIXING:  cpu time      0.0005: real time      0.0005
    --------------------------------------------
      LOOP:  cpu time      1.4798: real time      1.4812

 eigenvalue-minimisations  :  3200
 total energy-change (2. order) :-0.3094778E-03  (-0.2074021E-03)
 number of electron      23.0000006 magnetization 
 augmentation part        2.5799283 magnetization 

 Broyden mixing:
  rms(total) = 0.11218E-01    rms(broyden)= 0.11218E-01
  rms(prec ) = 0.12788E-01
  weight for this iteration     100.00

 eigenvalues of (default mixing * dielectric matrix)
  average eigenvalue GAMMA=   1.7075
  2.1904  2.1904  1.0952  1.3541

 Free energy of the ion-electron system (eV)
  ---------------------------------------------------
  alpha Z        PSCENC =        32.11274449
  Ewald energy   TEWEN  =     -1048.06306734
  -Hartree energ DENC   =      -275.69158533
  -exchange      EXHF   =         0.00000000
  -V(xc)+E(xc)   XCENC  =        41.38426682
  PAW double counting   =      1938.80035301    -2003.90221986
  entropy T*S    EENTRO =        -0.00215791
  eigenvalues    EBANDS =      -124.68859652
  atomic energy  EATOM  =      1422.73612946
  Solvation  Ediel_sol  =         0.00000000
  ---------------------------------------------------
  free energy    TOTEN  =       -17.31413318 eV

  energy without entropy =      -17.31197527  energy(sigma->0) =      -17.31305423


--------------------------------------------------------------------------------------------------------




--------------------------------------- Iteration      1(  10)  ---------------------------------------


    POTLOK:  cpu time      0.0106: real time      0.0108
    SETDIJ:  cpu time      0.0013: real time      0.0013
     EDDAV:  cpu time      1.4276: real time      1.4282
       DOS:  cpu time      0.0004: real time      0.0005
    CHARGE:  cpu time      0.0302: real time      0.0302
    MIXING:  cpu time      0.0005: real time      0.0005
    --------------------------------------------
      LOOP:  cpu time      1.4705: real time      1.4715

 eigenvalue-minimisations  :  3104
 total energy-change (2. order) :-0.1327505E-03  (-0.1227359E-04)
 number of electron      23.0000006 magnetization 
 augmentation part        2.5800021 magnetization 

 Broyden mixing:
  rms(total) = 0.43841E-02    rms(broyden)= 0.43841E-02
  rms(prec ) = 0.59490E-02
  weight for this iteration     100.00

 eigenvalues of (default mixing * dielectric matrix)
  average eigenvalue GAMMA=   1.7570
  2.5805  2.5805  1.1386  1.1386  1.3465

 Free energy of the ion-electron system (eV)
  ---------------------------------------------------
  alpha Z        PSCENC =        32.11274449
  Ewald energy   TEWEN  =     -1048.06306734
  -Hartree energ DENC   =      -275.67643671
  -exchange      EXHF   =         0.00000000
  -V(xc)+E(xc)   XCENC  =        41.38299696
  PAW double counting   =      1919.76953535    -1984.87308035
  entropy T*S    EENTRO =        -0.00215992
  eigenvalues    EBANDS =      -124.70092789
  atomic energy  EATOM  =      1422.73612946
  Solvation  Ediel_sol  =         0.00000000
  ---------------------------------------------------
  free energy    TOTEN  =       -17.31426594 eV

  energy without entropy =      -17.31210602  energy(sigma->0) =      -17.31318598


--------------------------------------------------------------------------------------------------------




--------------------------------------- Iteration      1(  11)  ---------------------------------------


    POTLOK:  cpu time      0.0107: real time      0.0109
    SETDIJ:  cpu time      0.0013: real time      0.0013
     EDDAV:  cpu time      1.6591: real time      1.6604
       DOS:  cpu time      0.0008: real time      0.0010
    CHARGE:  cpu time      0.0305: real time      0.0305
    MIXING:  cpu time      0.0005: real time      0.0005
    --------------------------------------------
      LOOP:  cpu time      1.7030: real time      1.7046

 eigenvalue-minimisations  :  3168
 total energy-change (2. order) :-0.5543665E-04  (-0.8835356E-05)
 number of electron      23.0000006 magnetization 
 augmentation part        2.5800004 magnetization 

 Broyden mixing:
  rms(total) = 0.14013E-02    rms(broyden)= 0.14013E-02
  rms(prec ) = 0.15406E-02
  weight for this iteration     100.00

 eigenvalues of (default mixing * dielectric matrix)
  average eigenvalue GAMMA=   1.7701
  2.7970  2.2238  2.2238  1.0029  1.0667  1.3068

 Free energy of the ion-electron system (eV)
  ---------------------------------------------------
  alpha Z        PSCENC =        32.11274449
  Ewald energy   TEWEN  =     -1048.06306734
  -Hartree energ DENC   =      -275.66491415
  -exchange      EXHF   =         0.00000000
  -V(xc)+E(xc)   XCENC  =        41.38874854
  PAW double counting   =      1922.73441660    -1987.85225080
  entropy T*S    EENTRO =        -0.00216127
  eigenvalues    EBANDS =      -124.70396690
  atomic energy  EATOM  =      1422.73612946
  Solvation  Ediel_sol  =         0.00000000
  ---------------------------------------------------
  free energy    TOTEN  =       -17.31432137 eV

  energy without entropy =      -17.31216010  energy(sigma->0) =      -17.31324074


--------------------------------------------------------------------------------------------------------




--------------------------------------- Iteration      1(  12)  ---------------------------------------


    POTLOK:  cpu time      0.0107: real time      0.0109
    SETDIJ:  cpu time      0.0016: real time      0.0016
     EDDAV:  cpu time      1.5900: real time      1.5910
       DOS:  cpu time      0.0004: real time      0.0005
    --------------------------------------------
      LOOP:  cpu time      1.6027: real time      1.6040

 eigenvalue-minimisations  :  3328
 total energy-change (2. order) :-0.2527885E-05  (-0.2843680E-06)
 number of electron      23.0000006 magnetization 
 augmentation part        2.5800004 magnetization 

 Free energy of the ion-electron system (eV)
  ---------------------------------------------------
  alpha Z        PSCENC =        32.11274449
  Ewald energy   TEWEN  =     -1048.06306734
  -Hartree energ DENC   =      -275.67091941
  -exchange      EXHF   =         0.00000000
  -V(xc)+E(xc)   XCENC  =        41.38926299
  PAW double counting   =      1922.55402123    -1987.67286190
  entropy T*S    EENTRO =        -0.00216109
  eigenvalues    EBANDS =      -124.69747234
  atomic energy  EATOM  =      1422.73612946
  Solvation  Ediel_sol  =         0.00000000
  ---------------------------------------------------
  free energy    TOTEN  =       -17.31432390 eV

  energy without entropy =      -17.31216281  energy(sigma->0) =      -17.31324336


--------------------------------------------------------------------------------------------------------




 average (electrostatic) potential at core
  the test charge radii are     0.9254  0.9892  0.9698
  (the norm of the test charge is              1.0000)
       1 -44.4245       2 -84.9747       3 -86.4077       4 -86.3911



 E-fermi :   6.0358     XC(G=0):  -9.5829     alpha+bet :-11.2423

 Fermi energy:         6.0357983661

 k-point     1 :       0.0000    0.0000    0.0000
  band No.  band energies     occupation 
      1     -18.6178      2.00000
      2     -18.6178      2.00000
      3     -18.6080      2.00000
      4      -9.7728      2.00000
      5      -7.8666      2.00000
      6      -1.7144      2.00000
      7       3.2096      2.00000
      8       3.4439      2.00000
      9       3.4439      2.00000
     10       3.5014      2.00000
     11       3.5015      2.00000
     12       5.4928      2.00000
     13       7.6541      0.00000
     14       8.6295      0.00000
     15       8.6295      0.00000
     16       9.2798      0.00000
     17      12.2335      0.00000
     18      12.2335      0.00000
     19      12.6411      0.00000
     20      14.8919      0.00000
     21      14.8919      0.00000
     22      15.7080      0.00000
     23      16.0763      0.00000
     24      16.3121      0.00000
     25      16.3121      0.00000
     26      16.7901      0.00000
     27      18.7605      0.00000
     28      18.7605      0.00000
     29      20.3770      0.00000
     30      20.3770      0.00000
     31      21.1886      0.00000
     32      23.2549      0.00000

 k-point     2 :       0.2000    0.0000    0.0000
  band No.  band energies     occupation 
      1     -18.6362      2.00000
      2     -18.6220      2.00000
      3     -18.6037      2.00000
      4      -9.3179      2.00000
      5      -7.6202      2.00000
      6      -1.5716      2.00000
      7       0.7866      2.00000
      8       2.0777      2.00000
      9       2.3912      2.00000
     10       3.2528      2.00000
     11       3.7115      2.00000
     12       6.4275      0.00000
     13       7.6381      0.00000
     14       9.3860      0.00000
     15       9.4052      0.00000
     16      10.7383      0.00000
     17      11.3198      0.00000
     18      12.3184      0.00000
     19      13.0105      0.00000
     20      13.2858      0.00000
     21      14.9267      0.00000
     22      15.5886      0.00000
     23      16.1728      0.00000
     24      16.7669      0.00000
     25      18.1123      0.00000
     26      18.8288      0.00000
     27      19.4923      0.00000
     28      19.5209      0.00000
     29      20.3009      0.00000
     30      22.2559      0.00000
     31      22.6339      0.00000
     32      23.5172      0.00000

 k-point     3 :       0.4000    0.0000    0.0000
  band No.  band energies     occupation 
      1     -18.6655      2.00000
      2     -18.6287      2.00000
      3     -18.5967      2.00000
      4      -8.1921      2.00000
      5      -7.3005      2.00000
      6      -2.6644      2.00000
      7      -0.6227      2.00000
      8       1.1360      2.00000
      9       1.5987      2.00000
     10       3.1103      2.00000
     11       3.3761      2.00000
     12       4.9001      2.00000
     13       8.0987      0.00000
     14       9.0732      0.00000
     15       9.9582      0.00000
     16      10.0613      0.00000
     17      11.9500      0.00000
     18      13.6578      0.00000
     19      14.6694      0.00000
     20      14.9594      0.00000
     21      15.6556      0.00000
     22      16.0745      0.00000
     23      16.4762      0.00000
     24      17.5391      0.00000
     25      17.9338      0.00000
     26      20.2688      0.00000
     27      20.7446      0.00000
     28      21.3752      0.00000
     29      22.2417      0.00000
     30      22.3924      0.00000
     31      22.4352      0.00000
     32      22.8895      0.00000

 k-point     4 :       0.2000    0.2000    0.0000
  band No.  band energies     occupation 
      1     -18.6362      2.00000
      2     -18.6220      2.00000
      3     -18.6038      2.00000
      4      -9.3108      2.00000
      5      -7.6355      2.00000
      6      -1.5425      2.00000
      7       0.9095      2.00000
      8       1.9744      2.00000
      9       2.3778      2.00000
     10       3.0586      2.00000
     11       3.7399      2.00000
     12       6.4776      0.00000
     13       8.0495      0.00000
     14       9.3484      0.00000
     15       9.4113      0.00000
     16      10.2868      0.00000
     17      11.2293      0.00000
     18      12.2694      0.00000
     19      13.2655      0.00000
     20      13.3286      0.00000
     21      14.7194      0.00000
     22      15.9108      0.00000
     23      16.0278      0.00000
     24      16.7463      0.00000
     25      18.3877      0.00000
     26      18.9234      0.00000
     27      19.4001      0.00000
     28      19.8082      0.00000
     29      20.5719      0.00000
     30      21.9324      0.00000
     31      22.4591      0.00000
     32      23.1015      0.00000

 k-point     5 :       0.4000    0.2000    0.0000
  band No.  band energies     occupation 
      1     -18.6552      2.00000
      2     -18.6320      2.00000
      3     -18.5981      2.00000
      4      -8.4995      2.00000
      5      -7.3200      2.00000
      6      -2.1246      2.00000
      7      -0.0861      2.00000
      8       0.4541      2.00000
      9       1.9472      2.00000
     10       2.3230      2.00000
     11       3.3021      2.00000
     12       6.3997      0.00000
     13       8.4710      0.00000
     14       9.6899      0.00000
     15      10.0841      0.00000
     16      10.7691      0.00000
     17      11.0937      0.00000
     18      11.8627      0.00000
     19      13.2422      0.00000
     20      14.1716      0.00000
     21      15.2680      0.00000
     22      16.3895      0.00000
     23      17.6289      0.00000
     24      18.3209      0.00000
     25      18.6455      0.00000
     26      19.3866      0.00000
     27      20.2877      0.00000
     28      21.0308      0.00000
     29      21.4222      0.00000
     30      21.6833      0.00000
     31      22.8470      0.00000
     32      23.3668      0.00000

 k-point     6 :      -0.4000    0.2000    0.0000
  band No.  band energies     occupation 
      1     -18.6641      2.00000
      2     -18.6410      2.00000
      3     -18.5946      2.00000
      4      -7.6180      2.00000
      5      -7.2918      2.00000
      6      -3.0560      2.00000
      7      -0.5008      2.00000
      8       0.2744      2.00000
      9       0.9665      2.00000
     10       2.4634      2.00000
     11       3.0812      2.00000
     12       5.7830      2.00000
     13       9.2070      0.00000
     14       9.6821      0.00000
     15      10.0004      0.00000
     16      10.4023      0.00000
     17      11.4898      0.00000
     18      12.7953      0.00000
     19      13.9891      0.00000
     20      14.7968      0.00000
     21      15.3697      0.00000
     22      15.9448      0.00000
     23      17.5199      0.00000
     24      18.1181      0.00000
     25      19.5691      0.00000
     26      19.7288      0.00000
     27      20.7034      0.00000
     28      21.6877      0.00000
     29      22.0333      0.00000
     30      22.7912      0.00000
     31      22.9406      0.00000
     32      23.8819      0.00000

 k-point     7 :      -0.2000    0.2000    0.0000
  band No.  band energies     occupation 
      1     -18.6553      2.00000
      2     -18.6321      2.00000
      3     -18.5981      2.00000
      4      -8.5168      2.00000
      5      -7.2895      2.00000
      6      -2.1529      2.00000
      7      -0.0214      2.00000
      8       0.3249      2.00000
      9       1.9671      2.00000
     10       2.2641      2.00000
     11       3.4953      2.00000
     12       6.3366      0.00000
     13       8.9778      0.00000
     14       9.2446      0.00000
     15      10.1000      0.00000
     16      10.7452      0.00000
     17      11.2157      0.00000
     18      11.6119      0.00000
     19      13.4369      0.00000
     20      13.5060      0.00000
     21      15.3969      0.00000
     22      16.2696      0.00000
     23      17.8559      0.00000
     24      18.7435      0.00000
     25      18.9928      0.00000
     26      19.5039      0.00000
     27      19.8294      0.00000
     28      20.8137      0.00000
     29      21.6757      0.00000
     30      22.5597      0.00000
     31      22.8138      0.00000
     32      23.3232      0.00000

 k-point     8 :       0.4000    0.4000    0.0000
  band No.  band energies     occupation 
      1     -18.6656      2.00000
      2     -18.6287      2.00000
      3     -18.5968      2.00000
      4      -8.1694      2.00000
      5      -7.3338      2.00000
      6      -2.6715      2.00000
      7      -0.5815      2.00000
      8       1.3572      2.00000
      9       1.5825      2.00000
     10       2.6142      2.00000
     11       3.4215      2.00000
     12       5.1994      2.00000
     13       8.3510      0.00000
     14       9.1134      0.00000
     15       9.6081      0.00000
     16       9.8180      0.00000
     17      11.4360      0.00000
     18      13.4673      0.00000
     19      15.0944      0.00000
     20      15.4594      0.00000
     21      16.3118      0.00000
     22      16.3846      0.00000
     23      16.6708      0.00000
     24      17.5031      0.00000
     25      18.7695      0.00000
     26      19.8594      0.00000
     27      19.9275      0.00000
     28      20.9600      0.00000
     29      21.7495      0.00000
     30      21.8457      0.00000
     31      22.5419      0.00000
     32      23.4757      0.00000

 k-point     9 :      -0.4000    0.4000    0.0000
  band No.  band energies     occupation 
      1     -18.6640      2.00000
      2     -18.6410      2.00000
      3     -18.5945      2.00000
      4      -7.5731      2.00000
      5      -7.3428      2.00000
      6      -3.0487      2.00000
      7      -0.4993      2.00000
      8       0.1782      2.00000
      9       1.1245      2.00000
     10       2.6360      2.00000
     11       2.8049      2.00000
     12       6.0911      0.11803
     13       8.5065      0.00000
     14       9.0635      0.00000
     15      10.3734      0.00000
     16      10.3945      0.00000
     17      12.5259      0.00000
     18      13.1938      0.00000
     19      13.7378      0.00000
     20      14.7046      0.00000
     21      14.9485      0.00000
     22      15.9710      0.00000
     23      18.0014      0.00000
     24      18.3249      0.00000
     25      19.2103      0.00000
     26      19.9684      0.00000
     27      20.4208      0.00000
     28      21.1930      0.00000
     29      22.3879      0.00000
     30      22.5956      0.00000
     31      23.3665      0.00000
     32      23.5905      0.00000

 k-point    10 :       0.0000    0.0000    0.2500
  band No.  band energies     occupation 
      1     -18.6443      2.00000
      2     -18.6239      2.00000
      3     -18.6018      2.00000
      4      -9.0761      2.00000
      5      -7.5089      2.00000
      6      -1.6533      2.00000
      7       0.2050      2.00000
      8       1.6157      2.00000
      9       2.1334      2.00000
     10       3.2513      2.00000
     11       3.6317      2.00000
     12       6.0350      1.01711
     13       7.8314      0.00000
     14       9.5676      0.00000
     15       9.6702      0.00000
     16      10.5021      0.00000
     17      11.6636      0.00000
     18      12.4209      0.00000
     19      13.2283      0.00000
     20      13.7226      0.00000
     21      15.2694      0.00000
     22      15.4412      0.00000
     23      16.0849      0.00000
     24      16.3879      0.00000
     25      18.3176      0.00000
     26      19.4530      0.00000
     27      20.1833      0.00000
     28      20.3115      0.00000
     29      20.9110      0.00000
     30      22.3182      0.00000
     31      23.0951      0.00000
     32      23.7604      0.00000

 k-point    11 :       0.2000    0.0000    0.2500
  band No.  band energies     occupation 
      1     -18.6406      2.00000
      2     -18.6234      2.00000
      3     -18.6027      2.00000
      4      -9.1736      2.00000
      5      -7.5729      2.00000
      6      -1.5728      2.00000
      7       0.6354      2.00000
      8       1.4907      2.00000
      9       2.3902      2.00000
     10       3.0084      2.00000
     11       3.6117      2.00000
     12       6.3943      0.00000
     13       8.3180      0.00000
     14       9.1813      0.00000
     15       9.7694      0.00000
     16      10.2683      0.00000
     17      11.1541      0.00000
     18      12.2244      0.00000
     19      13.2435      0.00000
     20      13.7921      0.00000
     21      14.7331      0.00000
     22      15.6609      0.00000
     23      16.1811      0.00000
     24      17.0030      0.00000
     25      18.6006      0.00000
     26      19.1414      0.00000
     27      19.7306      0.00000
     28      20.1584      0.00000
     29      20.9720      0.00000
     30      21.7987      0.00000
     31      22.7235      0.00000
     32      23.1025      0.00000

 k-point    12 :       0.4000    0.0000    0.2500
  band No.  band energies     occupation 
      1     -18.6564      2.00000
      2     -18.6314      2.00000
      3     -18.5980      2.00000
      4      -8.4753      2.00000
      5      -7.3238      2.00000
      6      -2.1836      2.00000
      7      -0.1217      2.00000
      8       0.5613      2.00000
      9       1.8333      2.00000
     10       2.4608      2.00000
     11       3.2762      2.00000
     12       6.2874      0.00000
     13       8.5338      0.00000
     14       9.5348      0.00000
     15      10.1817      0.00000
     16      10.2937      0.00000
     17      11.0690      0.00000
     18      12.2422      0.00000
     19      13.3881      0.00000
     20      14.4512      0.00000
     21      15.4249      0.00000
     22      16.3088      0.00000
     23      17.3087      0.00000
     24      18.5735      0.00000
     25      18.7849      0.00000
     26      19.2008      0.00000
     27      20.3739      0.00000
     28      20.9914      0.00000
     29      21.4468      0.00000
     30      21.8163      0.00000
     31      22.6030      0.00000
     32      23.2547      0.00000

 k-point    13 :      -0.4000    0.0000    0.2500
  band No.  band energies     occupation 
      1     -18.6610      2.00000
      2     -18.6456      2.00000
      3     -18.5943      2.00000
      4      -7.5508      2.00000
      5      -7.2757      2.00000
      6      -3.0799      2.00000
[...]
     29      21.6680      0.00000
     30      22.8696      0.00000
     31      23.6460      0.00000
     32      23.8709      0.00000

 k-point    24 :      -0.2000   -0.2000    0.2500
  band No.  band energies     occupation 
      1     -18.6293      2.00000
      2     -18.5876      2.00000
      3     -18.5498      2.00000
      4      -7.9068      2.00000
      5      -7.2855      2.00000
      6      -2.8920      2.00000
      7      -0.7551      2.00000
      8       1.3059      2.00000
      9       1.5483      2.00000
     10       2.9927      2.00000
     11       3.4478      2.00000
     12       4.9722      2.00000
     13       8.4009      0.00000
     14       9.0200      0.00000
     15      10.0230      0.00000
     16      10.1788      0.00000
     17      11.3304      0.00000
     18      13.6984      0.00000
     19      15.3829      0.00000
     20      15.8547      0.00000
     21      16.1548      0.00000
     22      16.6511      0.00000
     23      17.1075      0.00000
     24      18.6689      0.00000
     25      18.7824      0.00000
     26      19.9181      0.00000
     27      19.9812      0.00000
     28      20.6095      0.00000
     29      21.4957      0.00000
     30      21.7949      0.00000
     31      23.3481      0.00000
     32      23.6075      0.00000

 k-point    25 :       0.0000    0.0000    0.5000
  band No.  band energies     occupation 
      1     -18.6307      2.00000
      2     -18.5879      2.00000
      3     -18.5495      2.00000
      4      -7.7746      2.00000
      5      -7.3348      2.00000
      6      -2.9817      2.00000
      7      -0.8203      2.00000
      8       1.3390      2.00000
      9       1.5263      2.00000
     10       3.0497      2.00000
     11       3.4149      2.00000
     12       4.7860      2.00000
     13       8.2674      0.00000
     14       8.9830      0.00000
     15       9.8530      0.00000
     16      10.3013      0.00000
     17      12.4456      0.00000
     18      13.4652      0.00000
     19      14.8400      0.00000
     20      15.1788      0.00000
     21      16.1907      0.00000
     22      16.8314      0.00000
     23      18.2330      0.00000
     24      18.3204      0.00000
     25      18.8179      0.00000
     26      19.3932      0.00000
     27      19.8327      0.00000
     28      20.9272      0.00000
     29      21.3970      0.00000
     30      22.0234      0.00000
     31      23.0254      0.00000
     32      23.0584      0.00000

 k-point    26 :       0.2000    0.0000    0.5000
  band No.  band energies     occupation 
      1     -18.6215      2.00000
      2     -18.5969      2.00000
      3     -18.5495      2.00000
      4      -7.9302      2.00000
      5      -7.1761      2.00000
      6      -2.7138      2.00000
      7      -0.4670      2.00000
      8       0.4360      2.00000
      9       1.2714      2.00000
     10       2.4363      2.00000
     11       3.2492      2.00000
     12       6.1841      1.76344
     13       8.8100      0.00000
     14      10.0572      0.00000
     15      10.2773      0.00000
     16      10.8369      0.00000
     17      11.3549      0.00000
     18      12.6840      0.00000
     19      13.6749      0.00000
     20      14.6391      0.00000
     21      14.8351      0.00000
     22      17.2339      0.00000
     23      17.5400      0.00000
     24      18.7784      0.00000
     25      19.5701      0.00000
     26      20.1201      0.00000
     27      20.3560      0.00000
     28      20.7905      0.00000
     29      21.6075      0.00000
     30      22.5996      0.00000
     31      22.9435      0.00000
     32      23.9266      0.00000

 k-point    27 :       0.4000    0.0000    0.5000
  band No.  band energies     occupation 
      1     -18.6277      2.00000
      2     -18.5908      2.00000
      3     -18.5495      2.00000
      4      -7.8217      2.00000
      5      -7.2925      2.00000
      6      -2.8928      2.00000
      7      -0.6876      2.00000
      8       0.9710      2.00000
      9       1.5822      2.00000
     10       2.6531      2.00000
     11       3.2029      2.00000
     12       5.6707      2.00000
     13       8.5040      0.00000
     14       9.4056      0.00000
     15       9.6247      0.00000
     16       9.8510      0.00000
     17      12.1833      0.00000
     18      13.5334      0.00000
     19      14.6726      0.00000
     20      15.4328      0.00000
     21      15.8224      0.00000
     22      17.5703      0.00000
     23      17.9767      0.00000
     24      18.1257      0.00000
     25      19.1462      0.00000
     26      19.4183      0.00000
     27      19.8958      0.00000
     28      21.0278      0.00000
     29      21.3847      0.00000
     30      21.8891      0.00000
     31      22.8674      0.00000
     32      23.7781      0.00000

 k-point    28 :       0.2000    0.2000    0.5000
  band No.  band energies     occupation 
      1     -18.6116      2.00000
      2     -18.5835      2.00000
      3     -18.5540      2.00000
      4      -8.7836      2.00000
      5      -7.4012      2.00000
      6      -1.7626      2.00000
      7      -0.1297      2.00000
      8       1.5009      2.00000
      9       1.9536      2.00000
     10       2.8997      2.00000
     11       3.6463      2.00000
     12       5.8044      2.00000
     13       8.0679      0.00000
     14       9.1833      0.00000
     15      10.1001      0.00000
     16      10.9576      0.00000
     17      12.4860      0.00000
     18      13.0449      0.00000
     19      13.9795      0.00000
     20      13.9870      0.00000
     21      15.0186      0.00000
     22      15.7517      0.00000
     23      16.5517      0.00000
     24      17.2421      0.00000
     25      17.5923      0.00000
     26      19.2253      0.00000
     27      20.6137      0.00000
     28      20.8343      0.00000
     29      22.1628      0.00000
     30      22.3691      0.00000
     31      23.3952      0.00000
     32      24.0295      0.00000

 k-point    29 :       0.4000    0.2000    0.5000
  band No.  band energies     occupation 
      1     -18.6044      2.00000
      2     -18.5835      2.00000
      3     -18.5554      2.00000
      4      -8.9791      2.00000
      5      -7.4997      2.00000
      6      -1.4483      2.00000
      7       0.4763      2.00000
      8       1.0996      2.00000
      9       2.4070      2.00000
     10       2.6182      2.00000
     11       3.4071      2.00000
     12       6.7045      0.00000
     13       8.6132      0.00000
     14       9.3665      0.00000
     15       9.9402      0.00000
     16      10.6083      0.00000
     17      11.6139      0.00000
     18      12.2721      0.00000
     19      13.2056      0.00000
     20      14.2558      0.00000
     21      15.2244      0.00000
     22      16.2582      0.00000
     23      16.7980      0.00000
     24      17.2478      0.00000
     25      18.2461      0.00000
     26      18.8025      0.00000
     27      20.3217      0.00000
     28      20.5691      0.00000
     29      21.0809      0.00000
     30      21.9008      0.00000
     31      22.7849      0.00000
     32      23.5565      0.00000

 k-point    30 :      -0.4000    0.2000    0.5000
  band No.  band energies     occupation 
      1     -18.6189      2.00000
      2     -18.5880      2.00000
      3     -18.5517      2.00000
      4      -8.3882      2.00000
      5      -7.3044      2.00000
      6      -2.2373      2.00000
      7      -0.2993      2.00000
      8       1.0848      2.00000
      9       1.7671      2.00000
     10       2.6133      2.00000
     11       3.2599      2.00000
     12       6.0606      2.00000
     13       8.2985      0.00000
     14       9.4796      0.00000
     15       9.6408      0.00000
     16      10.9551      0.00000
     17      11.9036      0.00000
     18      13.0870      0.00000
     19      13.8329      0.00000
     20      14.4198      0.00000
     21      16.2871      0.00000
     22      16.8539      0.00000
     23      17.3691      0.00000
     24      17.6591      0.00000
     25      17.9552      0.00000
     26      19.1354      0.00000
     27      20.0324      0.00000
     28      21.3203      0.00000
     29      21.8222      0.00000
     30      22.1544      0.00000
     31      23.3505      0.00000
     32      23.6664      0.00000

 k-point    31 :      -0.2000    0.2000    0.5000
  band No.  band energies     occupation 
      1     -18.6185      2.00000
      2     -18.6070      2.00000
      3     -18.5481      2.00000
      4      -7.4656      2.00000
      5      -7.2356      2.00000
      6      -3.0612      2.00000
      7      -0.3476      2.00000
      8       0.0798      2.00000
      9       0.6449      2.00000
     10       2.7568      2.00000
     11       2.8602      2.00000
     12       6.3678      0.00006
     13       8.4920      0.00000
     14       9.8836      0.00000
     15      10.7755      0.00000
     16      11.7336      0.00000
     17      12.0058      0.00000
     18      12.5969      0.00000
     19      13.8096      0.00000
     20      14.5172      0.00000
     21      14.7260      0.00000
     22      15.5742      0.00000
     23      17.2973      0.00000
     24      18.8605      0.00000
     25      19.1477      0.00000
     26      20.6535      0.00000
     27      21.4395      0.00000
     28      22.0156      0.00000
     29      22.4622      0.00000
     30      23.0397      0.00000
     31      23.3025      0.00000
     32      23.8047      0.00000

 k-point    32 :       0.4000    0.4000    0.5000
  band No.  band energies     occupation 
      1     -18.5806      2.00000
      2     -18.5765      2.00000
      3     -18.5614      2.00000
      4      -9.6401      2.00000
      5      -7.8896      2.00000
      6      -1.0326      2.00000
      7       1.8897      2.00000
      8       2.5578      2.00000
      9       3.0312      2.00000
     10       3.2507      2.00000
     11       3.8447      2.00000
     12       7.0489      0.00000
     13       8.1875      0.00000
     14       8.9656      0.00000
     15       9.0889      0.00000
     16       9.6953      0.00000
     17      12.0627      0.00000
     18      12.6144      0.00000
     19      13.0765      0.00000
     20      13.7981      0.00000
     21      14.4147      0.00000
     22      15.2958      0.00000
     23      16.0306      0.00000
     24      17.0865      0.00000
     25      17.1722      0.00000
     26      18.9451      0.00000
     27      19.3685      0.00000
     28      19.4966      0.00000
     29      19.8948      0.00000
     30      20.7705      0.00000
     31      21.8578      0.00000
     32      22.1259      0.00000

 k-point    33 :      -0.4000    0.4000    0.5000
  band No.  band energies     occupation 
      1     -18.5898      2.00000
      2     -18.5790      2.00000
      3     -18.5591      2.00000
      4      -9.4077      2.00000
      5      -7.7527      2.00000
      6      -1.0414      2.00000
      7       1.5101      2.00000
      8       1.7460      2.00000
      9       2.2957      2.00000
     10       3.3978      2.00000
     11       3.4241      2.00000
     12       7.1246      0.00000
     13       8.6096      0.00000
     14       9.3063      0.00000
     15       9.4947      0.00000
     16       9.8424      0.00000
     17      11.8748      0.00000
     18      12.3850      0.00000
     19      13.5445      0.00000
     20      13.5759      0.00000
     21      14.0271      0.00000
     22      15.9806      0.00000
     23      16.7072      0.00000
     24      16.7752      0.00000
     25      18.2831      0.00000
     26      18.8197      0.00000
     27      19.0938      0.00000
     28      19.9013      0.00000
     29      20.7969      0.00000
     30      21.0840      0.00000
     31      21.2768      0.00000
     32      22.9204      0.00000


--------------------------------------------------------------------------------------------------------


 soft charge-density along one line, spin component           1
         0         1         2         3         4         5         6         7         8         9
 total charge-density along one line

 pseudopotential strength for first ion, spin component:           1
-23.359   0.000   0.000   1.593  -0.000  -0.000   0.000   0.000
  0.000 -23.330   0.000  -0.000   1.581  -0.000  -0.001  -0.004
  0.000   0.000 -23.359  -0.000  -0.000   1.593  -0.000  -0.000
  1.593  -0.000  -0.000   6.919  -0.000   0.000  -0.000   0.000
 -0.000   1.581  -0.000  -0.000   6.921  -0.000   0.000   0.000
 -0.000  -0.000   1.593   0.000  -0.000   6.919   0.000  -0.000
  0.000  -0.001  -0.000  -0.000   0.000   0.000   1.438   6.969
  0.000  -0.004  -0.000   0.000   0.000  -0.000   6.969  33.631
 total augmentation occupancy for first ion, spin component:           1
  2.001  -0.000   0.000   0.001   0.000  -0.000  -0.000   0.000
 -0.000   2.001  -0.000   0.000  -0.003   0.000   0.004  -0.001
  0.000  -0.000   2.001   0.000   0.000   0.001  -0.000   0.000
  0.001   0.000  -0.000   0.018  -0.000   0.000  -0.000  -0.000
  0.000  -0.003   0.000  -0.000   0.026  -0.000   0.003   0.000
  0.000   0.000   0.001   0.000  -0.000   0.018   0.000   0.000
 -0.000   0.004  -0.000  -0.000   0.003   0.000   0.563  -0.001
  0.000  -0.001   0.000  -0.000   0.000   0.000  -0.001   0.000


------------------------ aborting loop because EDIFF is reached ----------------------------------------


    CHARGE:  cpu time      0.0304: real time      0.0304
    FORLOC:  cpu time      0.0008: real time      0.0008
    FORNL :  cpu time      0.2100: real time      0.2101
    STRESS:  cpu time      0.6326: real time      0.6330
    FORCOR:  cpu time      0.0092: real time      0.0092
    FORHAR:  cpu time      0.0027: real time      0.0027
    MIXING:  cpu time      0.0003: real time      0.0003
    OFIELD:  cpu time      0.0000: real time      0.0000

  FORCE on cell =-STRESS in cart. coord.  units (eV):
  Direction    XX          YY          ZZ          XY          YZ          ZX
  --------------------------------------------------------------------------------------
  Alpha Z    32.39603    32.39603    32.39603
  Ewald    -362.44605  -362.44630  -325.79691    -0.00000    -0.00002    -0.00000
  Hartree    82.29680    82.29697   110.10222    -0.00000     0.00001     0.00000
  E(xc)     -93.12570   -93.12570   -93.13986     0.00000    -0.00000     0.00000
  Local     -60.52295   -60.52286  -126.47183    -0.00000     0.00004     0.00000
  n-local   160.79988   160.92338   161.66793    -0.33000     0.00790    -0.48740
  augment     0.85480     0.85483     1.07431     0.00000     0.00000     0.00000
  Kinetic   239.58499   239.90697   240.33003    -1.70184     0.26132    -0.71060
  Fock        0.00000     0.00000     0.00000     0.00000     0.00000     0.00000
  -------------------------------------------------------------------------------------
  Total       0.06056     0.06056     0.16193    -0.00000    -0.00000     0.00000
  in kB       1.33613     1.33613     3.57249    -0.00000    -0.00000     0.00000
  external pressure =        2.08 kB  Pullay stress =        0.00 kB


 VOLUME and BASIS-vectors are now :
 -----------------------------------------------------------------------------
  energy-cutoff  :      400.00
  volume of cell :       72.62
      direct lattice vectors                 reciprocal lattice vectors
     1.759629984  1.015922845  6.770621022     0.284150648  0.164054453  0.049232313
    -1.759629984  1.015922845  6.770621022    -0.284150648  0.164054453  0.049232313
    -0.000000000 -2.031845690  6.770621022     0.000000000 -0.328108906  0.049232313

  length of vectors
     7.068925373  7.068925373  7.068925373     0.331781969  0.331781969  0.331781969


 FORCES acting on ions
    electron-ion (+dipol)            ewald-force                    non-local-force                 convergence-correction
 -----------------------------------------------------------------------------------------------
   0.283E-12 -.335E-03 -.390E+00   0.182E-14 0.911E-04 0.665E+00   0.219E-17 0.134E-11 -.273E+00   -.308E-13 0.378E-07 -.796E-04
   -.600E-12 -.182E-03 0.145E+01   0.181E-14 -.263E-03 -.143E+01   -.818E-19 0.118E-12 -.241E-01   0.705E-15 -.138E-07 0.239E-05
   0.125E-12 -.320E-02 0.176E+02   -.642E-15 0.406E-04 -.205E+02   -.118E-16 -.148E-10 0.302E+01   0.141E-13 0.408E-08 -.285E-02
   0.233E-11 -.216E-02 -.183E+02   -.475E-14 0.132E-03 0.213E+02   0.186E-17 0.147E-10 -.300E+01   -.429E-14 0.618E-09 0.285E-02
 -----------------------------------------------------------------------------------------------
   0.214E-11 -.588E-02 0.282E+00   -.176E-14 0.144E-15 0.000E+00   -.784E-17 0.140E-11 -.286E+00   -.203E-13 0.287E-07 -.824E-04


 POSITION                                       TOTAL-FORCE (eV/Angst)
 -----------------------------------------------------------------------------------
      0.00000      0.00000      3.35532         0.000000     -0.000000      0.003066
      0.00000      0.00001     20.27459         0.000000     -0.000000      0.001252
     -0.00000      0.00001     12.15134         0.000000     -0.000000      0.032024
     -0.00000      0.00000      8.09238        -0.000000      0.000000     -0.036343
 -----------------------------------------------------------------------------------
    total drift:                                0.000000     -0.005875     -0.004147


--------------------------------------------------------------------------------------------------------



  FREE ENERGIE OF THE ION-ELECTRON SYSTEM (eV)
  ---------------------------------------------------
  free  energy   TOTEN  =       -17.32249273 eV

  energy  without entropy=      -17.32034039  energy(sigma->0) =      -17.32141656

 d Force = 0.5960291E-03[ 0.414E-03, 0.778E-03]  d Energy = 0.1755814E-02-0.116E-02
 d Force =-0.2434194E+00[-0.253E+00,-0.233E+00]  d Ewald  =-0.1931313E+01 0.169E+01


--------------------------------------------------------------------------------------------------------


    POTLOK:  cpu time      0.0115: real time      0.0115


--------------------------------------------------------------------------------------------------------


 Conjugate gradient step on ions:
 trial-energy change:   -0.001756  1 .order   -0.001828   -0.002469   -0.001187
  (g-gl).g = 0.222E-02      g.g   = 0.230E-02  gl.gl    = 0.932E-02
 g(Force)  = 0.399E-03   g(Stress)= 0.190E-02 ortho     = 0.810E-04
 gamma     =   0.23796
 trial     =   1.06519
 opt step  =   2.05057  (harmonic =   2.05057) maximal distance =0.01140668
 next E    =   -17.323114   (d E  =  -0.00238)


--------------------------------------------------------------------------------------------------------


  
 reached required accuracy - stopping structural energy minimisation
     LOOP+:  cpu time      8.3238: real time      8.3529
    4ORBIT:  cpu time      0.0000: real time      0.0000

 total amount of memory used by VASP MPI-rank0    36174. kBytes
=======================================================================

   base      :      30000. kBytes
   nonlr-proj:       1808. kBytes
   fftplans  :        708. kBytes
   grid      :       2903. kBytes
   one-center:         12. kBytes
   wavefun   :        743. kBytes

  
  
 General timing and accounting informations for this job:
 ========================================================
  
                  Total CPU time used (sec):       44.804
                            User time (sec):       43.404
                          System time (sec):        1.400
                         Elapsed time (sec):       45.491
  
                   Maximum memory used (kb):      131192.
                   Average memory used (kb):          N/A
  
                          Minor page faults:        30887
                          Major page faults:          159
                 Voluntary context switches:         1199
