 vasp.6.3.2 27Jun22 (build Mar 25 2024 10:42:18) complex                         
 executed on             LinuxGNU date 2024.03.31  17:17:11
 running on   32 total cores
 distrk:  each k-point on   32 cores,    1 groups
 distr:  one band on NCORE=   1 cores,   32 groups


--------------------------------------------------------------------------------------------------------


 INCAR:
   ISTART = 0
   ICHARG = 2
   PREC = Accurate
   IBRION = -1
   EDIFF = 0.000000001
   EDIFFG = -0.0005
   NSW = 0
   NELM = 100
   ENCUT = 520
   ISMEAR = -5
   SIGMA = 0.05
   ISPIN = 2
   ISYM = 0
   LWAVE = False
   LCHARG = False
   LASPH = True
   LORBIT = 11
   ADDGRID = TRUE

 POTCAR:    PAW_PBE S 06Sep2000                   
 -----------------------------------------------------------------------------
|                                                                             |
|           W    W    AA    RRRRR   N    N  II  N    N   GGGG   !!!           |
|           W    W   A  A   R    R  NN   N  II  NN   N  G    G  !!!           |
|           W    W  A    A  R    R  N N  N  II  N N  N  G       !!!           |
|           W WW W  AAAAAA  RRRRR   N  N N  II  N  N N  G  GGG   !            |
|           WW  WW  A    A  R   R   N   NN  II  N   NN  G    G                |
|           W    W  A    A  R    R  N    N  II  N    N   GGGG   !!!           |
|                                                                             |
|     You use a magnetic or noncollinear calculation, but did not specify     |
|     the initial magnetic moment with the MAGMOM tag. Note that a            |
|     default of 1 will be used for all atoms. This ferromagnetic setup       |
|     may break the symmetry of the crystal, in particular it may rule        |
|     out finding an antiferromagnetic solution. Thence, we recommend         |
|     setting the initial magnetic moment manually or verifying carefully     |
|     that this magnetic setup is desired.                                    |
|                                                                             |
 -----------------------------------------------------------------------------

 -----------------------------------------------------------------------------
|                                                                             |
|           W    W    AA    RRRRR   N    N  II  N    N   GGGG   !!!           |
|           W    W   A  A   R    R  NN   N  II  NN   N  G    G  !!!           |
|           W    W  A    A  R    R  N N  N  II  N N  N  G       !!!           |
|           W WW W  AAAAAA  RRRRR   N  N N  II  N  N N  G  GGG   !            |
|           WW  WW  A    A  R   R   N   NN  II  N   NN  G    G                |
|           W    W  A    A  R    R  N    N  II  N    N   GGGG   !!!           |
|                                                                             |
|     For optimal performance we recommend to set                             |
|       NCORE = 2 up to number-of-cores-per-socket                            |
|     NCORE specifies how many cores store one orbital (NPAR=cpu/NCORE).      |
|     This setting can greatly improve the performance of VASP for DFT.       |
|     The default, NCORE=1 might be grossly inefficient on modern             |
|     multi-core architectures or massively parallel machines. Do your        |
|     own testing! More info at https://www.vasp.at/wiki/index.php/NCORE      |
|     Unfortunately you need to use the default for GW and RPA                |
|     calculations (for HF NCORE is supported but not extensively tested      |
|     yet).                                                                   |
|                                                                             |
 -----------------------------------------------------------------------------

 POTCAR:    PAW_PBE S 06Sep2000                   
   SHA256 =  0fc7481fb0695f01bdc6462160264c5c84044ae9ec85a907d398b887a2bc3132 S/POTCAR              
   COPYR  = (c) Copyright 06Sep2000 Georg Kresse                                                    
   COPYR  = This file is part of the software VASP. Any use, copying, and all other rights are regul
   COPYR  = If you do not have a valid VASP license, you may not use, copy or distribute this file. 
   VRHFIN =S : s2p4                                                                                 
   LEXCH  = PE                                                                                      
   EATOM  =   276.8230 eV,   20.3459 Ry                                                             
                                                                                                    
   TITEL  = PAW_PBE S 06Sep2000                                                                     
   LULTRA =        F    use ultrasoft PP ?                                                          
   IUNSCR =        1    unscreen: 0-lin 1-nonlin 2-no                                               
   RPACOR =    1.500    partial core radius                                                         
   POMASS =   32.066; ZVAL   =    6.000    mass and valenz                                          
   RCORE  =    1.900    outmost cutoff radius                                                       
   RWIGS  =    2.200; RWIGS  =    1.164    wigner-seitz radius (au A)                               
   ENMAX  =  258.689; ENMIN  =  194.016 eV                                                          
   ICORE  =        2    local potential                                                             
   LCOR   =        T    correct aug charges                                                         
   LPAW   =        T    paw PP                                                                      
   EAUG   =  335.092                                                                                
   DEXC   =    0.000                                                                                
   RMAX   =    1.942    core radius for proj-oper                                                   
   RAUG   =    1.300    factor for augmentation sphere                                              
   RDEP   =    1.954    radius for radial grids                                                     
   RDEPT  =    1.744    core radius for aug-charge                                                  
                                                                                                    
   Atomic configuration                                                                             
    6 entries                                                                                       
     n  l   j            E        occ.                                                              
     1  0  0.50     -2405.8406   2.0000                                                             
     2  0  0.50      -211.7007   2.0000                                                             
     2  1  1.50      -156.4958   6.0000                                                             
     3  0  0.50       -17.2562   2.0000                                                             
     3  1  0.50        -7.0085   4.0000                                                             
     3  2  1.50        -6.8029   0.0000                                                             
   Description                                                                                      
     l       E           TYP  RCUT    TYP  RCUT                                                     
     0    -17.2561641     23  1.900                                                                 
     0    -15.8743224     23  1.900                                                                 
     1     -7.0085400     23  1.900                                                                 
     1     -2.7779785     23  1.900                                                                 
     2     -6.8029130     23  1.900                                                                 
  local pseudopotential read in
  partial core-charges read in
  partial kinetic energy density read in
  atomic valenz-charges read in
  non local Contribution for L=           0  read in
    real space projection operators read in
  non local Contribution for L=           0  read in
    real space projection operators read in
  non local Contribution for L=           1  read in
    real space projection operators read in
  non local Contribution for L=           1  read in
    real space projection operators read in
    PAW grid and wavefunctions read in

   number of l-projection  operators is LMAX  =           4
   number of lm-projection operators is LMMAX =           8

 -----------------------------------------------------------------------------
|                                                                             |
|               ----> ADVICE to this user running VASP <----                  |
|                                                                             |
|     You have a (more or less) 'large supercell' and for larger cells it     |
|     might be more efficient to use real-space projection operators.         |
|     Therefore, try LREAL= Auto in the INCAR file.                           |
|     Mind: For very accurate calculation, you might also keep the            |
|     reciprocal projection scheme (i.e. LREAL=.FALSE.).                      |
|                                                                             |
 -----------------------------------------------------------------------------

  PAW_PBE S 06Sep2000                   :
 energy of atom  1       EATOM= -276.8230
 kinetic energy error for atom=    0.0016 (will be added to EATOM!!)


 POSCAR: generated by phonopy
  positions in direct lattice
  No initial velocities read in
 exchange correlation table for  LEXCH =        8
   RHO(1)=    0.500       N(1)  =     2000
   RHO(2)=  100.500       N(2)  =     4000



--------------------------------------------------------------------------------------------------------


 ion  position               nearest neighbor table
   1  0.886  0.467  0.678-  45 1.98  24 2.13
   2  0.886  0.967  0.678-  46 1.98  23 2.13
   3  0.330  0.189  0.551-  41 2.05  19 2.13
   4  0.330  0.689  0.551-  42 2.05  20 2.13
   5  0.913  0.105  0.912-  51 1.98  11 2.13
   6  0.913  0.605  0.912-  52 1.98  12 2.13
   7  0.240  0.301  0.777-  19 1.98  37 2.23
   8  0.240  0.801  0.777-  20 1.98  38 2.23
   9  0.144  0.306  0.224-  31 2.04  39 2.13
  10  0.144  0.806  0.224-  32 2.05  40 2.13
  11  0.856  0.194  0.776-  47 2.05   5 2.13
  12  0.856  0.694  0.776-  48 2.05   6 2.13
  13  0.760  0.199  0.223-  27 1.98  33 2.23
  14  0.760  0.699  0.223-  28 1.98  34 2.23
  15  0.170  0.439  0.449-  31 2.05  30 2.13
  16  0.170  0.939  0.449-  32 2.05  29 2.13
  17  0.413  0.145  0.912-  37 1.98  43 2.13
  18  0.413  0.645  0.912-  38 1.98  44 2.13
  19  0.386  0.283  0.678-   7 1.98   3 2.13
  20  0.386  0.783  0.678-   8 1.98   4 2.13
  21  0.644  0.444  0.224-  53 2.05  35 2.13
  22  0.644  0.944  0.224-  54 2.05  36 2.13
  23  0.830  0.061  0.551-  47 2.05   2 2.13
  24  0.830  0.561  0.551-  48 2.05   1 2.13
  25  0.260  0.051  0.223-  29 1.98  50 2.23
  26  0.260  0.551  0.223-  30 1.98  49 2.23
  27  0.614  0.217  0.322-  13 1.98  55 2.13
  28  0.614  0.717  0.322-  14 1.98  56 2.13
  29  0.114  0.033  0.322-  25 1.98  16 2.13
  30  0.114  0.533  0.322-  26 1.98  15 2.13
  31  0.060  0.345  0.374-   9 2.04  15 2.05
  32  0.060  0.845  0.374-  10 2.05  16 2.05
  33  0.743  0.289  0.071-  35 1.98  13 2.23
  34  0.743  0.789  0.071-  36 1.98  14 2.23
  35  0.587  0.355  0.088-  33 1.98  21 2.13
  36  0.587  0.855  0.088-  34 1.98  22 2.13
  37  0.257  0.211  0.929-  17 1.98   7 2.23
  38  0.257  0.711  0.929-  18 1.98   8 2.23
  39  0.087  0.395  0.088-  49 1.98   9 2.13
  40  0.087  0.895  0.088-  50 1.98  10 2.13
  41  0.440  0.095  0.626-  43 2.05   3 2.05
  42  0.440  0.595  0.626-  44 2.05   4 2.05
  43  0.356  0.056  0.776-  41 2.05  17 2.13
  44  0.356  0.556  0.776-  42 2.05  18 2.13
  45  0.740  0.449  0.777-   1 1.98  52 2.23
  46  0.740  0.949  0.777-   2 1.98  51 2.23
  47  0.940  0.155  0.626-  11 2.05  23 2.05
  48  0.940  0.655  0.626-  12 2.05  24 2.05
  49  0.243  0.461  0.071-  39 1.98  26 2.23
  50  0.243  0.961  0.071-  40 1.98  25 2.23
  51  0.757  0.039  0.929-   5 1.98  46 2.23
  52  0.757  0.539  0.929-   6 1.98  45 2.23
  53  0.560  0.405  0.374-  21 2.05  55 2.05
  54  0.560  0.905  0.374-  22 2.05  56 2.05
  55  0.670  0.311  0.449-  53 2.05  27 2.13
  56  0.670  0.811  0.449-  54 2.05  28 2.13


IMPORTANT INFORMATION: All symmetrisations will be switched off!
NOSYMM: (Re-)initialisation of all symmetry stuff for point group C_1.


----------------------------------------------------------------------------------------

                                     Primitive cell                                     

  volume of cell :    1863.6770

  direct lattice vectors                    reciprocal lattice vectors
     0.000000000 10.307367086 -0.372855731     0.000000000  0.096453423 -0.015606996
    16.788494411  0.000000000  0.000000000     0.059564603  0.000000000  0.000000000
     0.000000000 -1.732519801-10.707215182     0.000000000 -0.003358783 -0.092851486

  length of vectors
    10.314108670 16.788494411 10.846477853     0.097707938  0.059564603  0.092912216

  position of ions in fractional coordinates (direct lattice)
     0.886423141  0.467004751  0.678126386
     0.886423141  0.967004751  0.678126386
     0.329563264  0.188743823  0.550707721
     0.329563264  0.688743823  0.550707721
     0.912671285  0.105241885  0.911960471
     0.912671285  0.605241885  0.911960471
     0.239736405  0.300831047  0.776574189
     0.239736405  0.800831047  0.776574189
     0.144417516  0.305688762  0.224396680
     0.144417516  0.805688762  0.224396680
     0.855582484  0.194311238  0.775603320
     0.855582484  0.694311238  0.775603320
     0.760263595  0.199168953  0.223425811
     0.760263595  0.699168953  0.223425811
     0.170436736  0.438743823  0.449292279
     0.170436736  0.938743823  0.449292279
     0.412671285  0.144758115  0.911960471
     0.412671285  0.644758115  0.911960471
     0.386423141  0.282995249  0.678126386
     0.386423141  0.782995249  0.678126386
     0.644417516  0.444311238  0.224396680
     0.644417516  0.944311238  0.224396680
     0.829563264  0.061256177  0.550707721
     0.829563264  0.561256177  0.550707721
     0.260263595  0.050831047  0.223425811
     0.260263595  0.550831047  0.223425811
     0.613576859  0.217004751  0.321873614
     0.613576859  0.717004751  0.321873614
     0.113576859  0.032995249  0.321873614
     0.113576859  0.532995249  0.321873614
     0.059895700  0.345087734  0.373562409
     0.059895700  0.845087734  0.374484367
     0.743425210  0.289344343  0.071165234
     0.743425210  0.789344343  0.071165234
     0.587328715  0.355241885  0.088039529
     0.587328715  0.855241885  0.088039529
     0.256574790  0.210655657  0.928834766
     0.256574790  0.710655657  0.928834766
     0.087328715  0.394758115  0.088039529
     0.087328715  0.894758115  0.088039529
     0.440104300  0.095087734  0.625515633
     0.440104300  0.595087734  0.625515633
     0.355582484  0.055688762  0.775603320
     0.355582484  0.555688762  0.775603320
     0.739736405  0.449168953  0.776574189
     0.739736405  0.949168953  0.776574189
     0.940104300  0.154912266  0.625515633
     0.940104300  0.654912266  0.625515633
     0.243425210  0.460655657  0.071165234
     0.243425210  0.960655657  0.071165234
     0.756574790  0.039344343  0.928834766
     0.756574790  0.539344343  0.928834766
     0.559895700  0.404912266  0.374484367
     0.559895700  0.904912266  0.374484367
     0.670436736  0.311256177  0.449292279
     0.670436736  0.811256177  0.449292279

  ion indices of the primitive-cell ions
   primitive index   ion index
                 1           1
                 2           2
                 3           3
                 4           4
                 5           5
                 6           6
                 7           7
                 8           8
                 9           9
                10          10
                11          11
                12          12
                13          13
                14          14
                15          15
                16          16
                17          17
                18          18
                19          19
                20          20
                21          21
                22          22
                23          23
                24          24
                25          25
                26          26
                27          27
                28          28
                29          29
                30          30
                31          31
                32          32
                33          33
                34          34
                35          35
                36          36
                37          37
                38          38
                39          39
                40          40
                41          41
                42          42
                43          43
                44          44
                45          45
                46          46
                47          47
                48          48
                49          49
                50          50
                51          51
                52          52
                53          53
                54          54
                55          55
                56          56

----------------------------------------------------------------------------------------



 KPOINTS: pymatgen with grid density = 595 / numbe

Automatic generation of k-mesh.
 Grid dimensions read from file:
 generate k-points for:    2    2    2

 Generating k-lattice:

  Cartesian coordinates                     Fractional coordinates (reciprocal lattice)
     0.000000000  0.048226712 -0.007803498     0.500000000  0.000000000 -0.000000000
     0.029782301  0.000000000  0.000000000     0.000000000  0.500000000  0.000000000
     0.000000000 -0.001679391 -0.046425743    -0.000000000  0.000000000  0.500000000

  Length of vectors
     0.048853969  0.029782301  0.046456108

  Shift w.r.t. Gamma in fractional coordinates (k-lattice)
     0.000000000  0.000000000  0.000000000

 TETIRR: Found     24 inequivalent tetrahedra from       48
 
 Subroutine IBZKPT returns following result:
 ===========================================
 
 Found      8 irreducible k-points:
 
 Following reciprocal coordinates:
            Coordinates               Weight
  0.000000  0.000000  0.000000      1.000000
  0.500000  0.000000  0.000000      1.000000
  0.000000  0.500000  0.000000      1.000000
  0.500000  0.500000  0.000000      1.000000
  0.000000  0.000000  0.500000      1.000000
  0.500000  0.000000  0.500000      1.000000
  0.000000  0.500000  0.500000      1.000000
  0.500000  0.500000  0.500000      1.000000
 
 Following cartesian coordinates:
            Coordinates               Weight
  0.000000  0.000000 -0.000000      1.000000
  0.000000  0.048227 -0.007803      1.000000
  0.029782  0.000000 -0.000000      1.000000
  0.029782  0.048227 -0.007803      1.000000
  0.000000 -0.001679 -0.046426      1.000000
  0.000000  0.046547 -0.054229      1.000000
  0.029782 -0.001679 -0.046426      1.000000
  0.029782  0.046547 -0.054229      1.000000
 


--------------------------------------------------------------------------------------------------------




 Dimension of arrays:
   k-points           NKPTS =      8   k-points in BZ     NKDIM =      8   number of bands    NBANDS=    256
   number of dos      NEDOS =    301   number of ions     NIONS =     56
   non local maximal  LDIM  =      4   non local SUM 2l+1 LMDIM =      8
   total plane-waves  NPLWV = 846720
   max r-space proj   IRMAX =      1   max aug-charges    IRDMAX= 114695
   dimension x,y,z NGX =    80 NGY =  126 NGZ =   84
   dimension x,y,z NGXF=   160 NGYF=  252 NGZF=  168
   support grid    NGXF=   320 NGYF=  504 NGZF=  336
   ions per type =              56
   NGX,Y,Z   is equivalent  to a cutoff of  12.89, 12.48, 12.87 a.u.
   NGXF,Y,Z  is equivalent  to a cutoff of  25.79, 24.95, 25.75 a.u.

 SYSTEM =  unknown system                          
 POSCAR =  generated by phonopy                    

 Startparameter for this run:
   NWRITE =      2    write-flag & timer
   PREC   = accura    normal or accurate (medium, high low for compatibility)
   ISTART =      0    job   : 0-new  1-cont  2-samecut
   ICHARG =      2    charge: 1-file 2-atom 10-const
   ISPIN  =      2    spin polarized calculation?
   LNONCOLLINEAR =      F non collinear calculations
   LSORBIT =      F    spin-orbit coupling
   INIWAV =      1    electr: 0-lowe 1-rand  2-diag
   LASPH  =      T    aspherical Exc in radial PAW
 Electronic Relaxation 1
   ENCUT  =  520.0 eV  38.22 Ry    6.18 a.u.  19.18 31.22 20.17*2*pi/ulx,y,z
   ENINI  =  520.0     initial cutoff
   ENAUG  =  335.1 eV  augmentation charge cutoff
   NELM   =    100;   NELMIN=  2; NELMDL= -5     # of ELM steps 
   EDIFF  = 0.1E-08   stopping-criterion for ELM
   LREAL  =      F    real-space projection
   NLSPLINE    = F    spline interpolate recip. space projectors
   LCOMPAT=      F    compatible to vasp.4.4
   GGA_COMPAT  = T    GGA compatible to vasp.4.4-vasp.4.6
   LMAXPAW     = -100 max onsite density
   LMAXMIX     =    2 max onsite mixed and CHGCAR
   VOSKOWN=      0    Vosko Wilk Nusair interpolation
   ROPT   =    0.00000
 Ionic relaxation
   EDIFFG = -.5E-03   stopping-criterion for IOM
   NSW    =      0    number of steps for IOM
   NBLOCK =      1;   KBLOCK =      1    inner block; outer block 
   IBRION =     -1    ionic relax: 0-MD 1-quasi-New 2-CG
   NFREE  =      0    steps in history (QN), initial steepest desc. (CG)
   ISIF   =      2    stress and relaxation
   IWAVPR =     10    prediction:  0-non 1-charg 2-wave 3-comb
   ISYM   =      0    0-nonsym 1-usesym 2-fastsym
   LCORR  =      T    Harris-Foulkes like correction to forces

   POTIM  = 0.5000    time-step for ionic-motion
   TEIN   =    0.0    initial temperature
   TEBEG  =    0.0;   TEEND  =   0.0 temperature during run
   SMASS  =  -3.00    Nose mass-parameter (am)
   estimated Nose-frequenzy (Omega)   =  0.10E-29 period in steps = 0.13E+47 mass=  -0.243E-26a.u.
   SCALEE = 1.0000    scale energy and forces
   NPACO  =    256;   APACO  = 10.0  distance and # of slots for P.C.
   PSTRESS=    0.0 pullay stress

  Mass of Ions in am
   POMASS =  32.07
  Ionic Valenz
   ZVAL   =   6.00
  Atomic Wigner-Seitz radii
   RWIGS  =  -1.00
  virtual crystal weights 
   VCA    =   1.00
   NELECT =     336.0000    total number of electrons
   NUPDOWN=      -1.0000    fix difference up-down

 DOS related values:
   EMIN   =  10.00;   EMAX   =-10.00  energy-range for DOS
   EFERMI =   0.00
   ISMEAR =    -5;   SIGMA  =   0.05  broadening in eV -4-tet -1-fermi 0-gaus

 Electronic relaxation 2 (details)
   IALGO  =     38    algorithm
   LDIAG  =      T    sub-space diagonalisation (order eigenvalues)
   LSUBROT=      F    optimize rotation matrix (better conditioning)
   TURBO    =      0    0=normal 1=particle mesh
   IRESTART =      0    0=no restart 2=restart with 2 vectors
   NREBOOT  =      0    no. of reboots
   NMIN     =      0    reboot dimension
   EREF     =   0.00    reference energy to select bands
   IMIX   =      4    mixing-type and parameters
     AMIX     =   0.40;   BMIX     =  1.00
     AMIX_MAG =   1.60;   BMIX_MAG =  1.00
     AMIN     =   0.10
     WC   =   100.;   INIMIX=   1;  MIXPRE=   1;  MAXMIX= -45

 Intra band minimization:
   WEIMIN = 0.0000     energy-eigenvalue tresh-hold
   EBREAK =  0.98E-12  absolut break condition
   DEPER  =   0.30     relativ break condition  

   TIME   =   0.40     timestep for ELM

  volume/ion in A,a.u.               =      33.28       224.58
  Fermi-wavevector in a.u.,A,eV,Ry     =   0.924835  1.747685 11.637339  0.855320
  Thomas-Fermi vector in A             =   2.050624

 Write flags
   LWAVE        =      F    write WAVECAR
   LDOWNSAMPLE  =      F    k-point downsampling of WAVECAR
   LCHARG       =      F    write CHGCAR
   LVTOT        =      F    write LOCPOT, total local potential
   LVHAR        =      F    write LOCPOT, Hartree potential only
   LELF         =      F    write electronic localiz. function (ELF)
   LORBIT       =     11    0 simple, 1 ext, 2 COOP (PROOUT), +10 PAW based schemes


 Dipole corrections
   LMONO  =      F    monopole corrections only (constant potential shift)
   LDIPOL =      F    correct potential (dipole corrections)
   IDIPOL =      0    1-x, 2-y, 3-z, 4-all directions 
   EPSILON=  1.0000000 bulk dielectric constant

 Exchange correlation treatment:
   GGA     =    --    GGA type
   LEXCH   =     8    internal setting for exchange type
   LIBXC   =     F    Libxc                    
   VOSKOWN =     0    Vosko Wilk Nusair interpolation
   LHFCALC =     F    Hartree Fock is set to
   LHFONE  =     F    Hartree Fock one center treatment
   AEXX    =    0.0000 exact exchange contribution

 Linear response parameters
   LEPSILON=     F    determine dielectric tensor
   LRPA    =     F    only Hartree local field effects (RPA)
   LNABLA  =     F    use nabla operator in PAW spheres
   LVEL    =     F    velocity operator in full k-point grid
   CSHIFT  =0.1000    complex shift for real part using Kramers Kronig
   OMEGAMAX=  -1.0    maximum frequency
   DEG_THRESHOLD= 0.2000000E-02 threshold for treating states as degnerate
   RTIME   =   -0.100 relaxation time in fs
  (WPLASMAI=    0.000 imaginary part of plasma frequency in eV, 0.658/RTIME)
   DFIELD  = 0.0000000 0.0000000 0.0000000 field for delta impulse in time

  Optional k-point grid parameters
   LKPOINTS_OPT  =     F    use optional k-point grid
   KPOINTS_OPT_MODE=     1    mode for optional k-point grid

 Orbital magnetization related:
   ORBITALMAG=     F  switch on orbital magnetization
   LCHIMAG   =     F  perturbation theory with respect to B field
   DQ        =  0.001000  dq finite difference perturbation B field
   LLRAUG    =     F  two centre corrections for induced B field



--------------------------------------------------------------------------------------------------------


 Static calculation
 charge density and potential will be updated during run
 spin polarized calculation
 Variant of blocked Davidson
 Davidson routine will perform the subspace rotation
 perform sub-space diagonalisation
    after iterative eigenvector-optimisation
 modified Broyden-mixing scheme, WC =      100.0
 initial mixing is a Kerker type mixing with AMIX =  0.4000 and BMIX =      1.0000
 Hartree-type preconditioning will be used
 using additional bands           88
 reciprocal scheme for non local part
 use partial core corrections
 calculate Harris-corrections to forces   (improved forces if not selfconsistent)
 use gradient corrections 
 use of overlap-Matrix (Vanderbilt PP)
 Fermi weights with tetrahedron method with Bloechl corrections


--------------------------------------------------------------------------------------------------------


  energy-cutoff  :      520.00
  volume of cell :     1863.68
      direct lattice vectors                 reciprocal lattice vectors
     0.000000000 10.307367086 -0.372855731     0.000000000  0.096453423 -0.015606996
    16.788494411  0.000000000  0.000000000     0.059564603  0.000000000  0.000000000
     0.000000000 -1.732519801-10.707215182     0.000000000 -0.003358783 -0.092851486

  length of vectors
    10.314108670 16.788494411 10.846477853     0.097707938  0.059564603  0.092912216



 k-points in units of 2pi/SCALE and weight: pymatgen with grid density = 595 / numbe
   0.00000000  0.00000000 -0.00000000       0.125
   0.00000000  0.04822671 -0.00780350       0.125
   0.02978230  0.00000000 -0.00000000       0.125
   0.02978230  0.04822671 -0.00780350       0.125
   0.00000000 -0.00167939 -0.04642574       0.125
   0.00000000  0.04654732 -0.05422924       0.125
   0.02978230 -0.00167939 -0.04642574       0.125
   0.02978230  0.04654732 -0.05422924       0.125

 k-points in reciprocal lattice and weights: pymatgen with grid density = 595 / numbe
   0.00000000  0.00000000  0.00000000       0.125
   0.50000000  0.00000000  0.00000000       0.125
   0.00000000  0.50000000  0.00000000       0.125
   0.50000000  0.50000000  0.00000000       0.125
   0.00000000  0.00000000  0.50000000       0.125
   0.50000000  0.00000000  0.50000000       0.125
   0.00000000  0.50000000  0.50000000       0.125
   0.50000000  0.50000000  0.50000000       0.125

 position of ions in fractional coordinates (direct lattice) 
   0.88642314  0.46700475  0.67812639
   0.88642314  0.96700475  0.67812639
   0.32956326  0.18874382  0.55070772
   0.32956326  0.68874382  0.55070772
   0.91267129  0.10524188  0.91196047
   0.91267129  0.60524188  0.91196047
   0.23973640  0.30083105  0.77657419
   0.23973640  0.80083105  0.77657419
   0.14441752  0.30568876  0.22439668
   0.14441752  0.80568876  0.22439668
   0.85558248  0.19431124  0.77560332
   0.85558248  0.69431124  0.77560332
   0.76026360  0.19916895  0.22342581
   0.76026360  0.69916895  0.22342581
   0.17043674  0.43874382  0.44929228
   0.17043674  0.93874382  0.44929228
   0.41267129  0.14475812  0.91196047
   0.41267129  0.64475812  0.91196047
   0.38642314  0.28299525  0.67812639
   0.38642314  0.78299525  0.67812639
   0.64441752  0.44431124  0.22439668
   0.64441752  0.94431124  0.22439668
   0.82956326  0.06125618  0.55070772
   0.82956326  0.56125618  0.55070772
   0.26026360  0.05083105  0.22342581
   0.26026360  0.55083105  0.22342581
   0.61357686  0.21700475  0.32187361
   0.61357686  0.71700475  0.32187361
   0.11357686  0.03299525  0.32187361
   0.11357686  0.53299525  0.32187361
   0.05989570  0.34508773  0.37356241
   0.05989570  0.84508773  0.37448437
   0.74342521  0.28934434  0.07116523
   0.74342521  0.78934434  0.07116523
   0.58732871  0.35524188  0.08803953
   0.58732871  0.85524188  0.08803953
   0.25657479  0.21065566  0.92883477
   0.25657479  0.71065566  0.92883477
   0.08732871  0.39475812  0.08803953
   0.08732871  0.89475812  0.08803953
   0.44010430  0.09508773  0.62551563
   0.44010430  0.59508773  0.62551563
   0.35558248  0.05568876  0.77560332
   0.35558248  0.55568876  0.77560332
   0.73973640  0.44916895  0.77657419
   0.73973640  0.94916895  0.77657419
   0.94010430  0.15491227  0.62551563
   0.94010430  0.65491227  0.62551563
   0.24342521  0.46065566  0.07116523
   0.24342521  0.96065566  0.07116523
   0.75657479  0.03934434  0.92883477
   0.75657479  0.53934434  0.92883477
   0.55989570  0.40491227  0.37448437
   0.55989570  0.90491227  0.37448437
   0.67043674  0.31125618  0.44929228
   0.67043674  0.81125618  0.44929228

 position of ions in cartesian coordinates  (Angst):
   7.84030666  7.96182132 -7.59135308
  16.23455387  7.96182132 -7.59135308
   3.16872461  2.44281751 -6.01942562
  11.56297182  2.44281751 -6.01942562
   1.76685280  7.82724839-10.10485172
  10.16110000  7.82724839-10.10485172
   5.05050035  1.12562097 -8.40433404
  13.44474755  1.12562097 -8.40433404
   5.13205407  1.09979266 -2.45651044
  13.52630128  1.09979266 -2.45651044
   3.26219313  7.47505463 -8.62356047
  11.65644034  7.47505463 -8.62356047
   3.34374686  7.44922632 -2.67573688
  11.73799406  7.44922632 -2.67573688
   7.36584822  0.97834624 -4.87421742
  15.76009542  0.97834624 -4.87421742
   2.43027081  2.67356485 -9.91842386
  10.82451801  2.67356485 -9.91842386
   4.75106415  2.80813777 -7.40492521
  13.14531135  2.80813777 -7.40492521
   7.45931673  6.25347620 -2.64293831
  15.85356394  6.25347620 -2.64293831
   1.02839899  7.59650105 -6.20585349
   9.42264619  7.59650105 -6.20585349
   0.85337674  2.29554277 -2.48930901
   9.24762395  2.29554277 -2.48930901
   3.64318306  5.76670951 -3.67514570
  12.03743026  5.76670951 -3.67514570
   0.55394055  0.61302597 -3.48871783
   8.94818775  0.61302597 -3.48871783
   5.79350349 -0.02983730 -4.02214555
  14.18775070 -0.03143461 -4.03201715
   4.85765589  7.53946136 -1.03917182
  13.25190310  7.53946136 -1.03917182
   5.96397640  5.90128244 -1.16164705
  14.35822361  5.90128244 -1.16164705
   3.53659131  1.03538593-10.04089909
  11.93083852  1.03538593-10.04089909
   6.62739441  0.74759889 -0.97521919
  15.02164161  0.74759889 -0.97521919
   1.59637989  3.45259836 -6.86162589
   9.99062710  3.45259836 -6.86162589
   0.93493047  2.32137108 -8.43713261
   9.32917768  2.32137108 -8.43713261
   7.54087046  6.27930451 -8.59076190
  15.93511767  6.27930451 -8.59076190
   2.60074371  8.60628190 -7.04805376
  10.99499092  8.60628190 -7.04805376
   7.73371492  2.38577782 -0.85274396
  16.12796212  2.38577782 -0.85274396
   0.66053229  6.18906947-10.22732695
   9.05477950  6.18906947-10.22732695
   6.79786731  5.12224893 -4.21844502
  15.19211452  5.12224893 -4.21844502
   5.22552259  6.13202978 -5.06064529
  13.61976980  6.13202978 -5.06064529



--------------------------------------------------------------------------------------------------------


 k-point   1 :   0.0000 0.0000 0.0000  plane waves:   50179
 k-point   2 :   0.5000 0.0000 0.0000  plane waves:   50160
 k-point   3 :   0.0000 0.5000 0.0000  plane waves:   50162
 k-point   4 :   0.5000 0.5000 0.0000  plane waves:   50192
 k-point   5 :   0.0000 0.0000 0.5000  plane waves:   50190
 k-point   6 :   0.5000 0.0000 0.5000  plane waves:   50190
 k-point   7 :   0.0000 0.5000 0.5000  plane waves:   50172
 k-point   8 :   0.5000 0.5000 0.5000  plane waves:   50200

 maximum and minimum number of plane-waves per node :     50200    50160

 maximum number of plane-waves:     50200
 maximum index in each direction: 
   IXMAX=   19   IYMAX=   31   IZMAX=   20
   IXMIN=  -19   IYMIN=  -31   IZMIN=  -20


 serial   3D FFT for wavefunctions
 parallel 3D FFT for charge:
    minimum data exchange during FFTs selected (reduces bandwidth)


 total amount of memory used by VASP MPI-rank0   322725. kBytes
=======================================================================

   base      :      30000. kBytes
   nonl-proj :      70692. kBytes
   fftplans  :      34504. kBytes
   grid      :      83442. kBytes
   one-center:        344. kBytes
   wavefun   :     103743. kBytes

     INWAV:  cpu time      0.0000: real time      0.0002
 Broyden mixing: mesh for mixing (old mesh)
   NGX = 39   NGY = 63   NGZ = 41
  (NGX  =160   NGY  =252   NGZ  =168)
  gives a total of 100737 points

 initial charge density was supplied:
 charge density of overlapping atoms calculated
 number of electron     336.0000000 magnetization      56.0000000
 keeping initial charge density in first step


--------------------------------------------------------------------------------------------------------


 Maximum index for augmentation-charges         3947 (set IRDMAX)


--------------------------------------------------------------------------------------------------------


 First call to EWALD:  gamma=   0.144
 Maximum number of real-space cells 3x 2x 3
 Maximum number of reciprocal cells 2x 4x 2

    FEWALD:  cpu time      0.0021: real time      0.0021


--------------------------------------- Iteration      1(   1)  ---------------------------------------


    POTLOK:  cpu time      0.4908: real time      0.4909
    SETDIJ:  cpu time      3.0568: real time      3.0571
     EDDAV:  cpu time     49.8685: real time     49.8735
 BZINTS: Fermi energy:   10.166567;  336.000000 electrons
         Band energy: 0.225102E+03;  BLOECHL correction:   -0.008815
       DOS:  cpu time      0.0469: real time      0.0469
    --------------------------------------------
      LOOP:  cpu time     53.4630: real time     53.4685

 eigenvalue-minimisations  :  8192
 total energy-change (2. order) : 0.2106269E+04  (-0.1333799E+05)
 number of electron     336.0000000 magnetization      56.0000000
 augmentation part      336.0000000 magnetization      56.0000000

 Free energy of the ion-electron system (eV)
  ---------------------------------------------------
  alpha Z        PSCENC =       253.99581917
  Ewald energy   TEWEN  =     -9970.11722662
  -Hartree energ DENC   =     -4766.48152546
  -exchange      EXHF   =         0.00000000
  -V(xc)+E(xc)   XCENC  =       682.52373665
  PAW double counting   =     12174.71095765   -11995.46358648
  entropy T*S    EENTRO =         0.00000000
  eigenvalues    EBANDS =       225.10150137
  atomic energy  EATOM  =     15501.99929693
  Solvation  Ediel_sol  =         0.00000000
  ---------------------------------------------------
  free energy    TOTEN  =      2106.26897322 eV

  energy without entropy =     2106.26897322  energy(sigma->0) =     2106.26897322


--------------------------------------------------------------------------------------------------------




--------------------------------------- Iteration      1(   2)  ---------------------------------------


     EDDAV:  cpu time     54.9779: real time     54.9836
 BZINTS: Fermi energy:    1.451133;  336.000000 electrons
         Band energy:-0.187489E+04;  BLOECHL correction:    0.000000
       DOS:  cpu time      0.0259: real time      0.0260
    --------------------------------------------
      LOOP:  cpu time     55.0037: real time     55.0096

 eigenvalue-minimisations  : 10272
 total energy-change (2. order) :-0.2099991E+04  (-0.2021797E+04)
 number of electron     336.0000000 magnetization      56.0000000
 augmentation part      336.0000000 magnetization      56.0000000

 Free energy of the ion-electron system (eV)
  ---------------------------------------------------
  alpha Z        PSCENC =       253.99581917
  Ewald energy   TEWEN  =     -9970.11722662
  -Hartree energ DENC   =     -4766.48152546
  -exchange      EXHF   =         0.00000000
  -V(xc)+E(xc)   XCENC  =       682.52373665
  PAW double counting   =     12174.71095765   -11995.46358648
  entropy T*S    EENTRO =         0.00000000
  eigenvalues    EBANDS =     -1874.88968753
  atomic energy  EATOM  =     15501.99929693
  Solvation  Ediel_sol  =         0.00000000
  ---------------------------------------------------
  free energy    TOTEN  =         6.27778432 eV

  energy without entropy =        6.27778432  energy(sigma->0) =        6.27778432


--------------------------------------------------------------------------------------------------------




--------------------------------------- Iteration      1(   3)  ---------------------------------------


     EDDAV:  cpu time     56.0664: real time     56.0730
 BZINTS: Fermi energy:    0.220139;  336.000000 electrons
         Band energy:-0.209475E+04;  BLOECHL correction:    0.000000
       DOS:  cpu time      0.0260: real time      0.0260
    --------------------------------------------
      LOOP:  cpu time     56.0924: real time     56.0991

 eigenvalue-minimisations  : 10240
 total energy-change (2. order) :-0.2198562E+03  (-0.2171703E+03)
 number of electron     336.0000000 magnetization      56.0000000
 augmentation part      336.0000000 magnetization      56.0000000

 Free energy of the ion-electron system (eV)
  ---------------------------------------------------
  alpha Z        PSCENC =       253.99581917
  Ewald energy   TEWEN  =     -9970.11722662
  -Hartree energ DENC   =     -4766.48152546
  -exchange      EXHF   =         0.00000000
  -V(xc)+E(xc)   XCENC  =       682.52373665
  PAW double counting   =     12174.71095765   -11995.46358648
  entropy T*S    EENTRO =         0.00000000
  eigenvalues    EBANDS =     -2094.74588397
  atomic energy  EATOM  =     15501.99929693
  Solvation  Ediel_sol  =         0.00000000
  ---------------------------------------------------
  free energy    TOTEN  =      -213.57841212 eV

  energy without entropy =     -213.57841212  energy(sigma->0) =     -213.57841212


--------------------------------------------------------------------------------------------------------




--------------------------------------- Iteration      1(   4)  ---------------------------------------


     EDDAV:  cpu time     57.1740: real time     57.1885
 BZINTS: Fermi energy:    0.191647;  336.000000 electrons
         Band energy:-0.209964E+04;  BLOECHL correction:    0.000000
       DOS:  cpu time      0.0259: real time      0.0260
    --------------------------------------------
      LOOP:  cpu time     57.1999: real time     57.2144

 eigenvalue-minimisations  : 10336
 total energy-change (2. order) :-0.4898456E+01  (-0.4880113E+01)
 number of electron     336.0000000 magnetization      56.0000000
 augmentation part      336.0000000 magnetization      56.0000000

 Free energy of the ion-electron system (eV)
  ---------------------------------------------------
  alpha Z        PSCENC =       253.99581917
  Ewald energy   TEWEN  =     -9970.11722662
  -Hartree energ DENC   =     -4766.48152546
  -exchange      EXHF   =         0.00000000
  -V(xc)+E(xc)   XCENC  =       682.52373665
  PAW double counting   =     12174.71095765   -11995.46358648
  entropy T*S    EENTRO =         0.00000000
  eigenvalues    EBANDS =     -2099.64434017
  atomic energy  EATOM  =     15501.99929693
  Solvation  Ediel_sol  =         0.00000000
  ---------------------------------------------------
  free energy    TOTEN  =      -218.47686833 eV

  energy without entropy =     -218.47686833  energy(sigma->0) =     -218.47686833


--------------------------------------------------------------------------------------------------------




--------------------------------------- Iteration      1(   5)  ---------------------------------------


     EDDAV:  cpu time     50.2616: real time     50.2677
 BZINTS: Fermi energy:    0.191337;  336.000000 electrons
         Band energy:-0.209978E+04;  BLOECHL correction:   -0.000000
       DOS:  cpu time      0.0307: real time      0.0308
    CHARGE:  cpu time      1.6863: real time      1.6873
    MIXING:  cpu time      0.0107: real time      0.0107
    --------------------------------------------
      LOOP:  cpu time     51.9894: real time     51.9966

 eigenvalue-minimisations  : 10048
 total energy-change (2. order) :-0.1350966E+00  (-0.1350303E+00)
 number of electron     335.9999997 magnetization      44.9918631
 augmentation part      -47.3227438 magnetization      44.8832661

 Broyden mixing:
  rms(total) = 0.82907E+01    rms(broyden)= 0.82907E+01
  rms(prec ) = 0.83106E+01
  weight for this iteration     100.00

 Free energy of the ion-electron system (eV)
  ---------------------------------------------------
  alpha Z        PSCENC =       253.99581917
  Ewald energy   TEWEN  =     -9970.11722662
  -Hartree energ DENC   =     -4766.48152546
  -exchange      EXHF   =         0.00000000
  -V(xc)+E(xc)   XCENC  =       682.52373665
  PAW double counting   =     12174.71095765   -11995.46358648
  entropy T*S    EENTRO =         0.00000000
  eigenvalues    EBANDS =     -2099.77943678
  atomic energy  EATOM  =     15501.99929693
  Solvation  Ediel_sol  =         0.00000000
  ---------------------------------------------------
  free energy    TOTEN  =      -218.61196493 eV

  energy without entropy =     -218.61196493  energy(sigma->0) =     -218.61196493


--------------------------------------------------------------------------------------------------------




--------------------------------------- Iteration      1(   6)  ---------------------------------------


    POTLOK:  cpu time      0.4387: real time      0.4394
    SETDIJ:  cpu time      5.1898: real time      5.1903
     EDDAV:  cpu time     50.8272: real time     50.8323
 BZINTS: Fermi energy:    0.409276;  336.000000 electrons
         Band energy:-0.201426E+04;  BLOECHL correction:    0.000000
       DOS:  cpu time      0.0258: real time      0.0259
    CHARGE:  cpu time     13.5309: real time     13.5319
    MIXING:  cpu time      0.0104: real time      0.0104
    --------------------------------------------
      LOOP:  cpu time     70.0228: real time     70.0302

 eigenvalue-minimisations  :  9600
 total energy-change (2. order) : 0.1022861E+03  (-0.2667573E+02)
 number of electron     335.9999997 magnetization      26.4803641
 augmentation part      -47.6487322 magnetization      27.5385255

 Broyden mixing:
  rms(total) = 0.49378E+01    rms(broyden)= 0.49378E+01
  rms(prec ) = 0.49601E+01
  weight for this iteration     100.00

 eigenvalues of (default mixing * dielectric matrix)
  average eigenvalue GAMMA=   1.6678
  1.6678

 Free energy of the ion-electron system (eV)
  ---------------------------------------------------
  alpha Z        PSCENC =       253.99581917
  Ewald energy   TEWEN  =     -9970.11722662
  -Hartree energ DENC   =     -4810.83834182
  -exchange      EXHF   =         0.00000000
  -V(xc)+E(xc)   XCENC  =       746.11379892
  PAW double counting   =     20733.46770073   -20556.69016969
  entropy T*S    EENTRO =         0.00000000
  eigenvalues    EBANDS =     -2014.25673167
  atomic energy  EATOM  =     15501.99929693
  Solvation  Ediel_sol  =         0.00000000
  ---------------------------------------------------
  free energy    TOTEN  =      -116.32585405 eV

  energy without entropy =     -116.32585405  energy(sigma->0) =     -116.32585405


--------------------------------------------------------------------------------------------------------




--------------------------------------- Iteration      1(   7)  ---------------------------------------


    POTLOK:  cpu time      0.4422: real time      0.4489
    SETDIJ:  cpu time      7.1158: real time      7.1163
     EDDAV:  cpu time     56.8532: real time     56.8590
 BZINTS: Fermi energy:    0.738052;  336.000000 electrons
         Band energy:-0.186775E+04;  BLOECHL correction:    0.000000
       DOS:  cpu time      0.0290: real time      0.0290
    CHARGE:  cpu time      6.4057: real time      6.4062
    MIXING:  cpu time      0.0194: real time      0.0194
    --------------------------------------------
      LOOP:  cpu time     70.8653: real time     70.8789

 eigenvalue-minimisations  : 10112
 total energy-change (2. order) :-0.1115343E+02  (-0.2697804E+01)
 number of electron     335.9999997 magnetization      19.7299413
 augmentation part      -47.3158671 magnetization      20.9352524

 Broyden mixing:
  rms(total) = 0.14023E+01    rms(broyden)= 0.14023E+01
  rms(prec ) = 0.14059E+01
  weight for this iteration     100.00

 eigenvalues of (default mixing * dielectric matrix)
  average eigenvalue GAMMA=   1.4835
  0.7881  2.1790

 Free energy of the ion-electron system (eV)
  ---------------------------------------------------
  alpha Z        PSCENC =       253.99581917
  Ewald energy   TEWEN  =     -9970.11722662
  -Hartree energ DENC   =     -4970.42568907
  -exchange      EXHF   =         0.00000000
  -V(xc)+E(xc)   XCENC  =       751.45345454
  PAW double counting   =     37053.66493193   -36880.30246847
  entropy T*S    EENTRO =         0.00000000
  eigenvalues    EBANDS =     -1867.74740243
  atomic energy  EATOM  =     15501.99929693
  Solvation  Ediel_sol  =         0.00000000
  ---------------------------------------------------
  free energy    TOTEN  =      -127.47928402 eV

  energy without entropy =     -127.47928402  energy(sigma->0) =     -127.47928402


--------------------------------------------------------------------------------------------------------




--------------------------------------- Iteration      1(   8)  ---------------------------------------


    POTLOK:  cpu time      0.4589: real time      0.4600
    SETDIJ:  cpu time      4.0911: real time      4.0928
     EDDAV:  cpu time     59.2087: real time     59.2145
 BZINTS: Fermi energy:    0.706127;  336.000000 electrons
         Band energy:-0.185534E+04;  BLOECHL correction:    0.000000
       DOS:  cpu time      0.0257: real time      0.0258
    CHARGE:  cpu time     11.8222: real time     11.8229
    MIXING:  cpu time      0.0161: real time      0.0161
    --------------------------------------------
      LOOP:  cpu time     75.6227: real time     75.6321

 eigenvalue-minimisations  :  9312
 total energy-change (2. order) :-0.4266548E+02  (-0.1969976E+01)
 number of electron     335.9999997 magnetization      16.0569028
 augmentation part      -47.0122534 magnetization      17.1014618

 Broyden mixing:
  rms(total) = 0.78386E+00    rms(broyden)= 0.78386E+00
  rms(prec ) = 0.78899E+00
  weight for this iteration     100.00

 eigenvalues of (default mixing * dielectric matrix)
  average eigenvalue GAMMA=   1.3390
  2.4912  0.9433  0.5825

 Free energy of the ion-electron system (eV)
  ---------------------------------------------------
  alpha Z        PSCENC =       253.99581917
  Ewald energy   TEWEN  =     -9970.11722662
  -Hartree energ DENC   =     -4999.88033349
  -exchange      EXHF   =         0.00000000
  -V(xc)+E(xc)   XCENC  =       726.59826937
  PAW double counting   =     40187.32995218   -40014.73422571
  entropy T*S    EENTRO =         0.00000000
  eigenvalues    EBANDS =     -1855.33631357
  atomic energy  EATOM  =     15501.99929693
  Solvation  Ediel_sol  =         0.00000000
  ---------------------------------------------------
  free energy    TOTEN  =      -170.14476175 eV

  energy without entropy =     -170.14476175  energy(sigma->0) =     -170.14476175


--------------------------------------------------------------------------------------------------------




--------------------------------------- Iteration      1(   9)  ---------------------------------------


    POTLOK:  cpu time      0.4725: real time      0.4737
    SETDIJ:  cpu time      4.3559: real time      4.3562
     EDDAV:  cpu time     61.3359: real time     61.3419
 BZINTS: Fermi energy:    0.628092;  336.000000 electrons
         Band energy:-0.186657E+04;  BLOECHL correction:    0.000000
       DOS:  cpu time      0.0265: real time      0.0266
    CHARGE:  cpu time     10.8078: real time     10.8085
    MIXING:  cpu time      0.0150: real time      0.0150
    --------------------------------------------
      LOOP:  cpu time     77.0135: real time     77.0219

 eigenvalue-minimisations  : 10240
 total energy-change (2. order) :-0.1683207E+02  (-0.6458665E+00)
 number of electron     335.9999997 magnetization      11.5291269
 augmentation part      -46.9152501 magnetization      12.3667344

 Broyden mixing:
  rms(total) = 0.43646E+00    rms(broyden)= 0.43646E+00
  rms(prec ) = 0.44853E+00
  weight for this iteration     100.00

 eigenvalues of (default mixing * dielectric matrix)
  average eigenvalue GAMMA=   1.3243
  2.5748  1.3004  0.7110  0.7110

 Free energy of the ion-electron system (eV)
  ---------------------------------------------------
  alpha Z        PSCENC =       253.99581917
  Ewald energy   TEWEN  =     -9970.11722662
  -Hartree energ DENC   =     -4996.12924863
  -exchange      EXHF   =         0.00000000
  -V(xc)+E(xc)   XCENC  =       717.23019145
  PAW double counting   =     40973.28305885   -40800.66748701
  entropy T*S    EENTRO =         0.00000000
  eigenvalues    EBANDS =     -1866.57123596
  atomic energy  EATOM  =     15501.99929693
  Solvation  Ediel_sol  =         0.00000000
  ---------------------------------------------------
  free energy    TOTEN  =      -186.97683181 eV

  energy without entropy =     -186.97683181  energy(sigma->0) =     -186.97683181


--------------------------------------------------------------------------------------------------------




--------------------------------------- Iteration      1(  10)  ---------------------------------------


    POTLOK:  cpu time      0.4632: real time      0.4634
    SETDIJ:  cpu time     12.2405: real time     12.2412
     EDDAV:  cpu time     62.9072: real time     62.9169
 BZINTS: Fermi energy:    0.474959;  336.000000 electrons
         Band energy:-0.190111E+04;  BLOECHL correction:    0.000000
       DOS:  cpu time      0.0266: real time      0.0266
    CHARGE:  cpu time      3.5412: real time      3.5415
    MIXING:  cpu time      0.0137: real time      0.0137
    --------------------------------------------
      LOOP:  cpu time     79.1924: real time     79.2033

 eigenvalue-minimisations  :  9984
 total energy-change (2. order) :-0.2005711E+02  (-0.1302363E+01)
 number of electron     335.9999997 magnetization       5.3079063
 augmentation part      -46.8735475 magnetization       5.8423158

 Broyden mixing:
  rms(total) = 0.32401E+00    rms(broyden)= 0.32401E+00
  rms(prec ) = 0.33697E+00
  weight for this iteration     100.00

 eigenvalues of (default mixing * dielectric matrix)
  average eigenvalue GAMMA=   1.4492
  2.4867  2.4867  0.9413  0.7292  0.6021

 Free energy of the ion-electron system (eV)
  ---------------------------------------------------
  alpha Z        PSCENC =       253.99581917
  Ewald energy   TEWEN  =     -9970.11722662
  -Hartree energ DENC   =     -4970.72568399
  -exchange      EXHF   =         0.00000000
  -V(xc)+E(xc)   XCENC  =       705.65454838
  PAW double counting   =     40980.86750049   -40807.59708990
  entropy T*S    EENTRO =         0.00000000
  eigenvalues    EBANDS =     -1901.11110567
  atomic energy  EATOM  =     15501.99929693
  Solvation  Ediel_sol  =         0.00000000
  ---------------------------------------------------
  free energy    TOTEN  =      -207.03394120 eV

  energy without entropy =     -207.03394120  energy(sigma->0) =     -207.03394120


--------------------------------------------------------------------------------------------------------




--------------------------------------- Iteration      1(  11)  ---------------------------------------


    POTLOK:  cpu time      0.4572: real time      0.4582
    SETDIJ:  cpu time      5.0992: real time      5.0995
     EDDAV:  cpu time     57.8729: real time     57.8788
 BZINTS: Fermi energy:    0.256994;  336.000000 electrons
         Band energy:-0.195847E+04;  BLOECHL correction:    0.000000
       DOS:  cpu time      0.0266: real time      0.0266
    CHARGE:  cpu time      5.4924: real time      5.4928
    MIXING:  cpu time      0.0163: real time      0.0163
    --------------------------------------------
      LOOP:  cpu time     68.9645: real time     68.9723

 eigenvalue-minimisations  :  9952
 total energy-change (2. order) :-0.1783997E+02  (-0.2163295E+01)
 number of electron     335.9999997 magnetization       3.5721538
 augmentation part      -46.9052009 magnetization       3.7554913

 Broyden mixing:
  rms(total) = 0.18649E+00    rms(broyden)= 0.18648E+00
  rms(prec ) = 0.20018E+00
  weight for this iteration     100.00

 eigenvalues of (default mixing * dielectric matrix)
  average eigenvalue GAMMA=   1.4668
  2.7972  2.7972  1.0274  0.8891  0.6995  0.5903

 Free energy of the ion-electron system (eV)
  ---------------------------------------------------
  alpha Z        PSCENC =       253.99581917
  Ewald energy   TEWEN  =     -9970.11722662
  -Hartree energ DENC   =     -4921.16268944
  -exchange      EXHF   =         0.00000000
  -V(xc)+E(xc)   XCENC  =       694.54860933
  PAW double counting   =     40408.16104082   -40233.83164110
  entropy T*S    EENTRO =         0.00000000
  eigenvalues    EBANDS =     -1958.46712124
  atomic energy  EATOM  =     15501.99929693
  Solvation  Ediel_sol  =         0.00000000
  ---------------------------------------------------
  free energy    TOTEN  =      -224.87391216 eV

  energy without entropy =     -224.87391216  energy(sigma->0) =     -224.87391216


--------------------------------------------------------------------------------------------------------




--------------------------------------- Iteration      1(  12)  ---------------------------------------


    POTLOK:  cpu time      0.4690: real time      0.4701
    SETDIJ:  cpu time      8.6619: real time      8.6624
     EDDAV:  cpu time     61.0896: real time     61.0986
 BZINTS: Fermi energy:    0.183655;  336.000000 electrons
         Band energy:-0.197913E+04;  BLOECHL correction:    0.000000
       DOS:  cpu time      0.0275: real time      0.0276
    CHARGE:  cpu time      8.8243: real time      8.8250
    MIXING:  cpu time      0.0108: real time      0.0108
    --------------------------------------------
      LOOP:  cpu time     79.0831: real time     79.0945

 eigenvalue-minimisations  : 10048
 total energy-change (2. order) :-0.3389182E+01  (-0.3882186E+00)
 number of electron     335.9999997 magnetization       2.3907122
 augmentation part      -46.9153159 magnetization       2.4738195

 Broyden mixing:
  rms(total) = 0.15961E+00    rms(broyden)= 0.15961E+00
  rms(prec ) = 0.17215E+00
  weight for this iteration     100.00

 eigenvalues of (default mixing * dielectric matrix)
  average eigenvalue GAMMA=   1.4920
  3.1009  3.1009  1.0558  1.0558  0.7809  0.7809  0.5684

 Free energy of the ion-electron system (eV)
  ---------------------------------------------------
  alpha Z        PSCENC =       253.99581917
  Ewald energy   TEWEN  =     -9970.11722662
  -Hartree energ DENC   =     -4901.66848028
  -exchange      EXHF   =         0.00000000
  -V(xc)+E(xc)   XCENC  =       692.09412265
  PAW double counting   =     39975.76839397   -39801.20213420
  entropy T*S    EENTRO =         0.00000000
  eigenvalues    EBANDS =     -1979.13288568
  atomic energy  EATOM  =     15501.99929693
  Solvation  Ediel_sol  =         0.00000000
  ---------------------------------------------------
  free energy    TOTEN  =      -228.26309406 eV

  energy without entropy =     -228.26309406  energy(sigma->0) =     -228.26309406


--------------------------------------------------------------------------------------------------------




--------------------------------------- Iteration      1(  13)  ---------------------------------------


    POTLOK:  cpu time      0.4387: real time      0.4396
    SETDIJ:  cpu time      5.0721: real time      5.0725
     EDDAV:  cpu time     53.8565: real time     53.8618
 BZINTS: Fermi energy:    0.115729;  336.000000 electrons
         Band energy:-0.200158E+04;  BLOECHL correction:    0.000000
       DOS:  cpu time      0.0258: real time      0.0259
    CHARGE:  cpu time      7.3369: real time      7.3374
    MIXING:  cpu time      0.0117: real time      0.0117
    --------------------------------------------
      LOOP:  cpu time     66.7417: real time     66.7490

 eigenvalue-minimisations  :  9568
 total energy-change (2. order) :-0.1052551E+01  (-0.1335963E+00)
 number of electron     335.9999997 magnetization       0.8877774
 augmentation part      -46.9735427 magnetization       0.9137730

 Broyden mixing:
  rms(total) = 0.93002E-01    rms(broyden)= 0.93001E-01
  rms(prec ) = 0.99818E-01
  weight for this iteration     100.00

 eigenvalues of (default mixing * dielectric matrix)
  average eigenvalue GAMMA=   1.5517
  3.3225  3.3225  1.5843  1.2838  0.9276  0.6998  0.6998  0.5728

 Free energy of the ion-electron system (eV)
  ---------------------------------------------------
  alpha Z        PSCENC =       253.99581917
  Ewald energy   TEWEN  =     -9970.11722662
  -Hartree energ DENC   =     -4878.53493912
  -exchange      EXHF   =         0.00000000
  -V(xc)+E(xc)   XCENC  =       690.11174103
  PAW double counting   =     39155.47484776   -38980.66918810
  entropy T*S    EENTRO =         0.00000000
  eigenvalues    EBANDS =     -2001.57599637
  atomic energy  EATOM  =     15501.99929693
  Solvation  Ediel_sol  =         0.00000000
  ---------------------------------------------------
  free energy    TOTEN  =      -229.31564532 eV

  energy without entropy =     -229.31564532  energy(sigma->0) =     -229.31564532


--------------------------------------------------------------------------------------------------------




--------------------------------------- Iteration      1(  14)  ---------------------------------------


    POTLOK:  cpu time      0.4568: real time      0.4575
    SETDIJ:  cpu time      9.2651: real time      9.2657
     EDDAV:  cpu time     51.1748: real time     51.1883
 BZINTS: Fermi energy:    0.080299;  336.000000 electrons
         Band energy:-0.201204E+04;  BLOECHL correction:    0.000000
       DOS:  cpu time      0.0258: real time      0.0259
    CHARGE:  cpu time     12.4785: real time     12.4793
    MIXING:  cpu time      0.0154: real time      0.0153
    --------------------------------------------
      LOOP:  cpu time     73.4164: real time     73.4321

 eigenvalue-minimisations  :  8992
 total energy-change (2. order) :-0.6421544E-01  (-0.1621664E-01)
 number of electron     335.9999997 magnetization       0.4181555
 augmentation part      -47.0006317 magnetization       0.4251478

 Broyden mixing:
  rms(total) = 0.43669E-01    rms(broyden)= 0.43669E-01
  rms(prec ) = 0.46373E-01
  weight for this iteration     100.00

 eigenvalues of (default mixing * dielectric matrix)
  average eigenvalue GAMMA=   1.5786
  4.1298  2.5572  2.5572  1.0966  1.0966  0.7712  0.7712  0.5754  0.6521

 Free energy of the ion-electron system (eV)
  ---------------------------------------------------
  alpha Z        PSCENC =       253.99581917
  Ewald energy   TEWEN  =     -9970.11722662
  -Hartree energ DENC   =     -4867.17324950
  -exchange      EXHF   =         0.00000000
  -V(xc)+E(xc)   XCENC  =       689.19944962
  PAW double counting   =     39094.77858993   -38920.01812423
  entropy T*S    EENTRO =         0.00000000
  eigenvalues    EBANDS =     -2012.04441606
  atomic energy  EATOM  =     15501.99929693
  Solvation  Ediel_sol  =         0.00000000
  ---------------------------------------------------
  free energy    TOTEN  =      -229.37986076 eV

  energy without entropy =     -229.37986076  energy(sigma->0) =     -229.37986076


--------------------------------------------------------------------------------------------------------




--------------------------------------- Iteration      1(  15)  ---------------------------------------


    POTLOK:  cpu time      0.4554: real time      0.4625
    SETDIJ:  cpu time      4.2996: real time      4.2999
     EDDAV:  cpu time     56.2260: real time     56.2316
 BZINTS: Fermi energy:    0.078440;  336.000000 electrons
         Band energy:-0.201174E+04;  BLOECHL correction:    0.000000
       DOS:  cpu time      0.0258: real time      0.0259
    CHARGE:  cpu time      7.0973: real time      7.0979
    MIXING:  cpu time      0.0158: real time      0.0158
    --------------------------------------------
      LOOP:  cpu time     68.1198: real time     68.1335

 eigenvalue-minimisations  :  9568
 total energy-change (2. order) : 0.1285098E-02  (-0.2081288E-02)
 number of electron     335.9999997 magnetization       0.1723051
 augmentation part      -46.9944929 magnetization       0.1766083

 Broyden mixing:
  rms(total) = 0.20215E-01    rms(broyden)= 0.20215E-01
  rms(prec ) = 0.21789E-01
  weight for this iteration     100.00

 eigenvalues of (default mixing * dielectric matrix)
  average eigenvalue GAMMA=   1.5649
  4.5528  2.5275  2.5275  1.3362  0.9968  0.9968  0.7587  0.7587  0.6240  0.5697

 Free energy of the ion-electron system (eV)
  ---------------------------------------------------
  alpha Z        PSCENC =       253.99581917
  Ewald energy   TEWEN  =     -9970.11722662
  -Hartree energ DENC   =     -4867.35320423
  -exchange      EXHF   =         0.00000000
  -V(xc)+E(xc)   XCENC  =       689.16177198
  PAW double counting   =     39180.30381684   -39005.63045958
  entropy T*S    EENTRO =         0.00000000
  eigenvalues    EBANDS =     -2011.73839015
  atomic energy  EATOM  =     15501.99929693
  Solvation  Ediel_sol  =         0.00000000
  ---------------------------------------------------
  free energy    TOTEN  =      -229.37857566 eV

  energy without entropy =     -229.37857566  energy(sigma->0) =     -229.37857566


--------------------------------------------------------------------------------------------------------




--------------------------------------- Iteration      1(  16)  ---------------------------------------


    POTLOK:  cpu time      0.4493: real time      0.4503
    SETDIJ:  cpu time      6.8316: real time      6.8337
     EDDAV:  cpu time     58.5448: real time     58.5507
 BZINTS: Fermi energy:    0.076597;  336.000000 electrons
         Band energy:-0.201220E+04;  BLOECHL correction:    0.000000
       DOS:  cpu time      0.0267: real time      0.0268
    CHARGE:  cpu time      8.5675: real time      8.5682
    MIXING:  cpu time      0.0100: real time      0.0100
    --------------------------------------------
      LOOP:  cpu time     74.4299: real time     74.4396

 eigenvalue-minimisations  :  9120
 total energy-change (2. order) : 0.3112375E-02  (-0.5518191E-03)
 number of electron     335.9999997 magnetization       0.0697911
 augmentation part      -46.9933477 magnetization       0.0705899

 Broyden mixing:
  rms(total) = 0.12328E-01    rms(broyden)= 0.12328E-01
  rms(prec ) = 0.13339E-01
  weight for this iteration     100.00

 eigenvalues of (default mixing * dielectric matrix)
  average eigenvalue GAMMA=   1.5466
  4.7571  2.4280  2.4280  1.8410  0.9956  0.9956  0.9235  0.7282  0.7282  0.5814
  0.6064

 Free energy of the ion-electron system (eV)
  ---------------------------------------------------
  alpha Z        PSCENC =       253.99581917
  Ewald energy   TEWEN  =     -9970.11722662
  -Hartree energ DENC   =     -4866.79211672
  -exchange      EXHF   =         0.00000000
  -V(xc)+E(xc)   XCENC  =       689.09349302
  PAW double counting   =     39150.25902284   -38975.60950774
  entropy T*S    EENTRO =         0.00000000
  eigenvalues    EBANDS =     -2012.20424416
  atomic energy  EATOM  =     15501.99929693
  Solvation  Ediel_sol  =         0.00000000
  ---------------------------------------------------
  free energy    TOTEN  =      -229.37546329 eV

  energy without entropy =     -229.37546329  energy(sigma->0) =     -229.37546329


--------------------------------------------------------------------------------------------------------




--------------------------------------- Iteration      1(  17)  ---------------------------------------


    POTLOK:  cpu time      0.4177: real time      0.4187
    SETDIJ:  cpu time     11.8701: real time     11.8709
     EDDAV:  cpu time     58.8501: real time     58.8560
 BZINTS: Fermi energy:    0.078272;  336.000000 electrons
         Band energy:-0.201128E+04;  BLOECHL correction:    0.000000
       DOS:  cpu time      0.0274: real time      0.0275
    CHARGE:  cpu time     11.4933: real time     11.4941
    MIXING:  cpu time      0.0128: real time      0.0128
    --------------------------------------------
      LOOP:  cpu time     82.6714: real time     82.6800

 eigenvalue-minimisations  :  9504
 total energy-change (2. order) :-0.5040270E-03  (-0.1196434E-03)
 number of electron     335.9999997 magnetization       0.0178786
 augmentation part      -46.9882776 magnetization       0.0182766

 Broyden mixing:
  rms(total) = 0.49300E-02    rms(broyden)= 0.49300E-02
  rms(prec ) = 0.55292E-02
  weight for this iteration     100.00

 eigenvalues of (default mixing * dielectric matrix)
  average eigenvalue GAMMA=   1.5760
  4.9476  2.6015  2.6015  2.2023  1.1768  0.9961  0.9961  0.7616  0.7616  0.6822
  0.5892  0.5959

 Free energy of the ion-electron system (eV)
  ---------------------------------------------------
  alpha Z        PSCENC =       253.99581917
  Ewald energy   TEWEN  =     -9970.11722662
  -Hartree energ DENC   =     -4867.75534915
  -exchange      EXHF   =         0.00000000
  -V(xc)+E(xc)   XCENC  =       689.15351074
  PAW double counting   =     39191.23360746   -39016.60835488
  entropy T*S    EENTRO =         0.00000000
  eigenvalues    EBANDS =     -2011.27727097
  atomic energy  EATOM  =     15501.99929693
  Solvation  Ediel_sol  =         0.00000000
  ---------------------------------------------------
  free energy    TOTEN  =      -229.37596731 eV

  energy without entropy =     -229.37596731  energy(sigma->0) =     -229.37596731


--------------------------------------------------------------------------------------------------------




--------------------------------------- Iteration      1(  18)  ---------------------------------------


    POTLOK:  cpu time      0.4241: real time      0.4287
    SETDIJ:  cpu time     13.2871: real time     13.2881
     EDDAV:  cpu time     56.0214: real time     56.0269
 BZINTS: Fermi energy:    0.079544;  336.000000 electrons
         Band energy:-0.201075E+04;  BLOECHL correction:    0.000000
       DOS:  cpu time      0.0258: real time      0.0259
    CHARGE:  cpu time      6.1016: real time      6.1021
    MIXING:  cpu time      0.0173: real time      0.0173
    --------------------------------------------
      LOOP:  cpu time     75.8773: real time     75.8889

 eigenvalue-minimisations  :  9536
 total energy-change (2. order) :-0.1161735E-03  (-0.3940967E-04)
 number of electron     335.9999997 magnetization       0.0051918
 augmentation part      -46.9849459 magnetization       0.0057318

 Broyden mixing:
  rms(total) = 0.44509E-02    rms(broyden)= 0.44509E-02
  rms(prec ) = 0.47032E-02
  weight for this iteration     100.00

 eigenvalues of (default mixing * dielectric matrix)
  average eigenvalue GAMMA=   1.5445
  5.0018  2.6453  2.6453  2.2645  1.1299  1.1299  0.9910  0.9910  0.7250  0.7250
  0.5791  0.6448  0.6062

 Free energy of the ion-electron system (eV)
  ---------------------------------------------------
  alpha Z        PSCENC =       253.99581917
  Ewald energy   TEWEN  =     -9970.11722662
  -Hartree energ DENC   =     -4868.29884051
  -exchange      EXHF   =         0.00000000
  -V(xc)+E(xc)   XCENC  =       689.18881582
  PAW double counting   =     39219.97581430   -39045.36537435
  entropy T*S    EENTRO =         0.00000000
  eigenvalues    EBANDS =     -2010.75438822
  atomic energy  EATOM  =     15501.99929693
  Solvation  Ediel_sol  =         0.00000000
  ---------------------------------------------------
  free energy    TOTEN  =      -229.37608349 eV

  energy without entropy =     -229.37608349  energy(sigma->0) =     -229.37608349


--------------------------------------------------------------------------------------------------------




--------------------------------------- Iteration      1(  19)  ---------------------------------------


    POTLOK:  cpu time      0.4355: real time      0.4365
    SETDIJ:  cpu time      5.1500: real time      5.1504
     EDDAV:  cpu time     50.6942: real time     50.6995
 BZINTS: Fermi energy:    0.078673;  336.000000 electrons
         Band energy:-0.201101E+04;  BLOECHL correction:    0.000000
       DOS:  cpu time      0.0282: real time      0.0283
    CHARGE:  cpu time      5.2267: real time      5.2272
    MIXING:  cpu time      0.0146: real time      0.0146
    --------------------------------------------
      LOOP:  cpu time     61.5492: real time     61.5565

 eigenvalue-minimisations  :  9728
 total energy-change (2. order) :-0.6105445E-05  (-0.6197497E-05)
 number of electron     335.9999997 magnetization      -0.0005329
 augmentation part      -46.9857782 magnetization      -0.0002911

 Broyden mixing:
  rms(total) = 0.20207E-02    rms(broyden)= 0.20206E-02
  rms(prec ) = 0.21952E-02
  weight for this iteration     100.00

 eigenvalues of (default mixing * dielectric matrix)
  average eigenvalue GAMMA=   1.5455
  5.0453  2.7071  2.7071  2.1110  1.4073  1.4073  1.0334  1.0334  0.8576  0.7536
  0.7536  0.5805  0.6088  0.6313

 Free energy of the ion-electron system (eV)
  ---------------------------------------------------
  alpha Z        PSCENC =       253.99581917
  Ewald energy   TEWEN  =     -9970.11722662
  -Hartree energ DENC   =     -4868.02518169
  -exchange      EXHF   =         0.00000000
  -V(xc)+E(xc)   XCENC  =       689.17195870
  PAW double counting   =     39218.64423290   -39044.03065744
  entropy T*S    EENTRO =         0.00000000
  eigenvalues    EBANDS =     -2011.01433155
  atomic energy  EATOM  =     15501.99929693
  Solvation  Ediel_sol  =         0.00000000
  ---------------------------------------------------
  free energy    TOTEN  =      -229.37608959 eV

  energy without entropy =     -229.37608959  energy(sigma->0) =     -229.37608959


--------------------------------------------------------------------------------------------------------




--------------------------------------- Iteration      1(  20)  ---------------------------------------


    POTLOK:  cpu time      0.4278: real time      0.4353
    SETDIJ:  cpu time      9.7346: real time      9.7353
     EDDAV:  cpu time     53.7380: real time     53.7433
 BZINTS: Fermi energy:    0.078294;  336.000000 electrons
         Band energy:-0.201115E+04;  BLOECHL correction:    0.000000
       DOS:  cpu time      0.0274: real time      0.0275
    CHARGE:  cpu time      5.6014: real time      5.6018
    MIXING:  cpu time      0.0138: real time      0.0138
    --------------------------------------------
      LOOP:  cpu time     69.5430: real time     69.5571

 eigenvalue-minimisations  :  9184
 total energy-change (2. order) :-0.1046124E-04  (-0.3462019E-05)
 number of electron     335.9999997 magnetization      -0.0016303
 augmentation part      -46.9863062 magnetization      -0.0015522

 Broyden mixing:
  rms(total) = 0.95027E-03    rms(broyden)= 0.95015E-03
  rms(prec ) = 0.10094E-02
  weight for this iteration     100.00

 eigenvalues of (default mixing * dielectric matrix)
  average eigenvalue GAMMA=   1.5470
  5.0952  2.7081  2.7081  2.0988  2.0988  1.2300  1.2300  0.9905  0.9905  0.7801
  0.7328  0.7328  0.5785  0.6157  0.6157

 Free energy of the ion-electron system (eV)
  ---------------------------------------------------
  alpha Z        PSCENC =       253.99581917
  Ewald energy   TEWEN  =     -9970.11722662
  -Hartree energ DENC   =     -4867.88256990
  -exchange      EXHF   =         0.00000000
  -V(xc)+E(xc)   XCENC  =       689.16495529
  PAW double counting   =     39223.79817226   -39049.18268905
  entropy T*S    EENTRO =         0.00000000
  eigenvalues    EBANDS =     -2011.15185813
  atomic energy  EATOM  =     15501.99929693
  Solvation  Ediel_sol  =         0.00000000
  ---------------------------------------------------
  free energy    TOTEN  =      -229.37610005 eV

  energy without entropy =     -229.37610005  energy(sigma->0) =     -229.37610005


--------------------------------------------------------------------------------------------------------




--------------------------------------- Iteration      1(  21)  ---------------------------------------


    POTLOK:  cpu time      0.4271: real time      0.4275
    SETDIJ:  cpu time      4.1714: real time      4.1718
     EDDAV:  cpu time     52.8259: real time     52.8313
 BZINTS: Fermi energy:    0.078168;  336.000000 electrons
         Band energy:-0.201121E+04;  BLOECHL correction:    0.000000
       DOS:  cpu time      0.0258: real time      0.0258
    CHARGE:  cpu time     10.2293: real time     10.2300
    MIXING:  cpu time      0.0164: real time      0.0164
    --------------------------------------------
      LOOP:  cpu time     67.6959: real time     67.7028

 eigenvalue-minimisations  :  9280
 total energy-change (2. order) : 0.1156433E-05  (-0.8830264E-06)
 number of electron     335.9999997 magnetization      -0.0013482
 augmentation part      -46.9865009 magnetization      -0.0013520

 Broyden mixing:
  rms(total) = 0.42383E-03    rms(broyden)= 0.42355E-03
  rms(prec ) = 0.44597E-03
  weight for this iteration     100.00

 eigenvalues of (default mixing * dielectric matrix)
  average eigenvalue GAMMA=   1.5119
  5.0969  2.6685  2.6685  2.5708  1.6121  1.3997  1.1557  1.1557  0.9283  0.9283
  0.7390  0.7390  0.7256  0.5781  0.6124  0.6124

 Free energy of the ion-electron system (eV)
  ---------------------------------------------------
  alpha Z        PSCENC =       253.99581917
  Ewald energy   TEWEN  =     -9970.11722662
  -Hartree energ DENC   =     -4867.82349868
  -exchange      EXHF   =         0.00000000
  -V(xc)+E(xc)   XCENC  =       689.16133895
  PAW double counting   =     39223.23521088   -39048.61891223
  entropy T*S    EENTRO =         0.00000000
  eigenvalues    EBANDS =     -2011.20812730
  atomic energy  EATOM  =     15501.99929693
  Solvation  Ediel_sol  =         0.00000000
  ---------------------------------------------------
  free energy    TOTEN  =      -229.37609890 eV

  energy without entropy =     -229.37609890  energy(sigma->0) =     -229.37609890


--------------------------------------------------------------------------------------------------------




--------------------------------------- Iteration      1(  22)  ---------------------------------------


    POTLOK:  cpu time      0.4031: real time      0.4095
    SETDIJ:  cpu time     12.5203: real time     12.5212
     EDDAV:  cpu time     55.9222: real time     55.9279
 BZINTS: Fermi energy:    0.078189;  336.000000 electrons
         Band energy:-0.201123E+04;  BLOECHL correction:    0.000000
       DOS:  cpu time      0.0266: real time      0.0267
    CHARGE:  cpu time      3.1301: real time      3.1304
    MIXING:  cpu time      0.0104: real time      0.0104
    --------------------------------------------
      LOOP:  cpu time     72.0128: real time     72.0262

 eigenvalue-minimisations  :  9888
 total energy-change (2. order) : 0.4539979E-06  (-0.1395056E-06)
 number of electron     335.9999997 magnetization      -0.0004739
 augmentation part      -46.9865705 magnetization      -0.0004955

 Broyden mixing:
  rms(total) = 0.23059E-03    rms(broyden)= 0.23009E-03
  rms(prec ) = 0.24481E-03
  weight for this iteration     100.00

 eigenvalues of (default mixing * dielectric matrix)
  average eigenvalue GAMMA=   1.5004
  5.0912  2.6573  2.6573  2.6224  1.6719  1.4392  1.4392  1.0825  1.0825  0.9004
  0.9004  0.7422  0.7422  0.6739  0.5793  0.6124  0.6124

 Free energy of the ion-electron system (eV)
  ---------------------------------------------------
  alpha Z        PSCENC =       253.99581917
  Ewald energy   TEWEN  =     -9970.11722662
  -Hartree energ DENC   =     -4867.80177030
  -exchange      EXHF   =         0.00000000
  -V(xc)+E(xc)   XCENC  =       689.15975471
  PAW double counting   =     39221.82486740   -39047.20826003
  entropy T*S    EENTRO =         0.00000000
  eigenvalues    EBANDS =     -2011.22857971
  atomic energy  EATOM  =     15501.99929693
  Solvation  Ediel_sol  =         0.00000000
  ---------------------------------------------------
  free energy    TOTEN  =      -229.37609844 eV

  energy without entropy =     -229.37609844  energy(sigma->0) =     -229.37609844


--------------------------------------------------------------------------------------------------------




--------------------------------------- Iteration      1(  23)  ---------------------------------------


    POTLOK:  cpu time      0.4042: real time      0.4052
    SETDIJ:  cpu time      6.6012: real time      6.6016
     EDDAV:  cpu time     49.4045: real time     49.4097
 BZINTS: Fermi energy:    0.078246;  336.000000 electrons
         Band energy:-0.201122E+04;  BLOECHL correction:    0.000000
       DOS:  cpu time      0.0266: real time      0.0267
    CHARGE:  cpu time      6.9888: real time      6.9894
    MIXING:  cpu time      0.0175: real time      0.0175
    --------------------------------------------
      LOOP:  cpu time     63.4428: real time     63.4500

 eigenvalue-minimisations  :  9216
 total energy-change (2. order) :-0.2332708E-06  (-0.5697021E-07)
 number of electron     335.9999997 magnetization      -0.0002596
 augmentation part      -46.9865430 magnetization      -0.0002557

 Broyden mixing:
[...]

  length of vectors
    10.314108670 16.788494411 10.846477853     0.097707938  0.059564603  0.092912216


 FORCES acting on ions
    electron-ion (+dipol)            ewald-force                    non-local-force                 convergence-correction
 -----------------------------------------------------------------------------------------------
   0.987E+02 -.105E+03 -.126E+02   -.104E+03 0.114E+03 0.113E+02   0.495E+01 -.888E+01 0.132E+01   0.180E-05 -.408E-06 0.858E-06
   0.986E+02 -.105E+03 -.125E+02   -.104E+03 0.113E+03 0.112E+02   0.495E+01 -.888E+01 0.132E+01   0.163E-05 -.348E-06 0.893E-06
   -.124E+02 0.420E+02 -.127E+03   0.127E+02 -.472E+02 0.134E+03   -.247E+00 0.519E+01 -.705E+01   0.155E-06 0.936E-07 -.103E-05
   -.123E+02 0.420E+02 -.127E+03   0.126E+02 -.472E+02 0.134E+03   -.246E+00 0.519E+01 -.705E+01   0.101E-06 0.798E-07 -.122E-05
   -.211E+02 -.902E+02 0.980E+02   0.198E+02 0.989E+02 -.103E+03   0.134E+01 -.874E+01 0.530E+01   -.285E-07 -.174E-06 0.170E-05
   -.211E+02 -.902E+02 0.980E+02   0.198E+02 0.989E+02 -.103E+03   0.134E+01 -.874E+01 0.530E+01   -.431E-07 -.136E-06 0.186E-05
   -.108E+03 0.950E+02 0.613E+01   0.114E+03 -.101E+03 -.402E+01   -.534E+01 0.592E+01 -.212E+01   -.161E-05 -.277E-07 0.627E-06
   -.108E+03 0.950E+02 0.625E+01   0.114E+03 -.101E+03 -.413E+01   -.534E+01 0.592E+01 -.212E+01   -.186E-05 0.147E-08 0.649E-06
   0.137E+03 -.547E+02 -.193E+02   -.144E+03 0.602E+02 0.199E+02   0.677E+01 -.546E+01 -.494E+00   0.168E-05 -.573E-07 -.102E-05
   0.136E+03 -.540E+02 -.187E+02   -.143E+03 0.595E+02 0.193E+02   0.680E+01 -.552E+01 -.558E+00   0.161E-05 -.859E-08 -.101E-05
   -.136E+03 0.539E+02 0.186E+02   0.143E+03 -.595E+02 -.192E+02   -.680E+01 0.552E+01 0.558E+00   -.155E-05 -.823E-07 0.988E-06
   -.136E+03 0.539E+02 0.187E+02   0.143E+03 -.595E+02 -.192E+02   -.680E+01 0.552E+01 0.558E+00   -.169E-05 -.550E-07 0.100E-05
   0.108E+03 -.950E+02 -.622E+01   -.114E+03 0.101E+03 0.410E+01   0.534E+01 -.592E+01 0.212E+01   0.178E-05 0.103E-07 -.699E-06
   0.108E+03 -.950E+02 -.625E+01   -.114E+03 0.101E+03 0.413E+01   0.534E+01 -.592E+01 0.212E+01   0.172E-05 -.224E-07 -.664E-06
   -.119E+02 -.417E+02 0.127E+03   0.122E+02 0.468E+02 -.134E+03   -.238E+00 -.515E+01 0.705E+01   0.164E-06 0.969E-08 0.136E-05
   -.124E+02 -.420E+02 0.127E+03   0.126E+02 0.472E+02 -.134E+03   -.245E+00 -.519E+01 0.705E+01   0.976E-08 0.263E-07 0.136E-05
   0.211E+02 -.902E+02 0.980E+02   -.198E+02 0.989E+02 -.103E+03   -.134E+01 -.874E+01 0.530E+01   0.850E-07 0.571E-07 0.163E-05
   0.211E+02 -.902E+02 0.981E+02   -.198E+02 0.989E+02 -.103E+03   -.134E+01 -.874E+01 0.530E+01   0.506E-07 0.423E-07 0.180E-05
   -.987E+02 -.105E+03 -.126E+02   0.104E+03 0.113E+03 0.113E+02   -.495E+01 -.888E+01 0.132E+01   -.158E-05 -.119E-06 0.867E-06
   -.986E+02 -.105E+03 -.125E+02   0.104E+03 0.113E+03 0.112E+02   -.495E+01 -.888E+01 0.132E+01   -.182E-05 -.190E-06 0.803E-06
   -.136E+03 -.539E+02 -.187E+02   0.143E+03 0.595E+02 0.192E+02   -.680E+01 -.552E+01 -.558E+00   -.165E-05 -.151E-07 -.102E-05
   -.136E+03 -.540E+02 -.187E+02   0.143E+03 0.595E+02 0.193E+02   -.680E+01 -.552E+01 -.558E+00   -.165E-05 -.718E-08 -.104E-05
   0.123E+02 0.420E+02 -.127E+03   -.126E+02 -.472E+02 0.134E+03   0.246E+00 0.519E+01 -.705E+01   -.112E-06 -.685E-07 -.996E-06
   0.124E+02 0.420E+02 -.127E+03   -.126E+02 -.472E+02 0.134E+03   0.246E+00 0.519E+01 -.705E+01   -.112E-06 -.114E-06 -.116E-05
   -.108E+03 -.950E+02 -.624E+01   0.114E+03 0.101E+03 0.413E+01   -.534E+01 -.592E+01 0.212E+01   -.176E-05 0.135E-06 -.718E-06
   -.108E+03 -.950E+02 -.624E+01   0.114E+03 0.101E+03 0.412E+01   -.534E+01 -.592E+01 0.212E+01   -.174E-05 0.171E-06 -.687E-06
   0.987E+02 0.105E+03 0.126E+02   -.104E+03 -.113E+03 -.113E+02   0.495E+01 0.888E+01 -.132E+01   0.179E-05 0.357E-06 -.703E-06
   0.986E+02 0.105E+03 0.125E+02   -.104E+03 -.113E+03 -.112E+02   0.495E+01 0.888E+01 -.132E+01   0.170E-05 0.282E-06 -.770E-06
   -.986E+02 0.105E+03 0.126E+02   0.104E+03 -.113E+03 -.112E+02   -.495E+01 0.888E+01 -.132E+01   -.174E-05 0.195E-06 -.695E-06
   -.987E+02 0.105E+03 0.127E+02   0.104E+03 -.113E+03 -.113E+02   -.495E+01 0.889E+01 -.134E+01   -.172E-05 0.232E-06 -.766E-06
   0.721E+02 0.966E+02 0.642E+02   -.749E+02 -.106E+03 -.662E+02   0.277E+01 0.972E+01 0.195E+01   0.921E-06 0.324E-06 0.704E-06
   0.728E+02 0.961E+02 0.633E+02   -.755E+02 -.106E+03 -.653E+02   0.274E+01 0.971E+01 0.207E+01   0.830E-06 0.376E-06 0.630E-06
   0.218E+02 -.937E+02 -.889E+02   -.205E+02 0.100E+03 0.940E+02   -.133E+01 -.628E+01 -.509E+01   0.362E-06 0.577E-07 -.167E-05
   0.218E+02 -.938E+02 -.889E+02   -.205E+02 0.100E+03 0.940E+02   -.133E+01 -.628E+01 -.509E+01   0.246E-06 0.351E-07 -.157E-05
   -.211E+02 0.902E+02 -.981E+02   0.198E+02 -.990E+02 0.103E+03   0.134E+01 0.874E+01 -.530E+01   0.746E-08 0.140E-06 -.203E-05
   -.211E+02 0.902E+02 -.981E+02   0.198E+02 -.989E+02 0.103E+03   0.134E+01 0.874E+01 -.530E+01   -.127E-06 0.817E-07 -.198E-05
   -.218E+02 0.938E+02 0.888E+02   0.205E+02 -.100E+03 -.939E+02   0.133E+01 0.628E+01 0.509E+01   -.221E-06 -.805E-07 0.128E-05
   -.218E+02 0.938E+02 0.889E+02   0.205E+02 -.100E+03 -.940E+02   0.133E+01 0.628E+01 0.509E+01   -.318E-06 -.520E-07 0.146E-05
   0.210E+02 0.901E+02 -.984E+02   -.197E+02 -.989E+02 0.104E+03   -.132E+01 0.873E+01 -.524E+01   0.970E-07 -.381E-07 -.197E-05
   0.211E+02 0.902E+02 -.981E+02   -.198E+02 -.989E+02 0.103E+03   -.134E+01 0.874E+01 -.530E+01   -.133E-07 0.551E-08 -.195E-05
   0.728E+02 -.961E+02 -.633E+02   -.755E+02 0.106E+03 0.653E+02   0.274E+01 -.971E+01 -.207E+01   0.840E-06 -.347E-06 -.403E-06
   0.728E+02 -.961E+02 -.633E+02   -.755E+02 0.106E+03 0.653E+02   0.274E+01 -.971E+01 -.207E+01   0.899E-06 -.348E-06 -.543E-06
   0.136E+03 0.540E+02 0.187E+02   -.143E+03 -.595E+02 -.192E+02   0.680E+01 0.552E+01 0.558E+00   0.153E-05 0.798E-07 0.972E-06
   0.136E+03 0.540E+02 0.187E+02   -.143E+03 -.595E+02 -.192E+02   0.680E+01 0.552E+01 0.558E+00   0.173E-05 0.104E-06 0.967E-06
   0.108E+03 0.950E+02 0.621E+01   -.114E+03 -.101E+03 -.409E+01   0.534E+01 0.592E+01 -.212E+01   0.180E-05 -.984E-07 0.656E-06
   0.108E+03 0.950E+02 0.625E+01   -.114E+03 -.101E+03 -.413E+01   0.534E+01 0.592E+01 -.212E+01   0.160E-05 -.835E-07 0.659E-06
   -.728E+02 -.962E+02 -.633E+02   0.756E+02 0.106E+03 0.654E+02   -.274E+01 -.971E+01 -.207E+01   -.835E-06 -.593E-06 -.381E-06
   -.728E+02 -.962E+02 -.633E+02   0.755E+02 0.106E+03 0.653E+02   -.274E+01 -.971E+01 -.207E+01   -.892E-06 -.524E-06 -.537E-06
   -.219E+02 -.938E+02 -.890E+02   0.205E+02 0.100E+03 0.940E+02   0.132E+01 -.628E+01 -.509E+01   -.248E-06 0.187E-06 -.160E-05
   -.218E+02 -.938E+02 -.889E+02   0.205E+02 0.100E+03 0.940E+02   0.133E+01 -.628E+01 -.509E+01   -.389E-06 0.168E-06 -.165E-05
   0.218E+02 0.938E+02 0.889E+02   -.205E+02 -.100E+03 -.940E+02   -.133E+01 0.628E+01 0.509E+01   0.259E-06 -.141E-06 0.128E-05
   0.218E+02 0.938E+02 0.889E+02   -.205E+02 -.100E+03 -.939E+02   -.133E+01 0.628E+01 0.509E+01   0.286E-06 -.184E-06 0.143E-05
   -.728E+02 0.961E+02 0.633E+02   0.755E+02 -.106E+03 -.654E+02   -.274E+01 0.971E+01 0.207E+01   -.853E-06 0.554E-06 0.645E-06
   -.728E+02 0.961E+02 0.633E+02   0.755E+02 -.106E+03 -.653E+02   -.274E+01 0.971E+01 0.207E+01   -.938E-06 0.511E-06 0.667E-06
   0.123E+02 -.420E+02 0.127E+03   -.126E+02 0.472E+02 -.134E+03   0.245E+00 -.519E+01 0.705E+01   -.236E-07 0.392E-07 0.142E-05
   0.124E+02 -.420E+02 0.127E+03   -.126E+02 0.472E+02 -.134E+03   0.246E+00 -.519E+01 0.705E+01   -.168E-06 -.183E-07 0.134E-05
 -----------------------------------------------------------------------------------------------
   -.584E-02 -.117E+00 0.123E-01   0.149E-12 -.711E-14 0.000E+00   0.584E-02 0.117E+00 -.123E-01   -.154E-07 0.166E-07 0.311E-07


 POSITION                                       TOTAL-FORCE (eV/Angst)
 -----------------------------------------------------------------------------------
      7.84031      7.96182     -7.59135         0.002283     -0.001103      0.001180
     16.23455      7.96182     -7.59135         0.002428     -0.001308      0.000934
      3.16872      2.44282     -6.01943         0.002089     -0.000799     -0.002523
     11.56297      2.44282     -6.01943         0.002123     -0.000877     -0.002516
      1.76685      7.82725    -10.10485        -0.000054      0.000049     -0.000407
     10.16110      7.82725    -10.10485        -0.000095      0.000064     -0.000470
      5.05050      1.12562     -8.40433         0.001774     -0.000659     -0.000578
     13.44475      1.12562     -8.40433         0.001595     -0.000700     -0.000730
      5.13205      1.09979     -2.45651        -0.025275      0.051616      0.052080
     13.52630      1.09979     -2.45651        -0.000058      0.000458     -0.000279
      3.26219      7.47505     -8.62356         0.000062     -0.000349      0.000373
     11.65644      7.47505     -8.62356         0.000109     -0.000481      0.000239
      3.34375      7.44923     -2.67574        -0.001859      0.000454      0.000824
     11.73799      7.44923     -2.67574        -0.001543      0.000603      0.000664
      7.36585      0.97835     -4.87422        -0.006415     -0.012584      0.024374
     15.76010      0.97835     -4.87422         0.002162      0.000898      0.002546
      2.43027      2.67356     -9.91842        -0.000108      0.000109     -0.000500
     10.82452      2.67356     -9.91842         0.000150      0.000002     -0.000386
      4.75106      2.80814     -7.40493        -0.002463     -0.001479      0.000746
     13.14531      2.80814     -7.40493        -0.002486     -0.001189      0.001020
      7.45932      6.25348     -2.64294         0.000000      0.000411     -0.000218
     15.85356      6.25348     -2.64294         0.000129      0.000450     -0.000272
      1.02840      7.59650     -6.20585        -0.002094     -0.000849     -0.002596
      9.42265      7.59650     -6.20585        -0.002106     -0.001010     -0.002672
      0.85338      2.29554     -2.48931         0.001670      0.000735      0.000733
      9.24762      2.29554     -2.48931         0.004116      0.002339      0.002773
      3.64318      5.76671     -3.67515         0.002558      0.001427     -0.001147
     12.03743      5.76671     -3.67515         0.002464      0.001263     -0.000929
      0.55394      0.61303     -3.48872        -0.002576      0.001098     -0.001104
      8.94819      0.61303     -3.48872        -0.007812      0.009345     -0.007886
      5.79350     -0.02984     -4.02215         0.022519     -0.047438     -0.096409
     14.18775     -0.03143     -4.03202        -0.001184      0.001785      0.000305
      4.85766      7.53946     -1.03917        -0.004102      0.001971      0.000020
     13.25190      7.53946     -1.03917        -0.003939      0.002036     -0.000248
      5.96398      5.90128     -1.16165         0.000230      0.000106      0.000319
     14.35822      5.90128     -1.16165        -0.000101      0.000030      0.000490
      3.53659      1.03539    -10.04090         0.004073     -0.001997      0.000591
     11.93084      1.03539    -10.04090         0.003834     -0.001998      0.000237
      6.62739      0.74760     -0.97522         0.013191      0.004744      0.026380
     15.02164      0.74760     -0.97522         0.000073     -0.000043      0.000378
      1.59638      3.45260     -6.86163        -0.001276     -0.001880     -0.000204
      9.99063      3.45260     -6.86163        -0.001212     -0.001802     -0.000217
      0.93493      2.32137     -8.43713        -0.000035     -0.000401      0.000298
      9.32918      2.32137     -8.43713        -0.000086     -0.000494      0.000239
      7.54087      6.27930     -8.59076        -0.001396     -0.000599     -0.000667
     15.93512      6.27930     -8.59076        -0.001541     -0.000576     -0.000703
      2.60074      8.60628     -7.04805         0.001344     -0.001843     -0.000163
     10.99499      8.60628     -7.04805         0.001142     -0.001784     -0.000152
      7.73371      2.38578     -0.85274         0.003622     -0.000842      0.000444
     16.12796      2.38578     -0.85274         0.003851      0.002091     -0.000183
      0.66053      6.18907    -10.22733        -0.004031     -0.002179      0.000178
      9.05478      6.18907    -10.22733        -0.003893     -0.002169      0.000210
      6.79787      5.12225     -4.21845         0.001228      0.001563      0.000313
     15.19211      5.12225     -4.21845         0.001187      0.001779      0.000185
      5.22552      6.13203     -5.06065        -0.002116      0.001107      0.002568
     13.61977      6.13203     -5.06065        -0.002153      0.000900      0.002516
 -----------------------------------------------------------------------------------
    total drift:                               -0.000001     -0.000001     -0.000008


--------------------------------------------------------------------------------------------------------



  FREE ENERGIE OF THE ION-ELECTRON SYSTEM (eV)
  ---------------------------------------------------
  free  energy   TOTEN  =      -229.37609847 eV

  energy  without entropy=     -229.37609847  energy(sigma->0) =     -229.37609847



--------------------------------------------------------------------------------------------------------


    POTLOK:  cpu time      9.2782: real time      9.2832


--------------------------------------------------------------------------------------------------------


     LOOP+:  cpu time   2368.6196: real time   2368.9419
    4ORBIT:  cpu time      0.0000: real time      0.0000



 total charge

# of ion       s       p       d       tot
------------------------------------------
    1        1.376   2.247   0.000   3.623
    2        1.376   2.247   0.000   3.623
    3        1.376   2.258   0.000   3.635
    4        1.376   2.258   0.000   3.635
    5        1.376   2.247   0.000   3.623
    6        1.376   2.247   0.000   3.622
    7        1.375   2.262   0.000   3.638
    8        1.375   2.262   0.000   3.638
    9        1.377   2.260   0.000   3.637
   10        1.377   2.257   0.000   3.634
   11        1.377   2.257   0.000   3.634
   12        1.377   2.257   0.000   3.634
   13        1.375   2.262   0.000   3.638
   14        1.375   2.262   0.000   3.638
   15        1.377   2.258   0.000   3.634
   16        1.376   2.258   0.000   3.635
   17        1.376   2.247   0.000   3.623
   18        1.376   2.247   0.000   3.623
   19        1.376   2.247   0.000   3.623
   20        1.376   2.247   0.000   3.623
   21        1.377   2.257   0.000   3.634
   22        1.377   2.257   0.000   3.634
   23        1.376   2.258   0.000   3.635
   24        1.376   2.258   0.000   3.635
   25        1.375   2.262   0.000   3.638
   26        1.375   2.263   0.000   3.638
   27        1.376   2.247   0.000   3.623
   28        1.376   2.247   0.000   3.623
   29        1.376   2.247   0.000   3.623
   30        1.376   2.247   0.000   3.623
   31        1.375   2.256   0.000   3.632
   32        1.376   2.254   0.000   3.630
   33        1.375   2.263   0.000   3.638
   34        1.375   2.263   0.000   3.638
   35        1.376   2.247   0.000   3.622
   36        1.376   2.247   0.000   3.623
   37        1.375   2.263   0.000   3.638
   38        1.375   2.263   0.000   3.638
   39        1.376   2.247   0.000   3.623
   40        1.376   2.247   0.000   3.622
   41        1.376   2.254   0.000   3.630
   42        1.376   2.254   0.000   3.630
   43        1.377   2.257   0.000   3.634
   44        1.377   2.257   0.000   3.634
   45        1.375   2.262   0.000   3.638
   46        1.375   2.262   0.000   3.638
   47        1.376   2.254   0.000   3.630
   48        1.376   2.254   0.000   3.630
   49        1.375   2.263   0.000   3.638
   50        1.375   2.263   0.000   3.638
   51        1.375   2.263   0.000   3.638
   52        1.375   2.263   0.000   3.638
   53        1.376   2.254   0.000   3.630
   54        1.376   2.254   0.000   3.630
   55        1.376   2.258   0.000   3.635
   56        1.376   2.258   0.000   3.635
--------------------------------------------------
tot         77.049 126.317   0.000 203.366



 magnetization (x)

# of ion       s       p       d       tot
------------------------------------------
    1        0.000   0.000   0.000   0.000
    2        0.000   0.000   0.000   0.000
    3        0.000   0.000   0.000   0.000
    4        0.000   0.000   0.000   0.000
    5        0.000   0.000   0.000   0.000
    6        0.000   0.000   0.000   0.000
    7        0.000   0.000   0.000   0.000
    8        0.000   0.000   0.000   0.000
    9        0.000   0.000   0.000   0.000
   10        0.000   0.000   0.000   0.000
   11        0.000   0.000   0.000   0.000
   12        0.000   0.000   0.000   0.000
   13        0.000   0.000   0.000   0.000
   14        0.000   0.000   0.000   0.000
   15        0.000   0.000   0.000   0.000
   16        0.000   0.000   0.000   0.000
   17        0.000   0.000   0.000   0.000
   18        0.000   0.000   0.000   0.000
   19        0.000   0.000   0.000   0.000
   20        0.000   0.000   0.000   0.000
   21        0.000   0.000   0.000   0.000
   22        0.000   0.000   0.000   0.000
   23        0.000   0.000   0.000   0.000
   24        0.000   0.000   0.000   0.000
   25        0.000   0.000   0.000   0.000
   26        0.000   0.000   0.000   0.000
   27        0.000   0.000   0.000   0.000
   28        0.000   0.000   0.000   0.000
   29        0.000   0.000   0.000   0.000
   30        0.000   0.000   0.000   0.000
   31        0.000   0.000   0.000   0.000
   32        0.000   0.000   0.000   0.000
   33        0.000   0.000   0.000   0.000
   34        0.000   0.000   0.000   0.000
   35        0.000   0.000   0.000   0.000
   36        0.000   0.000   0.000   0.000
   37        0.000   0.000   0.000   0.000
   38        0.000   0.000   0.000   0.000
   39        0.000   0.000   0.000   0.000
   40        0.000   0.000   0.000   0.000
   41        0.000   0.000   0.000   0.000
   42        0.000   0.000   0.000   0.000
   43        0.000   0.000   0.000   0.000
   44        0.000   0.000   0.000   0.000
   45        0.000   0.000   0.000   0.000
   46        0.000   0.000   0.000   0.000
   47        0.000   0.000   0.000   0.000
   48        0.000   0.000   0.000   0.000
   49        0.000   0.000   0.000   0.000
   50        0.000   0.000   0.000   0.000
   51        0.000   0.000   0.000   0.000
   52        0.000   0.000   0.000   0.000
   53        0.000   0.000   0.000   0.000
   54        0.000   0.000   0.000   0.000
   55        0.000   0.000   0.000   0.000
   56        0.000   0.000   0.000   0.000
--------------------------------------------------
tot          0.000   0.000   0.000   0.000

 BZINTS: Fermi energy:    0.078101;  336.000000 electrons
         Band energy:-0.201123E+04;  BLOECHL correction:    0.000000

 total amount of memory used by VASP MPI-rank0   322725. kBytes
=======================================================================

   base      :      30000. kBytes
   nonl-proj :      70692. kBytes
   fftplans  :      34504. kBytes
   grid      :      83442. kBytes
   one-center:        344. kBytes
   wavefun   :     103743. kBytes

  
  
 General timing and accounting informations for this job:
 ========================================================
  
                  Total CPU time used (sec):     2405.776
                            User time (sec):     2403.997
                          System time (sec):        1.779
                         Elapsed time (sec):     2406.565
  
                   Maximum memory used (kb):      606556.
                   Average memory used (kb):          N/A
  
                          Minor page faults:       852576
                          Major page faults:           93
                 Voluntary context switches:         4070
