  28  28   0   0
  0.2085039E+02  0.9883845E-09  0.9883846E-09  0.6733276E-09  0.1500000E-16
   1.0000000000000000E-004
  CAR 
 unknown system                          
      9.80839899    -22.94677640  301      1.74243705      1.00000000
    -22.947  0.0000E+00  0.0000E+00
    -22.838  0.0000E+00  0.0000E+00
    -22.728  0.0000E+00  0.0000E+00
    -22.619  0.0000E+00  0.0000E+00
    -22.510  0.0000E+00  0.0000E+00
    -22.401  0.0000E+00  0.0000E+00
    -22.292  0.0000E+00  0.0000E+00
    -22.182  0.0000E+00  0.0000E+00
    -22.073  0.0000E+00  0.0000E+00
    -21.964  0.0000E+00  0.0000E+00
    -21.855  0.0000E+00  0.0000E+00
    -21.746  0.9087E-17  0.9922E-18
    -21.637  0.1518E-07  0.1657E-08
    -21.527  0.3083E-02  0.3367E-03
    -21.418  0.2314E+00  0.2560E-01
    -21.309  0.3277E+00  0.6138E-01
    -21.200  0.3819E-01  0.6555E-01
    -21.091  0.4501E+00  0.1147E+00
    -20.981  0.1281E+00  0.1287E+00
    -20.872  0.7646E-04  0.1287E+00
    -20.763  0.1232E-10  0.1287E+00
    -20.654  0.0000E+00  0.1287E+00
    -20.545  0.0000E+00  0.1287E+00
    -20.436  0.0000E+00  0.1287E+00
    -20.326  0.0000E+00  0.1287E+00
    -20.217  0.0000E+00  0.1287E+00
    -20.108  0.0000E+00  0.1287E+00
    -19.999  0.0000E+00  0.1287E+00
    -19.890  0.0000E+00  0.1287E+00
    -19.780  0.0000E+00  0.1287E+00
    -19.671  0.0000E+00  0.1287E+00
    -19.562  0.0000E+00  0.1287E+00
    -19.453  0.0000E+00  0.1287E+00
    -19.344  0.0000E+00  0.1287E+00
    -19.235  0.0000E+00  0.1287E+00
    -19.125  0.0000E+00  0.1287E+00
    -19.016  0.0000E+00  0.1287E+00
    -18.907  0.0000E+00  0.1287E+00
    -18.798  0.0000E+00  0.1287E+00
    -18.689  0.0000E+00  0.1287E+00
    -18.579  0.0000E+00  0.1287E+00
    -18.470  0.0000E+00  0.1287E+00
    -18.361  0.0000E+00  0.1287E+00
    -18.252  0.0000E+00  0.1287E+00
    -18.143  0.0000E+00  0.1287E+00
    -18.034  0.0000E+00  0.1287E+00
    -17.924  0.0000E+00  0.1287E+00
    -17.815  0.0000E+00  0.1287E+00
    -17.706  0.0000E+00  0.1287E+00
    -17.597  0.0000E+00  0.1287E+00
    -17.488  0.0000E+00  0.1287E+00
    -17.378  0.0000E+00  0.1287E+00
    -17.269  0.0000E+00  0.1287E+00
    -17.160  0.0000E+00  0.1287E+00
    -17.051  0.0000E+00  0.1287E+00
    -16.942  0.0000E+00  0.1287E+00
    -16.832  0.0000E+00  0.1287E+00
    -16.723  0.0000E+00  0.1287E+00
    -16.614  0.0000E+00  0.1287E+00
    -16.505  0.0000E+00  0.1287E+00
    -16.396  0.0000E+00  0.1287E+00
    -16.287  0.0000E+00  0.1287E+00
    -16.177  0.0000E+00  0.1287E+00
    -16.068  0.0000E+00  0.1287E+00
    -15.959  0.0000E+00  0.1287E+00
    -15.850  0.0000E+00  0.1287E+00
    -15.741  0.0000E+00  0.1287E+00
    -15.631  0.0000E+00  0.1287E+00
    -15.522  0.0000E+00  0.1287E+00
    -15.413  0.0000E+00  0.1287E+00
    -15.304  0.0000E+00  0.1287E+00
    -15.195  0.0000E+00  0.1287E+00
    -15.086  0.0000E+00  0.1287E+00
    -14.976  0.0000E+00  0.1287E+00
    -14.867  0.0000E+00  0.1287E+00
    -14.758  0.0000E+00  0.1287E+00
    -14.649  0.0000E+00  0.1287E+00
    -14.540  0.0000E+00  0.1287E+00
    -14.430  0.0000E+00  0.1287E+00
    -14.321  0.0000E+00  0.1287E+00
    -14.212  0.0000E+00  0.1287E+00
    -14.103  0.0000E+00  0.1287E+00
    -13.994  0.0000E+00  0.1287E+00
    -13.885  0.0000E+00  0.1287E+00
    -13.775  0.0000E+00  0.1287E+00
    -13.666  0.0000E+00  0.1287E+00
    -13.557  0.0000E+00  0.1287E+00
    -13.448  0.0000E+00  0.1287E+00
    -13.339  0.0000E+00  0.1287E+00
    -13.229  0.0000E+00  0.1287E+00
    -13.120  0.0000E+00  0.1287E+00
    -13.011  0.0000E+00  0.1287E+00
    -12.902  0.0000E+00  0.1287E+00
    -12.793  0.0000E+00  0.1287E+00
    -12.683  0.0000E+00  0.1287E+00
    -12.574  0.0000E+00  0.1287E+00
    -12.465  0.0000E+00  0.1287E+00
    -12.356  0.0000E+00  0.1287E+00
    -12.247  0.0000E+00  0.1287E+00
    -12.138  0.0000E+00  0.1287E+00
    -12.028  0.0000E+00  0.1287E+00
    -11.919  0.0000E+00  0.1287E+00
    -11.810  0.0000E+00  0.1287E+00
    -11.701  0.0000E+00  0.1287E+00
    -11.592  0.0000E+00  0.1287E+00
    -11.482  0.0000E+00  0.1287E+00
    -11.373  0.0000E+00  0.1287E+00
    -11.264  0.0000E+00  0.1287E+00
    -11.155  0.4544E-17  0.1287E+00
    -11.046  0.2670E-08  0.1287E+00
    -10.937  0.1637E-03  0.1287E+00
    -10.827  0.4158E-02  0.1292E+00
    -10.718  0.1754E-01  0.1311E+00
    -10.609  0.3480E-01  0.1349E+00
    -10.500  0.2874E-01  0.1380E+00
    -10.391  0.3115E-01  0.1414E+00
    -10.281  0.5151E-01  0.1470E+00
    -10.172  0.7525E-01  0.1553E+00
    -10.063  0.4037E-01  0.1597E+00
     -9.954  0.7703E-01  0.1681E+00
     -9.845  0.3445E-01  0.1718E+00
     -9.736  0.3735E-01  0.1759E+00
     -9.626  0.9500E-01  0.1863E+00
     -9.517  0.6119E-01  0.1930E+00
     -9.408  0.5817E-03  0.1930E+00
     -9.299  0.2181E-08  0.1930E+00
     -9.190  0.0000E+00  0.1930E+00
     -9.080  0.0000E+00  0.1930E+00
     -8.971  0.0000E+00  0.1930E+00
     -8.862  0.0000E+00  0.1930E+00
     -8.753  0.0000E+00  0.1930E+00
     -8.644  0.0000E+00  0.1930E+00
     -8.534  0.0000E+00  0.1930E+00
     -8.425  0.0000E+00  0.1930E+00
     -8.316  0.0000E+00  0.1930E+00
     -8.207  0.0000E+00  0.1930E+00
     -8.098  0.0000E+00  0.1930E+00
     -7.989  0.0000E+00  0.1930E+00
     -7.879  0.0000E+00  0.1930E+00
     -7.770  0.0000E+00  0.1930E+00
     -7.661  0.0000E+00  0.1930E+00
     -7.552  0.0000E+00  0.1930E+00
     -7.443  0.0000E+00  0.1930E+00
     -7.333  0.0000E+00  0.1930E+00
     -7.224  0.0000E+00  0.1930E+00
     -7.115  0.0000E+00  0.1930E+00
     -7.006  0.0000E+00  0.1930E+00
     -6.897  0.0000E+00  0.1930E+00
     -6.788  0.0000E+00  0.1930E+00
     -6.678  0.0000E+00  0.1930E+00
     -6.569  0.0000E+00  0.1930E+00
     -6.460  0.0000E+00  0.1930E+00
     -6.351  0.0000E+00  0.1930E+00
     -6.242  0.0000E+00  0.1930E+00
     -6.132  0.0000E+00  0.1930E+00
     -6.023  0.0000E+00  0.1930E+00
     -5.914  0.0000E+00  0.1930E+00
     -5.805  0.0000E+00  0.1930E+00
     -5.696  0.0000E+00  0.1930E+00
     -5.587  0.0000E+00  0.1930E+00
     -5.477  0.0000E+00  0.1930E+00
     -5.368  0.0000E+00  0.1930E+00
     -5.259  0.0000E+00  0.1930E+00
     -5.150  0.0000E+00  0.1930E+00
     -5.041  0.0000E+00  0.1930E+00
     -4.931  0.2544E-15  0.1930E+00
     -4.822  0.5040E-07  0.1930E+00
     -4.713  0.2666E-02  0.1933E+00
     -4.604  0.1792E+00  0.2129E+00
     -4.495  0.3442E+00  0.2505E+00
     -4.386  0.4222E+00  0.2966E+00
     -4.276  0.3991E+00  0.3401E+00
     -4.167  0.3714E+00  0.3807E+00
     -4.058  0.2214E+00  0.4049E+00
     -3.949  0.2424E-01  0.4075E+00
     -3.840  0.2910E-04  0.4075E+00
     -3.730  0.2409E-10  0.4075E+00
     -3.621  0.0000E+00  0.4075E+00
     -3.512  0.0000E+00  0.4075E+00
     -3.403  0.1599E-09  0.4075E+00
     -3.294  0.6156E-04  0.4075E+00
     -3.184  0.6058E-02  0.4082E+00
     -3.075  0.1127E-01  0.4094E+00
     -2.966  0.1214E-01  0.4107E+00
     -2.857  0.3705E-01  0.4148E+00
     -2.748  0.2317E-01  0.4173E+00
     -2.639  0.4193E-01  0.4219E+00
     -2.529  0.5195E-01  0.4276E+00
     -2.420  0.2442E-01  0.4302E+00
     -2.311  0.3174E-01  0.4337E+00
     -2.202  0.4551E-01  0.4387E+00
     -2.093  0.2389E-01  0.4413E+00
     -1.983  0.2233E-01  0.4437E+00
     -1.874  0.1562E-01  0.4454E+00
     -1.765  0.2166E-01  0.4478E+00
     -1.656  0.1347E-01  0.4492E+00
     -1.547  0.1807E-01  0.4512E+00
     -1.438  0.1922E-01  0.4533E+00
     -1.328  0.2052E-01  0.4556E+00
     -1.219  0.4290E-01  0.4602E+00
     -1.110  0.4028E-01  0.4646E+00
     -1.001  0.2328E-01  0.4672E+00
     -0.892  0.3339E-01  0.4708E+00
     -0.782  0.5183E-01  0.4765E+00
     -0.673  0.4230E-01  0.4811E+00
     -0.564  0.3911E-01  0.4854E+00
     -0.455  0.5829E-01  0.4917E+00
     -0.346  0.4744E-01  0.4969E+00
     -0.237  0.4537E-01  0.5019E+00
     -0.127  0.6572E-01  0.5090E+00
     -0.018  0.4482E-01  0.5139E+00
      0.091  0.6273E-01  0.5208E+00
      0.200  0.6729E-01  0.5281E+00
      0.309  0.5105E-01  0.5337E+00
      0.419  0.6223E-01  0.5405E+00
      0.528  0.6231E-01  0.5473E+00
      0.637  0.8750E-01  0.5569E+00
      0.746  0.8198E-01  0.5658E+00
      0.855  0.8183E-01  0.5747E+00
      0.965  0.5969E-01  0.5813E+00
      1.074  0.5877E-01  0.5877E+00
      1.183  0.5702E-01  0.5939E+00
      1.292  0.3861E-01  0.5981E+00
      1.401  0.1727E-01  0.6000E+00
      1.510  0.2632E-02  0.6003E+00
      1.620  0.2211E-02  0.6005E+00
      1.729  0.5834E-05  0.6005E+00
      1.838  0.2592E-11  0.6005E+00
      1.947  0.0000E+00  0.6005E+00
      2.056  0.0000E+00  0.6005E+00
      2.166  0.0000E+00  0.6005E+00
      2.275  0.0000E+00  0.6005E+00
      2.384  0.0000E+00  0.6005E+00
      2.493  0.0000E+00  0.6005E+00
      2.602  0.0000E+00  0.6005E+00
      2.711  0.0000E+00  0.6005E+00
      2.821  0.0000E+00  0.6005E+00
      2.930  0.0000E+00  0.6005E+00
      3.039  0.0000E+00  0.6005E+00
      3.148  0.0000E+00  0.6005E+00
      3.257  0.0000E+00  0.6005E+00
      3.367  0.0000E+00  0.6005E+00
      3.476  0.1439E-09  0.6005E+00
      3.585  0.4363E-04  0.6005E+00
      3.694  0.3165E-02  0.6009E+00
      3.803  0.8835E-03  0.6010E+00
      3.912  0.2189E-06  0.6010E+00
      4.022  0.6847E-14  0.6010E+00
      4.131  0.0000E+00  0.6010E+00
      4.240  0.0000E+00  0.6010E+00
      4.349  0.0000E+00  0.6010E+00
      4.458  0.2055E-10  0.6010E+00
      4.568  0.2425E-04  0.6010E+00
      4.677  0.6291E-02  0.6017E+00
      4.786  0.1384E-01  0.6032E+00
      4.895  0.1535E-01  0.6049E+00
      5.004  0.5189E-02  0.6054E+00
      5.113  0.2846E-01  0.6085E+00
      5.223  0.4275E-01  0.6132E+00
      5.332  0.4231E-01  0.6178E+00
      5.441  0.3318E-01  0.6214E+00
      5.550  0.4327E-01  0.6262E+00
      5.659  0.5022E-01  0.6317E+00
      5.769  0.2274E-01  0.6341E+00
      5.878  0.5042E-01  0.6396E+00
      5.987  0.4838E-01  0.6449E+00
      6.096  0.4085E-01  0.6494E+00
      6.205  0.2878E-01  0.6525E+00
      6.315  0.2322E-01  0.6551E+00
      6.424  0.4144E-01  0.6596E+00
      6.533  0.3153E-01  0.6630E+00
      6.642  0.2739E-01  0.6660E+00
      6.751  0.3512E-01  0.6698E+00
      6.860  0.4317E-01  0.6746E+00
      6.970  0.4254E-01  0.6792E+00
      7.079  0.2248E-01  0.6817E+00
      7.188  0.2370E-01  0.6842E+00
      7.297  0.4301E-01  0.6889E+00
      7.406  0.4409E-01  0.6938E+00
      7.516  0.4118E-01  0.6983E+00
      7.625  0.3690E-01  0.7023E+00
      7.734  0.4906E-01  0.7076E+00
      7.843  0.7102E-01  0.7154E+00
      7.952  0.3360E-01  0.7191E+00
      8.061  0.2789E-01  0.7221E+00
      8.171  0.3189E-01  0.7256E+00
      8.280  0.2210E-01  0.7280E+00
      8.389  0.1103E-01  0.7292E+00
      8.498  0.1215E-03  0.7292E+00
      8.607  0.9013E-09  0.7292E+00
      8.717  0.9087E-18  0.7292E+00
      8.826  0.0000E+00  0.7292E+00
      8.935  0.0000E+00  0.7292E+00
      9.044  0.0000E+00  0.7292E+00
      9.153  0.0000E+00  0.7292E+00
      9.262  0.0000E+00  0.7292E+00
      9.372  0.0000E+00  0.7292E+00
      9.481  0.0000E+00  0.7292E+00
      9.590  0.0000E+00  0.7292E+00
      9.699  0.0000E+00  0.7292E+00
      9.808  0.0000E+00  0.7292E+00
