       N       E                     dE             d eps       ncg     rms          rms(c)
DAV:   1     0.214045059106E+04    0.21405E+04   -0.86822E+04  1632   0.160E+03
DAV:   2     0.280898486654E+03   -0.18596E+04   -0.17870E+04  1632   0.446E+02
DAV:   3    -0.711329117343E+02   -0.35203E+03   -0.33918E+03  1792   0.185E+02
DAV:   4    -0.100867253214E+03   -0.29734E+02   -0.29384E+02  1896   0.509E+01
DAV:   5    -0.102019813612E+03   -0.11526E+01   -0.11483E+01  1888   0.108E+01    0.203E+01
DAV:   6    -0.949398904710E+02    0.70799E+01   -0.12959E+01  2408   0.466E+01    0.166E+01
DAV:   7    -0.952935482836E+02   -0.35366E+00   -0.17858E+01  1840   0.927E+00    0.897E+00
DAV:   8    -0.951737689050E+02    0.11978E+00   -0.13674E+00  2024   0.756E+00    0.344E+00
DAV:   9    -0.951851889128E+02   -0.11420E-01   -0.21910E-01  2024   0.555E+00    0.653E-01
DAV:  10    -0.951881854242E+02   -0.29965E-02   -0.38729E-02  2080   0.193E+00    0.527E-01
DAV:  11    -0.951900832515E+02   -0.18978E-02   -0.93255E-03  1864   0.424E-01    0.383E-01
DAV:  12    -0.951926490032E+02   -0.25658E-02   -0.44782E-03  1728   0.359E-01    0.231E-01
DAV:  13    -0.951924421074E+02    0.20690E-03   -0.15774E-03  1912   0.348E-01    0.469E-02
DAV:  14    -0.951924877705E+02   -0.45663E-04   -0.28996E-04  1824   0.574E-02    0.341E-02
DAV:  15    -0.951925212369E+02   -0.33466E-04   -0.48089E-05  2000   0.534E-02    0.363E-02
DAV:  16    -0.951925187083E+02    0.25286E-05   -0.38710E-05  1888   0.347E-02    0.126E-02
DAV:  17    -0.951925190008E+02   -0.29251E-06   -0.96886E-06  1744   0.118E-02
   1 F= -.95192519E+02 E0= -.95192519E+02  d E =-.173244E-12
 Found    22 degrees of freedom:
 Adding 6 more for cell shape distortion
       N       E                     dE             d eps       ncg     rms          rms(c)
DAV:   1    -0.971221191891E+02   -0.19296E+01   -0.52444E+01  2704   0.427E+01    0.111E+01
DAV:   2    -0.955152543529E+02    0.16069E+01   -0.83902E+00  2688   0.210E+01    0.515E+00
DAV:   3    -0.951662508241E+02    0.34900E+00   -0.58491E-01  2544   0.438E+00    0.264E+00
DAV:   4    -0.950549955423E+02    0.11126E+00   -0.13941E-01  2680   0.372E+00    0.985E-01
DAV:   5    -0.950491578063E+02    0.58377E-02   -0.52736E-02  2656   0.202E+00    0.439E-01
DAV:   6    -0.950500608973E+02   -0.90309E-03   -0.21419E-02  2536   0.966E-01    0.217E-01
DAV:   7    -0.950502642236E+02   -0.20333E-03   -0.42890E-03  2480   0.680E-01    0.968E-02
DAV:   8    -0.950503071952E+02   -0.42972E-04   -0.72982E-04  2456   0.268E-01    0.430E-02
DAV:   9    -0.950503362340E+02   -0.29039E-04   -0.28369E-04  2464   0.827E-02    0.243E-02
DAV:  10    -0.950503400718E+02   -0.38377E-05   -0.49164E-05  2504   0.638E-02    0.119E-02
DAV:  11    -0.950503408103E+02   -0.73850E-06   -0.58986E-06  1880   0.266E-02
   2 F= -.95050341E+02 E0= -.95050341E+02  d E =-.757568E-13
       N       E                     dE             d eps       ncg     rms          rms(c)
DAV:   1    -0.956507643514E+02   -0.60042E+00   -0.19343E+01  2664   0.217E+01    0.561E+00
DAV:   2    -0.952625978808E+02    0.38817E+00   -0.22937E+00  2640   0.125E+01    0.256E+00
DAV:   3    -0.951810915094E+02    0.81506E-01   -0.18834E-01  2592   0.278E+00    0.125E+00
DAV:   4    -0.951582542964E+02    0.22837E-01   -0.38799E-02  2648   0.202E+00    0.598E-01
DAV:   5    -0.951565001400E+02    0.17542E-02   -0.13618E-02  2640   0.103E+00    0.276E-01
DAV:   6    -0.951565698004E+02   -0.69660E-04   -0.55070E-03  2704   0.633E-01    0.979E-02
DAV:   7    -0.951566430510E+02   -0.73251E-04   -0.15052E-03  2448   0.387E-01    0.474E-02
DAV:   8    -0.951566647715E+02   -0.21720E-04   -0.30914E-04  2272   0.125E-01    0.237E-02
DAV:   9    -0.951566690212E+02   -0.42497E-05   -0.67425E-05  2272   0.706E-02    0.102E-02
DAV:  10    -0.951566700706E+02   -0.10494E-05   -0.14171E-05  2128   0.326E-02    0.471E-03
DAV:  11    -0.951566699817E+02    0.88865E-07   -0.31539E-06  1664   0.137E-02
   3 F= -.95156670E+02 E0= -.95156670E+02  d E =-.951097E-17
       N       E                     dE             d eps       ncg     rms          rms(c)
DAV:   1    -0.973009917099E+02   -0.21443E+01   -0.47633E+01  2720   0.395E+01    0.115E+01
DAV:   2    -0.955974549866E+02    0.17035E+01   -0.84952E+00  2640   0.275E+01    0.525E+00
DAV:   3    -0.952519597857E+02    0.34550E+00   -0.73110E-01  2600   0.522E+00    0.255E+00
DAV:   4    -0.951575233528E+02    0.94436E-01   -0.15844E-01  2680   0.358E+00    0.135E+00
DAV:   5    -0.951493792501E+02    0.81441E-02   -0.51208E-02  2640   0.220E+00    0.646E-01
DAV:   6    -0.951487636151E+02    0.61564E-03   -0.21683E-02  2680   0.139E+00    0.180E-01
DAV:   7    -0.951492197436E+02   -0.45613E-03   -0.72922E-03  2432   0.717E-01    0.103E-01
DAV:   8    -0.951493060797E+02   -0.86336E-04   -0.12794E-03  2488   0.241E-01    0.547E-02
DAV:   9    -0.951493168280E+02   -0.10748E-04   -0.23384E-04  2304   0.189E-01    0.214E-02
DAV:  10    -0.951493207392E+02   -0.39112E-05   -0.57060E-05  2344   0.678E-02    0.924E-03
DAV:  11    -0.951493208879E+02   -0.14874E-06   -0.12102E-05  2200   0.253E-02    0.543E-03
DAV:  12    -0.951493210487E+02   -0.16080E-06   -0.66946E-06  1664   0.946E-03
   4 F= -.95149321E+02 E0= -.95149321E+02  d E =-.761571E-15
       N       E                     dE             d eps       ncg     rms          rms(c)
DAV:   1    -0.955476498029E+02   -0.39833E+00   -0.21687E+01  2624   0.229E+01    0.597E+00
DAV:   2    -0.951359471370E+02    0.41170E+00   -0.26955E+00  2608   0.140E+01    0.273E+00
DAV:   3    -0.950480844921E+02    0.87863E-01   -0.20461E-01  2608   0.294E+00    0.136E+00
DAV:   4    -0.950205113140E+02    0.27573E-01   -0.46099E-02  2680   0.206E+00    0.665E-01
DAV:   5    -0.950183622570E+02    0.21491E-02   -0.14961E-02  2640   0.116E+00    0.319E-01
DAV:   6    -0.950183531358E+02    0.91213E-05   -0.62787E-03  2696   0.697E-01    0.110E-01
DAV:   7    -0.950184485692E+02   -0.95433E-04   -0.18839E-03  2456   0.424E-01    0.523E-02
DAV:   8    -0.950184740828E+02   -0.25514E-04   -0.36996E-04  2328   0.132E-01    0.269E-02
DAV:   9    -0.950184781592E+02   -0.40763E-05   -0.75474E-05  2288   0.835E-02    0.130E-02
DAV:  10    -0.950184791194E+02   -0.96022E-06   -0.17282E-05  2184   0.406E-02    0.496E-03
DAV:  11    -0.950184790214E+02    0.97989E-07   -0.36882E-06  1712   0.164E-02
   5 F= -.95018479E+02 E0= -.95018479E+02  d E =-.546586E-15
       N       E                     dE             d eps       ncg     rms          rms(c)
DAV:   1    -0.101921263945E+03   -0.69028E+01   -0.16123E+02  2760   0.858E+01    0.198E+01
DAV:   2    -0.963062591653E+02    0.56150E+01   -0.25232E+01  2648   0.359E+01    0.862E+00
DAV:   3    -0.953739768714E+02    0.93228E+00   -0.19375E+00  2496   0.550E+00    0.449E+00
DAV:   4    -0.950730043695E+02    0.30097E+00   -0.30289E-01  2592   0.425E+00    0.160E+00
DAV:   5    -0.950484560315E+02    0.24548E-01   -0.84754E-02  2608   0.368E+00    0.689E-01
DAV:   6    -0.950490986893E+02   -0.64266E-03   -0.45765E-02  2432   0.134E+00    0.316E-01
DAV:   7    -0.950502324110E+02   -0.11337E-02   -0.13234E-02  2424   0.695E-01    0.210E-01
DAV:   8    -0.950502320370E+02    0.37397E-06   -0.12174E-03  2896   0.469E-01    0.747E-02
DAV:   9    -0.950502562980E+02   -0.24261E-04   -0.43310E-04  3336   0.196E-01    0.344E-02
DAV:  10    -0.950502595155E+02   -0.32175E-05   -0.73855E-05  2344   0.566E-02    0.248E-02
DAV:  11    -0.950502603586E+02   -0.84310E-06   -0.15560E-05  2456   0.498E-02    0.828E-03
DAV:  12    -0.950502611551E+02   -0.79654E-06   -0.36320E-06  1824   0.199E-02
   6 F= -.95050261E+02 E0= -.95050261E+02  d E =-.340562E-15
       N       E                     dE             d eps       ncg     rms          rms(c)
DAV:   1    -0.956498250229E+02   -0.59956E+00   -0.19353E+01  2624   0.217E+01    0.561E+00
DAV:   2    -0.952619048682E+02    0.38792E+00   -0.22859E+00  2600   0.125E+01    0.257E+00
DAV:   3    -0.951809555811E+02    0.80949E-01   -0.19678E-01  2592   0.282E+00    0.125E+00
DAV:   4    -0.951582637936E+02    0.22692E-01   -0.39972E-02  2640   0.202E+00    0.602E-01
DAV:   5    -0.951564807267E+02    0.17831E-02   -0.13607E-02  2656   0.103E+00    0.276E-01
DAV:   6    -0.951565433836E+02   -0.62657E-04   -0.55101E-03  2712   0.635E-01    0.984E-02
DAV:   7    -0.951566143452E+02   -0.70962E-04   -0.15045E-03  2448   0.390E-01    0.474E-02
DAV:   8    -0.951566365738E+02   -0.22229E-04   -0.31120E-04  2248   0.125E-01    0.233E-02
DAV:   9    -0.951566409347E+02   -0.43609E-05   -0.68608E-05  2280   0.714E-02    0.106E-02
DAV:  10    -0.951566419139E+02   -0.97918E-06   -0.13948E-05  2120   0.331E-02    0.457E-03
DAV:  11    -0.951566417978E+02    0.11611E-06   -0.30729E-06  1664   0.136E-02
   7 F= -.95156642E+02 E0= -.95156642E+02  d E =-.104841E-17
       N       E                     dE             d eps       ncg     rms          rms(c)
DAV:   1    -0.973008190976E+02   -0.21442E+01   -0.47648E+01  2712   0.395E+01    0.115E+01
DAV:   2    -0.955973810119E+02    0.17034E+01   -0.84966E+00  2624   0.275E+01    0.525E+00
DAV:   3    -0.952519505419E+02    0.34543E+00   -0.73053E-01  2600   0.522E+00    0.255E+00
DAV:   4    -0.951575878617E+02    0.94363E-01   -0.15885E-01  2688   0.358E+00    0.135E+00
DAV:   5    -0.951493755828E+02    0.82123E-02   -0.51059E-02  2632   0.220E+00    0.642E-01
DAV:   6    -0.951487699226E+02    0.60566E-03   -0.21593E-02  2696   0.139E+00    0.181E-01
DAV:   7    -0.951492239246E+02   -0.45400E-03   -0.72681E-03  2432   0.717E-01    0.103E-01
DAV:   8    -0.951493096231E+02   -0.85698E-04   -0.12791E-03  2472   0.242E-01    0.540E-02
DAV:   9    -0.951493203799E+02   -0.10757E-04   -0.23263E-04  2304   0.186E-01    0.211E-02
DAV:  10    -0.951493244598E+02   -0.40799E-05   -0.56933E-05  2352   0.668E-02    0.907E-03
DAV:  11    -0.951493246950E+02   -0.23513E-06   -0.12239E-05  2160   0.245E-02    0.545E-03
DAV:  12    -0.951493248173E+02   -0.12234E-06   -0.62958E-06  1664   0.964E-03
   8 F= -.95149325E+02 E0= -.95149325E+02  d E =-.116078E-13
       N       E                     dE             d eps       ncg     rms          rms(c)
DAV:   1    -0.955480873241E+02   -0.39876E+00   -0.21677E+01  2648   0.229E+01    0.597E+00
DAV:   2    -0.951364011043E+02    0.41169E+00   -0.27012E+00  2616   0.140E+01    0.273E+00
DAV:   3    -0.950481915442E+02    0.88210E-01   -0.19869E-01  2592   0.292E+00    0.136E+00
DAV:   4    -0.950204607173E+02    0.27731E-01   -0.45183E-02  2688   0.206E+00    0.660E-01
DAV:   5    -0.950183402279E+02    0.21205E-02   -0.14996E-02  2640   0.117E+00    0.318E-01
DAV:   6    -0.950183397531E+02    0.47474E-06   -0.62948E-03  2712   0.698E-01    0.109E-01
DAV:   7    -0.950184365610E+02   -0.96808E-04   -0.18922E-03  2448   0.423E-01    0.525E-02
DAV:   8    -0.950184618387E+02   -0.25278E-04   -0.37002E-04  2320   0.133E-01    0.271E-02
DAV:   9    -0.950184658367E+02   -0.39981E-05   -0.74859E-05  2280   0.829E-02    0.127E-02
DAV:  10    -0.950184668275E+02   -0.99080E-06   -0.17384E-05  2176   0.403E-02    0.504E-03
DAV:  11    -0.950184667655E+02    0.62024E-07   -0.38374E-06  1712   0.159E-02
   9 F= -.95018467E+02 E0= -.95018467E+02  d E =-.147109E-15
       N       E                     dE             d eps       ncg     rms          rms(c)
DAV:   1    -0.102003213955E+03   -0.69847E+01   -0.14525E+02  2104   0.840E+01    0.196E+01
DAV:   2    -0.962951811962E+02    0.57080E+01   -0.22871E+01  1968   0.348E+01    0.849E+00
DAV:   3    -0.953640641688E+02    0.93112E+00   -0.18937E+00  1888   0.523E+00    0.431E+00
DAV:   4    -0.950864755659E+02    0.27759E+00   -0.24302E-01  1800   0.223E+00    0.150E+00
DAV:   5    -0.950542613375E+02    0.32214E-01   -0.52120E-02  2424   0.265E+00    0.630E-01
DAV:   6    -0.950539925828E+02    0.26875E-03   -0.32717E-02  1976   0.187E+00    0.223E-01
DAV:   7    -0.950545686822E+02   -0.57610E-03   -0.11686E-02  1856   0.784E-01    0.134E-01
DAV:   8    -0.950545898629E+02   -0.21181E-04   -0.18117E-03  1912   0.177E-01    0.779E-02
DAV:   9    -0.950545272198E+02    0.62643E-04   -0.17707E-04  2640   0.131E-01    0.193E-02
DAV:  10    -0.950545321794E+02   -0.49596E-05   -0.27779E-04  1904   0.625E-02    0.128E-02
DAV:  11    -0.950545140983E+02    0.18081E-04   -0.16625E-05  2144   0.519E-02    0.736E-03
DAV:  12    -0.950544996191E+02    0.14479E-04   -0.16322E-05  1984   0.554E-02    0.563E-03
DAV:  13    -0.950544826217E+02    0.16997E-04   -0.17446E-05  2160   0.813E-02    0.488E-03
DAV:  14    -0.950544826638E+02   -0.42066E-07   -0.30549E-05  1904   0.247E-02    0.351E-03
DAV:  15    -0.950544817725E+02    0.89123E-06   -0.35402E-06  1496   0.114E-02
  10 F= -.95054482E+02 E0= -.95054482E+02  d E =-.162650E-12
       N       E                     dE             d eps       ncg     rms          rms(c)
DAV:   1    -0.956919753478E+02   -0.63749E+00   -0.13021E+01  2008   0.195E+01    0.569E+00
DAV:   2    -0.952717563705E+02    0.42022E+00   -0.21820E+00  1992   0.122E+01    0.254E+00
DAV:   3    -0.951816538868E+02    0.90102E-01   -0.15272E-01  1976   0.192E+00    0.125E+00
DAV:   4    -0.951574646806E+02    0.24189E-01   -0.36475E-02  1936   0.113E+00    0.607E-01
DAV:   5    -0.951556764928E+02    0.17882E-02   -0.11785E-02  2008   0.115E+00    0.248E-01
DAV:   6    -0.951556850407E+02   -0.85479E-05   -0.48536E-03  2000   0.765E-01    0.842E-02
DAV:   7    -0.951558190136E+02   -0.13397E-03   -0.16614E-03  1808   0.270E-01    0.554E-02
DAV:   8    -0.951558343145E+02   -0.15301E-04   -0.25069E-04  1896   0.113E-01    0.224E-02
DAV:   9    -0.951558347245E+02   -0.41000E-06   -0.38969E-05  1816   0.818E-02    0.733E-03
DAV:  10    -0.951558368788E+02   -0.21543E-05   -0.16883E-05  1792   0.167E-02    0.667E-03
DAV:  11    -0.951558362320E+02    0.64681E-06   -0.29148E-06  1344   0.163E-02
  11 F= -.95155836E+02 E0= -.95155836E+02  d E =-.162785E-10
       N       E                     dE             d eps       ncg     rms          rms(c)
DAV:   1    -0.973724998362E+02   -0.22167E+01   -0.53660E+01  2000   0.395E+01    0.118E+01
DAV:   2    -0.956266274486E+02    0.17459E+01   -0.92334E+00  1976   0.275E+01    0.528E+00
DAV:   3    -0.952635692586E+02    0.36306E+00   -0.76653E-01  1960   0.453E+00    0.258E+00
DAV:   4    -0.951635436941E+02    0.10003E+00   -0.16112E-01  1952   0.224E+00    0.140E+00
DAV:   5    -0.951535839153E+02    0.99598E-02   -0.44542E-02  2016   0.233E+00    0.576E-01
DAV:   6    -0.951528806091E+02    0.70331E-03   -0.20311E-02  2000   0.161E+00    0.168E-01
DAV:   7    -0.951534963178E+02   -0.61571E-03   -0.79600E-03  1808   0.627E-01    0.115E-01
DAV:   8    -0.951535830999E+02   -0.86782E-04   -0.13120E-03  1952   0.244E-01    0.551E-02
DAV:   9    -0.951535818982E+02    0.12017E-05   -0.18371E-04  1920   0.186E-01    0.186E-02
DAV:  10    -0.951535907708E+02   -0.88726E-05   -0.76284E-05  1832   0.321E-02    0.114E-02
DAV:  11    -0.951535896083E+02    0.11624E-05   -0.55233E-06  1640   0.153E-02    0.430E-03
DAV:  12    -0.951535902228E+02   -0.61444E-06   -0.17242E-06  1096   0.677E-03
  12 F= -.95153590E+02 E0= -.95153590E+02  d E =-.348805E-11
       N       E                     dE             d eps       ncg     rms          rms(c)
DAV:   1    -0.956046444427E+02   -0.45105E+00   -0.14105E+01  2008   0.209E+01    0.599E+00
DAV:   2    -0.951574335679E+02    0.44721E+00   -0.24059E+00  1984   0.133E+01    0.271E+00
DAV:   3    -0.950583820479E+02    0.99052E-01   -0.16702E-01  1984   0.212E+00    0.132E+00
DAV:   4    -0.950306415730E+02    0.27740E-01   -0.40877E-02  1936   0.119E+00    0.659E-01
DAV:   5    -0.950284747942E+02    0.21668E-02   -0.12868E-02  2000   0.124E+00    0.277E-01
DAV:   6    -0.950284169441E+02    0.57850E-04   -0.55756E-03  1968   0.836E-01    0.944E-02
DAV:   7    -0.950285686442E+02   -0.15170E-03   -0.19454E-03  1808   0.302E-01    0.594E-02
DAV:   8    -0.950285875456E+02   -0.18901E-04   -0.31182E-04  1944   0.123E-01    0.255E-02
DAV:   9    -0.950285874357E+02    0.10989E-06   -0.49200E-05  1824   0.924E-02    0.866E-03
DAV:  10    -0.950285899776E+02   -0.25419E-05   -0.20783E-05  1816   0.181E-02    0.778E-03
DAV:  11    -0.950285890729E+02    0.90475E-06   -0.36318E-06  1360   0.181E-02
  13 F= -.95028589E+02 E0= -.95028589E+02  d E =-.676660E-17
       N       E                     dE             d eps       ncg     rms          rms(c)
DAV:   1    -0.978663538502E+02   -0.28378E+01   -0.76471E+01  2624   0.473E+01    0.129E+01
DAV:   2    -0.958456706136E+02    0.20207E+01   -0.11214E+01  2688   0.236E+01    0.615E+00
DAV:   3    -0.953175545846E+02    0.52812E+00   -0.73282E-01  2480   0.352E+00    0.318E+00
DAV:   4    -0.951439231441E+02    0.17363E+00   -0.22195E-01  2464   0.196E+00    0.983E-01
DAV:   5    -0.951410303425E+02    0.28928E-02   -0.72288E-02  2544   0.155E+00    0.509E-01
DAV:   6    -0.951417726595E+02   -0.74232E-03   -0.20194E-02  2544   0.166E+00    0.276E-01
DAV:   7    -0.951417222903E+02    0.50369E-04   -0.29711E-03  2440   0.602E-01    0.120E-01
DAV:   8    -0.951417780669E+02   -0.55777E-04   -0.99547E-04  3208   0.207E-01    0.575E-02
DAV:   9    -0.951418327956E+02   -0.54729E-04   -0.59369E-04  2384   0.169E-01    0.503E-02
DAV:  10    -0.951418304641E+02    0.23315E-05   -0.82951E-05  2536   0.133E-01    0.176E-02
DAV:  11    -0.951418324233E+02   -0.19592E-05   -0.18273E-05  2192   0.178E-02    0.943E-03
DAV:  12    -0.951418330608E+02   -0.63745E-06   -0.47452E-06  2192   0.153E-02
  14 F= -.95141833E+02 E0= -.95141833E+02  d E =-.172481E-11
       N       E                     dE             d eps       ncg     rms          rms(c)
DAV:   1    -0.953037512797E+02   -0.16192E+00   -0.48555E+00  2184   0.725E+00    0.254E+00
DAV:   2    -0.952302157856E+02    0.73535E-01   -0.20115E-01  2536   0.265E+00    0.147E+00
DAV:   3    -0.951837651146E+02    0.46451E-01   -0.40617E-02  2656   0.126E+00    0.483E-01
DAV:   4    -0.951822281192E+02    0.15370E-02   -0.23197E-02  2664   0.727E-01    0.181E-01
DAV:   5    -0.951825160327E+02   -0.28791E-03   -0.53591E-03  2536   0.563E-01    0.143E-01
DAV:   6    -0.951824517236E+02    0.64309E-04   -0.11205E-03  2872   0.401E-01    0.451E-02
DAV:   7    -0.951824716022E+02   -0.19879E-04   -0.28120E-04  2392   0.121E-01    0.374E-02
DAV:   8    -0.951824771158E+02   -0.55136E-05   -0.57048E-05  2376   0.289E-02    0.181E-02
DAV:   9    -0.951824785045E+02   -0.13887E-05   -0.93415E-06  2176   0.214E-02    0.615E-03
DAV:  10    -0.951824788182E+02   -0.31367E-06   -0.14024E-06  1472   0.172E-02
  15 F= -.95182479E+02 E0= -.95182479E+02  d E =-.994131E-11
       N       E                     dE             d eps       ncg     rms          rms(c)
DAV:   1    -0.956566332214E+02   -0.47415E+00   -0.19439E+01  2184   0.145E+01    0.507E+00
DAV:   2    -0.953630963892E+02    0.29354E+00   -0.80815E-01  2488   0.502E+00    0.294E+00
DAV:   3    -0.951782788930E+02    0.18482E+00   -0.15941E-01  2696   0.237E+00    0.981E-01
DAV:   4    -0.951713366264E+02    0.69423E-02   -0.91745E-02  2624   0.144E+00    0.373E-01
DAV:   5    -0.951724499409E+02   -0.11133E-02   -0.20699E-02  2560   0.108E+00    0.296E-01
DAV:   6    -0.951722248152E+02    0.22513E-03   -0.41548E-03  3016   0.749E-01    0.103E-01
DAV:   7    -0.951722989079E+02   -0.74093E-04   -0.10389E-03  2504   0.210E-01    0.706E-02
DAV:   8    -0.951723167905E+02   -0.17883E-04   -0.17855E-04  2520   0.547E-02    0.351E-02
DAV:   9    -0.951723239874E+02   -0.71969E-05   -0.48434E-05  2344   0.405E-02    0.116E-02
DAV:  10    -0.951723250465E+02   -0.10591E-05   -0.40715E-06  2248   0.300E-02    0.690E-03
DAV:  11    -0.951723249266E+02    0.11987E-06   -0.19974E-06  1440   0.647E-03
  16 F= -.95172325E+02 E0= -.95172325E+02  d E =-.227641E-11
       N       E                     dE             d eps       ncg     rms          rms(c)
DAV:   1    -0.952429160308E+02   -0.70591E-01   -0.48685E+00  2200   0.725E+00    0.254E+00
DAV:   2    -0.951696957638E+02    0.73220E-01   -0.20328E-01  2496   0.263E+00    0.147E+00
DAV:   3    -0.951233857305E+02    0.46310E-01   -0.38971E-02  2664   0.117E+00    0.490E-01
DAV:   4    -0.951217616434E+02    0.16241E-02   -0.23870E-02  2592   0.638E-01    0.183E-01
DAV:   5    -0.951219711779E+02   -0.20953E-03   -0.45326E-03  2592   0.505E-01    0.144E-01
DAV:   6    -0.951219100208E+02    0.61157E-04   -0.97921E-04  2832   0.368E-01    0.454E-02
DAV:   7    -0.951219278575E+02   -0.17837E-04   -0.24369E-04  2392   0.105E-01    0.370E-02
DAV:   8    -0.951219328417E+02   -0.49843E-05   -0.49148E-05  2352   0.260E-02    0.181E-02
DAV:   9    -0.951219342131E+02   -0.13713E-05   -0.77736E-06  2232   0.212E-02    0.604E-03
DAV:  10    -0.951219345276E+02   -0.31458E-06   -0.15668E-06  1384   0.172E-02
  17 F= -.95121935E+02 E0= -.95121935E+02  d E =-.671044E-11
       N       E                     dE             d eps       ncg     rms          rms(c)
DAV:   1    -0.960917299675E+02   -0.96980E+00   -0.38681E+01  2192   0.204E+01    0.738E+00
DAV:   2    -0.955151969164E+02    0.57653E+00   -0.17250E+00  2520   0.784E+00    0.417E+00
DAV:   3    -0.951741338501E+02    0.34106E+00   -0.33640E-01  2696   0.491E+00    0.173E+00
DAV:   4    -0.951393408981E+02    0.34793E-01   -0.17482E-01  2696   0.318E+00    0.449E-01
DAV:   5    -0.951430655305E+02   -0.37246E-02   -0.59311E-02  2488   0.165E+00    0.356E-01
DAV:   6    -0.951431713247E+02   -0.10579E-03   -0.12682E-02  2808   0.107E+00    0.161E-01
DAV:   7    -0.951432187805E+02   -0.47456E-04   -0.22710E-03  2704   0.584E-01    0.877E-02
DAV:   8    -0.951432901210E+02   -0.71340E-04   -0.72673E-04  2448   0.126E-01    0.480E-02
DAV:   9    -0.951433020613E+02   -0.11940E-04   -0.90003E-05  2552   0.716E-02    0.203E-02
DAV:  10    -0.951433011868E+02    0.87457E-06   -0.26316E-05  2472   0.792E-02    0.909E-03
DAV:  11    -0.951433023829E+02   -0.11961E-05   -0.82978E-06  2232   0.114E-02    0.322E-03
DAV:  12    -0.951433025281E+02   -0.14518E-06   -0.86873E-07  1352   0.145E-02
  18 F= -.95143303E+02 E0= -.95143303E+02  d E =-.103768E-15
       N       E                     dE             d eps       ncg     rms          rms(c)
DAV:   1    -0.952782755450E+02   -0.13497E+00   -0.80177E+00  2264   0.921E+00    0.248E+00
DAV:   2    -0.952197358850E+02    0.58540E-01   -0.25194E-01  2512   0.298E+00    0.146E+00
DAV:   3    -0.951809898874E+02    0.38746E-01   -0.46927E-02  2704   0.186E+00    0.493E-01
DAV:   4    -0.951794150050E+02    0.15749E-02   -0.19095E-02  2736   0.122E+00    0.175E-01
DAV:   5    -0.951799095269E+02   -0.49452E-03   -0.70316E-03  2480   0.555E-01    0.146E-01
DAV:   6    -0.951798759951E+02    0.33532E-04   -0.15990E-03  2864   0.448E-01    0.568E-02
DAV:   7    -0.951798832017E+02   -0.72065E-05   -0.30009E-04  2696   0.184E-01    0.285E-02
DAV:   8    -0.951798866607E+02   -0.34590E-05   -0.56560E-05  2544   0.584E-02    0.190E-02
DAV:   9    -0.951798906528E+02   -0.39920E-05   -0.40353E-05  2160   0.390E-02    0.742E-03
DAV:  10    -0.951798908352E+02   -0.18248E-06   -0.30456E-06  1768   0.251E-02
  19 F= -.95179891E+02 E0= -.95179891E+02  d E =-.473177E-18
       N       E                     dE             d eps       ncg     rms          rms(c)
DAV:   1    -0.956067610161E+02   -0.42687E+00   -0.15955E+01  2216   0.131E+01    0.503E+00
DAV:   2    -0.953454164273E+02    0.26134E+00   -0.70709E-01  2552   0.534E+00    0.291E+00
DAV:   3    -0.951902254444E+02    0.15519E+00   -0.15664E-01  2616   0.346E+00    0.110E+00
DAV:   4    -0.951795350762E+02    0.10690E-01   -0.70805E-02  2800   0.225E+00    0.302E-01
DAV:   5    -0.951813294159E+02   -0.17943E-02   -0.26150E-02  2440   0.103E+00    0.249E-01
DAV:   6    -0.951812736280E+02    0.55788E-04   -0.54767E-03  2800   0.770E-01    0.106E-01
DAV:   7    -0.951812931821E+02   -0.19554E-04   -0.96767E-04  2800   0.357E-01    0.544E-02
DAV:   8    -0.951813147378E+02   -0.21556E-04   -0.24059E-04  2456   0.815E-02    0.356E-02
DAV:   9    -0.951813226727E+02   -0.79349E-05   -0.89434E-05  2408   0.715E-02    0.150E-02
DAV:  10    -0.951813228425E+02   -0.16981E-06   -0.79028E-06  2272   0.447E-02
  20 F= -.95181323E+02 E0= -.95181323E+02  d E =-.473382E-13
       N       E                     dE             d eps       ncg     rms          rms(c)
DAV:   1    -0.952438452057E+02   -0.62523E-01   -0.85951E+00  2264   0.905E+00    0.257E+00
DAV:   2    -0.951879146374E+02    0.55931E-01   -0.26844E-01  2536   0.305E+00    0.147E+00
DAV:   3    -0.951507274794E+02    0.37187E-01   -0.35782E-02  2736   0.177E+00    0.629E-01
DAV:   4    -0.951461988989E+02    0.45286E-02   -0.18836E-02  2848   0.112E+00    0.146E-01
DAV:   5    -0.951467126832E+02   -0.51378E-03   -0.74333E-03  2432   0.586E-01    0.123E-01
DAV:   6    -0.951467208742E+02   -0.81910E-05   -0.14851E-03  2712   0.380E-01    0.587E-02
DAV:   7    -0.951467276454E+02   -0.67712E-05   -0.27269E-04  2632   0.191E-01    0.248E-02
DAV:   8    -0.951467346837E+02   -0.70382E-05   -0.69350E-05  2240   0.399E-02    0.167E-02
DAV:   9    -0.951467365269E+02   -0.18432E-05   -0.22009E-05  2296   0.427E-02    0.721E-03
DAV:  10    -0.951467365507E+02   -0.23825E-07   -0.17164E-06  1488   0.222E-02
  21 F= -.95146737E+02 E0= -.95146737E+02  d E =-.108129E-11
       N       E                     dE             d eps       ncg     rms          rms(c)
DAV:   1    -0.959279544434E+02   -0.78122E+00   -0.43689E+01  2248   0.218E+01    0.691E+00
DAV:   2    -0.954607869277E+02    0.46717E+00   -0.15496E+00  2536   0.786E+00    0.412E+00
DAV:   3    -0.951536239751E+02    0.30716E+00   -0.30932E-01  2640   0.606E+00    0.134E+00
DAV:   4    -0.951388275124E+02    0.14796E-01   -0.13426E-01  2680   0.324E+00    0.358E-01
DAV:   5    -0.951429822300E+02   -0.41547E-02   -0.52222E-02  2440   0.101E+00    0.300E-01
DAV:   6    -0.951426395855E+02    0.34264E-03   -0.30990E-03  2744   0.398E-01    0.119E-01
DAV:   7    -0.951427004448E+02   -0.60859E-04   -0.60321E-04  2608   0.184E-01    0.634E-02
DAV:   8    -0.951427254482E+02   -0.25003E-04   -0.20698E-04  2632   0.160E-01    0.288E-02
DAV:   9    -0.951427249484E+02    0.49979E-06   -0.66699E-05  2320   0.102E-01    0.175E-02
DAV:  10    -0.951427271422E+02   -0.21938E-05   -0.21066E-05  2392   0.206E-02    0.841E-03
DAV:  11    -0.951427279798E+02   -0.83758E-06   -0.38722E-06  1888   0.197E-02
  22 F= -.95142728E+02 E0= -.95142728E+02  d E =-.664094E-16
       N       E                     dE             d eps       ncg     rms          rms(c)
DAV:   1    -0.952794243439E+02   -0.13670E+00   -0.80306E+00  2288   0.921E+00    0.249E+00
DAV:   2    -0.952201954910E+02    0.59229E-01   -0.25483E-01  2528   0.297E+00    0.146E+00
DAV:   3    -0.951809171477E+02    0.39278E-01   -0.46793E-02  2736   0.179E+00    0.492E-01
DAV:   4    -0.951793349114E+02    0.15822E-02   -0.19278E-02  2760   0.120E+00    0.179E-01
DAV:   5    -0.951798265597E+02   -0.49165E-03   -0.70552E-03  2440   0.572E-01    0.147E-01
DAV:   6    -0.951797952490E+02    0.31311E-04   -0.15926E-03  2856   0.443E-01    0.573E-02
DAV:   7    -0.951798037288E+02   -0.84798E-05   -0.30890E-04  2672   0.181E-01    0.283E-02
DAV:   8    -0.951798077467E+02   -0.40179E-05   -0.58957E-05  2488   0.551E-02    0.189E-02
DAV:   9    -0.951798115493E+02   -0.38026E-05   -0.38308E-05  2160   0.388E-02    0.773E-03
DAV:  10    -0.951798116736E+02   -0.12437E-06   -0.29033E-06  1744   0.260E-02
  23 F= -.95179812E+02 E0= -.95179812E+02  d E =-.395575E-18
       N       E                     dE             d eps       ncg     rms          rms(c)
DAV:   1    -0.956065422164E+02   -0.42673E+00   -0.15959E+01  2224   0.131E+01    0.504E+00
DAV:   2    -0.953454847904E+02    0.26106E+00   -0.70881E-01  2552   0.536E+00    0.291E+00
DAV:   3    -0.951902152140E+02    0.15527E+00   -0.15744E-01  2648   0.351E+00    0.109E+00
DAV:   4    -0.951796022136E+02    0.10613E-01   -0.71082E-02  2800   0.226E+00    0.301E-01
DAV:   5    -0.951813899723E+02   -0.17878E-02   -0.26079E-02  2432   0.102E+00    0.248E-01
DAV:   6    -0.951813269887E+02    0.62984E-04   -0.53392E-03  2784   0.756E-01    0.106E-01
DAV:   7    -0.951813463425E+02   -0.19354E-04   -0.94085E-04  2792   0.353E-01    0.543E-02
DAV:   8    -0.951813684765E+02   -0.22134E-04   -0.24186E-04  2440   0.777E-02    0.356E-02
DAV:   9    -0.951813754081E+02   -0.69316E-05   -0.78692E-05  2424   0.675E-02    0.149E-02
DAV:  10    -0.951813756294E+02   -0.22129E-06   -0.75250E-06  2256   0.439E-02
  24 F= -.95181376E+02 E0= -.95181376E+02  d E =-.648664E-13
       N       E                     dE             d eps       ncg     rms          rms(c)
DAV:   1    -0.952430855108E+02   -0.61710E-01   -0.85470E+00  2248   0.904E+00    0.257E+00
DAV:   2    -0.951878446600E+02    0.55241E-01   -0.26530E-01  2552   0.306E+00    0.147E+00
DAV:   3    -0.951512026407E+02    0.36642E-01   -0.35633E-02  2720   0.180E+00    0.630E-01
DAV:   4    -0.951466780286E+02    0.45246E-02   -0.18469E-02  2848   0.112E+00    0.144E-01
DAV:   5    -0.951471887455E+02   -0.51072E-03   -0.73448E-03  2424   0.573E-01    0.122E-01
DAV:   6    -0.951471965165E+02   -0.77710E-05   -0.14613E-03  2744   0.379E-01    0.583E-02
DAV:   7    -0.951472024143E+02   -0.58979E-05   -0.26452E-04  2640   0.192E-01    0.244E-02
DAV:   8    -0.951472092329E+02   -0.68186E-05   -0.67430E-05  2256   0.401E-02    0.168E-02
DAV:   9    -0.951472110757E+02   -0.18428E-05   -0.23026E-05  2320   0.438E-02    0.716E-03
DAV:  10    -0.951472111263E+02   -0.50593E-07   -0.17176E-06  1472   0.215E-02
  25 F= -.95147211E+02 E0= -.95147211E+02  d E =-.636897E-12
       N       E                     dE             d eps       ncg     rms          rms(c)
DAV:   1    -0.956091848793E+02   -0.46197E+00   -0.21029E+01  2344   0.150E+01    0.502E+00
DAV:   2    -0.953528974819E+02    0.25629E+00   -0.77010E-01  2528   0.541E+00    0.292E+00
DAV:   3    -0.951992799066E+02    0.15362E+00   -0.16665E-01  2624   0.352E+00    0.108E+00
DAV:   4    -0.951892314305E+02    0.10048E-01   -0.71619E-02  2704   0.229E+00    0.321E-01
DAV:   5    -0.951910275724E+02   -0.17961E-02   -0.26439E-02  2424   0.105E+00    0.265E-01
DAV:   6    -0.951909578349E+02    0.69737E-04   -0.60651E-03  2784   0.825E-01    0.107E-01
DAV:   7    -0.951909708302E+02   -0.12995E-04   -0.10579E-03  2840   0.398E-01    0.558E-02
DAV:   8    -0.951909928697E+02   -0.22039E-04   -0.27231E-04  2480   0.929E-02    0.364E-02
DAV:   9    -0.951910025443E+02   -0.96747E-05   -0.11477E-04  2352   0.948E-02    0.152E-02
DAV:  10    -0.951910025461E+02   -0.17826E-08   -0.13730E-05  2304   0.628E-02    0.482E-03
DAV:  11    -0.951910031311E+02   -0.58500E-06   -0.58919E-06  1848   0.102E-02
  26 F= -.95191003E+02 E0= -.95191003E+02  d E =-.145566E-11
       N       E                     dE             d eps       ncg     rms          rms(c)
DAV:   1    -0.951892335972E+02    0.17689E-02   -0.17424E+00  2408   0.167E+00    0.429E-02
DAV:   2    -0.951919499361E+02   -0.27163E-02   -0.27282E-02  2424   0.266E-01    0.150E-02
DAV:   3    -0.951920340325E+02   -0.84096E-04   -0.87337E-04  2776   0.578E-02    0.110E-02
DAV:   4    -0.951920370537E+02   -0.30212E-05   -0.43417E-05  1848   0.323E-02    0.745E-03
DAV:   5    -0.951920372156E+02   -0.16182E-06   -0.57822E-06  2072   0.134E-02
  27 F= -.95192037E+02 E0= -.95192037E+02  d E =-.199317E-11
       N       E                     dE             d eps       ncg     rms          rms(c)
DAV:   1    -0.951874332818E+02    0.46038E-02   -0.30545E+00  2424   0.236E+00    0.102E-01
DAV:   2    -0.951923015805E+02   -0.48683E-02   -0.49464E-02  2424   0.410E-01    0.327E-02
DAV:   3    -0.951924357895E+02   -0.13421E-03   -0.15904E-03  2864   0.902E-02    0.219E-02
DAV:   4    -0.951924406541E+02   -0.48646E-05   -0.98096E-05  2720   0.390E-02    0.141E-02
DAV:   5    -0.951924403240E+02    0.33010E-06   -0.73882E-06  2208   0.209E-02
  28 F= -.95192440E+02 E0= -.95192440E+02  d E =-.350088E-11
       N       E                     dE             d eps       ncg     rms          rms(c)
DAV:   1    -0.951889475344E+02    0.34931E-02   -0.17419E+00  2384   0.165E+00    0.682E-02
DAV:   2    -0.951916890652E+02   -0.27415E-02   -0.27762E-02  2384   0.266E-01    0.194E-02
DAV:   3    -0.951917635441E+02   -0.74479E-04   -0.82277E-04  2888   0.707E-02    0.163E-02
DAV:   4    -0.951917672633E+02   -0.37193E-05   -0.56840E-05  2424   0.206E-02    0.114E-02
DAV:   5    -0.951917666443E+02    0.61899E-06   -0.25448E-06  1624   0.208E-02
  29 F= -.95191767E+02 E0= -.95191767E+02  d E =-.481683E-11
       N       E                     dE             d eps       ncg     rms          rms(c)
DAV:   1    -0.951793477108E+02    0.12420E-01   -0.70221E+00  2368   0.340E+00    0.139E-01
DAV:   2    -0.951906439949E+02   -0.11296E-01   -0.11516E-01  2400   0.595E-01    0.454E-02
DAV:   3    -0.951909663251E+02   -0.32233E-03   -0.37224E-03  2896   0.142E-01    0.330E-02
DAV:   4    -0.951909731993E+02   -0.68742E-05   -0.19808E-04  2960   0.596E-02    0.228E-02
DAV:   5    -0.951909704070E+02    0.27923E-05   -0.21850E-05  2616   0.459E-02    0.101E-02
DAV:   6    -0.951909710119E+02   -0.60496E-06   -0.12788E-05  2376   0.352E-02    0.592E-03
DAV:   7    -0.951909718971E+02   -0.88513E-06   -0.95102E-06  2048   0.157E-02
  30 F= -.95190972E+02 E0= -.95190972E+02  d E =-.286423E-11
       N       E                     dE             d eps       ncg     rms          rms(c)
DAV:   1    -0.951892428613E+02    0.17282E-02   -0.17414E+00  2448   0.165E+00    0.440E-02
DAV:   2    -0.951919478422E+02   -0.27050E-02   -0.27210E-02  2360   0.268E-01    0.156E-02
DAV:   3    -0.951920303263E+02   -0.82484E-04   -0.86362E-04  2800   0.591E-02    0.114E-02
DAV:   4    -0.951920333364E+02   -0.30101E-05   -0.43941E-05  1808   0.300E-02    0.784E-03
DAV:   5    -0.951920332678E+02    0.68580E-07   -0.57507E-06  2080   0.161E-02
  31 F= -.95192033E+02 E0= -.95192033E+02  d E =-.292179E-11
       N       E                     dE             d eps       ncg     rms          rms(c)
DAV:   1    -0.951874064684E+02    0.46269E-02   -0.30541E+00  2424   0.238E+00    0.107E-01
DAV:   2    -0.951922953830E+02   -0.48889E-02   -0.49920E-02  2440   0.416E-01    0.335E-02
DAV:   3    -0.951924283979E+02   -0.13301E-03   -0.16115E-03  2848   0.992E-02    0.234E-02
DAV:   4    -0.951924333298E+02   -0.49319E-05   -0.10116E-04  2896   0.392E-02    0.151E-02
DAV:   5    -0.951924323055E+02    0.10243E-05   -0.80537E-06  2368   0.312E-02    0.705E-03
DAV:   6    -0.951924328606E+02   -0.55518E-06   -0.60846E-06  2240   0.220E-02
  32 F= -.95192433E+02 E0= -.95192433E+02  d E =-.312938E-11
       N       E                     dE             d eps       ncg     rms          rms(c)
DAV:   1    -0.951889634914E+02    0.34688E-02   -0.17410E+00  2424   0.169E+00    0.688E-02
DAV:   2    -0.951917031024E+02   -0.27396E-02   -0.27767E-02  2368   0.271E-01    0.194E-02
DAV:   3    -0.951917755164E+02   -0.72414E-04   -0.80659E-04  2744   0.751E-02    0.170E-02
DAV:   4    -0.951917788782E+02   -0.33618E-05   -0.52902E-05  2392   0.204E-02    0.118E-02
DAV:   5    -0.951917781055E+02    0.77265E-06   -0.26398E-06  1568   0.208E-02
  33 F= -.95191778E+02 E0= -.95191778E+02  d E =-.327808E-11
       N       E                     dE             d eps       ncg     rms          rms(c)
DAV:   1    -0.951807036683E+02    0.11075E-01   -0.70166E+00  2440   0.337E+00    0.150E-01
DAV:   2    -0.951923718955E+02   -0.11668E-01   -0.11842E-01  2384   0.587E-01    0.476E-02
DAV:   3    -0.951926688683E+02   -0.29697E-03   -0.35005E-03  2984   0.139E-01    0.350E-02
DAV:   4    -0.951926739044E+02   -0.50360E-05   -0.18817E-04  2928   0.634E-02    0.211E-02
DAV:   5    -0.951926722094E+02    0.16950E-05   -0.20969E-05  2560   0.445E-02    0.102E-02
DAV:   6    -0.951926734762E+02   -0.12668E-05   -0.12174E-05  2328   0.274E-02    0.467E-03
DAV:   7    -0.951926741198E+02   -0.64361E-06   -0.58026E-06  1704   0.138E-02
  34 F= -.95192674E+02 E0= -.95192674E+02  d E =-.239994E-11
       N       E                     dE             d eps       ncg     rms          rms(c)
DAV:   1    -0.951900254261E+02    0.26481E-02   -0.17430E+00  2288   0.151E+00    0.410E-02
DAV:   2    -0.951926641806E+02   -0.26388E-02   -0.26450E-02  2296   0.245E-01    0.118E-02
DAV:   3    -0.951927438753E+02   -0.79695E-04   -0.81882E-04  2768   0.574E-02    0.879E-03
DAV:   4    -0.951927472324E+02   -0.33571E-05   -0.40634E-05  1816   0.227E-02    0.643E-03
DAV:   5    -0.951927474214E+02   -0.18899E-06   -0.34844E-06  1648   0.126E-02
  35 F= -.95192747E+02 E0= -.95192747E+02  d E =-.273144E-11
       N       E                     dE             d eps       ncg     rms          rms(c)
DAV:   1    -0.951872163104E+02    0.55309E-02   -0.30584E+00  2312   0.213E+00    0.936E-02
DAV:   2    -0.951918606447E+02   -0.46443E-02   -0.46699E-02  2304   0.375E-01    0.238E-02
DAV:   3    -0.951919917311E+02   -0.13109E-03   -0.13810E-03  2784   0.848E-02    0.183E-02
DAV:   4    -0.951919990647E+02   -0.73337E-05   -0.82722E-05  2784   0.312E-02    0.127E-02
DAV:   5    -0.951919998200E+02   -0.75524E-06   -0.46929E-06  1864   0.176E-02
  36 F= -.95192000E+02 E0= -.95192000E+02  d E =-.352667E-11
       N       E                     dE             d eps       ncg     rms          rms(c)
DAV:   1    -0.951884715151E+02    0.35275E-02   -0.17428E+00  2272   0.149E+00    0.582E-02
DAV:   2    -0.951911225976E+02   -0.26511E-02   -0.26719E-02  2304   0.231E-01    0.150E-02
DAV:   3    -0.951912045790E+02   -0.81981E-04   -0.84864E-04  2784   0.590E-02    0.133E-02
DAV:   4    -0.951912079675E+02   -0.33885E-05   -0.44466E-05  1952   0.167E-02    0.963E-03
DAV:   5    -0.951912079218E+02    0.45697E-07   -0.24273E-06  1544   0.120E-02
  37 F= -.95191208E+02 E0= -.95191208E+02  d E =-.398663E-11
       N       E                     dE             d eps       ncg     rms          rms(c)
DAV:   1    -0.951801275742E+02    0.11080E-01   -0.69859E+00  2520   0.359E+00    0.152E-01
DAV:   2    -0.951914075349E+02   -0.11280E-01   -0.11426E-01  2368   0.619E-01    0.423E-02
DAV:   3    -0.951916669855E+02   -0.25945E-03   -0.29547E-03  2840   0.171E-01    0.335E-02
DAV:   4    -0.951916736743E+02   -0.66887E-05   -0.17224E-04  2728   0.451E-02    0.215E-02
DAV:   5    -0.951916723481E+02    0.13261E-05   -0.15501E-05  2432   0.420E-02    0.105E-02
DAV:   6    -0.951916733864E+02   -0.10383E-05   -0.85542E-06  2448   0.223E-02    0.486E-03
DAV:   7    -0.951916738019E+02   -0.41552E-06   -0.41434E-06  1840   0.124E-02
  38 F= -.95191674E+02 E0= -.95191674E+02  d E =-.188960E-11
       N       E                     dE             d eps       ncg     rms          rms(c)
DAV:   1    -0.951895871256E+02    0.20863E-02   -0.17474E+00  2368   0.124E+00    0.401E-02
DAV:   2    -0.951922606145E+02   -0.26735E-02   -0.26881E-02  2368   0.184E-01    0.155E-02
DAV:   3    -0.951923027922E+02   -0.42178E-04   -0.46242E-04  2816   0.398E-02    0.104E-02
DAV:   4    -0.951923033861E+02   -0.59395E-06   -0.20998E-05  1744   0.291E-02    0.644E-03
DAV:   5    -0.951923034129E+02   -0.26786E-07   -0.48554E-06  1976   0.875E-03
  39 F= -.95192303E+02 E0= -.95192303E+02  d E =-.238009E-11
       N       E                     dE             d eps       ncg     rms          rms(c)
DAV:   1    -0.951875995174E+02    0.47039E-02   -0.30569E+00  2296   0.168E+00    0.952E-02
DAV:   2    -0.951921798953E+02   -0.45804E-02   -0.46285E-02  2368   0.263E-01    0.236E-02
DAV:   3    -0.951923173015E+02   -0.13741E-03   -0.14448E-03  2744   0.639E-02    0.197E-02
DAV:   4    -0.951923219831E+02   -0.46816E-05   -0.74489E-05  2736   0.335E-02    0.132E-02
DAV:   5    -0.951923219724E+02    0.10717E-07   -0.67505E-06  2088   0.220E-02
  40 F= -.95192322E+02 E0= -.95192322E+02  d E =-.387383E-11
       N       E                     dE             d eps       ncg     rms          rms(c)
DAV:   1    -0.951890067989E+02    0.33152E-02   -0.17474E+00  2328   0.119E+00    0.630E-02
DAV:   2    -0.951916237451E+02   -0.26169E-02   -0.26391E-02  2360   0.179E-01    0.153E-02
DAV:   3    -0.951917023348E+02   -0.78590E-04   -0.81247E-04  2784   0.625E-02    0.149E-02
DAV:   4    -0.951917052049E+02   -0.28700E-05   -0.40651E-05  2296   0.120E-02    0.105E-02
DAV:   5    -0.951917050019E+02    0.20297E-06   -0.26764E-06  1496   0.121E-02
  41 F= -.95191705E+02 E0= -.95191705E+02  d E =-.512644E-11
       N       E                     dE             d eps       ncg     rms          rms(c)
DAV:   1    -0.951803696789E+02    0.11336E-01   -0.70373E+00  2312   0.258E+00    0.135E-01
DAV:   2    -0.951912557871E+02   -0.10886E-01   -0.10963E-01  2456   0.442E-01    0.350E-02
DAV:   3    -0.951915918640E+02   -0.33608E-03   -0.34471E-03  2688   0.949E-02    0.295E-02
DAV:   4    -0.951916029167E+02   -0.11053E-04   -0.17562E-04  2864   0.484E-02    0.191E-02
DAV:   5    -0.951916030577E+02   -0.14093E-06   -0.14308E-05  2400   0.248E-02    0.104E-02
DAV:   6    -0.951916039268E+02   -0.86915E-06   -0.54594E-06  2408   0.187E-02
  42 F= -.95191604E+02 E0= -.95191604E+02  d E =-.330994E-11
       N       E                     dE             d eps       ncg     rms          rms(c)
DAV:   1    -0.951881162651E+02    0.34868E-02   -0.26336E+00  2240   0.138E+00    0.274E-02
DAV:   2    -0.951921598655E+02   -0.40436E-02   -0.40425E-02  2320   0.216E-01    0.116E-02
DAV:   3    -0.951922839663E+02   -0.12410E-03   -0.12642E-03  2752   0.546E-02    0.637E-03
DAV:   4    -0.951922891960E+02   -0.52297E-05   -0.60107E-05  1936   0.249E-02    0.350E-03
DAV:   5    -0.951922896568E+02   -0.46080E-06   -0.49387E-06  1672   0.868E-03
  43 F= -.95192290E+02 E0= -.95192290E+02  d E =-.320282E-11
       N       E                     dE             d eps       ncg     rms          rms(c)
DAV:   1    -0.951882176838E+02    0.40715E-02   -0.26206E+00  2360   0.148E+00    0.897E-02
DAV:   2    -0.951921618430E+02   -0.39442E-02   -0.39667E-02  2320   0.260E-01    0.217E-02
DAV:   3    -0.951922832015E+02   -0.12136E-03   -0.12559E-03  2672   0.668E-02    0.168E-02
DAV:   4    -0.951922883830E+02   -0.51815E-05   -0.65124E-05  2688   0.280E-02    0.109E-02
DAV:   5    -0.951922891077E+02   -0.72472E-06   -0.52204E-06  1840   0.181E-02
  44 F= -.95192289E+02 E0= -.95192289E+02  d E =-.304330E-11
       N       E                     dE             d eps       ncg     rms          rms(c)
DAV:   1    -0.951874346223E+02    0.48538E-02   -0.26336E+00  2256   0.137E+00    0.688E-02
DAV:   2    -0.951914735714E+02   -0.40389E-02   -0.40620E-02  2328   0.222E-01    0.165E-02
DAV:   3    -0.951915994599E+02   -0.12589E-03   -0.12674E-03  2672   0.606E-02    0.169E-02
DAV:   4    -0.951916039810E+02   -0.45211E-05   -0.61985E-05  2352   0.209E-02    0.124E-02
DAV:   5    -0.951916039425E+02    0.38555E-07   -0.44419E-06  1448   0.139E-02
  45 F= -.95191604E+02 E0= -.95191604E+02  d E =-.314079E-11
       N       E                     dE             d eps       ncg     rms          rms(c)
DAV:   1    -0.951801373483E+02    0.11467E-01   -0.69826E+00  2512   0.338E+00    0.143E-01
DAV:   2    -0.951912654490E+02   -0.11128E-01   -0.11349E-01  2376   0.588E-01    0.485E-02
DAV:   3    -0.951914734265E+02   -0.20798E-03   -0.27334E-03  2840   0.146E-01    0.314E-02
DAV:   4    -0.951914733746E+02    0.51848E-07   -0.14085E-04  2792   0.563E-02    0.189E-02
DAV:   5    -0.951914712741E+02    0.21006E-05   -0.24059E-05  2640   0.459E-02    0.802E-03
DAV:   6    -0.951914722064E+02   -0.93234E-06   -0.94334E-06  2400   0.208E-02
  46 F= -.95191472E+02 E0= -.95191472E+02  d E =-.278749E-11
       N       E                     dE             d eps       ncg     rms          rms(c)
DAV:   1    -0.951895630215E+02    0.19083E-02   -0.17476E+00  2328   0.127E+00    0.394E-02
DAV:   2    -0.951921269790E+02   -0.25640E-02   -0.25781E-02  2320   0.203E-01    0.156E-02
DAV:   3    -0.951921994329E+02   -0.72454E-04   -0.76857E-04  2760   0.452E-02    0.103E-02
DAV:   4    -0.951922018531E+02   -0.24202E-05   -0.38078E-05  1696   0.277E-02    0.660E-03
DAV:   5    -0.951922019426E+02   -0.89516E-07   -0.53691E-06  1904   0.113E-02
  47 F= -.95192202E+02 E0= -.95192202E+02  d E =-.298111E-11
       N       E                     dE             d eps       ncg     rms          rms(c)
DAV:   1    -0.951877381397E+02    0.44637E-02   -0.30554E+00  2304   0.180E+00    0.955E-02
DAV:   2    -0.951922962753E+02   -0.45581E-02   -0.46187E-02  2344   0.283E-01    0.273E-02
DAV:   3    -0.951924237810E+02   -0.12751E-03   -0.14180E-03  2744   0.724E-02    0.202E-02
DAV:   4    -0.951924280270E+02   -0.42460E-05   -0.78409E-05  2656   0.361E-02    0.132E-02
DAV:   5    -0.951924280417E+02   -0.14657E-07   -0.80913E-06  2232   0.225E-02
  48 F= -.95192428E+02 E0= -.95192428E+02  d E =-.337467E-11
       N       E                     dE             d eps       ncg     rms          rms(c)
DAV:   1    -0.951892433050E+02    0.31847E-02   -0.17478E+00  2280   0.131E+00    0.650E-02
DAV:   2    -0.951918637089E+02   -0.26204E-02   -0.26516E-02  2328   0.189E-01    0.177E-02
DAV:   3    -0.951919395940E+02   -0.75885E-04   -0.81827E-04  2768   0.633E-02    0.159E-02
DAV:   4    -0.951919419932E+02   -0.23991E-05   -0.43253E-05  2304   0.138E-02    0.109E-02
DAV:   5    -0.951919414672E+02    0.52600E-06   -0.29870E-06  1480   0.134E-02
  49 F= -.95191941E+02 E0= -.95191941E+02  d E =-.351853E-11
       N       E                     dE             d eps       ncg     rms          rms(c)
DAV:   1    -0.951800486251E+02    0.11893E-01   -0.70287E+00  2280   0.285E+00    0.143E-01
DAV:   2    -0.951917573131E+02   -0.11709E-01   -0.11935E-01  2464   0.495E-01    0.516E-02
DAV:   3    -0.951918598317E+02   -0.10252E-03   -0.16872E-03  2792   0.958E-02    0.313E-02
DAV:   4    -0.951918542434E+02    0.55883E-05   -0.95511E-05  2808   0.525E-02    0.185E-02
DAV:   5    -0.951918524871E+02    0.17563E-05   -0.15481E-05  2512   0.364E-02    0.836E-03
DAV:   6    -0.951918532321E+02   -0.74498E-06   -0.72699E-06  2264   0.201E-02
  50 F= -.95191853E+02 E0= -.95191853E+02  d E =-.313249E-11
       N       E                     dE             d eps       ncg     rms          rms(c)
DAV:   1    -0.951881380108E+02    0.37145E-02   -0.26310E+00  2248   0.147E+00    0.293E-02
DAV:   2    -0.951922246395E+02   -0.40866E-02   -0.40968E-02  2328   0.233E-01    0.144E-02
DAV:   3    -0.951923504746E+02   -0.12584E-03   -0.13103E-03  2808   0.506E-02    0.814E-03
DAV:   4    -0.951923542969E+02   -0.38223E-05   -0.61896E-05  1744   0.259E-02    0.368E-03
DAV:   5    -0.951923548270E+02   -0.53003E-06   -0.63414E-06  1824   0.132E-02
  51 F= -.95192355E+02 E0= -.95192355E+02  d E =-.309615E-11
       N       E                     dE             d eps       ncg     rms          rms(c)
DAV:   1    -0.951882584217E+02    0.40959E-02   -0.26185E+00  2352   0.146E+00    0.865E-02
DAV:   2    -0.951922278092E+02   -0.39694E-02   -0.39912E-02  2296   0.264E-01    0.216E-02
DAV:   3    -0.951923485398E+02   -0.12073E-03   -0.12505E-03  2672   0.651E-02    0.169E-02
DAV:   4    -0.951923535122E+02   -0.49725E-05   -0.65960E-05  2488   0.238E-02    0.111E-02
DAV:   5    -0.951923542054E+02   -0.69320E-06   -0.56721E-06  1616   0.205E-02
  52 F= -.95192354E+02 E0= -.95192354E+02  d E =-.312222E-11
       N       E                     dE             d eps       ncg     rms          rms(c)
DAV:   1    -0.951876547528E+02    0.46988E-02   -0.26314E+00  2248   0.143E+00    0.684E-02
DAV:   2    -0.951917223915E+02   -0.40676E-02   -0.40986E-02  2304   0.233E-01    0.165E-02
DAV:   3    -0.951918493790E+02   -0.12699E-03   -0.12883E-03  2656   0.570E-02    0.167E-02
DAV:   4    -0.951918536750E+02   -0.42960E-05   -0.61202E-05  1904   0.171E-02    0.125E-02
DAV:   5    -0.951918533738E+02    0.30121E-06   -0.43079E-06  1424   0.142E-02
  53 F= -.95191853E+02 E0= -.95191853E+02  d E =-.319793E-11
       N       E                     dE             d eps       ncg     rms          rms(c)
DAV:   1    -0.951831327860E+02    0.87209E-02   -0.80225E+00  2224   0.637E+00    0.345E-01
DAV:   2    -0.951899180089E+02   -0.67852E-02   -0.69643E-02  2600   0.675E-01    0.125E-01
DAV:   3    -0.951901010336E+02   -0.18302E-03   -0.28896E-03  3072   0.398E-01    0.683E-02
DAV:   4    -0.951900963380E+02    0.46957E-05   -0.31308E-04  2848   0.203E-01    0.496E-02
DAV:   5    -0.951900924197E+02    0.39182E-05   -0.96899E-05  2544   0.566E-02    0.192E-02
DAV:   6    -0.951900922931E+02    0.12668E-06   -0.39330E-05  2528   0.396E-02    0.151E-02
DAV:   7    -0.951900926406E+02   -0.34751E-06   -0.12152E-05  2712   0.312E-02    0.113E-02
DAV:   8    -0.951900929033E+02   -0.26271E-06   -0.35726E-06  1696   0.846E-03
  54 F= -.95190093E+02 E0= -.95190093E+02  d E =-.528521E-11
       N       E                     dE             d eps       ncg     rms          rms(c)
DAV:   1    -0.951909822718E+02   -0.88963E-03   -0.22642E+00  2232   0.328E+00    0.127E-01
DAV:   2    -0.951918730881E+02   -0.89082E-03   -0.92477E-03  2464   0.289E-01    0.693E-02
DAV:   3    -0.951918849679E+02   -0.11880E-04   -0.36547E-04  2736   0.146E-01    0.395E-02
DAV:   4    -0.951918826401E+02    0.23278E-05   -0.62808E-05  2688   0.110E-01    0.187E-02
DAV:   5    -0.951918826321E+02    0.80618E-08   -0.24049E-05  2472   0.295E-02    0.747E-03
DAV:   6    -0.951918826464E+02   -0.14352E-07   -0.63801E-06  2040   0.163E-02
  55 F= -.95191883E+02 E0= -.95191883E+02  d E =-.406026E-11
       N       E                     dE             d eps       ncg     rms          rms(c)
DAV:   1    -0.951905986323E+02    0.12840E-02   -0.39641E+00  2232   0.463E+00    0.289E-01
DAV:   2    -0.951918059434E+02   -0.12073E-02   -0.13583E-02  2552   0.397E-01    0.116E-01
DAV:   3    -0.951918236895E+02   -0.17746E-04   -0.10033E-03  2856   0.263E-01    0.600E-02
DAV:   4    -0.951918106635E+02    0.13026E-04   -0.17972E-04  2864   0.190E-01    0.376E-02
DAV:   5    -0.951918088496E+02    0.18138E-05   -0.76916E-05  2632   0.428E-02    0.187E-02
DAV:   6    -0.951918067844E+02    0.20652E-05   -0.18112E-05  2328   0.365E-02    0.928E-03
DAV:   7    -0.951918072137E+02   -0.42929E-06   -0.78114E-06  2384   0.196E-02
  56 F= -.95191807E+02 E0= -.95191807E+02  d E =-.247157E-11
       N       E                     dE             d eps       ncg     rms          rms(c)
DAV:   1    -0.951889077016E+02    0.28991E-02   -0.22628E+00  2200   0.326E+00    0.185E-01
DAV:   2    -0.951897153954E+02   -0.80769E-03   -0.86125E-03  2464   0.261E-01    0.553E-02
DAV:   3    -0.951897274359E+02   -0.12041E-04   -0.32869E-04  2704   0.139E-01    0.392E-02
DAV:   4    -0.951897244096E+02    0.30264E-05   -0.57755E-05  2712   0.898E-02    0.265E-02
DAV:   5    -0.951897220513E+02    0.23583E-05   -0.22793E-05  2408   0.347E-02    0.102E-02
DAV:   6    -0.951897215876E+02    0.46374E-06   -0.95268E-06  2288   0.269E-02
  57 F= -.95189722E+02 E0= -.95189722E+02  d E =-.206981E-11
       N       E                     dE             d eps       ncg     rms          rms(c)
DAV:   1    -0.951868536940E+02    0.28684E-02   -0.91105E+00  2216   0.710E+00    0.462E-01
DAV:   2    -0.951900103847E+02   -0.31567E-02   -0.35835E-02  2512   0.618E-01    0.167E-01
DAV:   3    -0.951900093742E+02    0.10105E-05   -0.21775E-03  2944   0.466E-01    0.909E-02
DAV:   4    -0.951899804271E+02    0.28947E-04   -0.42569E-04  2872   0.250E-01    0.554E-02
DAV:   5    -0.951899672680E+02    0.13159E-04   -0.17995E-04  2528   0.791E-02    0.213E-02
DAV:   6    -0.951899682407E+02   -0.97272E-06   -0.75557E-05  2552   0.558E-02    0.173E-02
DAV:   7    -0.951899687391E+02   -0.49834E-06   -0.17991E-05  2712   0.386E-02    0.124E-02
DAV:   8    -0.951899689099E+02   -0.17080E-06   -0.26612E-06  1712   0.139E-02
  58 F= -.95189969E+02 E0= -.95189969E+02  d E =-.828767E-11
       N       E                     dE             d eps       ncg     rms          rms(c)
DAV:   1    -0.951909123690E+02   -0.94363E-03   -0.22637E+00  2224   0.326E+00    0.132E-01
DAV:   2    -0.951919505020E+02   -0.10381E-02   -0.10857E-02  2456   0.348E-01    0.796E-02
DAV:   3    -0.951919694169E+02   -0.18915E-04   -0.54386E-04  2792   0.186E-01    0.466E-02
DAV:   4    -0.951919647676E+02    0.46492E-05   -0.79273E-05  2600   0.130E-01    0.224E-02
DAV:   5    -0.951919657267E+02   -0.95910E-06   -0.42539E-05  2552   0.280E-02    0.747E-03
DAV:   6    -0.951919662650E+02   -0.53828E-06   -0.11452E-05  2224   0.261E-02    0.774E-03
DAV:   7    -0.951919660754E+02    0.18958E-06   -0.90857E-07  1288   0.118E-02
  59 F= -.95191966E+02 E0= -.95191966E+02  d E =-.514922E-11
       N       E                     dE             d eps       ncg     rms          rms(c)
DAV:   1    -0.951903081538E+02    0.16581E-02   -0.39650E+00  2200   0.462E+00    0.316E-01
DAV:   2    -0.951915715012E+02   -0.12633E-02   -0.14658E-02  2520   0.466E-01    0.137E-01
DAV:   3    -0.951916023387E+02   -0.30838E-04   -0.15241E-03  2864   0.354E-01    0.640E-02
DAV:   4    -0.951915805781E+02    0.21761E-04   -0.25947E-04  2752   0.245E-01    0.368E-02
DAV:   5    -0.951915811180E+02   -0.53998E-06   -0.12854E-04  2376   0.483E-02    0.152E-02
DAV:   6    -0.951915808229E+02    0.29513E-06   -0.27353E-05  2584   0.332E-02    0.846E-03
DAV:   7    -0.951915812741E+02   -0.45120E-06   -0.10711E-05  2304   0.305E-02    0.638E-03
DAV:   8    -0.951915812669E+02    0.71777E-08   -0.15813E-06  1488   0.131E-02
  60 F= -.95191581E+02 E0= -.95191581E+02  d E =-.196937E-11
       N       E                     dE             d eps       ncg     rms          rms(c)
DAV:   1    -0.951882210808E+02    0.33602E-02   -0.22632E+00  2208   0.327E+00    0.216E-01
DAV:   2    -0.951891351501E+02   -0.91407E-03   -0.98503E-03  2528   0.300E-01    0.672E-02
DAV:   3    -0.951891485896E+02   -0.13439E-04   -0.47451E-04  2856   0.217E-01    0.421E-02
DAV:   4    -0.951891444200E+02    0.41697E-05   -0.85912E-05  2536   0.113E-01    0.291E-02
DAV:   5    -0.951891418995E+02    0.25205E-05   -0.39484E-05  2656   0.420E-02    0.979E-03
DAV:   6    -0.951891431184E+02   -0.12189E-05   -0.20193E-05  2376   0.231E-02    0.110E-02
DAV:   7    -0.951891431543E+02   -0.35921E-07   -0.27516E-06  1656   0.120E-02
  61 F= -.95189143E+02 E0= -.95189143E+02  d E =-.128115E-11
       N       E                     dE             d eps       ncg     rms          rms(c)
DAV:   1    -0.951875129057E+02    0.16302E-02   -0.91118E+00  2200   0.710E+00    0.462E-01
DAV:   2    -0.951908243041E+02   -0.33114E-02   -0.36369E-02  2520   0.656E-01    0.180E-01
DAV:   3    -0.951908689134E+02   -0.44609E-04   -0.24383E-03  2824   0.421E-01    0.999E-02
DAV:   4    -0.951908410149E+02    0.27899E-04   -0.45939E-04  2752   0.292E-01    0.563E-02
DAV:   5    -0.951908363827E+02    0.46323E-05   -0.18298E-04  2496   0.730E-02    0.231E-02
DAV:   6    -0.951908399428E+02   -0.35601E-05   -0.89132E-05  2464   0.514E-02    0.163E-02
DAV:   7    -0.951908396514E+02    0.29135E-06   -0.11688E-05  2592   0.363E-02    0.119E-02
DAV:   8    -0.951908397233E+02   -0.71839E-07   -0.31869E-06  1720   0.115E-02
  62 F= -.95190840E+02 E0= -.95190840E+02  d E =-.548968E-11
       N       E                     dE             d eps       ncg     rms          rms(c)
DAV:   1    -0.951913449005E+02   -0.50525E-03   -0.22648E+00  2208   0.327E+00    0.126E-01
DAV:   2    -0.951922148953E+02   -0.86999E-03   -0.89746E-03  2416   0.272E-01    0.683E-02
DAV:   3    -0.951922261273E+02   -0.11232E-04   -0.31197E-04  2624   0.143E-01    0.378E-02
DAV:   4    -0.951922260458E+02    0.81429E-07   -0.62951E-05  2560   0.103E-01    0.173E-02
DAV:   5    -0.951922269453E+02   -0.89949E-06   -0.22661E-05  2304   0.299E-02    0.722E-03
DAV:   6    -0.951922272496E+02   -0.30428E-06   -0.58689E-06  1880   0.155E-02
  63 F= -.95192227E+02 E0= -.95192227E+02  d E =-.419882E-11
       N       E                     dE             d eps       ncg     rms          rms(c)
DAV:   1    -0.951905183917E+02    0.17086E-02   -0.39658E+00  2208   0.462E+00    0.284E-01
DAV:   2    -0.951917447583E+02   -0.12264E-02   -0.13511E-02  2488   0.383E-01    0.119E-01
DAV:   3    -0.951917687214E+02   -0.23963E-04   -0.91792E-04  2824   0.292E-01    0.567E-02
DAV:   4    -0.951917599517E+02    0.87696E-05   -0.16888E-04  2744   0.177E-01    0.351E-02
DAV:   5    -0.951917625001E+02   -0.25483E-05   -0.85380E-05  2416   0.381E-02    0.148E-02
DAV:   6    -0.951917626781E+02   -0.17805E-06   -0.10694E-05  2360   0.246E-02    0.691E-03
DAV:   7    -0.951917630307E+02   -0.35257E-06   -0.46215E-06  1936   0.162E-02
  64 F= -.95191763E+02 E0= -.95191763E+02  d E =-.234353E-11
       N       E                     dE             d eps       ncg     rms          rms(c)
DAV:   1    -0.951891175866E+02    0.26451E-02   -0.22637E+00  2216   0.325E+00    0.175E-01
DAV:   2    -0.951899274489E+02   -0.80986E-03   -0.85404E-03  2408   0.267E-01    0.602E-02
DAV:   3    -0.951899427480E+02   -0.15299E-04   -0.35541E-04  2624   0.174E-01    0.361E-02
DAV:   4    -0.951899406959E+02    0.20522E-05   -0.61424E-05  2600   0.952E-02    0.248E-02
DAV:   5    -0.951899406567E+02    0.39188E-07   -0.29633E-05  2304   0.268E-02    0.824E-03
DAV:   6    -0.951899411566E+02   -0.49996E-06   -0.76076E-06  2096   0.161E-02
  65 F= -.95189941E+02 E0= -.95189941E+02  d E =-.178308E-11
       N       E                     dE             d eps       ncg     rms          rms(c)
DAV:   1    -0.951866211293E+02    0.33195E-02   -0.90699E+00  2200   0.715E+00    0.463E-01
DAV:   2    -0.951899715057E+02   -0.33504E-02   -0.36308E-02  2504   0.677E-01    0.163E-01
DAV:   3    -0.951900490044E+02   -0.77499E-04   -0.26422E-03  2816   0.436E-01    0.978E-02
DAV:   4    -0.951900196037E+02    0.29401E-04   -0.40303E-04  2896   0.286E-01    0.623E-02
DAV:   5    -0.951900117650E+02    0.78387E-05   -0.17138E-04  2800   0.712E-02    0.227E-02
DAV:   6    -0.951900164162E+02   -0.46512E-05   -0.10092E-04  2568   0.451E-02    0.190E-02
DAV:   7    -0.951900163769E+02    0.39327E-07   -0.12942E-05  2800   0.318E-02    0.150E-02
DAV:   8    -0.951900163586E+02    0.18274E-07   -0.27175E-06  1632   0.824E-03
  66 F= -.95190016E+02 E0= -.95190016E+02  d E =-.947639E-20
       N       E                     dE             d eps       ncg     rms          rms(c)
DAV:   1    -0.951908820904E+02   -0.86571E-03   -0.22636E+00  2232   0.328E+00    0.129E-01
DAV:   2    -0.951919123308E+02   -0.10302E-02   -0.10764E-02  2456   0.358E-01    0.758E-02
DAV:   3    -0.951919345533E+02   -0.22222E-04   -0.57808E-04  2696   0.191E-01    0.453E-02
DAV:   4    -0.951919304217E+02    0.41316E-05   -0.77804E-05  2568   0.128E-01    0.216E-02
DAV:   5    -0.951919320676E+02   -0.16459E-05   -0.46155E-05  2608   0.256E-02    0.860E-03
DAV:   6    -0.951919321660E+02   -0.98447E-07   -0.85821E-06  2096   0.241E-02
  67 F= -.95191932E+02 E0= -.95191932E+02  d E =-.901992E-11
       N       E                     dE             d eps       ncg     rms          rms(c)
DAV:   1    -0.951905912149E+02    0.13409E-02   -0.39645E+00  2224   0.463E+00    0.295E-01
DAV:   2    -0.951918475418E+02   -0.12563E-02   -0.14383E-02  2496   0.428E-01    0.124E-01
DAV:   3    -0.951918642799E+02   -0.16738E-04   -0.11342E-03  2840   0.239E-01    0.593E-02
DAV:   4    -0.951918517148E+02    0.12565E-04   -0.24362E-04  2832   0.222E-01    0.389E-02
DAV:   5    -0.951918518669E+02   -0.15202E-06   -0.92613E-05  2528   0.506E-02    0.204E-02
DAV:   6    -0.951918506053E+02    0.12616E-05   -0.30125E-05  2304   0.394E-02    0.912E-03
DAV:   7    -0.951918504239E+02    0.18139E-06   -0.72863E-06  2360   0.339E-02
  68 F= -.95191850E+02 E0= -.95191850E+02  d E =-.116321E-11
       N       E                     dE             d eps       ncg     rms          rms(c)
DAV:   1    -0.951890914568E+02    0.27591E-02   -0.22623E+00  2176   0.327E+00    0.194E-01
DAV:   2    -0.951899854035E+02   -0.89395E-03   -0.95952E-03  2448   0.275E-01    0.616E-02
DAV:   3    -0.951899897241E+02   -0.43206E-05   -0.31375E-04  2960   0.183E-01    0.375E-02
DAV:   4    -0.951899889751E+02    0.74902E-06   -0.85133E-05  2560   0.785E-02    0.267E-02
DAV:   5    -0.951899864927E+02    0.24824E-05   -0.25322E-05  2544   0.544E-02    0.886E-03
DAV:   6    -0.951899871291E+02   -0.63641E-06   -0.17262E-05  2336   0.179E-02    0.944E-03
DAV:   7    -0.951899873040E+02   -0.17487E-06   -0.37808E-06  1928   0.118E-02
  69 F= -.95189987E+02 E0= -.95189987E+02  d E =-.526632E-12
       N       E                     dE             d eps       ncg     rms          rms(c)
DAV:   1    -0.951861528063E+02    0.38343E-02   -0.91105E+00  2232   0.706E+00    0.387E-01
DAV:   2    -0.951891890389E+02   -0.30362E-02   -0.33974E-02  2552   0.745E-01    0.178E-01
DAV:   3    -0.951893321120E+02   -0.14307E-03   -0.37781E-03  2984   0.588E-01    0.965E-02
DAV:   4    -0.951892952296E+02    0.36882E-04   -0.47723E-04  2904   0.314E-01    0.558E-02
DAV:   5    -0.951892965911E+02   -0.13615E-05   -0.23890E-04  2888   0.632E-02    0.244E-02
DAV:   6    -0.951892954669E+02    0.11242E-05   -0.53901E-05  2656   0.550E-02    0.144E-02
DAV:   7    -0.951892951839E+02    0.28293E-06   -0.10629E-05  2640   0.411E-02    0.974E-03
DAV:   8    -0.951892954948E+02   -0.31091E-06   -0.42153E-06  2024   0.121E-02
  70 F= -.95189295E+02 E0= -.95189295E+02  d E =-.164392E-11
       N       E                     dE             d eps       ncg     rms          rms(c)
DAV:   1    -0.951905623719E+02   -0.12672E-02   -0.22651E+00  2200   0.327E+00    0.134E-01
DAV:   2    -0.951914900726E+02   -0.92770E-03   -0.96382E-03  2424   0.289E-01    0.740E-02
DAV:   3    -0.951914998051E+02   -0.97324E-05   -0.35896E-04  2792   0.149E-01    0.439E-02
DAV:   4    -0.951914963105E+02    0.34946E-05   -0.62261E-05  2560   0.117E-01    0.226E-02
DAV:   5    -0.951914958914E+02    0.41912E-06   -0.28784E-05  2432   0.330E-02    0.673E-03
DAV:   6    -0.951914959966E+02   -0.10517E-06   -0.58612E-06  2248   0.143E-02
  71 F= -.95191496E+02 E0= -.95191496E+02  d E =-.217829E-11
       N       E                     dE             d eps       ncg     rms          rms(c)
DAV:   1    -0.951910387568E+02    0.45713E-03   -0.39663E+00  2192   0.462E+00    0.304E-01
DAV:   2    -0.951923048635E+02   -0.12661E-02   -0.14145E-02  2560   0.374E-01    0.117E-01
DAV:   3    -0.951922963345E+02    0.85290E-05   -0.71501E-04  2872   0.194E-01    0.584E-02
DAV:   4    -0.951922852164E+02    0.11118E-04   -0.16389E-04  2856   0.159E-01    0.364E-02
DAV:   5    -0.951922791270E+02    0.60894E-05   -0.49988E-05  2760   0.725E-02    0.162E-02
DAV:   6    -0.951922783477E+02    0.77927E-06   -0.28504E-05  2336   0.363E-02    0.913E-03
DAV:   7    -0.951922792563E+02   -0.90851E-06   -0.10682E-05  2488   0.183E-02    0.660E-03
DAV:   8    -0.951922793824E+02   -0.12615E-06   -0.89832E-07  1280   0.977E-03
  72 F= -.95192279E+02 E0= -.95192279E+02  d E =-.454516E-11
       N       E                     dE             d eps       ncg     rms          rms(c)
DAV:   1    -0.951898410756E+02    0.24382E-02   -0.22637E+00  2216   0.326E+00    0.195E-01
DAV:   2    -0.951906877664E+02   -0.84669E-03   -0.90055E-03  2440   0.257E-01    0.540E-02
DAV:   3    -0.951906917802E+02   -0.40138E-05   -0.27092E-04  2736   0.142E-01    0.408E-02
DAV:   4    -0.951906893317E+02    0.24485E-05   -0.63467E-05  2696   0.784E-02    0.266E-02
DAV:   5    -0.951906860316E+02    0.33002E-05   -0.22519E-05  2536   0.498E-02    0.961E-03
DAV:   6    -0.951906860116E+02    0.19954E-07   -0.11440E-05  2344   0.200E-02    0.108E-02
DAV:   7    -0.951906861888E+02   -0.17718E-06   -0.37429E-06  1904   0.123E-02
  73 F= -.95190686E+02 E0= -.95190686E+02  d E =-.720206E-11
       N       E                     dE             d eps       ncg     rms          rms(c)
DAV:   1    -0.951870349426E+02    0.36511E-02   -0.91159E+00  2192   0.709E+00    0.425E-01
DAV:   2    -0.951902702861E+02   -0.32353E-02   -0.34546E-02  2568   0.649E-01    0.180E-01
DAV:   3    -0.951903324311E+02   -0.62145E-04   -0.25268E-03  3096   0.548E-01    0.894E-02
DAV:   4    -0.951903072918E+02    0.25139E-04   -0.41041E-04  2936   0.280E-01    0.557E-02
DAV:   5    -0.951903101320E+02   -0.28402E-05   -0.20708E-04  2592   0.575E-02    0.199E-02
DAV:   6    -0.951903098214E+02    0.31062E-06   -0.22915E-05  2680   0.315E-02    0.119E-02
DAV:   7    -0.951903101530E+02   -0.33159E-06   -0.86551E-06  2568   0.289E-02
  74 F= -.95190310E+02 E0= -.95190310E+02  d E =-.163277E-11
       N       E                     dE             d eps       ncg     rms          rms(c)
DAV:   1    -0.951911843546E+02   -0.87453E-03   -0.22643E+00  2208   0.327E+00    0.128E-01
DAV:   2    -0.951920806185E+02   -0.89626E-03   -0.92501E-03  2480   0.289E-01    0.701E-02
DAV:   3    -0.951920951544E+02   -0.14536E-04   -0.36419E-04  2744   0.151E-01    0.420E-02
DAV:   4    -0.951920939802E+02    0.11742E-05   -0.66115E-05  2568   0.114E-01    0.188E-02
DAV:   5    -0.951920949795E+02   -0.99932E-06   -0.26483E-05  2320   0.294E-02    0.682E-03
DAV:   6    -0.951920953424E+02   -0.36287E-06   -0.64478E-06  1848   0.129E-02
  75 F= -.95192095E+02 E0= -.95192095E+02  d E =-.222830E-11
       N       E                     dE             d eps       ncg     rms          rms(c)
DAV:   1    -0.951903996357E+02    0.16953E-02   -0.39648E+00  2224   0.464E+00    0.290E-01
DAV:   2    -0.951916472168E+02   -0.12476E-02   -0.13738E-02  2472   0.406E-01    0.119E-01
DAV:   3    -0.951916842320E+02   -0.37015E-04   -0.10772E-03  2864   0.287E-01    0.627E-02
DAV:   4    -0.951916730155E+02    0.11217E-04   -0.17963E-04  2880   0.198E-01    0.339E-02
DAV:   5    -0.951916759927E+02   -0.29772E-05   -0.90131E-05  2512   0.390E-02    0.151E-02
DAV:   6    -0.951916765239E+02   -0.53116E-06   -0.13340E-05  2464   0.205E-02    0.716E-03
DAV:   7    -0.951916766284E+02   -0.10452E-06   -0.30179E-06  1944   0.205E-02
  76 F= -.95191677E+02 E0= -.95191677E+02  d E =-.457287E-11
       N       E                     dE             d eps       ncg     rms          rms(c)
DAV:   1    -0.951888696900E+02    0.28068E-02   -0.22632E+00  2192   0.327E+00    0.179E-01
DAV:   2    -0.951896912491E+02   -0.82156E-03   -0.86700E-03  2448   0.272E-01    0.569E-02
DAV:   3    -0.951897085387E+02   -0.17290E-04   -0.36506E-04  2728   0.162E-01    0.383E-02
DAV:   4    -0.951897061793E+02    0.23593E-05   -0.61274E-05  2600   0.986E-02    0.247E-02
DAV:   5    -0.951897061149E+02    0.64472E-07   -0.30283E-05  2416   0.259E-02    0.876E-03
DAV:   6    -0.951897066378E+02   -0.52293E-06   -0.82405E-06  2232   0.155E-02
  77 F= -.95189707E+02 E0= -.95189707E+02  d E =-.727396E-11
       N       E                     dE             d eps       ncg     rms          rms(c)
DAV:   1    -0.951831969096E+02    0.65092E-02   -0.55023E+00  2192   0.556E+00    0.582E-01
DAV:   2    -0.951898691361E+02   -0.66722E-02   -0.72987E-02  2568   0.870E-01    0.209E-01
DAV:   3    -0.951898385065E+02    0.30630E-04   -0.35971E-03  2664   0.386E-01    0.155E-01
DAV:   4    -0.951897352246E+02    0.10328E-03   -0.56884E-04  2800   0.333E-01    0.925E-02
DAV:   5    -0.951897156810E+02    0.19544E-04   -0.35618E-04  2696   0.104E-01    0.284E-02
DAV:   6    -0.951897212785E+02   -0.55975E-05   -0.94704E-05  2632   0.482E-02    0.274E-02
DAV:   7    -0.951897200963E+02    0.11821E-05   -0.16070E-05  2672   0.405E-02    0.196E-02
DAV:   8    -0.951897186766E+02    0.14197E-05   -0.57003E-06  2456   0.295E-02    0.929E-03
DAV:   9    -0.951897191250E+02   -0.44837E-06   -0.59398E-06  1936   0.997E-03
  78 F= -.95189719E+02 E0= -.95189719E+02  d E =-.745330E-12
       N       E                     dE             d eps       ncg     rms          rms(c)
DAV:   1    -0.951896180659E+02    0.10061E-03   -0.44863E-01  2192   0.103E+00    0.181E-01
DAV:   2    -0.951916306456E+02   -0.20126E-02   -0.21350E-02  2584   0.395E-01    0.654E-02
DAV:   3    -0.951916847145E+02   -0.54069E-04   -0.92263E-04  2736   0.118E-01    0.523E-02
DAV:   4    -0.951916719821E+02    0.12732E-04   -0.64940E-05  2712   0.100E-01    0.282E-02
DAV:   5    -0.951916712109E+02    0.77121E-06   -0.37401E-05  2472   0.270E-02    0.793E-03
DAV:   6    -0.951916708918E+02    0.31913E-06   -0.76076E-06  2216   0.213E-02
  79 F= -.95191671E+02 E0= -.95191671E+02  d E =-.151286E-11
       N       E                     dE             d eps       ncg     rms          rms(c)
DAV:   1    -0.951888884352E+02    0.27828E-02   -0.82088E-01  2184   0.146E+00    0.429E-01
DAV:   2    -0.951922403300E+02   -0.33519E-02   -0.37595E-02  2632   0.617E-01    0.147E-01
DAV:   3    -0.951921977921E+02    0.42538E-04   -0.15026E-03  2712   0.173E-01    0.115E-01
DAV:   4    -0.951921078929E+02    0.89899E-04   -0.27804E-04  2720   0.197E-01    0.552E-02
DAV:   5    -0.951921151065E+02   -0.72136E-05   -0.17673E-04  2648   0.755E-02    0.188E-02
DAV:   6    -0.951921140392E+02    0.10673E-05   -0.24644E-05  2272   0.229E-02    0.183E-02
DAV:   7    -0.951921133738E+02    0.66536E-06   -0.64884E-06  2200   0.352E-02
  80 F= -.95192113E+02 E0= -.95192113E+02  d E =-.632079E-11
       N       E                     dE             d eps       ncg     rms          rms(c)
DAV:   1    -0.951883012107E+02    0.38128E-02   -0.45894E-01  2176   0.102E+00    0.274E-01
DAV:   2    -0.951904210954E+02   -0.21199E-02   -0.22610E-02  2560   0.387E-01    0.101E-01
DAV:   3    -0.951904378849E+02   -0.16790E-04   -0.81859E-04  2584   0.113E-01    0.802E-02
DAV:   4    -0.951904018937E+02    0.35991E-04   -0.10347E-04  2600   0.108E-01    0.429E-02
DAV:   5    -0.951904032153E+02   -0.13216E-05   -0.74318E-05  2592   0.498E-02    0.112E-02
DAV:   6    -0.951904028937E+02    0.32161E-06   -0.14008E-05  2192   0.174E-02    0.947E-03
DAV:   7    -0.951904029629E+02   -0.69234E-07   -0.24831E-06  1720   0.163E-02
  81 F= -.95190403E+02 E0= -.95190403E+02  d E =-.185412E-10
       N       E                     dE             d eps       ncg     rms          rms(c)
DAV:   1    -0.951820004027E+02    0.84025E-02   -0.18718E+00  2184   0.218E+00    0.524E-01
DAV:   2    -0.951897015955E+02   -0.77012E-02   -0.84993E-02  2504   0.762E-01    0.237E-01
DAV:   3    -0.951896992334E+02    0.23620E-05   -0.31494E-03  2608   0.216E-01    0.190E-01
DAV:   4    -0.951894978026E+02    0.20143E-03   -0.54580E-04  2696   0.227E-01    0.968E-02
DAV:   5    -0.951895043614E+02   -0.65588E-05   -0.34594E-04  2656   0.114E-01    0.312E-02
DAV:   6    -0.951895008683E+02    0.34931E-05   -0.48123E-05  2448   0.317E-02    0.240E-02
DAV:   7    -0.951894983299E+02    0.25384E-05   -0.10680E-05  2488   0.231E-02    0.145E-02
DAV:   8    -0.951894961268E+02    0.22031E-05   -0.90577E-06  2600   0.379E-02    0.487E-03
DAV:   9    -0.951894963274E+02   -0.20063E-06   -0.28832E-06  1744   0.136E-02
  82 F= -.95189496E+02 E0= -.95189496E+02  d E =-.128784E-11
       N       E                     dE             d eps       ncg     rms          rms(c)
DAV:   1    -0.951896183029E+02   -0.12218E-03   -0.44141E-01  2200   0.105E+00    0.177E-01
DAV:   2    -0.951916474435E+02   -0.20291E-02   -0.21713E-02  2544   0.429E-01    0.622E-02
DAV:   3    -0.951916992673E+02   -0.51824E-04   -0.96899E-04  2776   0.128E-01    0.506E-02
DAV:   4    -0.951916881792E+02    0.11088E-04   -0.70531E-05  2752   0.101E-01    0.269E-02
DAV:   5    -0.951916868213E+02    0.13580E-05   -0.35094E-05  2456   0.278E-02    0.756E-03
DAV:   6    -0.951916868733E+02   -0.52081E-07   -0.65892E-06  2296   0.161E-02
  83 F= -.95191687E+02 E0= -.95191687E+02  d E =-.194572E-11
       N       E                     dE             d eps       ncg     rms          rms(c)
DAV:   1    -0.951887392186E+02    0.29476E-02   -0.81063E-01  2200   0.148E+00    0.419E-01
DAV:   2    -0.951920937473E+02   -0.33545E-02   -0.38094E-02  2688   0.675E-01    0.138E-01
DAV:   3    -0.951920385821E+02    0.55165E-04   -0.16263E-03  2624   0.180E-01    0.109E-01
DAV:   4    -0.951919551225E+02    0.83460E-04   -0.27747E-04  2696   0.202E-01    0.519E-02
DAV:   5    -0.951919617035E+02   -0.65811E-05   -0.16012E-04  2704   0.758E-02    0.189E-02
DAV:   6    -0.951919607543E+02    0.94925E-06   -0.18125E-05  2368   0.218E-02    0.173E-02
DAV:   7    -0.951919603402E+02    0.41409E-06   -0.74728E-06  2368   0.317E-02
  84 F= -.95191960E+02 E0= -.95191960E+02  d E =-.504400E-11
       N       E                     dE             d eps       ncg     rms          rms(c)
DAV:   1    -0.951879333279E+02    0.40274E-02   -0.45130E-01  2192   0.103E+00    0.268E-01
DAV:   2    -0.951900804287E+02   -0.21471E-02   -0.22938E-02  2496   0.412E-01    0.930E-02
DAV:   3    -0.951900942959E+02   -0.13867E-04   -0.85481E-04  2640   0.112E-01    0.753E-02
DAV:   4    -0.951900599553E+02    0.34341E-04   -0.10001E-04  2632   0.117E-01    0.395E-02
DAV:   5    -0.951900610663E+02   -0.11109E-05   -0.66353E-05  2632   0.464E-02    0.971E-03
DAV:   6    -0.951900606143E+02    0.45195E-06   -0.88088E-06  2272   0.189E-02
  85 F= -.95190061E+02 E0= -.95190061E+02  d E =-.898900E-11
       N       E                     dE             d eps       ncg     rms          rms(c)
DAV:   1    -0.951807930613E+02    0.92680E-02   -0.18335E+00  2192   0.227E+00    0.619E-01
DAV:   2    -0.951891278918E+02   -0.83348E-02   -0.92500E-02  2608   0.103E+00    0.213E-01
DAV:   3    -0.951890583334E+02    0.69558E-04   -0.37812E-03  2656   0.293E-01    0.175E-01
DAV:   4    -0.951889041853E+02    0.15415E-03   -0.61440E-04  2784   0.288E-01    0.870E-02
DAV:   5    -0.951889087466E+02   -0.45612E-05   -0.32513E-04  2728   0.127E-01    0.236E-02
DAV:   6    -0.951889062014E+02    0.25452E-05   -0.38642E-05  2608   0.446E-02    0.221E-02
DAV:   7    -0.951889072273E+02   -0.10259E-05   -0.24211E-05  2544   0.381E-02    0.116E-02
DAV:   8    -0.951889072380E+02   -0.10703E-07   -0.38691E-06  1680   0.273E-02
  86 F= -.95188907E+02 E0= -.95188907E+02  d E =-.147819E-11
       N       E                     dE             d eps       ncg     rms          rms(c)
DAV:   1    -0.951894534896E+02   -0.54626E-03   -0.44153E-01  2192   0.102E+00    0.183E-01
DAV:   2    -0.951914782371E+02   -0.20247E-02   -0.21499E-02  2488   0.418E-01    0.642E-02
DAV:   3    -0.951915259721E+02   -0.47735E-04   -0.87247E-04  2776   0.127E-01    0.514E-02
DAV:   4    -0.951915156464E+02    0.10326E-04   -0.67620E-05  2752   0.920E-02    0.249E-02
DAV:   5    -0.951915157714E+02   -0.12504E-06   -0.32183E-05  2536   0.431E-02    0.612E-03
DAV:   6    -0.951915158072E+02   -0.35776E-07   -0.69320E-06  2312   0.108E-02
  87 F= -.95191516E+02 E0= -.95191516E+02  d E =-.206238E-11
       N       E                     dE             d eps       ncg     rms          rms(c)
DAV:   1    -0.951884047448E+02    0.31110E-02   -0.81133E-01  2176   0.147E+00    0.437E-01
DAV:   2    -0.951919897379E+02   -0.35850E-02   -0.39941E-02  2624   0.679E-01    0.143E-01
DAV:   3    -0.951919317317E+02    0.58006E-04   -0.15148E-03  2544   0.195E-01    0.112E-01
DAV:   4    -0.951918591861E+02    0.72546E-04   -0.30756E-04  2640   0.173E-01    0.511E-02
DAV:   5    -0.951918653472E+02   -0.61611E-05   -0.13457E-04  2560   0.989E-02    0.158E-02
DAV:   6    -0.951918652934E+02    0.53784E-07   -0.17601E-05  2368   0.238E-02    0.132E-02
DAV:   7    -0.951918654629E+02   -0.16950E-06   -0.10982E-05  2336   0.292E-02    0.650E-03
DAV:   8    -0.951918654800E+02   -0.17051E-07   -0.11093E-06  1296   0.132E-02
  88 F= -.95191865E+02 E0= -.95191865E+02  d E =-.531682E-11
       N       E                     dE             d eps       ncg     rms          rms(c)
DAV:   1    -0.951873062544E+02    0.45592E-02   -0.45201E-01  2192   0.103E+00    0.280E-01
DAV:   2    -0.951895071986E+02   -0.22009E-02   -0.23331E-02  2512   0.439E-01    0.923E-02
DAV:   3    -0.951895166620E+02   -0.94634E-05   -0.81915E-04  2456   0.122E-01    0.739E-02
DAV:   4    -0.951894860457E+02    0.30616E-04   -0.10218E-04  2552   0.103E-01    0.385E-02
DAV:   5    -0.951894866686E+02   -0.62282E-06   -0.60002E-05  2480   0.549E-02    0.879E-03
DAV:   6    -0.951894865580E+02    0.11053E-06   -0.78153E-06  2184   0.172E-02
  89 F= -.95189487E+02 E0= -.95189487E+02  d E =-.107049E-10
       N       E                     dE             d eps       ncg     rms          rms(c)
DAV:   1    -0.951795803548E+02    0.99063E-02   -0.18656E+00  2176   0.229E+00    0.658E-01
DAV:   2    -0.951890233733E+02   -0.94430E-02   -0.10401E-01  2664   0.991E-01    0.253E-01
DAV:   3    -0.951888966725E+02    0.12670E-03   -0.36981E-03  2632   0.297E-01    0.208E-01
DAV:   4    -0.951886944607E+02    0.20221E-03   -0.73235E-04  2816   0.302E-01    0.111E-01
DAV:   5    -0.951886942390E+02    0.22174E-06   -0.40782E-04  2920   0.139E-01    0.281E-02
DAV:   6    -0.951886898048E+02    0.44342E-05   -0.45598E-05  2504   0.559E-02    0.262E-02
DAV:   7    -0.951886914499E+02   -0.16451E-05   -0.28737E-05  2376   0.378E-02    0.156E-02
DAV:   8    -0.951886909387E+02    0.51122E-06   -0.70632E-06  2232   0.349E-02
  90 F= -.95188691E+02 E0= -.95188691E+02  d E =-.304468E-11
       N       E                     dE             d eps       ncg     rms          rms(c)
DAV:   1    -0.951893394866E+02   -0.64804E-03   -0.45869E-01  2176   0.103E+00    0.202E-01
DAV:   2    -0.951913771382E+02   -0.20377E-02   -0.21693E-02  2528   0.405E-01    0.641E-02
DAV:   3    -0.951914218746E+02   -0.44736E-04   -0.87353E-04  2792   0.128E-01    0.492E-02
DAV:   4    -0.951914101262E+02    0.11748E-04   -0.83032E-05  2744   0.106E-01    0.257E-02
DAV:   5    -0.951914100718E+02    0.54424E-07   -0.32824E-05  2568   0.400E-02    0.787E-03
DAV:   6    -0.951914099657E+02    0.10615E-06   -0.57835E-06  2440   0.136E-02
  91 F= -.95191410E+02 E0= -.95191410E+02  d E =-.307850E-11
       N       E                     dE             d eps       ncg     rms          rms(c)
DAV:   1    -0.951887462841E+02    0.26638E-02   -0.84722E-01  2192   0.147E+00    0.446E-01
DAV:   2    -0.951921470632E+02   -0.34008E-02   -0.38247E-02  2600   0.646E-01    0.151E-01
DAV:   3    -0.951920743718E+02    0.72691E-04   -0.14270E-03  2680   0.189E-01    0.115E-01
DAV:   4    -0.951919834987E+02    0.90873E-04   -0.36661E-04  2944   0.232E-01    0.545E-02
DAV:   5    -0.951919916693E+02   -0.81706E-05   -0.18067E-04  2848   0.952E-02    0.215E-02
DAV:   6    -0.951919889046E+02    0.27647E-05   -0.18948E-05  2560   0.305E-02    0.187E-02
DAV:   7    -0.951919889936E+02   -0.89036E-07   -0.13133E-05  2464   0.308E-02    0.731E-03
DAV:   8    -0.951919887914E+02    0.20221E-06   -0.22180E-06  1672   0.227E-02
  92 F= -.95191989E+02 E0= -.95191989E+02  d E =-.326831E-11
       N       E                     dE             d eps       ncg     rms          rms(c)
DAV:   1    -0.951875859634E+02    0.44030E-02   -0.47193E-01  2176   0.103E+00    0.281E-01
DAV:   2    -0.951897913116E+02   -0.22053E-02   -0.23505E-02  2576   0.415E-01    0.104E-01
DAV:   3    -0.951897973767E+02   -0.60650E-05   -0.80545E-04  2664   0.114E-01    0.820E-02
DAV:   4    -0.951897567610E+02    0.40616E-04   -0.13700E-04  2752   0.127E-01    0.425E-02
DAV:   5    -0.951897595578E+02   -0.27969E-05   -0.77917E-05  2720   0.521E-02    0.107E-02
DAV:   6    -0.951897580763E+02    0.14816E-05   -0.94976E-06  2408   0.255E-02    0.101E-02
DAV:   7    -0.951897585812E+02   -0.50498E-06   -0.46278E-06  2008   0.135E-02
  93 F= -.95189759E+02 E0= -.95189759E+02  d E =-.430208E-11
       N       E                     dE             d eps       ncg     rms          rms(c)
DAV:   1    -0.951818237144E+02    0.79344E-02   -0.18901E+00  2192   0.223E+00    0.586E-01
DAV:   2    -0.951897502327E+02   -0.79265E-02   -0.89539E-02  2656   0.981E-01    0.254E-01
DAV:   3    -0.951896067469E+02    0.14349E-03   -0.34849E-03  2672   0.267E-01    0.204E-01
DAV:   4    -0.951893925870E+02    0.21416E-03   -0.77889E-04  2824   0.297E-01    0.934E-02
DAV:   5    -0.951894007711E+02   -0.81841E-05   -0.37204E-04  2880   0.145E-01    0.317E-02
DAV:   6    -0.951893964707E+02    0.43005E-05   -0.50202E-05  2744   0.437E-02    0.271E-02
DAV:   7    -0.951893956532E+02    0.81750E-06   -0.24455E-05  2496   0.556E-02    0.134E-02
DAV:   8    -0.951893953902E+02    0.26299E-06   -0.58411E-06  2160   0.271E-02
  94 F= -.95189395E+02 E0= -.95189395E+02  d E =-.106371E-11
       N       E                     dE             d eps       ncg     rms          rms(c)
DAV:   1    -0.951895809111E+02   -0.18526E-03   -0.44941E-01  2192   0.105E+00    0.189E-01
DAV:   2    -0.951915260758E+02   -0.19452E-02   -0.21162E-02  2688   0.431E-01    0.639E-02
DAV:   3    -0.951915610922E+02   -0.35016E-04   -0.83669E-04  2840   0.115E-01    0.504E-02
DAV:   4    -0.951915476565E+02    0.13436E-04   -0.72665E-05  2816   0.101E-01    0.277E-02
DAV:   5    -0.951915462781E+02    0.13784E-05   -0.32666E-05  2568   0.300E-02    0.815E-03
DAV:   6    -0.951915464426E+02   -0.16447E-06   -0.59122E-06  2328   0.109E-02
  95 F= -.95191546E+02 E0= -.95191546E+02  d E =-.174165E-11
       N       E                     dE             d eps       ncg     rms          rms(c)
DAV:   1    -0.951893878277E+02    0.21585E-02   -0.83639E-01  2192   0.148E+00    0.431E-01
DAV:   2    -0.951925172504E+02   -0.31294E-02   -0.36420E-02  2688   0.697E-01    0.141E-01
DAV:   3    -0.951924363208E+02    0.80930E-04   -0.16345E-03  2616   0.175E-01    0.112E-01
DAV:   4    -0.951923413718E+02    0.94949E-04   -0.31110E-04  2832   0.190E-01    0.582E-02
DAV:   5    -0.951923452628E+02   -0.38910E-05   -0.15871E-04  2744   0.754E-02    0.199E-02
DAV:   6    -0.951923456627E+02   -0.39982E-06   -0.21663E-05  2392   0.189E-02    0.168E-02
DAV:   7    -0.951923443719E+02    0.12907E-05   -0.27208E-06  1928   0.312E-02    0.639E-03
DAV:   8    -0.951923445223E+02   -0.15039E-06   -0.39705E-06  1944   0.876E-03
  96 F= -.95192345E+02 E0= -.95192345E+02  d E =-.631198E-11
       N       E                     dE             d eps       ncg     rms          rms(c)
DAV:   1    -0.951888865457E+02    0.34578E-02   -0.46300E-01  2176   0.102E+00    0.274E-01
DAV:   2    -0.951909384398E+02   -0.20519E-02   -0.22035E-02  2640   0.425E-01    0.945E-02
DAV:   3    -0.951909436659E+02   -0.52260E-05   -0.86538E-04  2552   0.112E-01    0.768E-02
DAV:   4    -0.951909050369E+02    0.38629E-04   -0.10918E-04  2736   0.111E-01    0.425E-02
DAV:   5    -0.951909049228E+02    0.11416E-06   -0.69584E-05  2552   0.447E-02    0.975E-03
DAV:   6    -0.951909051203E+02   -0.19752E-06   -0.10719E-05  2328   0.162E-02    0.907E-03
DAV:   7    -0.951909051310E+02   -0.10696E-07   -0.20863E-06  1696   0.168E-02
  97 F= -.95190905E+02 E0= -.95190905E+02  d E =-.145514E-10
       N       E                     dE             d eps       ncg     rms          rms(c)
DAV:   1    -0.951807528366E+02    0.10152E-01   -0.18631E+00  2200   0.230E+00    0.648E-01
DAV:   2    -0.951888717570E+02   -0.81189E-02   -0.93246E-02  2680   0.112E+00    0.227E-01
DAV:   3    -0.951886849668E+02    0.18679E-03   -0.40396E-03  2560   0.303E-01    0.190E-01
DAV:   4    -0.951885069425E+02    0.17802E-03   -0.79153E-04  2776   0.291E-01    0.849E-02
DAV:   5    -0.951885095379E+02   -0.25954E-05   -0.33399E-04  2808   0.143E-01    0.281E-02
DAV:   6    -0.951885105312E+02   -0.99336E-06   -0.58922E-05  2440   0.343E-02    0.247E-02
DAV:   7    -0.951885094583E+02    0.10730E-05   -0.16191E-05  2608   0.474E-02    0.128E-02
DAV:   8    -0.951885095022E+02   -0.43899E-07   -0.45849E-06  1912   0.199E-02
  98 F= -.95188510E+02 E0= -.95188510E+02  d E =-.151592E-11
       N       E                     dE             d eps       ncg     rms          rms(c)
DAV:   1    -0.951892308074E+02   -0.72135E-03   -0.44948E-01  2176   0.103E+00    0.191E-01
DAV:   2    -0.951912459285E+02   -0.20151E-02   -0.21633E-02  2544   0.437E-01    0.659E-02
DAV:   3    -0.951912927485E+02   -0.46820E-04   -0.91022E-04  2808   0.133E-01    0.529E-02
DAV:   4    -0.951912827931E+02    0.99554E-05   -0.79229E-05  2616   0.946E-02    0.273E-02
DAV:   5    -0.951912825804E+02    0.21272E-06   -0.36038E-05  2584   0.408E-02    0.644E-03
DAV:   6    -0.951912825768E+02    0.36307E-08   -0.65222E-06  2264   0.114E-02
  99 F= -.95191283E+02 E0= -.95191283E+02  d E =-.215612E-11
       N       E                     dE             d eps       ncg     rms          rms(c)
DAV:   1    -0.951886953236E+02    0.25873E-02   -0.82940E-01  2184   0.148E+00    0.459E-01
DAV:   2    -0.951921780483E+02   -0.34827E-02   -0.39288E-02  2608   0.711E-01    0.148E-01
DAV:   3    -0.951921070881E+02    0.70960E-04   -0.16145E-03  2640   0.200E-01    0.117E-01
DAV:   4    -0.951920273841E+02    0.79704E-04   -0.34748E-04  2656   0.180E-01    0.557E-02
DAV:   5    -0.951920323265E+02   -0.49424E-05   -0.14488E-04  2648   0.987E-02    0.171E-02
DAV:   6    -0.951920322430E+02    0.83524E-07   -0.17732E-05  2424   0.250E-02    0.135E-02
DAV:   7    -0.951920325623E+02   -0.31927E-06   -0.11772E-05  2352   0.289E-02    0.591E-03
DAV:   8    -0.951920325691E+02   -0.68103E-08   -0.11245E-06  1304   0.134E-02
 100 F= -.95192033E+02 E0= -.95192033E+02  d E =-.456599E-11
       N       E                     dE             d eps       ncg     rms          rms(c)
DAV:   1    -0.951876815465E+02    0.43510E-02   -0.46204E-01  2176   0.103E+00    0.293E-01
DAV:   2    -0.951898836442E+02   -0.22021E-02   -0.23406E-02  2528   0.451E-01    0.984E-02
DAV:   3    -0.951898866311E+02   -0.29869E-05   -0.84192E-04  2584   0.123E-01    0.790E-02
DAV:   4    -0.951898516808E+02    0.34950E-04   -0.11847E-04  2552   0.106E-01    0.423E-02
DAV:   5    -0.951898520840E+02   -0.40325E-06   -0.66757E-05  2496   0.549E-02    0.924E-03
DAV:   6    -0.951898519360E+02    0.14806E-06   -0.73504E-06  2200   0.184E-02
 101 F= -.95189852E+02 E0= -.95189852E+02  d E =-.711621E-11
       N       E                     dE             d eps       ncg     rms          rms(c)
DAV:   1    -0.951805609693E+02    0.92911E-02   -0.18768E+00  2176   0.230E+00    0.657E-01
DAV:   2    -0.951899026411E+02   -0.93417E-02   -0.10439E-01  2720   0.115E+00    0.228E-01
DAV:   3    -0.951896531590E+02    0.24948E-03   -0.39704E-03  2672   0.305E-01    0.192E-01
DAV:   4    -0.951894393623E+02    0.21380E-03   -0.78571E-04  2856   0.279E-01    0.977E-02
DAV:   5    -0.951894345640E+02    0.47982E-05   -0.38590E-04  3016   0.130E-01    0.269E-02
DAV:   6    -0.951894358526E+02   -0.12886E-05   -0.50602E-05  2488   0.327E-02    0.240E-02
DAV:   7    -0.951894349652E+02    0.88736E-06   -0.12731E-05  2488   0.459E-02    0.121E-02
DAV:   8    -0.951894348753E+02    0.89927E-07   -0.37133E-06  1760   0.199E-02
 102 F= -.95189435E+02 E0= -.95189435E+02  d E =-.277266E-11
       N       E                     dE             d eps       ncg     rms          rms(c)
DAV:   1    -0.951897714662E+02   -0.33650E-03   -0.45033E-01  2192   0.104E+00    0.195E-01
DAV:   2    -0.951917300845E+02   -0.19586E-02   -0.21464E-02  2472   0.451E-01    0.668E-02
DAV:   3    -0.951917742469E+02   -0.44162E-04   -0.99765E-04  2720   0.127E-01    0.546E-02
DAV:   4    -0.951917612046E+02    0.13042E-04   -0.83609E-05  2984   0.107E-01    0.291E-02
DAV:   5    -0.951917594902E+02    0.17144E-05   -0.37033E-05  2472   0.320E-02    0.790E-03
DAV:   6    -0.951917596588E+02   -0.16862E-06   -0.70287E-06  2400   0.142E-02
 103 F= -.95191760E+02 E0= -.95191760E+02  d E =-.294281E-11
       N       E                     dE             d eps       ncg     rms          rms(c)
DAV:   1    -0.951887430729E+02    0.30164E-02   -0.84362E-01  2216   0.146E+00    0.461E-01
DAV:   2    -0.951918970113E+02   -0.31539E-02   -0.37084E-02  2488   0.743E-01    0.145E-01
DAV:   3    -0.951917889818E+02    0.10803E-03   -0.16965E-03  2688   0.189E-01    0.119E-01
DAV:   4    -0.951916936550E+02    0.95327E-04   -0.38609E-04  2800   0.210E-01    0.563E-02
DAV:   5    -0.951916990511E+02   -0.53962E-05   -0.16131E-04  2680   0.889E-02    0.220E-02
DAV:   6    -0.951916993222E+02   -0.27110E-06   -0.21724E-05  2448   0.217E-02    0.189E-02
DAV:   7    -0.951916983980E+02    0.92423E-06   -0.76448E-06  2432   0.337E-02
 104 F= -.95191698E+02 E0= -.95191698E+02  d E =-.339011E-11
       N       E                     dE             d eps       ncg     rms          rms(c)
DAV:   1    -0.951871979522E+02    0.45014E-02   -0.46391E-01  2192   0.101E+00    0.292E-01
DAV:   2    -0.951892675081E+02   -0.20696E-02   -0.22251E-02  2576   0.446E-01    0.970E-02
DAV:   3    -0.951892619200E+02    0.55881E-05   -0.84785E-04  2544   0.117E-01    0.809E-02
DAV:   4    -0.951892228108E+02    0.39109E-04   -0.13615E-04  2744   0.125E-01    0.427E-02
DAV:   5    -0.951892235699E+02   -0.75904E-06   -0.68711E-05  2784   0.529E-02    0.946E-03
DAV:   6    -0.951892235956E+02   -0.25753E-07   -0.84852E-06  2320   0.196E-02
 105 F= -.95189224E+02 E0= -.95189224E+02  d E =-.394753E-11
       N       E                     dE             d eps       ncg     rms          rms(c)
DAV:   1    -0.951803613807E+02    0.88622E-02   -0.19012E+00  2208   0.225E+00    0.642E-01
DAV:   2    -0.951892340483E+02   -0.88727E-02   -0.10099E-01  2496   0.106E+00    0.227E-01
DAV:   3    -0.951889604636E+02    0.27358E-03   -0.40436E-03  2680   0.301E-01    0.188E-01
DAV:   4    -0.951887388109E+02    0.22165E-03   -0.99479E-04  2760   0.314E-01    0.868E-02
DAV:   5    -0.951887467222E+02   -0.79113E-05   -0.37904E-04  2768   0.163E-01    0.429E-02
DAV:   6    -0.951887469570E+02   -0.23474E-06   -0.57485E-05  2568   0.401E-02    0.307E-02
DAV:   7    -0.951887438293E+02    0.31276E-05   -0.33414E-05  2544   0.514E-02    0.121E-02
DAV:   8    -0.951887441959E+02   -0.36661E-06   -0.87860E-06  2312   0.257E-02
 106 F= -.95188744E+02 E0= -.95188744E+02  d E =-.525074E-11
       N       E                     dE             d eps       ncg     rms          rms(c)
DAV:   1    -0.951894356871E+02   -0.69186E-03   -0.45343E-01  2184   0.102E+00    0.219E-01
DAV:   2    -0.951915632559E+02   -0.21276E-02   -0.23201E-02  2584   0.441E-01    0.672E-02
DAV:   3    -0.951915936542E+02   -0.30398E-04   -0.93209E-04  2808   0.134E-01    0.536E-02
DAV:   4    -0.951915793141E+02    0.14340E-04   -0.96514E-05  2920   0.104E-01    0.262E-02
DAV:   5    -0.951915790036E+02    0.31043E-06   -0.33232E-05  2720   0.418E-02    0.846E-03
DAV:   6    -0.951915789404E+02    0.63214E-07   -0.62315E-06  2400   0.134E-02
 107 F= -.95191579E+02 E0= -.95191579E+02  d E =-.408418E-11
       N       E                     dE             d eps       ncg     rms          rms(c)
DAV:   1    -0.951882140134E+02    0.33650E-02   -0.84540E-01  2192   0.146E+00    0.517E-01
DAV:   2    -0.951917935288E+02   -0.35795E-02   -0.41762E-02  2608   0.707E-01    0.145E-01
DAV:   3    -0.951916399800E+02    0.15355E-03   -0.16138E-03  2680   0.204E-01    0.118E-01
DAV:   4    -0.951915410534E+02    0.98927E-04   -0.47290E-04  2736   0.212E-01    0.524E-02
DAV:   5    -0.951915480652E+02   -0.70119E-05   -0.16916E-04  2776   0.108E-01    0.266E-02
DAV:   6    -0.951915473353E+02    0.72995E-06   -0.21013E-05  2576   0.278E-02    0.192E-02
DAV:   7    -0.951915468151E+02    0.52012E-06   -0.13803E-05  2440   0.305E-02    0.841E-03
DAV:   8    -0.951915469443E+02   -0.12921E-06   -0.32440E-06  1872   0.169E-02
 108 F= -.95191547E+02 E0= -.95191547E+02  d E =-.253462E-11
       N       E                     dE             d eps       ncg     rms          rms(c)
DAV:   1    -0.951864188413E+02    0.51280E-02   -0.46596E-01  2176   0.102E+00    0.323E-01
DAV:   2    -0.951886929756E+02   -0.22741E-02   -0.24531E-02  2560   0.447E-01    0.945E-02
DAV:   3    -0.951886766953E+02    0.16280E-04   -0.85650E-04  2544   0.124E-01    0.802E-02
DAV:   4    -0.951886353039E+02    0.41391E-04   -0.16634E-04  2680   0.120E-01    0.393E-02
DAV:   5    -0.951886375614E+02   -0.22575E-05   -0.71104E-05  2720   0.646E-02    0.127E-02
DAV:   6    -0.951886375795E+02   -0.18132E-07   -0.71237E-06  2280   0.186E-02
 109 F= -.95188638E+02 E0= -.95188638E+02  d E =-.228843E-11
       N       E                     dE             d eps       ncg     rms          rms(c)
DAV:   1    -0.951831565317E+02    0.54810E-02   -0.19479E+00  2184   0.211E+00    0.525E-01
DAV:   2    -0.951911462258E+02   -0.79897E-02   -0.89462E-02  2568   0.833E-01    0.240E-01
DAV:   3    -0.951910646386E+02    0.81587E-04   -0.33002E-03  2672   0.257E-01    0.196E-01
DAV:   4    -0.951908356933E+02    0.22895E-03   -0.67407E-04  2680   0.257E-01    0.110E-01
DAV:   5    -0.951908305761E+02    0.51172E-05   -0.42220E-04  2744   0.127E-01    0.265E-02
DAV:   6    -0.951908229000E+02    0.76761E-05   -0.54803E-05  2552   0.627E-02    0.214E-02
DAV:   7    -0.951908241757E+02   -0.12757E-05   -0.24726E-05  2304   0.231E-02    0.134E-02
DAV:   8    -0.951908242213E+02   -0.45617E-07   -0.31815E-06  1872   0.120E-02
 110 F= -.95190824E+02 E0= -.95190824E+02  d E =-.475293E-11
       N       E                     dE             d eps       ncg     rms          rms(c)
DAV:   1    -0.951901494245E+02    0.67475E-03   -0.47815E-01  2216   0.937E-01    0.146E-01
DAV:   2    -0.951919878179E+02   -0.18384E-02   -0.19402E-02  2472   0.325E-01    0.689E-02
DAV:   3    -0.951920411258E+02   -0.53308E-04   -0.83986E-04  2776   0.946E-02    0.534E-02
DAV:   4    -0.951920219765E+02    0.19149E-04   -0.72709E-05  2656   0.768E-02    0.305E-02
DAV:   5    -0.951920223051E+02   -0.32857E-06   -0.37951E-05  2560   0.349E-02    0.897E-03
DAV:   6    -0.951920213508E+02    0.95428E-06   -0.52507E-06  2112   0.131E-02
 111 F= -.95192021E+02 E0= -.95192021E+02  d E =-.387351E-11
       N       E                     dE             d eps       ncg     rms          rms(c)
DAV:   1    -0.951892705554E+02    0.27517E-02   -0.87289E-01  2192   0.133E+00    0.358E-01
DAV:   2    -0.951924299877E+02   -0.31594E-02   -0.35273E-02  2504   0.496E-01    0.167E-01
DAV:   3    -0.951923947123E+02    0.35275E-04   -0.12839E-03  2648   0.145E-01    0.126E-01
DAV:   4    -0.951922786656E+02    0.11605E-03   -0.38530E-04  2624   0.152E-01    0.637E-02
DAV:   5    -0.951922892122E+02   -0.10547E-04   -0.17276E-04  2664   0.789E-02    0.180E-02
DAV:   6    -0.951922852290E+02    0.39832E-05   -0.15082E-05  2416   0.245E-02    0.120E-02
DAV:   7    -0.951922847600E+02    0.46898E-06   -0.85070E-06  2168   0.132E-02
 112 F= -.95192285E+02 E0= -.95192285E+02  d E =-.252876E-11
       N       E                     dE             d eps       ncg     rms          rms(c)
DAV:   1    -0.951894425694E+02    0.28427E-02   -0.48802E-01  2176   0.931E-01    0.244E-01
DAV:   2    -0.951913928975E+02   -0.19503E-02   -0.20954E-02  2552   0.327E-01    0.112E-01
DAV:   3    -0.951913975245E+02   -0.46270E-05   -0.66717E-04  2528   0.894E-02    0.849E-02
DAV:   4    -0.951913529441E+02    0.44580E-04   -0.12200E-04  2480   0.821E-02    0.484E-02
DAV:   5    -0.951913548406E+02   -0.18965E-05   -0.70339E-05  2584   0.405E-02    0.133E-02
DAV:   6    -0.951913540702E+02    0.77043E-06   -0.63679E-06  2176   0.138E-02
 113 F= -.95191354E+02 E0= -.95191354E+02  d E =-.207092E-11
