PROCAR lm decomposed
# of k-points:    1         # of bands:   48         # of ions:   16

 k-point     1 :    0.00000000 0.00000000 0.00000000     weight = 1.00000000

band     1 # energy  -13.01993257 # occ.  2.00000000
 
ion      s     py     pz     px    dxy    dyz    dz2    dxz  x2-y2    tot
    1  0.001  0.000  0.000  0.000  0.000  0.000  0.000  0.000  0.000  0.001
    2  0.000  0.000  0.000  0.000  0.000  0.000  0.000  0.000  0.000  0.000
    3  0.001  0.000  0.000  0.000  0.000  0.000  0.000  0.000  0.000  0.001
    4  0.000  0.000  0.000  0.000  0.000  0.000  0.000  0.000  0.000  0.001
    5  0.000  0.000  0.000  0.000  0.000  0.000  0.000  0.000  0.000  0.000
    6  0.000  0.000  0.000  0.000  0.000  0.000  0.000  0.000  0.000  0.000
    7  0.253  0.000  0.000  0.001  0.000  0.000  0.000  0.000  0.000  0.254
    8  0.014  0.000  0.000  0.000  0.000  0.000  0.000  0.000  0.000  0.014
    9  0.087  0.009  0.001  0.000  0.000  0.000  0.000  0.000  0.000  0.096
   10  0.081  0.000  0.010  0.000  0.000  0.000  0.000  0.000  0.000  0.091
   11  0.061  0.002  0.001  0.003  0.000  0.000  0.000  0.000  0.000  0.067
   12  0.007  0.000  0.000  0.000  0.000  0.000  0.000  0.000  0.000  0.008
   13  0.007  0.000  0.000  0.000  0.000  0.000  0.000  0.000  0.000  0.007
   14  0.003  0.000  0.000  0.000  0.000  0.000  0.000  0.000  0.000  0.003
   15  0.004  0.000  0.000  0.000  0.000  0.000  0.000  0.000  0.000  0.004
   16  0.080  0.001  0.001  0.009  0.000  0.000  0.000  0.000  0.000  0.091
tot    0.601  0.014  0.013  0.014  0.000  0.000  0.000  0.000  0.000  0.641
 
band     2 # energy  -12.71277298 # occ.  2.00000000
 
ion      s     py     pz     px    dxy    dyz    dz2    dxz  x2-y2    tot
    1  0.000  0.000  0.000  0.000  0.000  0.000  0.000  0.000  0.000  0.001
    2  0.000  0.000  0.000  0.000  0.000  0.000  0.000  0.000  0.000  0.000
    3  0.000  0.000  0.000  0.000  0.000  0.000  0.000  0.000  0.000  0.001
    4  0.000  0.000  0.000  0.000  0.000  0.000  0.000  0.000  0.000  0.001
    5  0.000  0.000  0.000  0.000  0.000  0.000  0.000  0.000  0.000  0.000
    6  0.000  0.000  0.000  0.000  0.000  0.000  0.000  0.000  0.000  0.000
    7  0.018  0.000  0.000  0.000  0.000  0.000  0.000  0.000  0.000  0.018
    8  0.259  0.001  0.000  0.000  0.000  0.000  0.000  0.000  0.000  0.260
    9  0.006  0.001  0.000  0.000  0.000  0.000  0.000  0.000  0.000  0.007
   10  0.005  0.000  0.001  0.000  0.000  0.000  0.000  0.000  0.000  0.006
   11  0.003  0.000  0.000  0.000  0.000  0.000  0.000  0.000  0.000  0.003
   12  0.108  0.006  0.001  0.009  0.000  0.000  0.000  0.000  0.000  0.124
   13  0.106  0.001  0.010  0.000  0.000  0.000  0.000  0.000  0.000  0.117
   14  0.038  0.003  0.001  0.000  0.000  0.000  0.000  0.000  0.000  0.042
   15  0.058  0.002  0.001  0.006  0.000  0.000  0.000  0.000  0.000  0.067
   16  0.004  0.000  0.000  0.001  0.000  0.000  0.000  0.000  0.000  0.005
tot    0.607  0.014  0.015  0.018  0.000  0.000  0.000  0.000  0.000  0.653
 
band     3 # energy  -10.32036003 # occ.  2.00000000
 
ion      s     py     pz     px    dxy    dyz    dz2    dxz  x2-y2    tot
    1  0.001  0.000  0.000  0.000  0.000  0.000  0.000  0.000  0.000  0.001
    2  0.000  0.000  0.000  0.001  0.000  0.000  0.000  0.000  0.000  0.001
    3  0.000  0.001  0.000  0.000  0.000  0.000  0.000  0.000  0.000  0.002
    4  0.000  0.000  0.001  0.000  0.000  0.000  0.000  0.000  0.000  0.001
    5  0.000  0.000  0.000  0.000  0.000  0.000  0.000  0.000  0.000  0.000
    6  0.000  0.000  0.000  0.000  0.000  0.000  0.000  0.000  0.000  0.001
    7  0.000  0.014  0.002  0.008  0.000  0.000  0.000  0.000  0.000  0.024
    8  0.000  0.010  0.014  0.004  0.000  0.000  0.000  0.000  0.000  0.028
    9  0.080  0.001  0.000  0.000  0.000  0.000  0.000  0.000  0.000  0.082
   10  0.002  0.000  0.000  0.000  0.000  0.000  0.000  0.000  0.000  0.003
   11  0.253  0.001  0.001  0.001  0.000  0.000  0.000  0.000  0.000  0.256
   12  0.109  0.001  0.000  0.002  0.000  0.000  0.000  0.000  0.000  0.112
   13  0.153  0.000  0.002  0.000  0.000  0.000  0.000  0.000  0.000  0.156
   14  0.003  0.000  0.000  0.000  0.000  0.000  0.000  0.000  0.000  0.003
   15  0.005  0.000  0.000  0.000  0.000  0.000  0.000  0.000  0.000  0.005
   16  0.009  0.000  0.000  0.000  0.000  0.000  0.000  0.000  0.000  0.009
tot    0.617  0.031  0.021  0.017  0.000  0.000  0.000  0.000  0.000  0.686
 
band     4 # energy  -10.20353076 # occ.  2.00000000
 
ion      s     py     pz     px    dxy    dyz    dz2    dxz  x2-y2    tot
    1  0.000  0.000  0.000  0.000  0.000  0.000  0.000  0.000  0.000  0.001
    2  0.000  0.000  0.000  0.000  0.000  0.000  0.000  0.000  0.000  0.001
    3  0.001  0.000  0.001  0.000  0.000  0.000  0.000  0.000  0.000  0.001
    4  0.000  0.000  0.000  0.001  0.000  0.000  0.000  0.000  0.000  0.001
    5  0.000  0.000  0.000  0.000  0.000  0.000  0.000  0.000  0.000  0.000
    6  0.000  0.000  0.000  0.000  0.000  0.000  0.000  0.000  0.000  0.000
    7  0.000  0.013  0.010  0.001  0.000  0.000  0.000  0.000  0.000  0.025
    8  0.001  0.010  0.021  0.002  0.000  0.000  0.000  0.000  0.000  0.034
    9  0.055  0.001  0.000  0.000  0.000  0.000  0.000  0.000  0.000  0.056
   10  0.059  0.000  0.001  0.000  0.000  0.000  0.000  0.000  0.000  0.060
   11  0.183  0.001  0.001  0.001  0.000  0.000  0.000  0.000  0.000  0.187
   12  0.077  0.001  0.000  0.003  0.000  0.000  0.000  0.000  0.000  0.081
   13  0.202  0.000  0.003  0.000  0.000  0.000  0.000  0.000  0.000  0.205
   14  0.000  0.000  0.000  0.000  0.000  0.000  0.000  0.000  0.000  0.000
   15  0.028  0.000  0.000  0.001  0.000  0.000  0.000  0.000  0.000  0.029
   16  0.011  0.000  0.000  0.000  0.000  0.000  0.000  0.000  0.000  0.011
tot    0.617  0.028  0.038  0.010  0.000  0.000  0.000  0.000  0.000  0.694
 
band     5 # energy  -10.05289246 # occ.  2.00000000
 
ion      s     py     pz     px    dxy    dyz    dz2    dxz  x2-y2    tot
    1  0.000  0.000  0.000  0.000  0.000  0.000  0.000  0.000  0.000  0.001
    2  0.000  0.000  0.000  0.000  0.000  0.000  0.000  0.000  0.000  0.001
    3  0.000  0.000  0.001  0.000  0.000  0.000  0.000  0.000  0.000  0.001
    4  0.001  0.000  0.000  0.001  0.000  0.000  0.000  0.000  0.000  0.003
    5  0.001  0.000  0.000  0.000  0.000  0.000  0.000  0.000  0.000  0.001
    6  0.001  0.000  0.000  0.000  0.000  0.000  0.000  0.000  0.000  0.001
    7  0.001  0.016  0.016  0.010  0.000  0.000  0.000  0.000  0.000  0.043
    8  0.000  0.000  0.000  0.001  0.000  0.000  0.000  0.000  0.000  0.001
    9  0.334  0.003  0.000  0.000  0.000  0.000  0.000  0.000  0.000  0.337
   10  0.147  0.000  0.003  0.000  0.000  0.000  0.000  0.000  0.000  0.151
   11  0.034  0.000  0.000  0.000  0.000  0.000  0.000  0.000  0.000  0.034
   12  0.006  0.000  0.000  0.000  0.000  0.000  0.000  0.000  0.000  0.006
   13  0.000  0.000  0.000  0.000  0.000  0.000  0.000  0.000  0.000  0.000
   14  0.010  0.000  0.000  0.000  0.000  0.000  0.000  0.000  0.000  0.010
   15  0.002  0.000  0.000  0.000  0.000  0.000  0.000  0.000  0.000  0.002
   16  0.098  0.000  0.001  0.002  0.000  0.000  0.000  0.000  0.000  0.101
tot    0.634  0.021  0.022  0.015  0.000  0.000  0.000  0.000  0.000  0.692
 
band     6 # energy   -9.87949706 # occ.  2.00000000
 
ion      s     py     pz     px    dxy    dyz    dz2    dxz  x2-y2    tot
    1  0.000  0.000  0.000  0.000  0.000  0.000  0.000  0.000  0.000  0.000
    2  0.000  0.000  0.000  0.001  0.000  0.000  0.000  0.000  0.000  0.001
    3  0.001  0.000  0.000  0.000  0.000  0.000  0.000  0.000  0.000  0.001
    4  0.000  0.000  0.000  0.000  0.000  0.000  0.000  0.000  0.000  0.000
    5  0.000  0.000  0.001  0.000  0.000  0.000  0.000  0.000  0.000  0.001
    6  0.000  0.000  0.000  0.000  0.000  0.000  0.000  0.000  0.000  0.000
    7  0.000  0.001  0.022  0.025  0.000  0.000  0.000  0.000  0.000  0.048
    8  0.000  0.002  0.004  0.000  0.000  0.000  0.000  0.000  0.000  0.006
    9  0.001  0.000  0.000  0.000  0.000  0.000  0.000  0.000  0.000  0.001
   10  0.245  0.000  0.003  0.000  0.000  0.000  0.000  0.000  0.000  0.248
   11  0.016  0.000  0.000  0.000  0.000  0.000  0.000  0.000  0.000  0.016
   12  0.003  0.000  0.000  0.000  0.000  0.000  0.000  0.000  0.000  0.003
   13  0.032  0.000  0.001  0.000  0.000  0.000  0.000  0.000  0.000  0.033
   14  0.000  0.000  0.000  0.000  0.000  0.000  0.000  0.000  0.000  0.000
   15  0.020  0.000  0.000  0.000  0.000  0.000  0.000  0.000  0.000  0.021
   16  0.310  0.001  0.000  0.005  0.000  0.000  0.000  0.000  0.000  0.316
tot    0.628  0.004  0.031  0.033  0.000  0.000  0.000  0.000  0.000  0.696
 
band     7 # energy   -9.50474256 # occ.  2.00000000
 
ion      s     py     pz     px    dxy    dyz    dz2    dxz  x2-y2    tot
    1  0.001  0.000  0.000  0.001  0.000  0.000  0.000  0.000  0.000  0.002
    2  0.002  0.001  0.002  0.000  0.000  0.000  0.000  0.000  0.000  0.005
    3  0.000  0.000  0.000  0.000  0.000  0.000  0.000  0.000  0.000  0.001
    4  0.000  0.000  0.000  0.000  0.000  0.000  0.000  0.000  0.000  0.000
    5  0.000  0.000  0.000  0.000  0.000  0.000  0.000  0.000  0.000  0.001
    6  0.000  0.000  0.000  0.000  0.000  0.000  0.000  0.000  0.000  0.000
    7  0.000  0.000  0.001  0.001  0.000  0.000  0.000  0.000  0.000  0.002
    8  0.000  0.016  0.012  0.004  0.000  0.000  0.000  0.000  0.000  0.031
    9  0.003  0.000  0.000  0.000  0.000  0.000  0.000  0.000  0.000  0.004
   10  0.004  0.000  0.000  0.000  0.000  0.000  0.000  0.000  0.000  0.004
   11  0.008  0.000  0.000  0.000  0.000  0.000  0.000  0.000  0.000  0.009
   12  0.071  0.000  0.001  0.001  0.000  0.000  0.000  0.000  0.000  0.073
   13  0.051  0.001  0.001  0.000  0.000  0.000  0.000  0.000  0.000  0.053
   14  0.491  0.002  0.000  0.000  0.000  0.000  0.000  0.000  0.000  0.493
   15  0.004  0.000  0.000  0.000  0.000  0.000  0.000  0.000  0.000  0.004
   16  0.007  0.000  0.000  0.000  0.000  0.000  0.000  0.000  0.000  0.007
tot    0.642  0.021  0.017  0.008  0.000  0.000  0.000  0.000  0.000  0.688
 
band     8 # energy   -9.41100171 # occ.  2.00000000
 
ion      s     py     pz     px    dxy    dyz    dz2    dxz  x2-y2    tot
    1  0.001  0.001  0.001  0.000  0.000  0.000  0.000  0.000  0.000  0.002
    2  0.000  0.000  0.000  0.000  0.000  0.000  0.000  0.000  0.000  0.001
    3  0.000  0.000  0.000  0.000  0.000  0.000  0.000  0.000  0.000  0.000
    4  0.000  0.000  0.000  0.000  0.000  0.000  0.000  0.000  0.000  0.000
    5  0.000  0.000  0.000  0.000  0.000  0.000  0.000  0.000  0.000  0.000
    6  0.000  0.000  0.000  0.000  0.000  0.000  0.000  0.000  0.000  0.000
    7  0.000  0.000  0.000  0.002  0.000  0.000  0.000  0.000  0.000  0.002
    8  0.001  0.002  0.000  0.045  0.000  0.000  0.000  0.000  0.000  0.049
    9  0.000  0.000  0.000  0.000  0.000  0.000  0.000  0.000  0.000  0.000
   10  0.001  0.000  0.000  0.000  0.000  0.000  0.000  0.000  0.000  0.001
   11  0.008  0.000  0.000  0.000  0.000  0.000  0.000  0.000  0.000  0.009
   12  0.136  0.002  0.000  0.000  0.000  0.000  0.000  0.000  0.000  0.139
   13  0.001  0.000  0.000  0.000  0.000  0.000  0.000  0.000  0.000  0.001
   14  0.052  0.000  0.000  0.000  0.000  0.000  0.000  0.000  0.000  0.053
   15  0.418  0.003  0.001  0.003  0.000  0.000  0.000  0.000  0.000  0.425
   16  0.011  0.000  0.000  0.000  0.000  0.000  0.000  0.000  0.000  0.011
tot    0.628  0.011  0.003  0.052  0.000  0.000  0.000  0.000  0.000  0.694
 
band     9 # energy   -6.31294254 # occ.  2.00000000
 
ion      s     py     pz     px    dxy    dyz    dz2    dxz  x2-y2    tot
    1  0.001  0.000  0.000  0.000  0.000  0.000  0.000  0.000  0.000  0.001
    2  0.003  0.000  0.000  0.000  0.000  0.000  0.000  0.000  0.000  0.003
    3  0.001  0.000  0.000  0.000  0.000  0.000  0.000  0.000  0.000  0.002
    4  0.002  0.000  0.000  0.000  0.000  0.000  0.000  0.000  0.000  0.002
    5  0.002  0.000  0.000  0.000  0.000  0.000  0.000  0.000  0.000  0.002
    6  0.003  0.000  0.000  0.000  0.000  0.000  0.000  0.000  0.000  0.003
    7  0.164  0.000  0.000  0.001  0.000  0.000  0.000  0.000  0.000  0.165
    8  0.056  0.001  0.000  0.000  0.000  0.000  0.000  0.000  0.000  0.057
    9  0.050  0.023  0.001  0.000  0.000  0.000  0.000  0.000  0.000  0.075
   10  0.062  0.000  0.022  0.000  0.000  0.000  0.000  0.000  0.000  0.084
   11  0.041  0.009  0.008  0.008  0.000  0.000  0.000  0.000  0.000  0.065
   12  0.020  0.004  0.000  0.005  0.000  0.000  0.000  0.000  0.000  0.029
   13  0.017  0.001  0.011  0.000  0.000  0.000  0.000  0.000  0.000  0.029
   14  0.007  0.004  0.003  0.000  0.000  0.000  0.000  0.000  0.000  0.014
   15  0.019  0.002  0.001  0.003  0.000  0.000  0.000  0.000  0.000  0.024
   16  0.061  0.001  0.001  0.019  0.000  0.000  0.000  0.000  0.000  0.082
tot    0.508  0.046  0.048  0.037  0.000  0.000  0.000  0.000  0.000  0.638
 
band    10 # energy   -5.64120390 # occ.  2.00000000
 
ion      s     py     pz     px    dxy    dyz    dz2    dxz  x2-y2    tot
    1  0.001  0.000  0.000  0.000  0.000  0.000  0.000  0.000  0.000  0.001
    2  0.001  0.001  0.001  0.000  0.000  0.000  0.000  0.000  0.000  0.003
    3  0.000  0.000  0.000  0.000  0.000  0.000  0.000  0.000  0.000  0.000
    4  0.001  0.000  0.000  0.002  0.000  0.000  0.000  0.000  0.000  0.003
    5  0.000  0.000  0.000  0.000  0.000  0.000  0.000  0.000  0.000  0.001
    6  0.000  0.000  0.001  0.000  0.000  0.000  0.000  0.000  0.000  0.001
    7  0.050  0.000  0.000  0.001  0.000  0.000  0.000  0.000  0.000  0.052
    8  0.149  0.006  0.001  0.000  0.000  0.000  0.000  0.000  0.000  0.155
    9  0.018  0.009  0.001  0.000  0.000  0.000  0.000  0.000  0.000  0.029
   10  0.029  0.000  0.010  0.000  0.000  0.000  0.000  0.000  0.000  0.040
   11  0.020  0.003  0.002  0.001  0.000  0.000  0.000  0.000  0.000  0.026
   12  0.077  0.007  0.003  0.007  0.000  0.000  0.000  0.000  0.000  0.094
   13  0.073  0.002  0.041  0.000  0.000  0.000  0.000  0.000  0.000  0.116
   14  0.025  0.011  0.012  0.000  0.000  0.000  0.000  0.000  0.000  0.048
   15  0.060  0.004  0.002  0.006  0.000  0.000  0.000  0.000  0.000  0.072
   16  0.028  0.001  0.001  0.002  0.000  0.000  0.000  0.000  0.000  0.032
tot    0.533  0.044  0.075  0.021  0.000  0.000  0.000  0.000  0.000  0.672
 
band    11 # energy   -3.05549156 # occ.  2.00000000
 
ion      s     py     pz     px    dxy    dyz    dz2    dxz  x2-y2    tot
    1  0.000  0.000  0.000  0.001  0.000  0.000  0.000  0.000  0.000  0.001
    2  0.001  0.000  0.000  0.000  0.000  0.000  0.000  0.000  0.000  0.001
    3  0.003  0.000  0.000  0.003  0.000  0.000  0.000  0.000  0.000  0.007
    4  0.000  0.000  0.000  0.001  0.000  0.000  0.000  0.000  0.000  0.002
    5  0.003  0.000  0.000  0.003  0.000  0.000  0.000  0.000  0.000  0.006
    6  0.000  0.000  0.001  0.000  0.000  0.000  0.000  0.000  0.000  0.001
    7  0.000  0.008  0.145  0.002  0.000  0.000  0.000  0.000  0.000  0.155
    8  0.000  0.000  0.003  0.000  0.000  0.000  0.000  0.000  0.000  0.003
    9  0.006  0.050  0.007  0.000  0.000  0.000  0.000  0.000  0.000  0.064
   10  0.027  0.001  0.161  0.001  0.000  0.000  0.000  0.000  0.000  0.189
   11  0.008  0.037  0.004  0.016  0.000  0.000  0.000  0.000  0.000  0.064
   12  0.000  0.000  0.000  0.000  0.000  0.000  0.000  0.000  0.000  0.001
   13  0.001  0.001  0.003  0.000  0.000  0.000  0.000  0.000  0.000  0.005
   14  0.000  0.001  0.000  0.000  0.000  0.000  0.000  0.000  0.000  0.001
   15  0.000  0.000  0.000  0.000  0.000  0.000  0.000  0.000  0.000  0.001
   16  0.000  0.002  0.019  0.002  0.000  0.000  0.000  0.000  0.000  0.024
tot    0.050  0.102  0.343  0.029  0.000  0.000  0.000  0.000  0.000  0.524
 
band    12 # energy   -2.98611041 # occ.  2.00000000
 
ion      s     py     pz     px    dxy    dyz    dz2    dxz  x2-y2    tot
    1  0.001  0.001  0.000  0.000  0.000  0.000  0.000  0.000  0.000  0.002
    2  0.005  0.000  0.001  0.000  0.000  0.000  0.000  0.000  0.000  0.006
    3  0.000  0.001  0.001  0.000  0.000  0.000  0.000  0.000  0.000  0.002
    4  0.000  0.001  0.000  0.001  0.000  0.000  0.000  0.000  0.000  0.002
    5  0.000  0.000  0.000  0.000  0.000  0.000  0.000  0.000  0.000  0.001
    6  0.004  0.000  0.000  0.000  0.000  0.000  0.000  0.000  0.000  0.005
    7  0.002  0.071  0.011  0.010  0.000  0.000  0.000  0.000  0.000  0.093
    8  0.003  0.028  0.029  0.000  0.000  0.000  0.000  0.000  0.000  0.060
    9  0.007  0.045  0.012  0.000  0.000  0.000  0.000  0.000  0.000  0.064
   10  0.000  0.010  0.010  0.001  0.000  0.000  0.000  0.000  0.000  0.021
   11  0.010  0.001  0.001  0.038  0.000  0.000  0.000  0.000  0.000  0.050
   12  0.013  0.004  0.000  0.033  0.000  0.000  0.000  0.000  0.000  0.050
   13  0.002  0.002  0.042  0.000  0.000  0.000  0.000  0.000  0.000  0.046
   14  0.002  0.000  0.012  0.000  0.000  0.000  0.000  0.000  0.000  0.015
   15  0.009  0.003  0.000  0.029  0.000  0.000  0.000  0.000  0.000  0.042
   16  0.013  0.001  0.001  0.069  0.000  0.000  0.000  0.000  0.000  0.084
tot    0.070  0.168  0.121  0.183  0.000  0.000  0.000  0.000  0.000  0.542
 
band    13 # energy   -2.83901063 # occ.  2.00000000
 
ion      s     py     pz     px    dxy    dyz    dz2    dxz  x2-y2    tot
    1  0.000  0.001  0.000  0.002  0.000  0.000  0.000  0.000  0.000  0.003
    2  0.000  0.000  0.000  0.000  0.000  0.000  0.000  0.000  0.000  0.000
    3  0.001  0.001  0.000  0.000  0.000  0.000  0.000  0.000  0.000  0.002
    4  0.004  0.000  0.000  0.000  0.000  0.000  0.000  0.000  0.000  0.005
    5  0.000  0.000  0.000  0.000  0.000  0.000  0.000  0.000  0.000  0.001
    6  0.000  0.001  0.002  0.000  0.000  0.000  0.000  0.000  0.000  0.003
    7  0.000  0.074  0.000  0.031  0.000  0.000  0.000  0.000  0.000  0.105
    8  0.001  0.005  0.049  0.005  0.000  0.000  0.000  0.000  0.000  0.060
    9  0.012  0.068  0.010  0.006  0.000  0.000  0.000  0.000  0.000  0.096
   10  0.001  0.004  0.000  0.003  0.000  0.000  0.000  0.000  0.000  0.008
   11  0.012  0.010  0.040  0.036  0.000  0.000  0.000  0.000  0.000  0.099
   12  0.007  0.019  0.005  0.021  0.000  0.000  0.000  0.000  0.000  0.052
   13  0.008  0.003  0.057  0.000  0.000  0.000  0.000  0.000  0.000  0.067
   14  0.003  0.013  0.004  0.000  0.000  0.000  0.000  0.000  0.000  0.020
   15  0.003  0.001  0.002  0.007  0.000  0.000  0.000  0.000  0.000  0.013
   16  0.002  0.014  0.001  0.001  0.000  0.000  0.000  0.000  0.000  0.018
tot    0.055  0.214  0.170  0.113  0.000  0.000  0.000  0.000  0.000  0.552
 
band    14 # energy   -2.64088082 # occ.  2.00000000
 
ion      s     py     pz     px    dxy    dyz    dz2    dxz  x2-y2    tot
    1  0.005  0.000  0.000  0.000  0.000  0.000  0.000  0.000  0.000  0.005
    2  0.004  0.000  0.000  0.001  0.000  0.000  0.000  0.000  0.000  0.005
    3  0.001  0.000  0.000  0.000  0.000  0.000  0.000  0.000  0.000  0.001
    4  0.000  0.000  0.000  0.003  0.000  0.000  0.000  0.000  0.000  0.004
    5  0.000  0.000  0.001  0.001  0.000  0.000  0.000  0.000  0.000  0.002
    6  0.000  0.000  0.000  0.000  0.000  0.000  0.000  0.000  0.000  0.001
    7  0.000  0.000  0.000  0.113  0.000  0.000  0.000  0.000  0.000  0.114
    8  0.000  0.000  0.049  0.001  0.000  0.000  0.000  0.000  0.000  0.050
    9  0.000  0.001  0.000  0.025  0.000  0.000  0.000  0.000  0.000  0.026
   10  0.000  0.000  0.002  0.019  0.000  0.000  0.000  0.000  0.000  0.022
   11  0.011  0.028  0.016  0.001  0.000  0.000  0.000  0.000  0.000  0.056
   12  0.001  0.002  0.001  0.002  0.000  0.000  0.000  0.000  0.000  0.005
   13  0.009  0.002  0.052  0.002  0.000  0.000  0.000  0.000  0.000  0.066
   14  0.002  0.024  0.000  0.003  0.000  0.000  0.000  0.000  0.000  0.029
   15  0.003  0.009  0.001  0.006  0.000  0.000  0.000  0.000  0.000  0.019
   16  0.027  0.023  0.009  0.083  0.000  0.000  0.000  0.000  0.000  0.142
tot    0.063  0.090  0.132  0.261  0.000  0.000  0.000  0.000  0.000  0.546
 
band    15 # energy   -2.32829974 # occ.  2.00000000
 
ion      s     py     pz     px    dxy    dyz    dz2    dxz  x2-y2    tot
    1  0.001  0.001  0.001  0.000  0.000  0.000  0.000  0.000  0.000  0.003
    2  0.002  0.003  0.007  0.000  0.000  0.000  0.000  0.000  0.000  0.012
    3  0.001  0.000  0.000  0.001  0.000  0.000  0.000  0.000  0.000  0.002
    4  0.000  0.000  0.001  0.000  0.000  0.000  0.000  0.000  0.000  0.001
    5  0.000  0.000  0.001  0.000  0.000  0.000  0.000  0.000  0.000  0.001
    6  0.000  0.000  0.001  0.000  0.000  0.000  0.000  0.000  0.000  0.001
    7  0.000  0.008  0.002  0.007  0.000  0.000  0.000  0.000  0.000  0.016
    8  0.001  0.128  0.024  0.000  0.000  0.000  0.000  0.000  0.000  0.154
    9  0.002  0.006  0.004  0.001  0.000  0.000  0.000  0.000  0.000  0.013
   10  0.001  0.001  0.002  0.001  0.000  0.000  0.000  0.000  0.000  0.005
   11  0.000  0.001  0.000  0.003  0.000  0.000  0.000  0.000  0.000  0.004
   12  0.009  0.001  0.020  0.045  0.000  0.000  0.000  0.000  0.000  0.075
   13  0.000  0.030  0.000  0.000  0.000  0.000  0.000  0.000  0.000  0.030
   14  0.025  0.090  0.042  0.000  0.000  0.000  0.000  0.000  0.000  0.157
   15  0.006  0.003  0.016  0.024  0.000  0.000  0.000  0.000  0.000  0.049
   16  0.004  0.000  0.002  0.013  0.000  0.000  0.000  0.000  0.000  0.020
tot    0.053  0.272  0.123  0.095  0.000  0.000  0.000  0.000  0.000  0.543
 
band    16 # energy   -2.14701104 # occ.  2.00000000
 
ion      s     py     pz     px    dxy    dyz    dz2    dxz  x2-y2    tot
    1  0.000  0.000  0.000  0.001  0.000  0.000  0.000  0.000  0.000  0.001
    2  0.000  0.000  0.000  0.000  0.000  0.000  0.000  0.000  0.000  0.000
    3  0.002  0.001  0.000  0.000  0.000  0.000  0.000  0.000  0.000  0.003
    4  0.001  0.001  0.001  0.001  0.000  0.000  0.000  0.000  0.000  0.003
    5  0.000  0.001  0.000  0.000  0.000  0.000  0.000  0.000  0.000  0.002
    6  0.000  0.000  0.000  0.000  0.000  0.000  0.000  0.000  0.000  0.000
    7  0.000  0.002  0.000  0.004  0.000  0.000  0.000  0.000  0.000  0.006
    8  0.000  0.000  0.001  0.161  0.000  0.000  0.000  0.000  0.000  0.162
    9  0.001  0.002  0.000  0.000  0.000  0.000  0.000  0.000  0.000  0.004
   10  0.000  0.001  0.001  0.004  0.000  0.000  0.000  0.000  0.000  0.005
   11  0.002  0.001  0.003  0.002  0.000  0.000  0.000  0.000  0.000  0.007
   12  0.025  0.068  0.026  0.024  0.000  0.000  0.000  0.000  0.000  0.143
   13  0.000  0.000  0.002  0.050  0.000  0.000  0.000  0.000  0.000  0.052
   14  0.000  0.001  0.000  0.013  0.000  0.000  0.000  0.000  0.000  0.014
   15  0.030  0.046  0.018  0.045  0.000  0.000  0.000  0.000  0.000  0.140
   16  0.000  0.000  0.002  0.002  0.000  0.000  0.000  0.000  0.000  0.005
tot    0.061  0.123  0.055  0.308  0.000  0.000  0.000  0.000  0.000  0.546
 
band    17 # energy   -0.70509252 # occ.  2.00000000
 
ion      s     py     pz     px    dxy    dyz    dz2    dxz  x2-y2    tot
    1  0.007  0.001  0.002  0.002  0.000  0.000  0.000  0.000  0.000  0.012
    2  0.001  0.000  0.000  0.001  0.000  0.000  0.000  0.000  0.000  0.002
    3  0.002  0.000  0.000  0.000  0.000  0.000  0.000  0.000  0.000  0.003
    4  0.013  0.001  0.003  0.000  0.000  0.000  0.000  0.000  0.000  0.018
    5  0.005  0.000  0.001  0.000  0.000  0.000  0.000  0.000  0.000  0.006
    6  0.001  0.000  0.000  0.003  0.000  0.000  0.000  0.000  0.000  0.004
    7  0.001  0.001  0.000  0.003  0.000  0.000  0.000  0.000  0.000  0.005
    8  0.000  0.000  0.001  0.009  0.000  0.000  0.000  0.000  0.000  0.010
    9  0.001  0.001  0.001  0.110  0.000  0.000  0.000  0.000  0.000  0.113
   10  0.000  0.000  0.001  0.043  0.000  0.000  0.000  0.000  0.000  0.044
   11  0.001  0.029  0.029  0.005  0.000  0.000  0.000  0.000  0.000  0.064
   12  0.001  0.010  0.001  0.018  0.000  0.000  0.000  0.000  0.000  0.029
   13  0.000  0.008  0.008  0.052  0.000  0.000  0.000  0.000  0.000  0.068
   14  0.000  0.007  0.001  0.025  0.000  0.000  0.000  0.000  0.000  0.033
   15  0.000  0.012  0.002  0.015  0.000  0.000  0.000  0.000  0.000  0.030
   16  0.002  0.008  0.004  0.033  0.000  0.000  0.000  0.000  0.000  0.048
tot    0.034  0.080  0.056  0.319  0.000  0.000  0.000  0.000  0.000  0.489
 
band    18 # energy   -0.49553794 # occ.  2.00000000
 
ion      s     py     pz     px    dxy    dyz    dz2    dxz  x2-y2    tot
    1  0.000  0.003  0.004  0.006  0.000  0.000  0.000  0.000  0.000  0.013
    2  0.000  0.000  0.000  0.001  0.000  0.000  0.000  0.000  0.000  0.002
    3  0.001  0.000  0.009  0.000  0.000  0.000  0.000  0.000  0.000  0.010
    4  0.001  0.001  0.005  0.001  0.000  0.000  0.000  0.000  0.000  0.007
    5  0.001  0.000  0.007  0.000  0.000  0.000  0.000  0.000  0.000  0.009
    6  0.000  0.001  0.000  0.001  0.000  0.000  0.000  0.000  0.000  0.001
    7  0.000  0.001  0.000  0.000  0.000  0.000  0.000  0.000  0.000  0.001
    8  0.000  0.001  0.000  0.002  0.000  0.000  0.000  0.000  0.000  0.003
    9  0.000  0.000  0.039  0.076  0.000  0.000  0.000  0.000  0.000  0.115
   10  0.000  0.014  0.000  0.062  0.000  0.000  0.000  0.000  0.000  0.076
   11  0.001  0.018  0.003  0.005  0.000  0.000  0.000  0.000  0.000  0.026
   12  0.001  0.005  0.003  0.000  0.000  0.000  0.000  0.000  0.000  0.009
   13  0.000  0.010  0.000  0.026  0.000  0.000  0.000  0.000  0.000  0.036
   14  0.001  0.000  0.000  0.086  0.000  0.000  0.000  0.000  0.000  0.087
   15  0.001  0.000  0.002  0.002  0.000  0.000  0.000  0.000  0.000  0.005
   16  0.000  0.000  0.059  0.003  0.000  0.000  0.000  0.000  0.000  0.063
tot    0.008  0.053  0.133  0.270  0.000  0.000  0.000  0.000  0.000  0.464
 
band    19 # energy   -0.32238288 # occ.  2.00000000
 
ion      s     py     pz     px    dxy    dyz    dz2    dxz  x2-y2    tot
    1  0.005  0.000  0.002  0.001  0.000  0.000  0.000  0.000  0.000  0.007
    2  0.003  0.000  0.001  0.009  0.000  0.000  0.000  0.000  0.000  0.013
    3  0.008  0.000  0.000  0.002  0.000  0.000  0.000  0.000  0.000  0.011
    4  0.000  0.000  0.000  0.000  0.000  0.000  0.000  0.000  0.000  0.000
    5  0.000  0.000  0.001  0.000  0.000  0.000  0.000  0.000  0.000  0.001
    6  0.002  0.003  0.000  0.001  0.000  0.000  0.000  0.000  0.000  0.006
    7  0.000  0.003  0.000  0.007  0.000  0.000  0.000  0.000  0.000  0.011
    8  0.000  0.000  0.002  0.000  0.000  0.000  0.000  0.000  0.000  0.003
    9  0.002  0.003  0.035  0.006  0.000  0.000  0.000  0.000  0.000  0.045
   10  0.000  0.015  0.000  0.015  0.000  0.000  0.000  0.000  0.000  0.031
   11  0.000  0.018  0.011  0.104  0.000  0.000  0.000  0.000  0.000  0.134
   12  0.000  0.010  0.017  0.015  0.000  0.000  0.000  0.000  0.000  0.042
   13  0.000  0.049  0.003  0.004  0.000  0.000  0.000  0.000  0.000  0.056
   14  0.001  0.007  0.021  0.037  0.000  0.000  0.000  0.000  0.000  0.065
   15  0.001  0.009  0.000  0.011  0.000  0.000  0.000  0.000  0.000  0.021
   16  0.000  0.020  0.000  0.016  0.000  0.000  0.000  0.000  0.000  0.036
tot    0.024  0.136  0.093  0.229  0.000  0.000  0.000  0.000  0.000  0.483
 
band    20 # energy   -0.11419724 # occ.  2.00000000
 
ion      s     py     pz     px    dxy    dyz    dz2    dxz  x2-y2    tot
    1  0.000  0.000  0.001  0.001  0.000  0.000  0.000  0.000  0.000  0.002
    2  0.003  0.000  0.000  0.003  0.000  0.000  0.000  0.000  0.000  0.008
    3  0.001  0.000  0.000  0.000  0.000  0.000  0.000  0.000  0.000  0.001
    4  0.008  0.001  0.001  0.000  0.000  0.000  0.000  0.000  0.000  0.009
    5  0.000  0.000  0.003  0.003  0.000  0.000  0.000  0.000  0.000  0.006
    6  0.006  0.000  0.001  0.001  0.000  0.000  0.000  0.000  0.000  0.007
    7  0.003  0.000  0.007  0.003  0.000  0.000  0.000  0.000  0.000  0.013
    8  0.000  0.000  0.003  0.003  0.000  0.000  0.000  0.000  0.000  0.006
    9  0.000  0.000  0.037  0.006  0.000  0.000  0.000  0.000  0.000  0.044
   10  0.001  0.025  0.043  0.014  0.000  0.000  0.000  0.000  0.000  0.083
   11  0.000  0.002  0.079  0.020  0.000  0.000  0.000  0.000  0.000  0.102
   12  0.000  0.000  0.093  0.001  0.000  0.000  0.000  0.000  0.000  0.095
   13  0.000  0.046  0.008  0.011  0.000  0.000  0.000  0.000  0.000  0.065
   14  0.000  0.000  0.011  0.004  0.000  0.000  0.000  0.000  0.000  0.015
   15  0.000  0.001  0.006  0.000  0.000  0.000  0.000  0.000  0.000  0.007
   16  0.001  0.002  0.029  0.009  0.000  0.000  0.000  0.000  0.000  0.041
tot    0.023  0.079  0.323  0.079  0.000  0.000  0.000  0.000  0.000  0.505
 
band    21 # energy    0.04739072 # occ.  2.00000000
 
ion      s     py     pz     px    dxy    dyz    dz2    dxz  x2-y2    tot
    1  0.002  0.000  0.000  0.001  0.000  0.000  0.000  0.000  0.000  0.003
    2  0.002  0.002  0.001  0.002  0.000  0.000  0.000  0.000  0.000  0.006
    3  0.000  0.000  0.001  0.002  0.000  0.000  0.000  0.000  0.000  0.003
    4  0.000  0.000  0.000  0.002  0.000  0.000  0.000  0.000  0.000  0.002
    5  0.002  0.000  0.000  0.001  0.000  0.000  0.000  0.000  0.000  0.003
    6  0.001  0.005  0.001  0.000  0.000  0.000  0.000  0.000  0.000  0.007
    7  0.000  0.001  0.000  0.000  0.000  0.000  0.000  0.000  0.000  0.002
    8  0.001  0.000  0.006  0.000  0.000  0.000  0.000  0.000  0.000  0.007
    9  0.000  0.002  0.055  0.010  0.000  0.000  0.000  0.000  0.000  0.067
   10  0.000  0.002  0.002  0.004  0.000  0.000  0.000  0.000  0.000  0.008
   11  0.000  0.025  0.005  0.047  0.000  0.000  0.000  0.000  0.000  0.077
   12  0.000  0.024  0.017  0.038  0.000  0.000  0.000  0.000  0.000  0.079
   13  0.004  0.024  0.001  0.003  0.000  0.000  0.000  0.000  0.000  0.032
   14  0.000  0.011  0.063  0.002  0.000  0.000  0.000  0.000  0.000  0.077
   15  0.000  0.038  0.010  0.034  0.000  0.000  0.000  0.000  0.000  0.082
   16  0.000  0.020  0.001  0.000  0.000  0.000  0.000  0.000  0.000  0.021