  19  19   0   0
  0.2504161E+02  0.6834254E-09  0.8835925E-09  0.7880486E-09  0.5000000E-15
   1.0000000000000000E-004
  CAR 
 endpoint_relax_bottleneck               
     11.19041655    -24.02626957  301      0.95125184      1.00000000
    -24.026  0.0000E+00  0.0000E+00
    -23.909  0.0000E+00  0.0000E+00
    -23.791  0.0000E+00  0.0000E+00
    -23.674 -0.5843E-30 -0.6859E-31
    -23.557 -0.6258E-26 -0.7346E-27
    -23.439 -0.3354E-22 -0.3938E-23
    -23.322 -0.8990E-19 -0.1056E-19
    -23.205 -0.1172E-15 -0.1377E-16
    -23.087 -0.7767E-13 -0.9132E-14
    -22.970 -0.2561E-10 -0.3015E-11
    -22.852 -0.4173E-08 -0.4928E-09
    -22.735 -0.3333E-06 -0.3962E-07
    -22.618 -0.1285E-04 -0.1548E-05
    -22.500 -0.2313E-03 -0.2869E-04
    -22.383 -0.1782E-02 -0.2379E-03
    -22.265 -0.4017E-02 -0.7094E-03
    -22.148  0.1099E-01  0.5804E-03
    -22.031  0.5722E-01  0.7298E-02
    -21.913  0.8830E-01  0.1766E-01
    -21.796  0.8247E-01  0.2734E-01
    -21.678  0.6960E-01  0.3551E-01
    -21.561  0.1418E+00  0.5215E-01
    -21.444  0.3135E+00  0.8895E-01
    -21.326  0.3804E+00  0.1336E+00
    -21.209  0.2906E+00  0.1677E+00
    -21.092  0.1175E+00  0.1815E+00
    -20.974  0.2297E-02  0.1818E+00
    -20.857 -0.1190E-01  0.1804E+00
    -20.739 -0.3004E-02  0.1800E+00
    -20.622 -0.2851E-03  0.1800E+00
    -20.505 -0.1219E-04  0.1800E+00
    -20.387 -0.2487E-06  0.1800E+00
    -20.270 -0.2476E-08  0.1800E+00
    -20.152 -0.1218E-10  0.1800E+00
    -20.035 -0.2986E-13  0.1800E+00
    -19.918 -0.2522E-16  0.1800E+00
    -19.800  0.0000E+00  0.1800E+00
    -19.683  0.0000E+00  0.1800E+00
    -19.565  0.0000E+00  0.1800E+00
    -19.448  0.0000E+00  0.1800E+00
    -19.331  0.0000E+00  0.1800E+00
    -19.213  0.0000E+00  0.1800E+00
    -19.096  0.0000E+00  0.1800E+00
    -18.979  0.0000E+00  0.1800E+00
    -18.861  0.0000E+00  0.1800E+00
    -18.744  0.0000E+00  0.1800E+00
    -18.626  0.0000E+00  0.1800E+00
    -18.509  0.0000E+00  0.1800E+00
    -18.392  0.0000E+00  0.1800E+00
    -18.274  0.0000E+00  0.1800E+00
    -18.157  0.0000E+00  0.1800E+00
    -18.039  0.0000E+00  0.1800E+00
    -17.922  0.0000E+00  0.1800E+00
    -17.805  0.0000E+00  0.1800E+00
    -17.687  0.0000E+00  0.1800E+00
    -17.570  0.0000E+00  0.1800E+00
    -17.452  0.0000E+00  0.1800E+00
    -17.335  0.0000E+00  0.1800E+00
    -17.218  0.0000E+00  0.1800E+00
    -17.100  0.0000E+00  0.1800E+00
    -16.983  0.0000E+00  0.1800E+00
    -16.866  0.0000E+00  0.1800E+00
    -16.748  0.0000E+00  0.1800E+00
    -16.631  0.0000E+00  0.1800E+00
    -16.513  0.0000E+00  0.1800E+00
    -16.396  0.0000E+00  0.1800E+00
    -16.279  0.0000E+00  0.1800E+00
    -16.161  0.0000E+00  0.1800E+00
    -16.044  0.0000E+00  0.1800E+00
    -15.926  0.0000E+00  0.1800E+00
    -15.809  0.0000E+00  0.1800E+00
    -15.692  0.0000E+00  0.1800E+00
    -15.574  0.0000E+00  0.1800E+00
    -15.457  0.0000E+00  0.1800E+00
    -15.339  0.0000E+00  0.1800E+00
    -15.222  0.0000E+00  0.1800E+00
    -15.105  0.0000E+00  0.1800E+00
    -14.987  0.0000E+00  0.1800E+00
    -14.870  0.0000E+00  0.1800E+00
    -14.753  0.0000E+00  0.1800E+00
    -14.635  0.0000E+00  0.1800E+00
    -14.518  0.0000E+00  0.1800E+00
    -14.400  0.0000E+00  0.1800E+00
    -14.283 -0.1485E-31  0.1800E+00
    -14.166 -0.2474E-27  0.1800E+00
    -14.048 -0.1767E-23  0.1800E+00
    -13.931 -0.6334E-20  0.1800E+00
    -13.813 -0.1138E-16  0.1800E+00
    -13.696 -0.9909E-14  0.1800E+00
    -13.579 -0.4418E-11  0.1800E+00
    -13.461 -0.9787E-09  0.1800E+00
    -13.344 -0.1070E-06  0.1800E+00
    -13.226 -0.5699E-05  0.1800E+00
    -13.109 -0.1445E-03  0.1800E+00
    -12.992 -0.1650E-02  0.1798E+00
    -12.874 -0.7095E-02  0.1790E+00
    -12.757  0.8449E-03  0.1791E+00
    -12.640  0.7305E-01  0.1876E+00
    -12.522  0.1670E+00  0.2072E+00
    -12.405  0.1740E+00  0.2277E+00
    -12.287  0.1209E+00  0.2418E+00
    -12.170  0.4729E-01  0.2474E+00
    -12.053  0.1041E-03  0.2474E+00
    -11.935 -0.5042E-02  0.2468E+00
    -11.818 -0.1207E-02  0.2467E+00
    -11.700 -0.1092E-03  0.2467E+00
    -11.583 -0.4448E-05  0.2467E+00
    -11.466 -0.8602E-07  0.2467E+00
    -11.348 -0.8090E-09  0.2467E+00
    -11.231 -0.6970E-11  0.2467E+00
    -11.113 -0.6131E-09  0.2467E+00
    -10.996 -0.5690E-07  0.2467E+00
    -10.879 -0.2541E-05  0.2467E+00
    -10.761 -0.5294E-04  0.2467E+00
    -10.644 -0.4780E-03  0.2466E+00
    -10.527 -0.1403E-02  0.2464E+00
    -10.409  0.2280E-02  0.2467E+00
    -10.292  0.1719E-01  0.2487E+00
    -10.174  0.2968E-01  0.2522E+00
    -10.057  0.3142E-01  0.2559E+00
     -9.940  0.2598E-01  0.2589E+00
     -9.822  0.8245E-02  0.2599E+00
     -9.705 -0.5113E-02  0.2593E+00
     -9.587  0.1027E-01  0.2605E+00
     -9.470  0.7385E-01  0.2692E+00
     -9.353  0.1351E+00  0.2851E+00
     -9.235  0.1059E+00  0.2975E+00
     -9.118  0.2958E-01  0.3010E+00
     -9.000 -0.3913E-02  0.3005E+00
     -8.883 -0.3537E-02  0.3001E+00
     -8.766 -0.6434E-03  0.3000E+00
     -8.648 -0.4939E-04  0.3000E+00
     -8.531 -0.1782E-05  0.3000E+00
     -8.414 -0.3128E-07  0.3000E+00
     -8.296 -0.2708E-09  0.3000E+00
     -8.179 -0.1164E-11  0.3000E+00
     -8.061 -0.2484E-14  0.3000E+00
     -7.944  0.0000E+00  0.3000E+00
     -7.827  0.0000E+00  0.3000E+00
     -7.709  0.0000E+00  0.3000E+00
     -7.592  0.0000E+00  0.3000E+00
     -7.474  0.0000E+00  0.3000E+00
     -7.357  0.0000E+00  0.3000E+00
     -7.240  0.0000E+00  0.3000E+00
     -7.122  0.0000E+00  0.3000E+00
     -7.005  0.0000E+00  0.3000E+00
     -6.887  0.0000E+00  0.3000E+00
     -6.770  0.0000E+00  0.3000E+00
     -6.653  0.0000E+00  0.3000E+00
     -6.535  0.0000E+00  0.3000E+00
     -6.418  0.0000E+00  0.3000E+00
     -6.301  0.0000E+00  0.3000E+00
     -6.183  0.0000E+00  0.3000E+00
     -6.066  0.0000E+00  0.3000E+00
     -5.948  0.0000E+00  0.3000E+00
     -5.831  0.0000E+00  0.3000E+00
     -5.714  0.0000E+00  0.3000E+00
     -5.596  0.0000E+00  0.3000E+00
     -5.479  0.0000E+00  0.3000E+00
     -5.361  0.0000E+00  0.3000E+00
     -5.244  0.0000E+00  0.3000E+00
     -5.127  0.0000E+00  0.3000E+00
     -5.009 -0.3963E-29  0.3000E+00
     -4.892 -0.3522E-25  0.3000E+00
     -4.774 -0.1562E-21  0.3000E+00
     -4.657 -0.3451E-18  0.3000E+00
     -4.540 -0.3670E-15  0.3000E+00
     -4.422 -0.1997E-12  0.3000E+00
     -4.305 -0.5346E-10  0.3000E+00
     -4.188 -0.7019E-08  0.3000E+00
     -4.070 -0.4470E-06  0.3000E+00
     -3.953 -0.1352E-04  0.3000E+00
     -3.835 -0.1852E-03  0.3000E+00
     -3.718 -0.1000E-02  0.2999E+00
     -3.601 -0.6853E-03  0.2998E+00
     -3.483  0.9062E-02  0.3008E+00
     -3.366  0.2480E-01  0.3038E+00
     -3.248  0.2935E-01  0.3072E+00
     -3.131  0.2909E-01  0.3106E+00
     -3.014  0.2059E-01  0.3130E+00
     -2.896  0.4655E-02  0.3136E+00
     -2.779 -0.1327E-02  0.3134E+00
     -2.661 -0.6672E-03  0.3133E+00
     -2.544 -0.8994E-04  0.3133E+00
     -2.427 -0.5094E-05  0.3133E+00
     -2.309 -0.1426E-06  0.3133E+00
     -2.192 -0.5695E-06  0.3133E+00
     -2.075 -0.1646E-04  0.3133E+00
     -1.957 -0.2173E-03  0.3133E+00
     -1.840 -0.1153E-02  0.3132E+00
     -1.722 -0.9902E-03  0.3131E+00
     -1.605  0.9424E-02  0.3142E+00
     -1.488  0.2954E-01  0.3176E+00
     -1.370  0.3991E-01  0.3223E+00
     -1.253  0.4734E-01  0.3279E+00
     -1.135  0.7021E-01  0.3361E+00
     -1.018  0.6746E-01  0.3440E+00
     -0.901  0.2525E-01  0.3470E+00
     -0.783  0.8945E-02  0.3480E+00
     -0.666  0.2236E-01  0.3507E+00
     -0.548  0.1712E-01  0.3527E+00
     -0.431  0.3535E-02  0.3531E+00
     -0.314  0.2440E-01  0.3560E+00
     -0.196  0.7466E-01  0.3647E+00
     -0.079  0.1041E+00  0.3769E+00
      0.038  0.8791E-01  0.3873E+00
      0.156  0.7142E-01  0.3957E+00
      0.273  0.9522E-01  0.4068E+00
      0.391  0.1004E+00  0.4186E+00
      0.508  0.6784E-01  0.4266E+00
      0.625  0.5219E-01  0.4327E+00
      0.743  0.6903E-01  0.4408E+00
      0.860  0.8453E-01  0.4507E+00
      0.978  0.6053E-01  0.4578E+00
      1.095  0.2104E-01  0.4603E+00
      1.212  0.2595E-03  0.4603E+00
      1.330 -0.2174E-02  0.4601E+00
      1.447 -0.6045E-03  0.4600E+00
      1.565 -0.6485E-04  0.4600E+00
      1.682 -0.3148E-05  0.4600E+00
      1.799 -0.7245E-07  0.4600E+00
      1.917 -0.8073E-09  0.4600E+00
      2.034 -0.4623E-11  0.4600E+00
      2.151 -0.5796E-10  0.4600E+00
      2.269 -0.7524E-08  0.4600E+00
      2.386 -0.4737E-06  0.4600E+00
      2.504 -0.1415E-04  0.4600E+00
      2.621 -0.1912E-03  0.4600E+00
      2.738 -0.1006E-02  0.4599E+00
      2.856 -0.4701E-03  0.4598E+00
      2.973  0.1023E-01  0.4610E+00
      3.091  0.2572E-01  0.4640E+00
      3.208  0.2044E-01  0.4664E+00
      3.325  0.4052E-02  0.4669E+00
      3.443 -0.1324E-02  0.4667E+00
      3.560 -0.5749E-03  0.4667E+00
      3.678 -0.1042E-03  0.4667E+00
      3.795 -0.3523E-03  0.4666E+00
      3.912 -0.1275E-02  0.4665E+00
      4.030  0.1244E-02  0.4666E+00
      4.147  0.1548E-01  0.4684E+00
      4.264  0.2691E-01  0.4716E+00
      4.382  0.1530E-01  0.4734E+00
      4.499  0.1166E-02  0.4735E+00
      4.617 -0.1269E-02  0.4734E+00
      4.734 -0.3421E-03  0.4733E+00
      4.851 -0.3797E-04  0.4733E+00
      4.969 -0.9838E-04  0.4733E+00
      5.086 -0.6962E-03  0.4732E+00
      5.204 -0.1257E-02  0.4731E+00
      5.321  0.5217E-02  0.4737E+00
      5.438  0.2046E-01  0.4761E+00
      5.556  0.2448E-01  0.4790E+00
      5.673  0.2716E-01  0.4822E+00
      5.791  0.4588E-01  0.4876E+00
      5.908  0.5095E-01  0.4935E+00
      6.025  0.4603E-01  0.4989E+00
      6.143  0.5100E-01  0.5049E+00
      6.260  0.4796E-01  0.5106E+00
      6.377  0.2254E-01  0.5132E+00
      6.495  0.3170E-02  0.5136E+00
      6.612  0.1200E-01  0.5150E+00
      6.730  0.2399E-01  0.5178E+00
      6.847  0.2069E-01  0.5202E+00
      6.964  0.3398E-01  0.5242E+00
      7.082  0.6495E-01  0.5318E+00
      7.199  0.7229E-01  0.5403E+00
      7.317  0.4384E-01  0.5455E+00
      7.434  0.1550E-01  0.5473E+00
      7.551  0.1687E-01  0.5493E+00
      7.669  0.2969E-01  0.5528E+00
      7.786  0.5181E-01  0.5588E+00
      7.904  0.7054E-01  0.5671E+00
      8.021  0.4640E-01  0.5726E+00
      8.138  0.2266E-01  0.5752E+00
      8.256  0.3553E-01  0.5794E+00
      8.373  0.5083E-01  0.5854E+00
      8.490  0.5992E-01  0.5924E+00
      8.608  0.6971E-01  0.6006E+00
      8.725  0.7799E-01  0.6097E+00
      8.843  0.6518E-01  0.6174E+00
      8.960  0.4531E-01  0.6227E+00
      9.077  0.5731E-01  0.6294E+00
      9.195  0.5963E-01  0.6364E+00
      9.312  0.2979E-01  0.6399E+00
      9.430  0.3839E-02  0.6404E+00
      9.547 -0.2221E-02  0.6401E+00
      9.664 -0.8800E-03  0.6400E+00
      9.782 -0.1163E-03  0.6400E+00
      9.899 -0.6759E-05  0.6400E+00
     10.017 -0.1846E-06  0.6400E+00
     10.134 -0.2429E-08  0.6400E+00
     10.251 -0.1562E-10  0.6400E+00
     10.369 -0.4944E-13  0.6400E+00
     10.486 -0.7566E-16  0.6400E+00
     10.603  0.0000E+00  0.6400E+00
     10.721  0.0000E+00  0.6400E+00
     10.838  0.0000E+00  0.6400E+00
     10.956  0.0000E+00  0.6400E+00
     11.073  0.0000E+00  0.6400E+00
     11.190  0.0000E+00  0.6400E+00
