 vasp.6.3.2 27Jun22 (build Jun 14 2024 17:29:11) complex                         
 executed on             LinuxGNU date 2026.04.03  19:49:11
 running on   16 total cores
 distrk:  each k-point on   16 cores,    1 groups
 distr:  one band on NCORE=   1 cores,   16 groups


--------------------------------------------------------------------------------------------------------


 INCAR:
   SYSTEM = endpoint_relax_bottleneck
   ENCUT = 500
   EDIFF = 1E-06
   PREC = Accurate
   ALGO = Fast
   LREAL = .FALSE.
   ADDGRID = .TRUE.
   ISYM = 0
   IBRION = 2
   ISIF = 2
   NSW = 300
   EDIFFG = -0.02
   LWAVE = .TRUE.
   LCHARG = .FALSE.

 POTCAR:    PAW_PBE Na_pv 19Sep2006               
 POTCAR:    PAW_PBE In_d 06Sep2000                
 POTCAR:    PAW_PBE S 06Sep2000                   
 -----------------------------------------------------------------------------
|                                                                             |
|           W    W    AA    RRRRR   N    N  II  N    N   GGGG   !!!           |
|           W    W   A  A   R    R  NN   N  II  NN   N  G    G  !!!           |
|           W    W  A    A  R    R  N N  N  II  N N  N  G       !!!           |
|           W WW W  AAAAAA  RRRRR   N  N N  II  N  N N  G  GGG   !            |
|           WW  WW  A    A  R   R   N   NN  II  N   NN  G    G                |
|           W    W  A    A  R    R  N    N  II  N    N   GGGG   !!!           |
|                                                                             |
|     For optimal performance we recommend to set                             |
|       NCORE = 2 up to number-of-cores-per-socket                            |
|     NCORE specifies how many cores store one orbital (NPAR=cpu/NCORE).      |
|     This setting can greatly improve the performance of VASP for DFT.       |
|     The default, NCORE=1 might be grossly inefficient on modern             |
|     multi-core architectures or massively parallel machines. Do your        |
|     own testing! More info at https://www.vasp.at/wiki/index.php/NCORE      |
|     Unfortunately you need to use the default for GW and RPA                |
|     calculations (for HF NCORE is supported but not extensively tested      |
|     yet).                                                                   |
|                                                                             |
 -----------------------------------------------------------------------------

 POTCAR:    PAW_PBE Na_pv 19Sep2006               
   SHA256 =  6a2f546d9e11350984debacf3dc457d8cffc0868e817d445faca461816a32b94 Na_pv/POTCAR          
   COPYR  = (c) Copyright 19Sep2006 Georg Kresse                                                    
   COPYR  = This file is part of the software VASP. Any use, copying, and all other rights are regul
   COPYR  = If you do not have a valid VASP license, you may not use, copy or distribute this file. 
   VRHFIN =Na: p6s1                                                                                 
   LEXCH  = PE                                                                                      
   EATOM  =   766.0439 eV,   56.3026 Ry                                                             
                                                                                                    
   TITEL  = PAW_PBE Na_pv 19Sep2006                                                                 
   LULTRA =        F    use ultrasoft PP ?                                                          
   IUNSCR =        1    unscreen: 0-lin 1-nonlin 2-no                                               
   RPACOR =    1.800    partial core radius                                                         
   POMASS =   22.990; ZVAL   =    7.000    mass and valenz                                          
   RCORE  =    2.200    outmost cutoff radius                                                       
   RWIGS  =    2.200; RWIGS  =    1.164    wigner-seitz radius (au A)                               
   ENMAX  =  259.561; ENMIN  =  194.671 eV                                                          
   ICORE  =        2    local potential                                                             
   LCOR   =        T    correct aug charges                                                         
   LPAW   =        T    paw PP                                                                      
   EAUG   =  368.056                                                                                
   DEXC   =    0.000                                                                                
   RMAX   =    2.245    core radius for proj-oper                                                   
   RAUG   =    1.300    factor for augmentation sphere                                              
   RDEP   =    2.259    radius for radial grids                                                     
   RDEPT  =    1.738    core radius for aug-charge                                                  
                                                                                                    
   Atomic configuration                                                                             
    5 entries                                                                                       
     n  l   j            E        occ.                                                              
     1  0  0.50     -1033.6933   2.0000                                                             
     2  0  0.50       -56.7526   2.0000                                                             
     2  1  1.50       -28.6721   6.0000                                                             
     3  0  0.50        -2.7440   1.0000                                                             
     3  2  1.50        -1.3606   0.0000                                                             
   Description                                                                                      
     l       E           TYP  RCUT    TYP  RCUT                                                     
     1    -28.6720912     23  2.000                                                                 
     1      6.8029130     23  2.000                                                                 
     0     -2.7439560     23  2.200                                                                 
     0     34.0145650     23  2.200                                                                 
     2     -1.3605826     23  2.200                                                                 
  local pseudopotential read in
  partial core-charges read in
  partial kinetic energy density read in
  atomic valenz-charges read in
  non local Contribution for L=           1  read in
    real space projection operators read in
  non local Contribution for L=           1  read in
    real space projection operators read in
  non local Contribution for L=           0  read in
    real space projection operators read in
  non local Contribution for L=           0  read in
    real space projection operators read in
    PAW grid and wavefunctions read in

   number of l-projection  operators is LMAX  =           4
   number of lm-projection operators is LMMAX =           8

 POTCAR:    PAW_PBE In_d 06Sep2000                
   SHA256 =  bef4eefb233e1f458c7ef2e09e39e7114bb5a6a38c7ac356915527764429c513 In_d/POTCAR           
   COPYR  = (c) Copyright 06Sep2000 Georg Kresse                                                    
   COPYR  = This file is part of the software VASP. Any use, copying, and all other rights are regul
   COPYR  = If you do not have a valid VASP license, you may not use, copy or distribute this file. 
   VRHFIN =In: s2p1                                                                                 
   LEXCH  = PE                                                                                      
   EATOM  =  1576.8302 eV,  115.8937 Ry                                                             
                                                                                                    
   TITEL  = PAW_PBE In_d 06Sep2000                                                                  
   LULTRA =        F    use ultrasoft PP ?                                                          
   IUNSCR =        1    unscreen: 0-lin 1-nonlin 2-no                                               
   RPACOR =    2.200    partial core radius                                                         
   POMASS =  114.820; ZVAL   =   13.000    mass and valenz                                          
   RCORE  =    2.500    outmost cutoff radius                                                       
   RWIGS  =    3.170; RWIGS  =    1.677    wigner-seitz radius (au A)                               
   ENMAX  =  239.211; ENMIN  =  179.409 eV                                                          
   ICORE  =        3    local potential                                                             
   LCOR   =        T    correct aug charges                                                         
   LPAW   =        T    paw PP                                                                      
   EAUG   =  449.704                                                                                
   DEXC   =    0.000                                                                                
   RMAX   =    2.552    core radius for proj-oper                                                   
   RAUG   =    1.300    factor for augmentation sphere                                              
   RDEP   =    2.630    radius for radial grids                                                     
   RDEPT  =    2.033    core radius for aug-charge                                                  
                                                                                                    
   Atomic configuration                                                                             
   12 entries                                                                                       
     n  l   j            E        occ.                                                              
     1  0  0.50    -27747.9169   2.0000                                                             
     2  0  0.50     -4154.4438   2.0000                                                             
     2  1  1.50     -3728.4305   6.0000                                                             
     3  0  0.50      -788.3680   2.0000                                                             
     3  1  1.50      -648.9215   6.0000                                                             
     3  2  2.50      -432.5893  10.0000                                                             
     4  0  0.50      -119.6363   2.0000                                                             
     4  1  1.50       -78.1086   6.0000                                                             
     4  2  2.50       -18.6227  10.0000                                                             
     5  0  0.50        -8.2107   2.0000                                                             
     5  1  0.50        -2.5185   1.0000                                                             
     4  3  2.50        -2.7212   0.0000                                                             
   Description                                                                                      
     l       E           TYP  RCUT    TYP  RCUT                                                     
     2    -18.6226981     23  2.500                                                                 
     2     -1.3605826     23  2.500                                                                 
     0     -8.2107305     23  2.500                                                                 
     0     -6.1485975     23  2.500                                                                 
     1     -2.5184867     23  2.500                                                                 
     1      3.2427302     23  2.500                                                                 
     3     -1.3605826      7  2.500                                                                 
  local pseudopotential read in
  partial core-charges read in
  partial kinetic energy density read in
  atomic valenz-charges read in
  non local Contribution for L=           2  read in
    real space projection operators read in
  non local Contribution for L=           2  read in
    real space projection operators read in
  non local Contribution for L=           0  read in
    real space projection operators read in
  non local Contribution for L=           0  read in
    real space projection operators read in
  non local Contribution for L=           1  read in
    real space projection operators read in
  non local Contribution for L=           1  read in
    real space projection operators read in
    PAW grid and wavefunctions read in

   number of l-projection  operators is LMAX  =           6
   number of lm-projection operators is LMMAX =          18

 POTCAR:    PAW_PBE S 06Sep2000                   
   SHA256 =  0fc7481fb0695f01bdc6462160264c5c84044ae9ec85a907d398b887a2bc3132 S/POTCAR              
   COPYR  = (c) Copyright 06Sep2000 Georg Kresse                                                    
   COPYR  = This file is part of the software VASP. Any use, copying, and all other rights are regul
   COPYR  = If you do not have a valid VASP license, you may not use, copy or distribute this file. 
   VRHFIN =S : s2p4                                                                                 
   LEXCH  = PE                                                                                      
   EATOM  =   276.8230 eV,   20.3459 Ry                                                             
                                                                                                    
   TITEL  = PAW_PBE S 06Sep2000                                                                     
   LULTRA =        F    use ultrasoft PP ?                                                          
   IUNSCR =        1    unscreen: 0-lin 1-nonlin 2-no                                               
   RPACOR =    1.500    partial core radius                                                         
   POMASS =   32.066; ZVAL   =    6.000    mass and valenz                                          
   RCORE  =    1.900    outmost cutoff radius                                                       
   RWIGS  =    2.200; RWIGS  =    1.164    wigner-seitz radius (au A)                               
   ENMAX  =  258.689; ENMIN  =  194.016 eV                                                          
   ICORE  =        2    local potential                                                             
   LCOR   =        T    correct aug charges                                                         
   LPAW   =        T    paw PP                                                                      
   EAUG   =  335.092                                                                                
   DEXC   =    0.000                                                                                
   RMAX   =    1.942    core radius for proj-oper                                                   
   RAUG   =    1.300    factor for augmentation sphere                                              
   RDEP   =    1.954    radius for radial grids                                                     
   RDEPT  =    1.744    core radius for aug-charge                                                  
                                                                                                    
   Atomic configuration                                                                             
    6 entries                                                                                       
     n  l   j            E        occ.                                                              
     1  0  0.50     -2405.8406   2.0000                                                             
     2  0  0.50      -211.7007   2.0000                                                             
     2  1  1.50      -156.4958   6.0000                                                             
     3  0  0.50       -17.2562   2.0000                                                             
     3  1  0.50        -7.0085   4.0000                                                             
     3  2  1.50        -6.8029   0.0000                                                             
   Description                                                                                      
     l       E           TYP  RCUT    TYP  RCUT                                                     
     0    -17.2561641     23  1.900                                                                 
     0    -15.8743224     23  1.900                                                                 
     1     -7.0085400     23  1.900                                                                 
     1     -2.7779785     23  1.900                                                                 
     2     -6.8029130     23  1.900                                                                 
  local pseudopotential read in
  partial core-charges read in
  partial kinetic energy density read in
  atomic valenz-charges read in
  non local Contribution for L=           0  read in
    real space projection operators read in
  non local Contribution for L=           0  read in
    real space projection operators read in
  non local Contribution for L=           1  read in
    real space projection operators read in
  non local Contribution for L=           1  read in
    real space projection operators read in
    PAW grid and wavefunctions read in

   number of l-projection  operators is LMAX  =           4
   number of lm-projection operators is LMMAX =           8

 -----------------------------------------------------------------------------
|                                                                             |
|               ----> ADVICE to this user running VASP <----                  |
|                                                                             |
|     You have a (more or less) 'large supercell' and for larger cells it     |
|     might be more efficient to use real-space projection operators.         |
|     Therefore, try LREAL= Auto in the INCAR file.                           |
|     Mind: For very accurate calculation, you might also keep the            |
|     reciprocal projection scheme (i.e. LREAL=.FALSE.).                      |
|                                                                             |
 -----------------------------------------------------------------------------

  PAW_PBE Na_pv 19Sep2006               :
 energy of atom  1       EATOM= -766.0439
 kinetic energy error for atom=    0.0021 (will be added to EATOM!!)
  PAW_PBE In_d 06Sep2000                :
 energy of atom  2       EATOM=-1576.8302
 kinetic energy error for atom=    0.0036 (will be added to EATOM!!)
  PAW_PBE S 06Sep2000                   :
 energy of atom  3       EATOM= -276.8230
 kinetic energy error for atom=    0.0020 (will be added to EATOM!!)


 POSCAR: Na5InS4 bottleneck ep10
  positions in direct lattice
  No initial velocities read in
 exchange correlation table for  LEXCH =        8
   RHO(1)=    0.500       N(1)  =     2000
   RHO(2)=  100.500       N(2)  =     4000



--------------------------------------------------------------------------------------------------------


 ion  position               nearest neighbor table
   1  0.656  0.520  0.665-  18 2.73  12 2.73  15 2.77  11 3.38
   2  0.344  0.480  0.335-  19 2.73  13 2.73  17 2.77  10 3.38
   3  0.656  0.980  0.665-  18 2.73  12 2.73  16 2.77  11 3.38
   4  0.975  0.250  0.529-
   5  0.025  0.750  0.471-
   6  0.669  0.250  0.161-  18 2.71  11 3.36
   7  0.331  0.750  0.839-  19 2.71  10 3.36
   8  0.000  0.000  0.000-
   9  0.000  0.500  0.000-
  10  0.639  0.750  0.176-  12 2.50  19 2.51  16 2.52  15 2.52   7 3.36   2 3.38
  11  0.361  0.250  0.824-  13 2.50  18 2.51  17 2.52  14 2.52   6 3.36   3 3.38   1 3.38
  12  0.761  0.750  0.880-  10 2.50   3 2.73   1 2.73
  13  0.239  0.250  0.120-  11 2.50   2 2.73
  14  0.233  0.019  0.672-  11 2.52
  15  0.767  0.519  0.328-  10 2.52   1 2.77
  16  0.767  0.981  0.328-  10 2.52   3 2.77
  17  0.233  0.481  0.672-  11 2.52   2 2.77
  18  0.729  0.250  0.821-  11 2.51   6 2.71   1 2.73   3 2.73
  19  0.271  0.750  0.179-  10 2.51   7 2.71   2 2.73


IMPORTANT INFORMATION: All symmetrisations will be switched off!
NOSYMM: (Re-)initialisation of all symmetry stuff for point group C_1.


----------------------------------------------------------------------------------------

                                     Primitive cell                                     

  volume of cell :     475.7906

  direct lattice vectors                    reciprocal lattice vectors
     6.833068891 -0.000000000 -0.127247023     0.146348793  0.000000000  0.000089461
    -0.000000000  8.835925276  0.000000000     0.000000000  0.113174339  0.000000000
    -0.004817206  0.000000000  7.880484692     0.002363109 -0.000000000  0.126897193

  length of vectors
     6.834253601  8.835925276  7.880486165     0.146348820  0.113174339  0.126919194

  position of ions in fractional coordinates (direct lattice)
     0.656420674  0.520163239  0.664953487
     0.343579326  0.479836761  0.335046513
     0.656420674  0.979836761  0.664953487
     0.974932254  0.250000000  0.528779272
     0.025067746  0.750000000  0.471220728
     0.669142769  0.250000000  0.160796996
     0.330857231  0.750000000  0.839203004
     0.000000000  0.000000000  0.000000000
     0.000000000  0.500000000  1.000000000
     0.638540005  0.750000000  0.176435958
     0.361459995  0.250000000  0.823564042
     0.760565672  0.750000000  0.880038541
     0.239434328  0.250000000  0.119961459
     0.233181450  0.019005524  0.671668979
     0.766818550  0.519005524  0.328331021
     0.766818550  0.980994476  0.328331021
     0.233181450  0.480994476  0.671668979
     0.728516862  0.250000000  0.821493095
     0.271483138  0.750000000  0.178506905

  ion indices of the primitive-cell ions
   primitive index   ion index
                 1           1
                 2           2
                 3           3
                 4           4
                 5           5
                 6           6
                 7           7
                 8           8
                 9           9
                10          10
                11          11
                12          12
                13          13
                14          14
                15          15
                16          16
                17          17
                18          18
                19          19

----------------------------------------------------------------------------------------



 KPOINTS: Gamma-point only                        

Automatic generation of k-mesh.
 Grid dimensions read from file:
 generate k-points for:    1    1    1

 Generating k-lattice:

  Cartesian coordinates                     Fractional coordinates (reciprocal lattice)
     0.146348793  0.000000000  0.000089461     1.000000000  0.000000000  0.000000000
     0.000000000  0.113174339  0.000000000     0.000000000  1.000000000  0.000000000
     0.002363109 -0.000000000  0.126897193     0.000000000 -0.000000000  1.000000000

  Length of vectors
     0.146348820  0.113174339  0.126919194

  Shift w.r.t. Gamma in fractional coordinates (k-lattice)
     0.000000000  0.000000000  0.000000000

 
 Subroutine IBZKPT returns following result:
 ===========================================
 
 Found      1 irreducible k-points:
 
 Following reciprocal coordinates:
            Coordinates               Weight
  0.000000  0.000000  0.000000      1.000000
 
 Following cartesian coordinates:
            Coordinates               Weight
  0.000000  0.000000  0.000000      1.000000
 


--------------------------------------------------------------------------------------------------------




 Dimension of arrays:
   k-points           NKPTS =      1   k-points in BZ     NKDIM =      1   number of bands    NBANDS=     96
   number of dos      NEDOS =    301   number of ions     NIONS =     19
   non local maximal  LDIM  =      6   non local SUM 2l+1 LMDIM =     18
   total plane-waves  NPLWV = 192000
   max r-space proj   IRMAX =      1   max aug-charges    IRDMAX= 139629
   dimension x,y,z NGX =    50 NGY =   64 NGZ =   60
   dimension x,y,z NGXF=   100 NGYF=  128 NGZF=  120
   support grid    NGXF=   200 NGYF=  256 NGZF=  240
   ions per type =               9   2   8
   NGX,Y,Z   is equivalent  to a cutoff of  12.16, 12.04, 12.66 a.u.
   NGXF,Y,Z  is equivalent  to a cutoff of  24.33, 24.08, 25.32 a.u.

 SYSTEM =  endpoint_relax_bottleneck               
 POSCAR =  Na5InS4 bottleneck ep10                 

 Startparameter for this run:
   NWRITE =      2    write-flag & timer
   PREC   = accura    normal or accurate (medium, high low for compatibility)
   ISTART =      0    job   : 0-new  1-cont  2-samecut
   ICHARG =      2    charge: 1-file 2-atom 10-const
   ISPIN  =      1    spin polarized calculation?
   LNONCOLLINEAR =      F non collinear calculations
   LSORBIT =      F    spin-orbit coupling
   INIWAV =      1    electr: 0-lowe 1-rand  2-diag
   LASPH  =      F    aspherical Exc in radial PAW
 Electronic Relaxation 1
   ENCUT  =  500.0 eV  36.75 Ry    6.06 a.u.  12.46 16.11 14.37*2*pi/ulx,y,z
   ENINI  =  500.0     initial cutoff
   ENAUG  =  449.7 eV  augmentation charge cutoff
   NELM   =     60;   NELMIN=  2; NELMDL= -5     # of ELM steps 
   EDIFF  = 0.1E-05   stopping-criterion for ELM
   LREAL  =      F    real-space projection
   NLSPLINE    = F    spline interpolate recip. space projectors
   LCOMPAT=      F    compatible to vasp.4.4
   GGA_COMPAT  = T    GGA compatible to vasp.4.4-vasp.4.6
   LMAXPAW     = -100 max onsite density
   LMAXMIX     =    2 max onsite mixed and CHGCAR
   VOSKOWN=      0    Vosko Wilk Nusair interpolation
   ROPT   =    0.00000   0.00000   0.00000
 Ionic relaxation
   EDIFFG = -.2E-01   stopping-criterion for IOM
   NSW    =    300    number of steps for IOM
   NBLOCK =      1;   KBLOCK =    300    inner block; outer block 
   IBRION =      2    ionic relax: 0-MD 1-quasi-New 2-CG
   NFREE  =      1    steps in history (QN), initial steepest desc. (CG)
   ISIF   =      2    stress and relaxation
   IWAVPR =     11    prediction:  0-non 1-charg 2-wave 3-comb
   ISYM   =      0    0-nonsym 1-usesym 2-fastsym
   LCORR  =      T    Harris-Foulkes like correction to forces

   POTIM  = 0.5000    time-step for ionic-motion
   TEIN   =    0.0    initial temperature
   TEBEG  =    0.0;   TEEND  =   0.0 temperature during run
   SMASS  =  -3.00    Nose mass-parameter (am)
   estimated Nose-frequenzy (Omega)   =  0.10E-29 period in steps = 0.13E+47 mass=  -0.107E-26a.u.
   SCALEE = 1.0000    scale energy and forces
   NPACO  =    256;   APACO  = 10.0  distance and # of slots for P.C.
   PSTRESS=    0.0 pullay stress

  Mass of Ions in am
   POMASS =  22.99114.82 32.07
  Ionic Valenz
   ZVAL   =   7.00 13.00  6.00
  Atomic Wigner-Seitz radii
   RWIGS  =  -1.00 -1.00 -1.00
  virtual crystal weights 
   VCA    =   1.00  1.00  1.00
   NELECT =     137.0000    total number of electrons
   NUPDOWN=      -1.0000    fix difference up-down

 DOS related values:
   EMIN   =  10.00;   EMAX   =-10.00  energy-range for DOS
   EFERMI =   0.00
   ISMEAR =     1;   SIGMA  =   0.20  broadening in eV -4-tet -1-fermi 0-gaus

 Electronic relaxation 2 (details)
   IALGO  =     68    algorithm
   LDIAG  =      T    sub-space diagonalisation (order eigenvalues)
   LSUBROT=      F    optimize rotation matrix (better conditioning)
   TURBO    =      0    0=normal 1=particle mesh
   IRESTART =      0    0=no restart 2=restart with 2 vectors
   NREBOOT  =      0    no. of reboots
   NMIN     =      0    reboot dimension
   EREF     =   0.00    reference energy to select bands
   IMIX   =      4    mixing-type and parameters
     AMIX     =   0.40;   BMIX     =  1.00
     AMIX_MAG =   1.60;   BMIX_MAG =  1.00
     AMIN     =   0.10
     WC   =   100.;   INIMIX=   1;  MIXPRE=   1;  MAXMIX= -45

 Intra band minimization:
   WEIMIN = 0.0010     energy-eigenvalue tresh-hold
   EBREAK =  0.26E-08  absolut break condition
   DEPER  =   0.30     relativ break condition  

   TIME   =   0.40     timestep for ELM

  volume/ion in A,a.u.               =      25.04       168.99
  Fermi-wavevector in a.u.,A,eV,Ry     =   1.081043  2.042876 15.900511  1.168655
  Thomas-Fermi vector in A             =   2.217050

 Write flags
   LWAVE        =      T    write WAVECAR
   LDOWNSAMPLE  =      F    k-point downsampling of WAVECAR
   LCHARG       =      F    write CHGCAR
   LVTOT        =      F    write LOCPOT, total local potential
   LVHAR        =      F    write LOCPOT, Hartree potential only
   LELF         =      F    write electronic localiz. function (ELF)
   LORBIT       =      0    0 simple, 1 ext, 2 COOP (PROOUT), +10 PAW based schemes


 Dipole corrections
   LMONO  =      F    monopole corrections only (constant potential shift)
   LDIPOL =      F    correct potential (dipole corrections)
   IDIPOL =      0    1-x, 2-y, 3-z, 4-all directions 
   EPSILON=  1.0000000 bulk dielectric constant

 Exchange correlation treatment:
   GGA     =    --    GGA type
   LEXCH   =     8    internal setting for exchange type
   LIBXC   =     F    Libxc                    
   VOSKOWN =     0    Vosko Wilk Nusair interpolation
   LHFCALC =     F    Hartree Fock is set to
   LHFONE  =     F    Hartree Fock one center treatment
   AEXX    =    0.0000 exact exchange contribution

 Linear response parameters
   LEPSILON=     F    determine dielectric tensor
   LRPA    =     F    only Hartree local field effects (RPA)
   LNABLA  =     F    use nabla operator in PAW spheres
   LVEL    =     F    velocity operator in full k-point grid
   CSHIFT  =0.1000    complex shift for real part using Kramers Kronig
   OMEGAMAX=  -1.0    maximum frequency
   DEG_THRESHOLD= 0.2000000E-02 threshold for treating states as degnerate
   RTIME   =   -0.100 relaxation time in fs
  (WPLASMAI=    0.000 imaginary part of plasma frequency in eV, 0.658/RTIME)
   DFIELD  = 0.0000000 0.0000000 0.0000000 field for delta impulse in time

  Optional k-point grid parameters
   LKPOINTS_OPT  =     F    use optional k-point grid
   KPOINTS_OPT_MODE=     1    mode for optional k-point grid

 Orbital magnetization related:
   ORBITALMAG=     F  switch on orbital magnetization
   LCHIMAG   =     F  perturbation theory with respect to B field
   DQ        =  0.001000  dq finite difference perturbation B field
   LLRAUG    =     F  two centre corrections for induced B field



--------------------------------------------------------------------------------------------------------


 conjugate gradient relaxation of ions
 charge density and potential will be updated during run
 non-spin polarized calculation
 RMM-DIIS sequential band-by-band and
  variant of blocked Davidson during initial phase
 perform sub-space diagonalisation
    before iterative eigenvector-optimisation
 modified Broyden-mixing scheme, WC =      100.0
 initial mixing is a Kerker type mixing with AMIX =  0.4000 and BMIX =      1.0000
 Hartree-type preconditioning will be used
 using additional bands           27
 reciprocal scheme for non local part
 use partial core corrections
 calculate Harris-corrections to forces   (improved forces if not selfconsistent)
 use gradient corrections 
 use of overlap-Matrix (Vanderbilt PP)
 Methfessel and Paxton  Order N= 1 SIGMA  =   0.20


--------------------------------------------------------------------------------------------------------


  energy-cutoff  :      500.00
  volume of cell :      475.79
      direct lattice vectors                 reciprocal lattice vectors
     6.833068891 -0.000000000 -0.127247023     0.146348793  0.000000000  0.000089461
    -0.000000000  8.835925276  0.000000000     0.000000000  0.113174339  0.000000000
    -0.004817206  0.000000000  7.880484692     0.002363109 -0.000000000  0.126897193

  length of vectors
     6.834253601  8.835925276  7.880486165     0.146348820  0.113174339  0.126919194



 k-points in units of 2pi/SCALE and weight: Gamma-point only                        
   0.00000000  0.00000000  0.00000000       1.000

 k-points in reciprocal lattice and weights: Gamma-point only                        
   0.00000000  0.00000000  0.00000000       1.000

 position of ions in fractional coordinates (direct lattice) 
   0.65642067  0.52016324  0.66495349
   0.34357933  0.47983676  0.33504651
   0.65642067  0.97983676  0.66495349
   0.97493225  0.25000000  0.52877927
   0.02506775  0.75000000  0.47122073
   0.66914277  0.25000000  0.16079700
   0.33085723  0.75000000  0.83920300
   0.00000000  0.00000000  0.00000000
   0.00000000  0.50000000  0.00000000
   0.63854001  0.75000000  0.17643596
   0.36145999  0.25000000  0.82356404
   0.76056567  0.75000000  0.88003854
   0.23943433  0.25000000  0.11996146
   0.23318145  0.01900552  0.67166898
   0.76681855  0.51900552  0.32833102
   0.76681855  0.98099448  0.32833102
   0.23318145  0.48099448  0.67166898
   0.72851686  0.25000000  0.82149309
   0.27148314  0.75000000  0.17850691

 position of ions in cartesian coordinates  (Angst):
   4.48216447  4.59612351  5.15662820
   2.34608722  4.23980176  2.59660947
   4.48216447  8.65776440  5.15662820
   6.65923202  2.20898132  4.04297973
   0.16901967  6.62694396  3.71025793
   4.57152405  2.20898132  1.18201184
   2.25672764  6.62694396  6.57122583
   0.00000000  0.00000000  0.00000000
  -0.00000000  4.41796264  0.00000000
   4.36233792  6.62694396  1.30914855
   2.46591377  2.20898132  6.44408912
   5.19275831  6.62694396  6.83835054
   1.63549338  2.20898132  0.91488713
   1.59010934  0.16793139  5.26340546
   5.23814234  4.58589403  2.48983221
   5.23814234  8.66799388  2.48983221
   1.59010934  4.25003124  5.26340546
   4.97404861  2.20898132  6.38106216
   1.85420308  6.62694396  1.37217551



--------------------------------------------------------------------------------------------------------


 k-point   1 :   0.0000 0.0000 0.0000  plane waves:   12107

 maximum and minimum number of plane-waves per node :     12107    12107

 maximum number of plane-waves:     12107
 maximum index in each direction: 
   IXMAX=   12   IYMAX=   16   IZMAX=   14
   IXMIN=  -12   IYMIN=  -16   IZMIN=  -14


 serial   3D FFT for wavefunctions
 parallel 3D FFT for charge:
    minimum data exchange during FFTs selected (reduces bandwidth)


 total amount of memory used by VASP MPI-rank0    70518. kBytes
=======================================================================

   base      :      30000. kBytes
   nonl-proj :       8914. kBytes
   fftplans  :      15432. kBytes
   grid      :      14698. kBytes
   one-center:        295. kBytes
   wavefun   :       1179. kBytes

     INWAV:  cpu time      0.0000: real time      0.0002
 Broyden mixing: mesh for mixing (old mesh)
   NGX = 25   NGY = 33   NGZ = 29
  (NGX  =100   NGY  =128   NGZ  =120)
  gives a total of  23925 points

 initial charge density was supplied:
 charge density of overlapping atoms calculated
 number of electron     137.0000000 magnetization 
 keeping initial charge density in first step


--------------------------------------------------------------------------------------------------------


 Maximum index for augmentation-charges         8737 (set IRDMAX)


--------------------------------------------------------------------------------------------------------


 First call to EWALD:  gamma=   0.227
 Maximum number of real-space cells 3x 2x 3
 Maximum number of reciprocal cells 2x 3x 3

    FEWALD:  cpu time      0.0007: real time      0.0007


--------------------------------------- Iteration      1(   1)  ---------------------------------------


    POTLOK:  cpu time      0.0532: real time      0.0533
    SETDIJ:  cpu time      0.0610: real time      0.0610
     EDDAV:  cpu time      0.2804: real time      0.2805
       DOS:  cpu time      0.0003: real time      0.0004
    --------------------------------------------
      LOOP:  cpu time      0.3948: real time      0.3952

 eigenvalue-minimisations  :   192
 total energy-change (2. order) : 0.1400557E+04  (-0.6293140E+04)
 number of electron     137.0000000 magnetization 
 augmentation part      137.0000000 magnetization 

 Free energy of the ion-electron system (eV)
  ---------------------------------------------------
  alpha Z        PSCENC =       211.48797744
  Ewald energy   TEWEN  =     -6800.41246779
  -Hartree energ DENC   =     -3794.75856978
  -exchange      EXHF   =         0.00000000
  -V(xc)+E(xc)   XCENC  =       401.68744406
  PAW double counting   =      9022.88422968    -9775.90281691
  entropy T*S    EENTRO =        -0.03940438
  eigenvalues    EBANDS =      -126.98722133
  atomic energy  EATOM  =     12262.59788564
  Solvation  Ediel_sol  =         0.00000000
  ---------------------------------------------------
  free energy    TOTEN  =      1400.55705663 eV

  energy without entropy =     1400.59646101  energy(sigma->0) =     1400.57019142


--------------------------------------------------------------------------------------------------------




--------------------------------------- Iteration      1(   2)  ---------------------------------------


     EDDAV:  cpu time      0.2771: real time      0.2776
       DOS:  cpu time      0.0002: real time      0.0003
    --------------------------------------------
      LOOP:  cpu time      0.2773: real time      0.2778

 eigenvalue-minimisations  :   192
 total energy-change (2. order) :-0.1274984E+04  (-0.1225885E+04)
 number of electron     137.0000000 magnetization 
 augmentation part      137.0000000 magnetization 

 Free energy of the ion-electron system (eV)
  ---------------------------------------------------
  alpha Z        PSCENC =       211.48797744
  Ewald energy   TEWEN  =     -6800.41246779
  -Hartree energ DENC   =     -3794.75856978
  -exchange      EXHF   =         0.00000000
  -V(xc)+E(xc)   XCENC  =       401.68744406
  PAW double counting   =      9022.88422968    -9775.90281691
  entropy T*S    EENTRO =        -0.05641896
  eigenvalues    EBANDS =     -1401.95383194
  atomic energy  EATOM  =     12262.59788564
  Solvation  Ediel_sol  =         0.00000000
  ---------------------------------------------------
  free energy    TOTEN  =       125.57343145 eV

  energy without entropy =      125.62985040  energy(sigma->0) =      125.59223777


--------------------------------------------------------------------------------------------------------




--------------------------------------- Iteration      1(   3)  ---------------------------------------


     EDDAV:  cpu time      0.3149: real time      0.3156
       DOS:  cpu time      0.0002: real time      0.0002
    --------------------------------------------
      LOOP:  cpu time      0.3151: real time      0.3159

 eigenvalue-minimisations  :   224
 total energy-change (2. order) :-0.1854562E+03  (-0.1822736E+03)
 number of electron     137.0000000 magnetization 
 augmentation part      137.0000000 magnetization 

 Free energy of the ion-electron system (eV)
  ---------------------------------------------------
  alpha Z        PSCENC =       211.48797744
  Ewald energy   TEWEN  =     -6800.41246779
  -Hartree energ DENC   =     -3794.75856978
  -exchange      EXHF   =         0.00000000
  -V(xc)+E(xc)   XCENC  =       401.68744406
  PAW double counting   =      9022.88422968    -9775.90281691
  entropy T*S    EENTRO =        -0.01135780
  eigenvalues    EBANDS =     -1587.45505142
  atomic energy  EATOM  =     12262.59788564
  Solvation  Ediel_sol  =         0.00000000
  ---------------------------------------------------
  free energy    TOTEN  =       -59.88272688 eV

  energy without entropy =      -59.87136908  energy(sigma->0) =      -59.87894095


--------------------------------------------------------------------------------------------------------




--------------------------------------- Iteration      1(   4)  ---------------------------------------


     EDDAV:  cpu time      0.3295: real time      0.3296
       DOS:  cpu time      0.0002: real time      0.0003
    --------------------------------------------
      LOOP:  cpu time      0.3297: real time      0.3299

 eigenvalue-minimisations  :   240
 total energy-change (2. order) :-0.1101625E+02  (-0.1089904E+02)
 number of electron     137.0000000 magnetization 
 augmentation part      137.0000000 magnetization 

 Free energy of the ion-electron system (eV)
  ---------------------------------------------------
  alpha Z        PSCENC =       211.48797744
  Ewald energy   TEWEN  =     -6800.41246779
  -Hartree energ DENC   =     -3794.75856978
  -exchange      EXHF   =         0.00000000
  -V(xc)+E(xc)   XCENC  =       401.68744406
  PAW double counting   =      9022.88422968    -9775.90281691
  entropy T*S    EENTRO =        -0.04993982
  eigenvalues    EBANDS =     -1598.43271792
  atomic energy  EATOM  =     12262.59788564
  Solvation  Ediel_sol  =         0.00000000
  ---------------------------------------------------
  free energy    TOTEN  =       -70.89897540 eV

  energy without entropy =      -70.84903558  energy(sigma->0) =      -70.88232879


--------------------------------------------------------------------------------------------------------




--------------------------------------- Iteration      1(   5)  ---------------------------------------


     EDDAV:  cpu time      0.3820: real time      0.3822
       DOS:  cpu time      0.0002: real time      0.0003
    CHARGE:  cpu time      0.0887: real time      0.0887
    MIXING:  cpu time      0.0019: real time      0.0019
    --------------------------------------------
      LOOP:  cpu time      0.4727: real time      0.4731

 eigenvalue-minimisations  :   288
 total energy-change (2. order) :-0.3762558E+00  (-0.3757912E+00)
 number of electron     137.0000002 magnetization 
 augmentation part       47.3749825 magnetization 

 Broyden mixing:
  rms(total) = 0.12660E+01    rms(broyden)= 0.12660E+01
  rms(prec ) = 0.17558E+01
  weight for this iteration     100.00

 Free energy of the ion-electron system (eV)
  ---------------------------------------------------
  alpha Z        PSCENC =       211.48797744
  Ewald energy   TEWEN  =     -6800.41246779
  -Hartree energ DENC   =     -3794.75856978
  -exchange      EXHF   =         0.00000000
  -V(xc)+E(xc)   XCENC  =       401.68744406
  PAW double counting   =      9022.88422968    -9775.90281691
  entropy T*S    EENTRO =        -0.05020823
  eigenvalues    EBANDS =     -1598.80870528
  atomic energy  EATOM  =     12262.59788564
  Solvation  Ediel_sol  =         0.00000000
  ---------------------------------------------------
  free energy    TOTEN  =       -71.27523117 eV

  energy without entropy =      -71.22502293  energy(sigma->0) =      -71.25849509


--------------------------------------------------------------------------------------------------------




--------------------------------------- Iteration      1(   6)  ---------------------------------------


    POTLOK:  cpu time      0.0485: real time      0.0487
    SETDIJ:  cpu time      0.0530: real time      0.0530
    EDDIAG:  cpu time      0.0550: real time      0.0551
  RMM-DIIS:  cpu time      0.2345: real time      0.2348
    ORTHCH:  cpu time      0.0041: real time      0.0041
       DOS:  cpu time      0.0002: real time      0.0004
    CHARGE:  cpu time      0.0912: real time      0.0912
    MIXING:  cpu time      0.0027: real time      0.0027
    --------------------------------------------
      LOOP:  cpu time      0.4891: real time      0.4901

 eigenvalue-minimisations  :   199
 total energy-change (2. order) : 0.4165616E+01  (-0.5976053E+00)
 number of electron     137.0000002 magnetization 
 augmentation part       47.7413468 magnetization 

 Broyden mixing:
  rms(total) = 0.81508E+00    rms(broyden)= 0.81508E+00
  rms(prec ) = 0.96274E+00
  weight for this iteration     100.00

 eigenvalues of (default mixing * dielectric matrix)
  average eigenvalue GAMMA=   1.6633
  1.6633

 Free energy of the ion-electron system (eV)
  ---------------------------------------------------
  alpha Z        PSCENC =       211.48797744
  Ewald energy   TEWEN  =     -6800.41246779
  -Hartree energ DENC   =     -3800.88687808
  -exchange      EXHF   =         0.00000000
  -V(xc)+E(xc)   XCENC  =       404.48313690
  PAW double counting   =     10142.54120142   -10892.40103466
  entropy T*S    EENTRO =        -0.06194145
  eigenvalues    EBANDS =     -1594.45749443
  atomic energy  EATOM  =     12262.59788564
  Solvation  Ediel_sol  =         0.00000000
  ---------------------------------------------------
  free energy    TOTEN  =       -67.10961500 eV

  energy without entropy =      -67.04767356  energy(sigma->0) =      -67.08896785


--------------------------------------------------------------------------------------------------------




--------------------------------------- Iteration      1(   7)  ---------------------------------------


    POTLOK:  cpu time      0.0532: real time      0.0534
    SETDIJ:  cpu time      0.0544: real time      0.0544
    EDDIAG:  cpu time      0.0552: real time      0.0552
  RMM-DIIS:  cpu time      0.2507: real time      0.2508
    ORTHCH:  cpu time      0.0042: real time      0.0042
       DOS:  cpu time      0.0002: real time      0.0004
    CHARGE:  cpu time      0.0812: real time      0.0812
    MIXING:  cpu time      0.0018: real time      0.0018
    --------------------------------------------
      LOOP:  cpu time      0.5010: real time      0.5015

 eigenvalue-minimisations  :   207
 total energy-change (2. order) : 0.1889195E+00  (-0.4655638E+00)
 number of electron     137.0000002 magnetization 
 augmentation part       47.9163534 magnetization 

 Broyden mixing:
  rms(total) = 0.53773E+00    rms(broyden)= 0.53773E+00
  rms(prec ) = 0.60441E+00
  weight for this iteration     100.00

 eigenvalues of (default mixing * dielectric matrix)
  average eigenvalue GAMMA=   1.6683
  1.3789  1.9577

 Free energy of the ion-electron system (eV)
  ---------------------------------------------------
  alpha Z        PSCENC =       211.48797744
  Ewald energy   TEWEN  =     -6800.41246779
  -Hartree energ DENC   =     -3811.17242599
  -exchange      EXHF   =         0.00000000
  -V(xc)+E(xc)   XCENC  =       406.67062715
  PAW double counting   =     11546.19966121   -12298.04092575
  entropy T*S    EENTRO =        -0.02610156
  eigenvalues    EBANDS =     -1584.22492589
  atomic energy  EATOM  =     12262.59788564
  Solvation  Ediel_sol  =         0.00000000
  ---------------------------------------------------
  free energy    TOTEN  =       -66.92069553 eV

  energy without entropy =      -66.89459398  energy(sigma->0) =      -66.91199501


--------------------------------------------------------------------------------------------------------




--------------------------------------- Iteration      1(   8)  ---------------------------------------


    POTLOK:  cpu time      0.0483: real time      0.0485
    SETDIJ:  cpu time      0.0535: real time      0.0536
    EDDIAG:  cpu time      0.0548: real time      0.0549
  RMM-DIIS:  cpu time      0.2806: real time      0.2810
    ORTHCH:  cpu time      0.0043: real time      0.0043
       DOS:  cpu time      0.0002: real time      0.0004
    CHARGE:  cpu time      0.0804: real time      0.0804
    MIXING:  cpu time      0.0020: real time      0.0020
    --------------------------------------------
      LOOP:  cpu time      0.5240: real time      0.5250

 eigenvalue-minimisations  :   226
 total energy-change (2. order) :-0.8778250E-02  (-0.3731200E-01)
 number of electron     137.0000002 magnetization 
 augmentation part       47.9097184 magnetization 

 Broyden mixing:
  rms(total) = 0.34823E+00    rms(broyden)= 0.34823E+00
  rms(prec ) = 0.41300E+00
  weight for this iteration     100.00

 eigenvalues of (default mixing * dielectric matrix)
  average eigenvalue GAMMA=   1.6466
  2.6916  1.7097  0.5386

 Free energy of the ion-electron system (eV)
  ---------------------------------------------------
  alpha Z        PSCENC =       211.48797744
  Ewald energy   TEWEN  =     -6800.41246779
  -Hartree energ DENC   =     -3809.39311439
  -exchange      EXHF   =         0.00000000
  -V(xc)+E(xc)   XCENC  =       406.75075709
  PAW double counting   =     12068.06225288   -12821.45650272
  entropy T*S    EENTRO =        -0.06999124
  eigenvalues    EBANDS =     -1584.49627071
  atomic energy  EATOM  =     12262.59788564
  Solvation  Ediel_sol  =         0.00000000
  ---------------------------------------------------
  free energy    TOTEN  =       -66.92947378 eV

  energy without entropy =      -66.85948255  energy(sigma->0) =      -66.90614337


--------------------------------------------------------------------------------------------------------




--------------------------------------- Iteration      1(   9)  ---------------------------------------


    POTLOK:  cpu time      0.0482: real time      0.0483
    SETDIJ:  cpu time      0.0534: real time      0.0534
    EDDIAG:  cpu time      0.0546: real time      0.0546
  RMM-DIIS:  cpu time      0.2538: real time      0.2539
    ORTHCH:  cpu time      0.0041: real time      0.0041
       DOS:  cpu time      0.0002: real time      0.0003
    CHARGE:  cpu time      0.0802: real time      0.0802
    MIXING:  cpu time      0.0020: real time      0.0020
    --------------------------------------------
      LOOP:  cpu time      0.4966: real time      0.4969

 eigenvalue-minimisations  :   215
 total energy-change (2. order) :-0.3775252E-01  (-0.2146941E-01)
 number of electron     137.0000002 magnetization 
 augmentation part       47.8729562 magnetization 

 Broyden mixing:
  rms(total) = 0.14977E+00    rms(broyden)= 0.14977E+00
  rms(prec ) = 0.29456E+00
  weight for this iteration     100.00

 eigenvalues of (default mixing * dielectric matrix)
  average eigenvalue GAMMA=   1.3182
  2.5203  1.6261  0.5633  0.5633

 Free energy of the ion-electron system (eV)
  ---------------------------------------------------
  alpha Z        PSCENC =       211.48797744
  Ewald energy   TEWEN  =     -6800.41246779
  -Hartree energ DENC   =     -3805.87449476
  -exchange      EXHF   =         0.00000000
  -V(xc)+E(xc)   XCENC  =       406.76090824
  PAW double counting   =     12825.06318517   -13580.42659441
  entropy T*S    EENTRO =        -0.03453065
  eigenvalues    EBANDS =     -1586.12909518
  atomic energy  EATOM  =     12262.59788564
  Solvation  Ediel_sol  =         0.00000000
  ---------------------------------------------------
  free energy    TOTEN  =       -66.96722630 eV

  energy without entropy =      -66.93269565  energy(sigma->0) =      -66.95571608


--------------------------------------------------------------------------------------------------------




--------------------------------------- Iteration      1(  10)  ---------------------------------------


    POTLOK:  cpu time      0.0482: real time      0.0484
    SETDIJ:  cpu time      0.0532: real time      0.0533
    EDDIAG:  cpu time      0.0545: real time      0.0547
  RMM-DIIS:  cpu time      0.2939: real time      0.2942
    ORTHCH:  cpu time      0.0041: real time      0.0041
       DOS:  cpu time      0.0003: real time      0.0004
    CHARGE:  cpu time      0.0801: real time      0.0801
    MIXING:  cpu time      0.0021: real time      0.0021
    --------------------------------------------
      LOOP:  cpu time      0.5364: real time      0.5373

 eigenvalue-minimisations  :   232
 total energy-change (2. order) : 0.4525669E-01  (-0.5224335E-02)
 number of electron     137.0000002 magnetization 
 augmentation part       47.8796751 magnetization 

 Broyden mixing:
  rms(total) = 0.10059E+00    rms(broyden)= 0.10059E+00
  rms(prec ) = 0.13569E+00
  weight for this iteration     100.00

 eigenvalues of (default mixing * dielectric matrix)
  average eigenvalue GAMMA=   1.1226
  2.2451  1.4080  1.0355  0.5328  0.3916

 Free energy of the ion-electron system (eV)
  ---------------------------------------------------
  alpha Z        PSCENC =       211.48797744
  Ewald energy   TEWEN  =     -6800.41246779
  -Hartree energ DENC   =     -3805.78123621
  -exchange      EXHF   =         0.00000000
  -V(xc)+E(xc)   XCENC  =       406.85961104
  PAW double counting   =     12880.53211412   -13635.86587684
  entropy T*S    EENTRO =        -0.05288301
  eigenvalues    EBANDS =     -1586.28709400
  atomic energy  EATOM  =     12262.59788564
  Solvation  Ediel_sol  =         0.00000000
  ---------------------------------------------------
  free energy    TOTEN  =       -66.92196961 eV

  energy without entropy =      -66.86908660  energy(sigma->0) =      -66.90434194


--------------------------------------------------------------------------------------------------------




--------------------------------------- Iteration      1(  11)  ---------------------------------------


    POTLOK:  cpu time      0.0482: real time      0.0484
    SETDIJ:  cpu time      0.0533: real time      0.0533
    EDDIAG:  cpu time      0.0545: real time      0.0545
  RMM-DIIS:  cpu time      0.2775: real time      0.2775
    ORTHCH:  cpu time      0.0043: real time      0.0043
       DOS:  cpu time      0.0002: real time      0.0003
    CHARGE:  cpu time      0.0812: real time      0.0813
    MIXING:  cpu time      0.0019: real time      0.0020
    --------------------------------------------
      LOOP:  cpu time      0.5211: real time      0.5216

 eigenvalue-minimisations  :   227
 total energy-change (2. order) : 0.1104438E-01  (-0.2612919E-02)
 number of electron     137.0000002 magnetization 
 augmentation part       47.8900483 magnetization 

 Broyden mixing:
  rms(total) = 0.46444E-01    rms(broyden)= 0.46444E-01
  rms(prec ) = 0.52757E-01
  weight for this iteration     100.00

 eigenvalues of (default mixing * dielectric matrix)
  average eigenvalue GAMMA=   1.0908
  1.7878  1.7878  1.1658  0.8297  0.5812  0.3927

 Free energy of the ion-electron system (eV)
  ---------------------------------------------------
  alpha Z        PSCENC =       211.48797744
  Ewald energy   TEWEN  =     -6800.41246779
  -Hartree energ DENC   =     -3806.46457384
  -exchange      EXHF   =         0.00000000
  -V(xc)+E(xc)   XCENC  =       406.94846789
  PAW double counting   =     12766.40874648   -13521.35650752
  entropy T*S    EENTRO =        -0.05358850
  eigenvalues    EBANDS =     -1586.06686503
  atomic energy  EATOM  =     12262.59788564
  Solvation  Ediel_sol  =         0.00000000
  ---------------------------------------------------
  free energy    TOTEN  =       -66.91092523 eV

  energy without entropy =      -66.85733673  energy(sigma->0) =      -66.89306240


--------------------------------------------------------------------------------------------------------




--------------------------------------- Iteration      1(  12)  ---------------------------------------


    POTLOK:  cpu time      0.0510: real time      0.0512
    SETDIJ:  cpu time      0.0534: real time      0.0534
    EDDIAG:  cpu time      0.0543: real time      0.0548
  RMM-DIIS:  cpu time      0.3205: real time      0.3205
    ORTHCH:  cpu time      0.0042: real time      0.0042
       DOS:  cpu time      0.0002: real time      0.0004
    CHARGE:  cpu time      0.0807: real time      0.0807
    MIXING:  cpu time      0.0020: real time      0.0020
    --------------------------------------------
      LOOP:  cpu time      0.5664: real time      0.5673

 eigenvalue-minimisations  :   263
 total energy-change (2. order) :-0.1682925E-02  (-0.7238941E-03)
 number of electron     137.0000002 magnetization 
 augmentation part       47.8921527 magnetization 

 Broyden mixing:
  rms(total) = 0.24991E-01    rms(broyden)= 0.24991E-01
  rms(prec ) = 0.30529E-01
  weight for this iteration     100.00

 eigenvalues of (default mixing * dielectric matrix)
  average eigenvalue GAMMA=   1.3474
  2.5464  2.5464  1.2668  1.0577  1.0577  0.5639  0.3927

 Free energy of the ion-electron system (eV)
  ---------------------------------------------------
  alpha Z        PSCENC =       211.48797744
  Ewald energy   TEWEN  =     -6800.41246779
  -Hartree energ DENC   =     -3806.54825429
  -exchange      EXHF   =         0.00000000
  -V(xc)+E(xc)   XCENC  =       406.95811757
  PAW double counting   =     12672.20530872   -13427.05399550
  entropy T*S    EENTRO =        -0.05567084
  eigenvalues    EBANDS =     -1586.09150911
  atomic energy  EATOM  =     12262.59788564
  Solvation  Ediel_sol  =         0.00000000
  ---------------------------------------------------
  free energy    TOTEN  =       -66.91260816 eV

  energy without entropy =      -66.85693731  energy(sigma->0) =      -66.89405121


--------------------------------------------------------------------------------------------------------




--------------------------------------- Iteration      1(  13)  ---------------------------------------


    POTLOK:  cpu time      0.0483: real time      0.0485
    SETDIJ:  cpu time      0.0531: real time      0.0531
    EDDIAG:  cpu time      0.0547: real time      0.0547
  RMM-DIIS:  cpu time      0.2450: real time      0.2450
    ORTHCH:  cpu time      0.0042: real time      0.0042
       DOS:  cpu time      0.0002: real time      0.0004
    CHARGE:  cpu time      0.0800: real time      0.0801
    MIXING:  cpu time      0.0021: real time      0.0021
    --------------------------------------------
      LOOP:  cpu time      0.4875: real time      0.4879

 eigenvalue-minimisations  :   197
 total energy-change (2. order) :-0.2446714E-02  (-0.2501461E-03)
 number of electron     137.0000002 magnetization 
 augmentation part       47.8892071 magnetization 

 Broyden mixing:
  rms(total) = 0.72394E-02    rms(broyden)= 0.72392E-02
  rms(prec ) = 0.11047E-01
  weight for this iteration     100.00

 eigenvalues of (default mixing * dielectric matrix)
  average eigenvalue GAMMA=   1.2939
  2.5233  2.2489  1.6752  1.0806  1.0806  0.7734  0.5768  0.3926

 Free energy of the ion-electron system (eV)
  ---------------------------------------------------
  alpha Z        PSCENC =       211.48797744
  Ewald energy   TEWEN  =     -6800.41246779
  -Hartree energ DENC   =     -3806.41884073
  -exchange      EXHF   =         0.00000000
  -V(xc)+E(xc)   XCENC  =       406.98275565
  PAW double counting   =     12650.27228698   -13405.23473496
  entropy T*S    EENTRO =        -0.05509837
  eigenvalues    EBANDS =     -1586.13481874
  atomic energy  EATOM  =     12262.59788564
  Solvation  Ediel_sol  =         0.00000000
  ---------------------------------------------------
  free energy    TOTEN  =       -66.91505487 eV

  energy without entropy =      -66.85995651  energy(sigma->0) =      -66.89668875


--------------------------------------------------------------------------------------------------------




--------------------------------------- Iteration      1(  14)  ---------------------------------------


    POTLOK:  cpu time      0.0484: real time      0.0486
    SETDIJ:  cpu time      0.0528: real time      0.0532
    EDDIAG:  cpu time      0.0544: real time      0.0545
  RMM-DIIS:  cpu time      0.2767: real time      0.2767
    ORTHCH:  cpu time      0.0042: real time      0.0042
       DOS:  cpu time      0.0002: real time      0.0004
    CHARGE:  cpu time      0.0814: real time      0.0815
    MIXING:  cpu time      0.0021: real time      0.0021
    --------------------------------------------
      LOOP:  cpu time      0.5203: real time      0.5211

 eigenvalue-minimisations  :   220
 total energy-change (2. order) :-0.2278823E-03  (-0.7096194E-04)
 number of electron     137.0000002 magnetization 
 augmentation part       47.8896666 magnetization 

 Broyden mixing:
  rms(total) = 0.91797E-02    rms(broyden)= 0.91795E-02
  rms(prec ) = 0.98499E-02
  weight for this iteration     100.00

 eigenvalues of (default mixing * dielectric matrix)
  average eigenvalue GAMMA=   1.2292
  2.4947  2.4947  1.6376  0.9731  0.9731  0.9345  0.3925  0.5813  0.5813

 Free energy of the ion-electron system (eV)
  ---------------------------------------------------
  alpha Z        PSCENC =       211.48797744
  Ewald energy   TEWEN  =     -6800.41246779
  -Hartree energ DENC   =     -3806.55302053
  -exchange      EXHF   =         0.00000000
  -V(xc)+E(xc)   XCENC  =       407.00596165
  PAW double counting   =     12653.30243497   -13408.29058858
  entropy T*S    EENTRO =        -0.05525356
  eigenvalues    EBANDS =     -1585.99821200
  atomic energy  EATOM  =     12262.59788564
  Solvation  Ediel_sol  =         0.00000000
  ---------------------------------------------------
  free energy    TOTEN  =       -66.91528276 eV

  energy without entropy =      -66.86002919  energy(sigma->0) =      -66.89686490


--------------------------------------------------------------------------------------------------------




--------------------------------------- Iteration      1(  15)  ---------------------------------------


    POTLOK:  cpu time      0.0491: real time      0.0493
    SETDIJ:  cpu time      0.0538: real time      0.0538
    EDDIAG:  cpu time      0.0545: real time      0.0546
  RMM-DIIS:  cpu time      0.3178: real time      0.3180
    ORTHCH:  cpu time      0.0042: real time      0.0042
       DOS:  cpu time      0.0002: real time      0.0004
    CHARGE:  cpu time      0.0809: real time      0.0812
    MIXING:  cpu time      0.0022: real time      0.0022
    --------------------------------------------
      LOOP:  cpu time      0.5627: real time      0.5636

 eigenvalue-minimisations  :   253
 total energy-change (2. order) :-0.6162027E-04  (-0.2589974E-04)
 number of electron     137.0000002 magnetization 
 augmentation part       47.8898262 magnetization 

 Broyden mixing:
  rms(total) = 0.37698E-02    rms(broyden)= 0.37694E-02
  rms(prec ) = 0.43894E-02
  weight for this iteration     100.00

 eigenvalues of (default mixing * dielectric matrix)
  average eigenvalue GAMMA=   1.3950
  3.0247  3.0247  1.5936  1.5936  1.0684  1.0684  0.3926  0.5756  0.8613  0.7468

 Free energy of the ion-electron system (eV)
  ---------------------------------------------------
  alpha Z        PSCENC =       211.48797744
  Ewald energy   TEWEN  =     -6800.41246779
  -Hartree energ DENC   =     -3806.69222969
  -exchange      EXHF   =         0.00000000
  -V(xc)+E(xc)   XCENC  =       407.01124820
  PAW double counting   =     12636.97018065   -13391.94903930
  entropy T*S    EENTRO =        -0.05564827
  eigenvalues    EBANDS =     -1585.87325126
  atomic energy  EATOM  =     12262.59788564
  Solvation  Ediel_sol  =         0.00000000
  ---------------------------------------------------
  free energy    TOTEN  =       -66.91534438 eV

  energy without entropy =      -66.85969611  energy(sigma->0) =      -66.89679495


--------------------------------------------------------------------------------------------------------




--------------------------------------- Iteration      1(  16)  ---------------------------------------


    POTLOK:  cpu time      0.0482: real time      0.0484
    SETDIJ:  cpu time      0.0529: real time      0.0530
    EDDIAG:  cpu time      0.0549: real time      0.0549
  RMM-DIIS:  cpu time      0.2667: real time      0.2667
    ORTHCH:  cpu time      0.0043: real time      0.0043
       DOS:  cpu time      0.0002: real time      0.0004
    CHARGE:  cpu time      0.0832: real time      0.0832
    MIXING:  cpu time      0.0029: real time      0.0029
    --------------------------------------------
      LOOP:  cpu time      0.5133: real time      0.5137

 eigenvalue-minimisations  :   196
 total energy-change (2. order) :-0.4157063E-04  (-0.9914929E-05)
 number of electron     137.0000002 magnetization 
 augmentation part       47.8899547 magnetization 

 Broyden mixing:
  rms(total) = 0.21507E-02    rms(broyden)= 0.21500E-02
  rms(prec ) = 0.23100E-02
  weight for this iteration     100.00

 eigenvalues of (default mixing * dielectric matrix)
  average eigenvalue GAMMA=   1.3727
  3.0039  2.5988  1.8728  1.8728  1.0788  1.0788  0.3926  0.9331  0.9331  0.5755
  0.7591

 Free energy of the ion-electron system (eV)
  ---------------------------------------------------
  alpha Z        PSCENC =       211.48797744
  Ewald energy   TEWEN  =     -6800.41246779
  -Hartree energ DENC   =     -3806.75777157
  -exchange      EXHF   =         0.00000000
  -V(xc)+E(xc)   XCENC  =       407.01384476
  PAW double counting   =     12623.76431147   -13378.74288339
  entropy T*S    EENTRO =        -0.05558431
  eigenvalues    EBANDS =     -1585.81069820
  atomic energy  EATOM  =     12262.59788564
  Solvation  Ediel_sol  =         0.00000000
  ---------------------------------------------------
  free energy    TOTEN  =       -66.91538595 eV

  energy without entropy =      -66.85980164  energy(sigma->0) =      -66.89685784


--------------------------------------------------------------------------------------------------------




--------------------------------------- Iteration      1(  17)  ---------------------------------------


    POTLOK:  cpu time      0.0536: real time      0.0538
    SETDIJ:  cpu time      0.0542: real time      0.0542
    EDDIAG:  cpu time      0.0552: real time      0.0552
  RMM-DIIS:  cpu time      0.2630: real time      0.2630
    ORTHCH:  cpu time      0.0041: real time      0.0041
       DOS:  cpu time      0.0002: real time      0.0004
    CHARGE:  cpu time      0.0806: real time      0.0809
    MIXING:  cpu time      0.0023: real time      0.0023
    --------------------------------------------
      LOOP:  cpu time      0.5132: real time      0.5140

 eigenvalue-minimisations  :   211
 total energy-change (2. order) :-0.6185728E-06  (-0.2727172E-05)
 number of electron     137.0000002 magnetization 
 augmentation part       47.8898511 magnetization 

 Broyden mixing:
  rms(total) = 0.10935E-02    rms(broyden)= 0.10921E-02
  rms(prec ) = 0.11610E-02
  weight for this iteration     100.00

 eigenvalues of (default mixing * dielectric matrix)
  average eigenvalue GAMMA=   1.3547
  3.2833  2.6463  1.8514  1.8514  1.1563  1.1563  1.0145  1.0145  0.3926  0.7185
  0.5714  0.5998

 Free energy of the ion-electron system (eV)
  ---------------------------------------------------
  alpha Z        PSCENC =       211.48797744
  Ewald energy   TEWEN  =     -6800.41246779
  -Hartree energ DENC   =     -3806.75626789
  -exchange      EXHF   =         0.00000000
  -V(xc)+E(xc)   XCENC  =       407.01447463
  PAW double counting   =     12629.71671029   -13384.70042398
  entropy T*S    EENTRO =        -0.05551423
  eigenvalues    EBANDS =     -1585.80776067
  atomic energy  EATOM  =     12262.59788564
  Solvation  Ediel_sol  =         0.00000000
  ---------------------------------------------------
  free energy    TOTEN  =       -66.91538657 eV

  energy without entropy =      -66.85987233  energy(sigma->0) =      -66.89688182


--------------------------------------------------------------------------------------------------------




--------------------------------------- Iteration      1(  18)  ---------------------------------------


    POTLOK:  cpu time      0.0482: real time      0.0484
    SETDIJ:  cpu time      0.0528: real time      0.0528
    EDDIAG:  cpu time      0.0549: real time      0.0550
  RMM-DIIS:  cpu time      0.1992: real time      0.1992
    ORTHCH:  cpu time      0.0044: real time      0.0044
       DOS:  cpu time      0.0002: real time      0.0003
    CHARGE:  cpu time      0.0813: real time      0.0813
    MIXING:  cpu time      0.0035: real time      0.0035
    --------------------------------------------
      LOOP:  cpu time      0.4445: real time      0.4450

 eigenvalue-minimisations  :   155
 total energy-change (2. order) :-0.2345707E-05  (-0.4471704E-06)
 number of electron     137.0000002 magnetization 
 augmentation part       47.8898850 magnetization 

 Broyden mixing:
  rms(total) = 0.46201E-03    rms(broyden)= 0.45869E-03
  rms(prec ) = 0.61453E-03
  weight for this iteration     100.00

 eigenvalues of (default mixing * dielectric matrix)
  average eigenvalue GAMMA=   1.4093
  3.3407  2.4985  2.1516  2.1516  1.3422  1.3422  1.0717  1.0717  0.3926  0.5757
  0.8217  0.8217  0.7390

 Free energy of the ion-electron system (eV)
  ---------------------------------------------------
  alpha Z        PSCENC =       211.48797744
  Ewald energy   TEWEN  =     -6800.41246779
  -Hartree energ DENC   =     -3806.76977633
  -exchange      EXHF   =         0.00000000
  -V(xc)+E(xc)   XCENC  =       407.01454218
  PAW double counting   =     12627.33366980   -13382.31588789
  entropy T*S    EENTRO =        -0.05555488
  eigenvalues    EBANDS =     -1585.79577709
  atomic energy  EATOM  =     12262.59788564
  Solvation  Ediel_sol  =         0.00000000
  ---------------------------------------------------
  free energy    TOTEN  =       -66.91538891 eV

  energy without entropy =      -66.85983403  energy(sigma->0) =      -66.89687062


--------------------------------------------------------------------------------------------------------




--------------------------------------- Iteration      1(  19)  ---------------------------------------


    POTLOK:  cpu time      0.0493: real time      0.0495
    SETDIJ:  cpu time      0.0531: real time      0.0531
    EDDIAG:  cpu time      0.0546: real time      0.0547
  RMM-DIIS:  cpu time      0.1824: real time      0.1825
    ORTHCH:  cpu time      0.0041: real time      0.0041
       DOS:  cpu time      0.0002: real time      0.0003
    --------------------------------------------
      LOOP:  cpu time      0.3437: real time      0.3442

 eigenvalue-minimisations  :   135
 total energy-change (2. order) : 0.2011839E-06  (-0.2116078E-06)
 number of electron     137.0000002 magnetization 
 augmentation part       47.8898850 magnetization 

 Free energy of the ion-electron system (eV)
  ---------------------------------------------------
  alpha Z        PSCENC =       211.48797744
  Ewald energy   TEWEN  =     -6800.41246779
  -Hartree energ DENC   =     -3806.76442304
  -exchange      EXHF   =         0.00000000
  -V(xc)+E(xc)   XCENC  =       407.01414012
  PAW double counting   =     12627.34982877   -13382.33202462
  entropy T*S    EENTRO =        -0.05555047
  eigenvalues    EBANDS =     -1585.80075475
  atomic energy  EATOM  =     12262.59788564
  Solvation  Ediel_sol  =         0.00000000
  ---------------------------------------------------
  free energy    TOTEN  =       -66.91538871 eV

  energy without entropy =      -66.85983824  energy(sigma->0) =      -66.89687189


--------------------------------------------------------------------------------------------------------




 average (electrostatic) potential at core
  the test charge radii are     0.9254  1.0774  0.9698
  (the norm of the test charge is              1.0000)
       1 -47.3142       2 -47.1825       3 -47.1696       4 -47.7660       5 -47.7265
       6 -47.3360       7 -47.3171       8 -47.2404       9 -47.3447      10 -99.1712
      11 -99.1047      12 -88.6632      13 -88.5852      14 -88.4736      15 -88.6857
      16 -88.5902      17 -88.5892      18 -88.7911      19 -88.6951



 E-fermi :   1.0168     XC(G=0):  -7.9705     alpha+bet : -8.1619

 Fermi energy:         1.0167763233

 k-point     1 :       0.0000    0.0000    0.0000
  band No.  band energies     occupation 
      1     -21.9684      2.00000
      2     -21.9631      2.00000
      3     -21.9328      2.00000
      4     -21.9299      2.00000
      5     -21.9280      2.00000
      6     -21.8884      2.00000
      7     -21.5645      2.00000
      8     -21.5491      2.00000
      9     -21.5441      2.00000
     10     -21.5416      2.00000
     11     -21.5350      2.00000
     12     -21.5274      2.00000
     13     -21.5196      2.00000
     14     -21.5162      2.00000
     15     -21.5150      2.00000
     16     -21.5071      2.00000
     17     -21.4984      2.00000
     18     -21.4881      2.00000
     19     -21.4521      2.00000
     20     -21.4220      2.00000
     21     -21.4150      2.00000
     22     -21.3966      2.00000
     23     -21.3850      2.00000
     24     -21.3831      2.00000
     25     -21.3765      2.00000
     26     -21.3646      2.00000
     27     -21.3435      2.00000
     28     -12.5954      2.00000
     29     -12.5808      2.00000
     30     -12.5649      2.00000
     31     -12.5433      2.00000
     32     -12.5176      2.00000
     33     -12.5028      2.00000
     34     -12.3859      2.00000
     35     -12.3539      2.00000
     36     -12.3217      2.00000
     37     -12.3001      2.00000
     38     -10.2693      2.00000
     39     -10.0513      2.00000
     40      -9.5119      2.00000
     41      -9.4761      2.00000
     42      -9.4079      2.00000
     43      -9.3285      2.00000
     44      -9.3102      2.00000
     45      -9.2173      2.00000
     46      -3.3840      2.00000
     47      -3.1463      2.00000
     48      -1.5508      2.00000
     49      -1.3709      2.00000
     50      -1.2026      2.00000
     51      -1.1393      2.00000
     52      -1.0605      2.00000
     53      -0.6488      2.00000
     54      -0.3859      2.00000
     55      -0.2757      2.00000
     56      -0.1409      2.00000
     57      -0.1013      2.00000
     58      -0.0499      2.00000
     59       0.0960      2.00000
     60       0.2367      2.00000
     61       0.2984      2.00000
     62       0.3334      2.00002
     63       0.3954      2.00010
     64       0.4826      2.00104
     65       0.4987      2.00153
     66       0.6359      2.02152
     67       0.8578      1.97751
     68       0.9167      1.74075
     69       0.9859      1.25753
     70       3.0742     -0.00000
     71       4.2734     -0.00000
     72       5.4468     -0.00000
     73       5.6108     -0.00000
     74       5.8150     -0.00000
     75       5.8714     -0.00000
     76       6.0029     -0.00000
     77       6.2643     -0.00000
     78       6.7180      0.00000
     79       6.8976      0.00000
     80       7.0947      0.00000
     81       7.0991      0.00000
     82       7.1862      0.00000
     83       7.4236      0.00000
     84       7.7677      0.00000
     85       7.9280      0.00000
     86       8.0147      0.00000
     87       8.2422      0.00000
     88       8.3228      0.00000
     89       8.4488      0.00000
     90       8.4839      0.00000
     91       8.5608      0.00000
     92       8.6649      0.00000
     93       8.8664      0.00000
     94       9.0082      0.00000
     95       9.1034      0.00000
     96       9.3047      0.00000


--------------------------------------------------------------------------------------------------------


 soft charge-density along one line, spin component           1
         0         1         2         3         4         5         6         7         8         9
 total charge-density along one line

 pseudopotential strength for first ion, spin component:           1
-25.523   0.003   0.003   2.645  -0.001  -0.001   0.004   0.014
  0.003 -25.513  -0.000  -0.001   2.640   0.000  -0.003  -0.011
  0.003  -0.000 -25.530  -0.001   0.000   2.648   0.001   0.002
  2.645  -0.001  -0.001   6.543   0.000   0.000  -0.000   0.000
 -0.001   2.640   0.000   0.000   6.543  -0.000   0.000  -0.000
 -0.001   0.000   2.648   0.000  -0.000   6.542  -0.000  -0.000
  0.004  -0.003   0.001  -0.000   0.000  -0.000   1.432   7.016
  0.014  -0.011   0.002   0.000  -0.000  -0.000   7.016  34.117
 total augmentation occupancy for first ion, spin component:           1
  2.001   0.000  -0.000  -0.000  -0.000  -0.000  -0.014   0.005
  0.000   2.001  -0.000  -0.000  -0.001   0.000   0.011  -0.004
 -0.000  -0.000   2.002  -0.000   0.000   0.000  -0.001   0.001
 -0.000  -0.000  -0.000   0.025   0.002   0.001  -0.008  -0.000
 -0.000  -0.001   0.000   0.002   0.024  -0.000   0.006  -0.000
 -0.000   0.000   0.000   0.001  -0.000   0.021  -0.003  -0.000
 -0.014   0.011  -0.001  -0.008   0.006  -0.003   0.560  -0.001
  0.005  -0.004   0.001  -0.000  -0.000  -0.000  -0.001   0.000


------------------------ aborting loop because EDIFF is reached ----------------------------------------


    CHARGE:  cpu time      0.0802: real time      0.0802
    FORLOC:  cpu time      0.0088: real time      0.0088
    FORNL :  cpu time      0.3866: real time      0.3871
    STRESS:  cpu time      1.2607: real time      1.2614
    FORCOR:  cpu time      0.0551: real time      0.0551
    FORHAR:  cpu time      0.0190: real time      0.0190
    MIXING:  cpu time      0.0023: real time      0.0023
    OFIELD:  cpu time      0.0000: real time      0.0000

  FORCE on cell =-STRESS in cart. coord.  units (eV):
  Direction    XX          YY          ZZ          XY          YZ          ZX
  --------------------------------------------------------------------------------------
  Alpha Z   211.48798   211.48798   211.48798
  Ewald   -2171.56417 -2262.57119 -2366.29312    48.05345   -40.16290    51.50440
  Hartree  1364.64891  1271.04224  1171.08352    34.88091   -33.22934    35.22991
  E(xc)    -643.63582  -643.80612  -643.69929     0.03240     0.01175     0.03577
  Local   -1053.98806  -885.08953  -679.72563   -83.71606    74.02215   -86.30127
  n-local   448.25984   457.09464   456.37376     0.51930    -0.07684    -0.12330
  augment   559.43816   559.85673   559.26645    -0.13910     0.11128    -0.01125
  Kinetic  1281.08674  1294.57203  1290.81969     0.13278    -1.01816    -0.12354
  Fock        0.00000     0.00000     0.00000     0.00000     0.00000     0.00000
  -------------------------------------------------------------------------------------
  Total      -4.26642     2.58678    -0.68665    -0.23633    -0.34207     0.21071
  in kB     -14.36676     8.71073    -2.31221    -0.79581    -1.15189     0.70956
  external pressure =       -2.66 kB  Pullay stress =        0.00 kB


 VOLUME and BASIS-vectors are now :
 -----------------------------------------------------------------------------
  energy-cutoff  :      500.00
  volume of cell :      475.79
      direct lattice vectors                 reciprocal lattice vectors
     6.833068891 -0.000000000 -0.127247023     0.146348793  0.000000000  0.000089461
    -0.000000000  8.835925276  0.000000000     0.000000000  0.113174339  0.000000000
    -0.004817206  0.000000000  7.880484692     0.002363109 -0.000000000  0.126897193

  length of vectors
     6.834253601  8.835925276  7.880486165     0.146348820  0.113174339  0.126919194


 FORCES acting on ions
    electron-ion (+dipol)            ewald-force                    non-local-force                 convergence-correction
 -----------------------------------------------------------------------------------------------
   -.219E+02 -.318E+02 0.356E+02   0.218E+02 0.308E+02 -.348E+02   0.903E-01 0.107E+01 -.819E+00   0.525E-04 0.632E-03 -.632E-03
[...]
  rms(prec ) = 0.58316E-03
  weight for this iteration     100.00

 eigenvalues of (default mixing * dielectric matrix)
  average eigenvalue GAMMA=   1.2628
  1.8024  1.8024  2.0226  0.3908  0.9904  0.9154  0.9154

 Free energy of the ion-electron system (eV)
  ---------------------------------------------------
  alpha Z        PSCENC =       211.48797744
  Ewald energy   TEWEN  =     -6838.50916217
  -Hartree energ DENC   =     -3772.50799858
  -exchange      EXHF   =         0.00000000
  -V(xc)+E(xc)   XCENC  =       407.09349708
  PAW double counting   =     12631.26326265   -13386.27209441
  entropy T*S    EENTRO =        -0.01742168
  eigenvalues    EBANDS =     -1582.26980292
  atomic energy  EATOM  =     12262.59788564
  Solvation  Ediel_sol  =         0.00000000
  ---------------------------------------------------
  free energy    TOTEN  =       -67.13385694 eV

  energy without entropy =      -67.11643526  energy(sigma->0) =      -67.12804972


--------------------------------------------------------------------------------------------------------




--------------------------------------- Iteration     28(   9)  ---------------------------------------


    POTLOK:  cpu time      0.0484: real time      0.0487
    SETDIJ:  cpu time      0.0529: real time      0.0532
    EDDIAG:  cpu time      0.0545: real time      0.0545
  RMM-DIIS:  cpu time      0.2133: real time      0.2134
    ORTHCH:  cpu time      0.0042: real time      0.0042
       DOS:  cpu time      0.0002: real time      0.0004
    CHARGE:  cpu time      0.0816: real time      0.0816
    MIXING:  cpu time      0.0022: real time      0.0022
    --------------------------------------------
      LOOP:  cpu time      0.4573: real time      0.4581

 eigenvalue-minimisations  :   166
 total energy-change (2. order) :-0.8736097E-06  (-0.1100771E-05)
 number of electron     137.0000002 magnetization 
 augmentation part       47.8916531 magnetization 

 Broyden mixing:
  rms(total) = 0.82334E-03    rms(broyden)= 0.82162E-03
  rms(prec ) = 0.96366E-03
  weight for this iteration     100.00

 eigenvalues of (default mixing * dielectric matrix)
  average eigenvalue GAMMA=   1.2066
  2.3359  1.4616  1.4616  1.1445  1.1445  0.3907  1.0270  0.6866

 Free energy of the ion-electron system (eV)
  ---------------------------------------------------
  alpha Z        PSCENC =       211.48797744
  Ewald energy   TEWEN  =     -6838.50916217
  -Hartree energ DENC   =     -3772.49656861
  -exchange      EXHF   =         0.00000000
  -V(xc)+E(xc)   XCENC  =       407.09344406
  PAW double counting   =     12632.15742629   -13387.17008688
  entropy T*S    EENTRO =        -0.01743326
  eigenvalues    EBANDS =     -1582.27734033
  atomic energy  EATOM  =     12262.59788564
  Solvation  Ediel_sol  =         0.00000000
  ---------------------------------------------------
  free energy    TOTEN  =       -67.13385782 eV

  energy without entropy =      -67.11642456  energy(sigma->0) =      -67.12804673


--------------------------------------------------------------------------------------------------------




--------------------------------------- Iteration     28(  10)  ---------------------------------------


    POTLOK:  cpu time      0.0485: real time      0.0487
    SETDIJ:  cpu time      0.0534: real time      0.0534
    EDDIAG:  cpu time      0.0545: real time      0.0545
  RMM-DIIS:  cpu time      0.1998: real time      0.2000
    ORTHCH:  cpu time      0.0042: real time      0.0042
       DOS:  cpu time      0.0002: real time      0.0002
    --------------------------------------------
      LOOP:  cpu time      0.3606: real time      0.3611

 eigenvalue-minimisations  :   158
 total energy-change (2. order) : 0.9771647E-06  (-0.3132078E-06)
 number of electron     137.0000002 magnetization 
 augmentation part       47.8916531 magnetization 

 Free energy of the ion-electron system (eV)
  ---------------------------------------------------
  alpha Z        PSCENC =       211.48797744
  Ewald energy   TEWEN  =     -6838.50916217
  -Hartree energ DENC   =     -3772.50618431
  -exchange      EXHF   =         0.00000000
  -V(xc)+E(xc)   XCENC  =       407.09351168
  PAW double counting   =     12631.47642017   -13386.48726445
  entropy T*S    EENTRO =        -0.01742920
  eigenvalues    EBANDS =     -1582.26961165
  atomic energy  EATOM  =     12262.59788564
  Solvation  Ediel_sol  =         0.00000000
  ---------------------------------------------------
  free energy    TOTEN  =       -67.13385684 eV

  energy without entropy =      -67.11642764  energy(sigma->0) =      -67.12804711


--------------------------------------------------------------------------------------------------------




 average (electrostatic) potential at core
  the test charge radii are     0.9254  1.0774  0.9698
  (the norm of the test charge is              1.0000)
       1 -47.2310       2 -47.0736       3 -47.0873       4 -47.8193       5 -47.5867
       6 -47.2788       7 -47.2888       8 -47.0666       9 -47.2927      10 -99.1593
      11 -99.1531      12 -88.6158      13 -88.6318      14 -88.5344      15 -88.6480
      16 -88.5924      17 -88.7351      18 -88.6252      19 -88.6675



 E-fermi :   0.9513     XC(G=0):  -7.9665     alpha+bet : -8.1619

 Fermi energy:         0.9512518413

 k-point     1 :       0.0000    0.0000    0.0000
  band No.  band energies     occupation 
      1     -22.0263      2.00000
      2     -22.0123      2.00000
      3     -21.9816      2.00000
      4     -21.7925      2.00000
      5     -21.7825      2.00000
      6     -21.7623      2.00000
      7     -21.5110      2.00000
      8     -21.5017      2.00000
      9     -21.4969      2.00000
     10     -21.4935      2.00000
     11     -21.4857      2.00000
     12     -21.4796      2.00000
     13     -21.4681      2.00000
     14     -21.4667      2.00000
     15     -21.4527      2.00000
     16     -21.4488      2.00000
     17     -21.4267      2.00000
     18     -21.4060      2.00000
     19     -21.3021      2.00000
     20     -21.2880      2.00000
     21     -21.2870      2.00000
     22     -21.2808      2.00000
     23     -21.2802      2.00000
     24     -21.2652      2.00000
     25     -21.2588      2.00000
     26     -21.2552      2.00000
     27     -21.2400      2.00000
     28     -12.5904      2.00000
     29     -12.5794      2.00000
     30     -12.5641      2.00000
     31     -12.5575      2.00000
     32     -12.5513      2.00000
     33     -12.5499      2.00000
     34     -12.3761      2.00000
     35     -12.3684      2.00000
     36     -12.3439      2.00000
     37     -12.3379      2.00000
     38     -10.2538      2.00000
     39     -10.0238      2.00000
     40      -9.5015      2.00000
     41      -9.4274      2.00000
     42      -9.4091      2.00000
     43      -9.3696      2.00000
     44      -9.3315      2.00000
     45      -9.2985      2.00000
     46      -3.3887      2.00000
     47      -3.1446      2.00000
     48      -1.5178      2.00000
     49      -1.3599      2.00000
     50      -1.1845      2.00000
     51      -1.0996      2.00000
     52      -1.0930      2.00000
     53      -0.6906      2.00000
     54      -0.2799      2.00000
     55      -0.2039      2.00000
     56      -0.1403      2.00000
     57      -0.0975      2.00000
     58      -0.0222      2.00000
     59       0.0514      2.00000
     60       0.2259      2.00000
     61       0.2549      2.00001
     62       0.2889      2.00003
     63       0.3250      2.00009
     64       0.4619      2.00293
     65       0.5639      2.01950
     66       0.7272      2.06705
     67       0.7779      2.01033
     68       0.8275      1.85637
     69       0.9461      1.04368
     70       3.0659     -0.00000
     71       4.2052     -0.00000
     72       5.4483     -0.00000
     73       5.7266     -0.00000
     74       5.8142     -0.00000
     75       5.9798     -0.00000
     76       6.1272     -0.00000
     77       6.2346     -0.00000
     78       6.6732      0.00000
     79       6.9578      0.00000
     80       7.0739      0.00000
     81       7.1310      0.00000
     82       7.2420      0.00000
     83       7.5668      0.00000
     84       7.7890      0.00000
     85       7.8482      0.00000
     86       7.9152      0.00000
     87       8.2014      0.00000
     88       8.3219      0.00000
     89       8.4798      0.00000
     90       8.5226      0.00000
     91       8.6803      0.00000
     92       8.7225      0.00000
     93       8.7897      0.00000
     94       9.0183      0.00000
     95       9.0714      0.00000
     96       9.1904      0.00000


--------------------------------------------------------------------------------------------------------


 soft charge-density along one line, spin component           1
         0         1         2         3         4         5         6         7         8         9
 total charge-density along one line

 pseudopotential strength for first ion, spin component:           1
-25.459   0.001   0.004   2.614  -0.000  -0.001   0.007   0.022
  0.001 -25.448  -0.003  -0.000   2.610   0.001  -0.002  -0.006
  0.004  -0.003 -25.480  -0.001   0.001   2.623  -0.002  -0.007
  2.614  -0.000  -0.001   6.553   0.000   0.000  -0.001   0.000
 -0.000   2.610   0.001   0.000   6.554  -0.000   0.000  -0.000
 -0.001   0.001   2.623   0.000  -0.000   6.552   0.000  -0.000
  0.007  -0.002  -0.002  -0.001   0.000   0.000   1.432   7.015
  0.022  -0.006  -0.007   0.000  -0.000  -0.000   7.015  34.101
 total augmentation occupancy for first ion, spin component:           1
  2.001   0.000  -0.000  -0.001  -0.000  -0.001  -0.023   0.008
  0.000   2.001   0.000  -0.000  -0.003   0.000   0.006  -0.002
 -0.000   0.000   2.002  -0.001   0.000   0.001   0.008  -0.003
 -0.001  -0.000  -0.001   0.025   0.001   0.001  -0.013  -0.000
 -0.000  -0.003   0.000   0.001   0.026  -0.000   0.003   0.000
 -0.001   0.000   0.001   0.001  -0.000   0.016   0.003  -0.000
 -0.023   0.006   0.008  -0.013   0.003   0.003   0.536  -0.001
  0.008  -0.002  -0.003  -0.000   0.000  -0.000  -0.001   0.000


------------------------ aborting loop because EDIFF is reached ----------------------------------------


    CHARGE:  cpu time      0.0805: real time      0.0806
    FORLOC:  cpu time      0.0089: real time      0.0089
    FORNL :  cpu time      0.3872: real time      0.3877
    STRESS:  cpu time      1.2683: real time      1.2690
    FORCOR:  cpu time      0.0556: real time      0.0556
    FORHAR:  cpu time      0.0190: real time      0.0190
    MIXING:  cpu time      0.0020: real time      0.0020
    OFIELD:  cpu time      0.0000: real time      0.0000

  FORCE on cell =-STRESS in cart. coord.  units (eV):
  Direction    XX          YY          ZZ          XY          YZ          ZX
  --------------------------------------------------------------------------------------
  Alpha Z   211.48798   211.48798   211.48798
  Ewald   -2269.78720 -2243.47529 -2325.26283    42.91323     3.84927    42.08992
  Hartree  1290.16770  1282.98513  1199.34889    31.91422     0.83881    29.59213
  E(xc)    -643.74873  -643.87044  -643.78009     0.03340     0.01274     0.01435
  Local    -878.13237  -917.22402  -751.58900   -74.80483    -4.82179   -70.10615
  n-local   446.96682   457.75502   457.56645     0.17540     0.34858    -0.51035
  augment   559.93401   559.54970   559.13692    -0.17941    -0.00143    -0.00228
  Kinetic  1278.88998  1295.64048  1292.81176    -0.60164    -0.39807    -0.71079
  Fock        0.00000     0.00000     0.00000     0.00000     0.00000     0.00000
  -------------------------------------------------------------------------------------
  Total      -4.22181     2.84855    -0.27993    -0.54962    -0.17189     0.36682
  in kB     -14.21653     9.59220    -0.94265    -1.85080    -0.57883     1.23525
  external pressure =       -1.86 kB  Pullay stress =        0.00 kB


 VOLUME and BASIS-vectors are now :
 -----------------------------------------------------------------------------
  energy-cutoff  :      500.00
  volume of cell :      475.79
      direct lattice vectors                 reciprocal lattice vectors
     6.833068891  0.000000000 -0.127247023     0.146348793  0.000000000  0.000089461
    -0.000000000  8.835925276  0.000000000    -0.000000000  0.113174339 -0.000000000
    -0.004817206  0.000000000  7.880484692     0.002363109 -0.000000000  0.126897193

  length of vectors
     6.834253601  8.835925276  7.880486165     0.146348820  0.113174339  0.126919194


 FORCES acting on ions
    electron-ion (+dipol)            ewald-force                    non-local-force                 convergence-correction
 -----------------------------------------------------------------------------------------------
   -.212E+02 -.256E+02 0.340E+02   0.218E+02 0.239E+02 -.335E+02   -.581E+00 0.169E+01 -.471E+00   -.596E-03 0.864E-04 0.437E-03
   0.224E+02 0.359E+02 -.322E+02   -.225E+02 -.345E+02 0.311E+02   0.789E-01 -.130E+01 0.116E+01   0.699E-03 -.801E-03 0.560E-04
   -.745E+01 0.229E+02 0.486E+02   0.742E+01 -.213E+02 -.479E+02   0.427E-01 -.159E+01 -.699E+00   -.834E-03 -.646E-03 -.228E-03
   0.145E+02 0.321E+01 0.524E+02   -.132E+02 -.469E+01 -.503E+02   -.129E+01 0.147E+01 -.215E+01   -.877E-03 0.253E-03 0.115E-02
   -.210E+02 0.154E+01 -.391E+02   0.212E+02 0.146E+01 0.355E+02   -.163E+00 -.300E+01 0.359E+01   -.126E-02 -.124E-02 0.358E-03
   -.116E+02 0.225E+02 -.637E+02   0.112E+02 -.231E+02 0.622E+02   0.464E+00 0.614E+00 0.148E+01   0.695E-03 0.434E-03 -.261E-03
   0.263E+02 -.253E+01 0.477E+02   -.260E+02 0.287E+01 -.455E+02   -.332E+00 -.341E+00 -.227E+01   0.420E-03 0.497E-03 -.279E-03
   -.156E+01 -.957E+01 -.114E+02   0.257E+01 0.981E+01 0.119E+02   -.101E+01 -.238E+00 -.430E+00   -.212E-03 0.398E-03 -.555E-03
   -.518E+01 0.134E+01 -.847E+00   0.466E+01 -.200E+01 0.170E+01   0.504E+00 0.653E+00 -.852E+00   0.176E-02 0.112E-02 0.811E-03
   0.170E+02 -.503E+02 -.549E+02   -.178E+02 0.503E+02 0.543E+02   0.825E+00 -.382E-01 0.651E+00   0.152E-03 0.101E-02 -.589E-03
   0.211E+01 0.506E+01 0.320E+02   -.151E+01 -.541E+01 -.309E+02   -.601E+00 0.343E+00 -.109E+01   -.696E-03 -.174E-02 -.147E-02
   -.449E+02 -.145E+02 0.947E+02   0.463E+02 0.146E+02 -.974E+02   -.134E+01 -.170E+00 0.272E+01   0.178E-03 0.366E-03 0.124E-02
   0.353E+02 0.355E+02 -.120E+03   -.364E+02 -.365E+02 0.123E+03   0.113E+01 0.952E+00 -.296E+01   -.298E-03 0.732E-04 -.670E-03
   0.298E+02 0.683E+02 0.741E+02   -.308E+02 -.711E+02 -.754E+02   0.103E+01 0.272E+01 0.133E+01   0.428E-03 0.763E-03 0.229E-03
   -.502E+02 0.737E+02 -.511E+02   0.510E+02 -.764E+02 0.522E+02   -.807E+00 0.267E+01 -.108E+01   -.339E-03 0.358E-03 -.338E-03
   -.104E+02 -.748E+02 -.482E+02   0.117E+02 0.777E+02 0.498E+02   -.137E+01 -.291E+01 -.157E+01   0.126E-04 -.705E-03 0.112E-03
   0.460E+02 -.686E+02 0.531E+02   -.471E+02 0.712E+02 -.547E+02   0.118E+01 -.259E+01 0.163E+01   0.319E-04 -.948E-03 0.175E-03
   -.926E+02 0.149E+02 0.148E+02   0.954E+02 -.152E+02 -.148E+02   -.275E+01 0.356E+00 -.206E-01   -.742E-03 -.105E-04 0.124E-03
   0.749E+02 -.382E+02 -.289E+02   -.779E+02 0.384E+02 0.290E+02   0.298E+01 -.169E+00 -.117E+00   0.358E-03 0.926E-04 -.281E-03
 -----------------------------------------------------------------------------------------------
   0.200E+01 0.885E+00 0.114E+01   0.142E-13 0.355E-13 -.355E-14   -.200E+01 -.885E+00 -.114E+01   -.113E-02 -.641E-03 0.122E-04


 POSITION                                       TOTAL-FORCE (eV/Angst)
 -----------------------------------------------------------------------------------
      4.62734      4.61129      5.09016        -0.002585      0.000669      0.004216
      2.32769      4.24825      2.57507        -0.003886      0.011185     -0.003479
      4.35057      8.69561      5.06472         0.005963      0.005563      0.001154
     -0.00201      2.01866      3.97949         0.000525     -0.003979     -0.005399
      0.45492      6.97822      3.67918         0.010396     -0.000593      0.003906
      4.35653      2.01293      1.22097        -0.000078     -0.003529      0.004204
      2.27311      6.54211      6.60997        -0.000887     -0.007087     -0.001474
      0.18353     -0.09107      0.17634        -0.002881      0.000466     -0.003182
     -0.16909      4.35533      0.01087        -0.014619     -0.005353      0.003413
      4.43175      6.69665      1.34860        -0.007844      0.002158      0.001880
      2.32813      2.26588      6.46522         0.000552     -0.004206      0.001309
      5.17760      6.67166      6.83498         0.008882      0.001108     -0.009674
      1.53169      2.26120      0.93401        -0.008803      0.013750      0.011168
      1.54195      0.11808      5.44283         0.001865      0.004347     -0.011763
      5.17727      4.53055      2.41618         0.005157     -0.013068      0.005179
      5.39123      8.68656      2.51461         0.000987     -0.005584     -0.003895
      1.51130      4.28560      5.19361         0.002349      0.000128      0.001307
      4.85179      2.23193      6.36227         0.001687      0.009802      0.003350
      1.92978      6.64368      1.39069         0.003221     -0.005778     -0.002220
 -----------------------------------------------------------------------------------
    total drift:                               -0.001388     -0.000398     -0.000181


--------------------------------------------------------------------------------------------------------



  FREE ENERGIE OF THE ION-ELECTRON SYSTEM (eV)
  ---------------------------------------------------
  free  energy   TOTEN  =       -67.13385684 eV

  energy  without entropy=      -67.11642764  energy(sigma->0) =      -67.12804711

 d Force = 0.6353548E-03[ 0.249E-03, 0.102E-02]  d Energy = 0.6410136E-03-0.566E-05
 d Force =-0.1941874E+01[-0.195E+01,-0.193E+01]  d Ewald  =-0.1941881E+01 0.685E-05


--------------------------------------------------------------------------------------------------------


    POTLOK:  cpu time      0.1014: real time      0.1016


--------------------------------------------------------------------------------------------------------


 Conjugate gradient step on ions:
 trial-energy change:   -0.000641  1 .order   -0.000635   -0.001022   -0.000249
  (g-gl).g = 0.203E-03      g.g   = 0.312E-03  gl.gl    = 0.433E-03
 g(Force)  = 0.312E-03   g(Stress)= 0.000E+00 ortho     =-0.579E-05
 gamma     =   0.46913
 trial     =   3.30873
 opt step  =   4.31713  (harmonic =   4.37494) maximal distance =0.00802901
 next E    =   -67.133895   (d E  =  -0.00068)


--------------------------------------------------------------------------------------------------------


  
 reached required accuracy - stopping structural energy minimisation
 writing wavefunctions
     LOOP+:  cpu time      6.9626: real time      6.9803
    4ORBIT:  cpu time      0.0000: real time      0.0000

 total amount of memory used by VASP MPI-rank0    70518. kBytes
=======================================================================

   base      :      30000. kBytes
   nonl-proj :       8914. kBytes
   fftplans  :      15432. kBytes
   grid      :      14698. kBytes
   one-center:        295. kBytes
   wavefun   :       1179. kBytes

  
  
 General timing and accounting informations for this job:
 ========================================================
  
                  Total CPU time used (sec):      222.408
                            User time (sec):      216.010
                          System time (sec):        6.398
                         Elapsed time (sec):      229.578
  
                   Maximum memory used (kb):      193040.
                   Average memory used (kb):          N/A
  
                          Minor page faults:        95462
                          Major page faults:          239
                 Voluntary context switches:         1774
