  79  79   0   0
  0.2352942E+02  0.1210264E-08  0.7093817E-09  0.2165102E-08  0.0000000E+00
   1.0000000000000000E-004
  CAR 
 NEB_refined                             
      8.96227609    -23.89910390  301      0.87560731      1.00000000
    -23.899  0.0000E+00  0.0000E+00
    -23.790  0.0000E+00  0.0000E+00
    -23.680  0.0000E+00  0.0000E+00
    -23.570 -0.9282E-31 -0.1017E-31
    -23.461 -0.6512E-27 -0.7134E-28
    -23.351 -0.2443E-23 -0.2677E-24
    -23.242 -0.5030E-20 -0.5512E-21
    -23.132 -0.5681E-17 -0.6228E-18
    -23.023 -0.3411E-14 -0.3743E-15
    -22.913 -0.1150E-11 -0.1264E-12
    -22.804 -0.2118E-09 -0.2333E-10
    -22.694 -0.2123E-07 -0.2349E-08
    -22.585 -0.1152E-05 -0.1286E-06
    -22.475 -0.3355E-04 -0.3804E-05
    -22.366 -0.5148E-03 -0.6020E-04
    -22.256 -0.4013E-02 -0.4997E-03
    -22.146 -0.1439E-01 -0.2076E-02
    -22.037 -0.1294E-01 -0.3493E-02
    -21.927  0.6662E-01  0.3804E-02
    -21.818  0.3163E+00  0.3845E-01
    -21.708  0.7991E+00  0.1260E+00
    -21.599  0.1232E+01  0.2609E+00
    -21.489  0.1122E+01  0.3838E+00
    -21.380  0.6134E+00  0.4510E+00
    -21.270  0.1856E+00  0.4714E+00
    -21.161  0.2131E-02  0.4716E+00
    -21.051 -0.2269E-01  0.4691E+00
    -20.942 -0.8543E-02  0.4682E+00
    -20.832 -0.1433E-02  0.4680E+00
    -20.723 -0.1243E-03  0.4680E+00
    -20.613 -0.5795E-05  0.4680E+00
    -20.503 -0.1471E-06  0.4680E+00
    -20.394 -0.2045E-08  0.4680E+00
    -20.284 -0.1560E-10  0.4680E+00
    -20.175 -0.6534E-13  0.4680E+00
    -20.065 -0.1622E-15  0.4680E+00
    -19.956  0.0000E+00  0.4680E+00
    -19.846  0.0000E+00  0.4680E+00
    -19.737  0.0000E+00  0.4680E+00
    -19.627  0.0000E+00  0.4680E+00
    -19.518  0.0000E+00  0.4680E+00
    -19.408  0.0000E+00  0.4680E+00
    -19.299  0.0000E+00  0.4680E+00
    -19.189  0.0000E+00  0.4680E+00
    -19.079  0.0000E+00  0.4680E+00
    -18.970  0.0000E+00  0.4680E+00
    -18.860  0.0000E+00  0.4680E+00
    -18.751  0.0000E+00  0.4680E+00
    -18.641  0.0000E+00  0.4680E+00
    -18.532  0.0000E+00  0.4680E+00
    -18.422  0.0000E+00  0.4680E+00
    -18.313  0.0000E+00  0.4680E+00
    -18.203  0.0000E+00  0.4680E+00
    -18.094  0.0000E+00  0.4680E+00
    -17.984  0.0000E+00  0.4680E+00
    -17.875  0.0000E+00  0.4680E+00
    -17.765  0.0000E+00  0.4680E+00
    -17.655  0.0000E+00  0.4680E+00
    -17.546  0.0000E+00  0.4680E+00
    -17.436  0.0000E+00  0.4680E+00
    -17.327  0.0000E+00  0.4680E+00
    -17.217  0.0000E+00  0.4680E+00
    -17.108  0.0000E+00  0.4680E+00
    -16.998  0.0000E+00  0.4680E+00
    -16.889  0.0000E+00  0.4680E+00
    -16.779  0.0000E+00  0.4680E+00
    -16.670  0.0000E+00  0.4680E+00
    -16.560  0.0000E+00  0.4680E+00
    -16.451  0.0000E+00  0.4680E+00
    -16.341  0.0000E+00  0.4680E+00
    -16.231  0.0000E+00  0.4680E+00
    -16.122  0.0000E+00  0.4680E+00
    -16.012  0.0000E+00  0.4680E+00
    -15.903  0.0000E+00  0.4680E+00
    -15.793  0.0000E+00  0.4680E+00
    -15.684  0.0000E+00  0.4680E+00
    -15.574  0.0000E+00  0.4680E+00
    -15.465  0.0000E+00  0.4680E+00
    -15.355  0.0000E+00  0.4680E+00
    -15.246  0.0000E+00  0.4680E+00
    -15.136  0.0000E+00  0.4680E+00
    -15.027  0.0000E+00  0.4680E+00
    -14.917  0.0000E+00  0.4680E+00
    -14.807  0.0000E+00  0.4680E+00
    -14.698  0.0000E+00  0.4680E+00
    -14.588  0.0000E+00  0.4680E+00
    -14.479  0.0000E+00  0.4680E+00
    -14.369  0.0000E+00  0.4680E+00
    -14.260  0.0000E+00  0.4680E+00
    -14.150  0.0000E+00  0.4680E+00
    -14.041  0.0000E+00  0.4680E+00
    -13.931  0.0000E+00  0.4680E+00
    -13.822  0.0000E+00  0.4680E+00
    -13.712  0.0000E+00  0.4680E+00
    -13.603  0.0000E+00  0.4680E+00
    -13.493  0.0000E+00  0.4680E+00
    -13.383  0.0000E+00  0.4680E+00
    -13.274  0.0000E+00  0.4680E+00
    -13.164  0.0000E+00  0.4680E+00
    -13.055  0.0000E+00  0.4680E+00
    -12.945  0.0000E+00  0.4680E+00
    -12.836  0.0000E+00  0.4680E+00
    -12.726  0.0000E+00  0.4680E+00
    -12.617  0.0000E+00  0.4680E+00
    -12.507  0.0000E+00  0.4680E+00
    -12.398  0.0000E+00  0.4680E+00
    -12.288  0.0000E+00  0.4680E+00
    -12.179 -0.4305E-29  0.4680E+00
    -12.069 -0.2071E-25  0.4680E+00
    -11.959 -0.5454E-22  0.4680E+00
    -11.850 -0.7861E-19  0.4680E+00
    -11.740 -0.5999E-16  0.4680E+00
    -11.631 -0.2586E-13  0.4680E+00
    -11.521 -0.6061E-11  0.4680E+00
    -11.412 -0.7747E-09  0.4680E+00
    -11.302 -0.5386E-07  0.4680E+00
    -11.193 -0.2025E-05  0.4680E+00
    -11.083 -0.4069E-04  0.4680E+00
    -10.974 -0.4245E-03  0.4679E+00
    -10.864 -0.2116E-02  0.4677E+00
    -10.755 -0.3265E-02  0.4674E+00
    -10.645  0.1079E-01  0.4685E+00
    -10.535  0.5417E-01  0.4745E+00
    -10.426  0.9758E-01  0.4852E+00
    -10.316  0.9138E-01  0.4952E+00
    -10.207  0.4149E-01  0.4997E+00
    -10.097 -0.1419E-02  0.4996E+00
     -9.988 -0.5897E-02  0.4989E+00
     -9.878  0.5118E-01  0.5045E+00
     -9.769  0.1795E+00  0.5242E+00
     -9.659  0.2941E+00  0.5564E+00
     -9.550  0.2605E+00  0.5849E+00
     -9.440  0.1099E+00  0.5970E+00
     -9.331  0.6544E-02  0.5977E+00
     -9.221 -0.1093E-01  0.5965E+00
     -9.111 -0.3866E-02  0.5961E+00
     -9.002 -0.5604E-03  0.5960E+00
     -8.892 -0.4082E-04  0.5960E+00
     -8.783 -0.1579E-05  0.5960E+00
     -8.673 -0.3310E-07  0.5960E+00
     -8.564 -0.3796E-09  0.5960E+00
     -8.454 -0.2390E-11  0.5960E+00
     -8.345 -0.8287E-14  0.5960E+00
     -8.235 -0.8108E-17  0.5960E+00
     -8.126  0.0000E+00  0.5960E+00
     -8.016  0.0000E+00  0.5960E+00
     -7.907  0.0000E+00  0.5960E+00
     -7.797  0.0000E+00  0.5960E+00
     -7.687  0.0000E+00  0.5960E+00
     -7.578  0.0000E+00  0.5960E+00
     -7.468  0.0000E+00  0.5960E+00
     -7.359  0.0000E+00  0.5960E+00
     -7.249  0.0000E+00  0.5960E+00
     -7.140  0.0000E+00  0.5960E+00
     -7.030  0.0000E+00  0.5960E+00
     -6.921  0.0000E+00  0.5960E+00
     -6.811  0.0000E+00  0.5960E+00
     -6.702  0.0000E+00  0.5960E+00
     -6.592  0.0000E+00  0.5960E+00
     -6.483  0.0000E+00  0.5960E+00
     -6.373  0.0000E+00  0.5960E+00
     -6.263  0.0000E+00  0.5960E+00
     -6.154  0.0000E+00  0.5960E+00
     -6.044  0.0000E+00  0.5960E+00
     -5.935  0.0000E+00  0.5960E+00
     -5.825  0.0000E+00  0.5960E+00
     -5.716  0.0000E+00  0.5960E+00
     -5.606  0.0000E+00  0.5960E+00
     -5.497  0.0000E+00  0.5960E+00
     -5.387  0.0000E+00  0.5960E+00
     -5.278  0.0000E+00  0.5960E+00
     -5.168  0.0000E+00  0.5960E+00
     -5.059  0.0000E+00  0.5960E+00
     -4.949 -0.3443E-31  0.5960E+00
     -4.840 -0.2283E-27  0.5960E+00
     -4.730 -0.8257E-24  0.5960E+00
     -4.620 -0.1631E-20  0.5960E+00
     -4.511 -0.1759E-17  0.5960E+00
     -4.401 -0.1003E-14  0.5960E+00
     -4.292 -0.3195E-12  0.5960E+00
     -4.182 -0.5534E-10  0.5960E+00
     -4.073 -0.5201E-08  0.5960E+00
     -3.963 -0.2644E-06  0.5960E+00
     -3.854 -0.7233E-05  0.5960E+00
     -3.744 -0.1051E-03  0.5960E+00
     -3.635 -0.7832E-03  0.5959E+00
     -3.525 -0.2625E-02  0.5956E+00
     -3.416 -0.7411E-03  0.5955E+00
     -3.306  0.2082E-01  0.5978E+00
     -3.196  0.6565E-01  0.6050E+00
     -3.087  0.9647E-01  0.6156E+00
     -2.977  0.7893E-01  0.6242E+00
     -2.868  0.3459E-01  0.6280E+00
     -2.758  0.4377E-02  0.6285E+00
     -2.649 -0.2801E-02  0.6282E+00
     -2.539 -0.1365E-02  0.6280E+00
     -2.430 -0.2489E-03  0.6280E+00
     -2.320 -0.2737E-04  0.6280E+00
     -2.211 -0.9236E-04  0.6280E+00
     -2.101 -0.8550E-03  0.6279E+00
     -1.992 -0.3842E-02  0.6275E+00
     -1.882 -0.4915E-02  0.6269E+00
     -1.772  0.2097E-01  0.6292E+00
     -1.663  0.9344E-01  0.6395E+00
     -1.553  0.1665E+00  0.6577E+00
     -1.444  0.1845E+00  0.6779E+00
     -1.334  0.1665E+00  0.6962E+00
     -1.225  0.1401E+00  0.7115E+00
     -1.115  0.8995E-01  0.7214E+00
     -1.006  0.2715E-01  0.7243E+00
     -0.896 -0.7145E-02  0.7236E+00
     -0.787  0.6534E-02  0.7243E+00
     -0.677  0.7239E-01  0.7322E+00
     -0.568  0.1401E+00  0.7476E+00
     -0.458  0.1492E+00  0.7639E+00
     -0.348  0.1320E+00  0.7784E+00
     -0.239  0.1312E+00  0.7927E+00
     -0.129  0.1473E+00  0.8089E+00
     -0.020  0.1572E+00  0.8261E+00
      0.090  0.1478E+00  0.8423E+00
      0.199  0.1501E+00  0.8587E+00
      0.309  0.1735E+00  0.8777E+00
      0.418  0.2041E+00  0.9001E+00
      0.528  0.2304E+00  0.9253E+00
      0.637  0.2182E+00  0.9492E+00
      0.747  0.1624E+00  0.9670E+00
      0.856  0.9134E-01  0.9770E+00
      0.966  0.3136E-01  0.9804E+00
      1.076  0.1344E-02  0.9806E+00
      1.185 -0.3634E-02  0.9802E+00
      1.295 -0.1442E-02  0.9800E+00
      1.404 -0.2443E-03  0.9800E+00
      1.514 -0.2097E-04  0.9800E+00
      1.623 -0.9512E-06  0.9800E+00
      1.733 -0.2314E-07  0.9800E+00
      1.842 -0.3040E-09  0.9800E+00
      1.952 -0.2166E-11  0.9800E+00
      2.061 -0.8384E-14  0.9800E+00
      2.171 -0.1622E-16  0.9800E+00
      2.280 -0.1756E-18  0.9800E+00
      2.390 -0.1221E-15  0.9800E+00
      2.500 -0.4752E-13  0.9800E+00
      2.609 -0.9975E-11  0.9800E+00
      2.719 -0.1127E-08  0.9800E+00
      2.828 -0.6806E-07  0.9800E+00
      2.938 -0.2164E-05  0.9800E+00
      3.047 -0.3522E-04  0.9800E+00
      3.157 -0.2745E-03  0.9800E+00
      3.266 -0.8040E-03  0.9799E+00
      3.376  0.8052E-03  0.9800E+00
      3.485  0.8801E-02  0.9809E+00
      3.595  0.1614E-01  0.9827E+00
      3.704  0.1111E-01  0.9839E+00
      3.814  0.2012E-02  0.9841E+00
      3.924 -0.1034E-02  0.9840E+00
      4.033 -0.1482E-02  0.9839E+00
      4.143 -0.1121E-02  0.9837E+00
      4.252  0.8158E-02  0.9846E+00
      4.362  0.2677E-01  0.9876E+00
      4.471  0.2993E-01  0.9908E+00
      4.581  0.1224E-01  0.9922E+00
      4.690 -0.1076E-02  0.9921E+00
      4.800 -0.3413E-02  0.9917E+00
      4.909  0.4015E-02  0.9921E+00
      5.019  0.2545E-01  0.9949E+00
      5.128  0.4262E-01  0.9996E+00
      5.238  0.4442E-01  0.1004E+01
      5.348  0.5536E-01  0.1011E+01
      5.457  0.7735E-01  0.1019E+01
      5.567  0.9682E-01  0.1030E+01
      5.676  0.1151E+00  0.1042E+01
      5.786  0.1258E+00  0.1056E+01
      5.895  0.1113E+00  0.1068E+01
      6.005  0.8036E-01  0.1077E+01
      6.114  0.7311E-01  0.1085E+01
      6.224  0.8705E-01  0.1095E+01
      6.333  0.8840E-01  0.1104E+01
      6.443  0.8615E-01  0.1114E+01
      6.552  0.1021E+00  0.1125E+01
      6.662  0.1175E+00  0.1138E+01
      6.772  0.1136E+00  0.1150E+01
      6.881  0.1089E+00  0.1162E+01
      6.991  0.9019E-01  0.1172E+01
      7.100  0.4039E-01  0.1176E+01
      7.210  0.2549E-02  0.1177E+01
      7.319 -0.4225E-02  0.1176E+01
      7.429 -0.1462E-02  0.1176E+01
      7.538 -0.2020E-03  0.1176E+01
      7.648 -0.1373E-04  0.1176E+01
      7.757 -0.4876E-06  0.1176E+01
      7.867 -0.9254E-08  0.1176E+01
      7.976 -0.9491E-10  0.1176E+01
      8.086 -0.5291E-12  0.1176E+01
      8.196 -0.1605E-14  0.1176E+01
      8.305  0.0000E+00  0.1176E+01
      8.415  0.0000E+00  0.1176E+01
      8.524  0.0000E+00  0.1176E+01
      8.634  0.0000E+00  0.1176E+01
      8.743  0.0000E+00  0.1176E+01
      8.853  0.0000E+00  0.1176E+01
      8.962  0.0000E+00  0.1176E+01
