  20  20   0   0
  0.2378953E+02  0.6834254E-09  0.8835925E-09  0.7880486E-09  0.1500000E-16
   1.0000000000000000E-004
  CAR 
 unknown system                          
     10.58044980    -23.18075465  301      1.47899177      1.00000000
    -23.181  0.0000E+00  0.0000E+00
    -23.068  0.0000E+00  0.0000E+00
    -22.956  0.0000E+00  0.0000E+00
    -22.843  0.0000E+00  0.0000E+00
    -22.731  0.0000E+00  0.0000E+00
    -22.618  0.0000E+00  0.0000E+00
    -22.506  0.0000E+00  0.0000E+00
    -22.393  0.0000E+00  0.0000E+00
    -22.280  0.0000E+00  0.0000E+00
    -22.168  0.0000E+00  0.0000E+00
    -22.055  0.0000E+00  0.0000E+00
    -21.943  0.0000E+00  0.0000E+00
    -21.830  0.9263E-08  0.1042E-08
    -21.718  0.3160E-02  0.3557E-03
    -21.605  0.2709E+00  0.3084E-01
    -21.493  0.1108E+00  0.4331E-01
    -21.380  0.2601E-03  0.4334E-01
    -21.268  0.1311E+00  0.5810E-01
    -21.155  0.6251E+00  0.1284E+00
    -21.043  0.7181E+00  0.2093E+00
    -20.930  0.6530E-01  0.2166E+00
    -20.817  0.8016E-05  0.2166E+00
    -20.705  0.1179E-12  0.2166E+00
    -20.592  0.0000E+00  0.2166E+00
    -20.480  0.0000E+00  0.2166E+00
    -20.367  0.0000E+00  0.2166E+00
    -20.255  0.0000E+00  0.2166E+00
    -20.142  0.0000E+00  0.2166E+00
    -20.030  0.0000E+00  0.2166E+00
    -19.917  0.0000E+00  0.2166E+00
    -19.805  0.0000E+00  0.2166E+00
    -19.692  0.0000E+00  0.2166E+00
    -19.580  0.0000E+00  0.2166E+00
    -19.467  0.0000E+00  0.2166E+00
    -19.354  0.0000E+00  0.2166E+00
    -19.242  0.0000E+00  0.2166E+00
    -19.129  0.0000E+00  0.2166E+00
    -19.017  0.0000E+00  0.2166E+00
    -18.904  0.0000E+00  0.2166E+00
    -18.792  0.0000E+00  0.2166E+00
    -18.679  0.0000E+00  0.2166E+00
    -18.567  0.0000E+00  0.2166E+00
    -18.454  0.0000E+00  0.2166E+00
    -18.342  0.0000E+00  0.2166E+00
    -18.229  0.0000E+00  0.2166E+00
    -18.117  0.0000E+00  0.2166E+00
    -18.004  0.0000E+00  0.2166E+00
    -17.891  0.0000E+00  0.2166E+00
    -17.779  0.0000E+00  0.2166E+00
    -17.666  0.0000E+00  0.2166E+00
    -17.554  0.0000E+00  0.2166E+00
    -17.441  0.0000E+00  0.2166E+00
    -17.329  0.0000E+00  0.2166E+00
    -17.216  0.0000E+00  0.2166E+00
    -17.104  0.0000E+00  0.2166E+00
    -16.991  0.0000E+00  0.2166E+00
    -16.879  0.0000E+00  0.2166E+00
    -16.766  0.0000E+00  0.2166E+00
    -16.654  0.0000E+00  0.2166E+00
    -16.541  0.0000E+00  0.2166E+00
    -16.429  0.0000E+00  0.2166E+00
    -16.316  0.0000E+00  0.2166E+00
    -16.203  0.0000E+00  0.2166E+00
    -16.091  0.0000E+00  0.2166E+00
    -15.978  0.0000E+00  0.2166E+00
    -15.866  0.0000E+00  0.2166E+00
    -15.753  0.0000E+00  0.2166E+00
    -15.641  0.0000E+00  0.2166E+00
    -15.528  0.0000E+00  0.2166E+00
    -15.416  0.0000E+00  0.2166E+00
    -15.303  0.0000E+00  0.2166E+00
    -15.191  0.0000E+00  0.2166E+00
    -15.078  0.0000E+00  0.2166E+00
    -14.966  0.0000E+00  0.2166E+00
    -14.853  0.0000E+00  0.2166E+00
    -14.740  0.0000E+00  0.2166E+00
    -14.628  0.0000E+00  0.2166E+00
    -14.515  0.0000E+00  0.2166E+00
    -14.403  0.0000E+00  0.2166E+00
    -14.290  0.0000E+00  0.2166E+00
    -14.178  0.0000E+00  0.2166E+00
    -14.065  0.0000E+00  0.2166E+00
    -13.953  0.0000E+00  0.2166E+00
    -13.840  0.0000E+00  0.2166E+00
    -13.728  0.0000E+00  0.2166E+00
    -13.615  0.0000E+00  0.2166E+00
    -13.503  0.0000E+00  0.2166E+00
    -13.390  0.0000E+00  0.2166E+00
    -13.277  0.0000E+00  0.2166E+00
    -13.165  0.0000E+00  0.2166E+00
    -13.052  0.0000E+00  0.2166E+00
    -12.940  0.0000E+00  0.2166E+00
    -12.827  0.0000E+00  0.2166E+00
    -12.715  0.0000E+00  0.2166E+00
    -12.602  0.0000E+00  0.2166E+00
    -12.490  0.3391E-12  0.2166E+00
    -12.377  0.1986E-04  0.2166E+00
    -12.265  0.9108E-01  0.2269E+00
    -12.152  0.2912E+00  0.2596E+00
    -12.040  0.1137E+00  0.2724E+00
    -11.927  0.1452E+00  0.2888E+00
    -11.814  0.3755E-03  0.2888E+00
    -11.702  0.1143E-09  0.2888E+00
    -11.589  0.0000E+00  0.2888E+00
    -11.477  0.0000E+00  0.2888E+00
    -11.364  0.0000E+00  0.2888E+00
    -11.252  0.0000E+00  0.2888E+00
    -11.139  0.0000E+00  0.2888E+00
    -11.027  0.0000E+00  0.2888E+00
    -10.914  0.0000E+00  0.2888E+00
    -10.802  0.0000E+00  0.2888E+00
    -10.689  0.0000E+00  0.2888E+00
    -10.577  0.0000E+00  0.2888E+00
    -10.464  0.0000E+00  0.2888E+00
    -10.351  0.0000E+00  0.2888E+00
    -10.239  0.7914E-16  0.2888E+00
    -10.126  0.2273E-07  0.2888E+00
    -10.014  0.4346E-03  0.2889E+00
     -9.901  0.9864E-02  0.2900E+00
     -9.789  0.5759E-01  0.2964E+00
     -9.676  0.5882E-01  0.3031E+00
     -9.564  0.1607E-02  0.3032E+00
     -9.451  0.3304E-07  0.3032E+00
     -9.339  0.4214E-05  0.3032E+00
     -9.226  0.1948E-01  0.3054E+00
     -9.114  0.1874E+00  0.3265E+00
     -9.001  0.1727E+00  0.3460E+00
     -8.889  0.5325E-02  0.3466E+00
     -8.776  0.3029E-06  0.3466E+00
     -8.663  0.2392E-14  0.3466E+00
     -8.551  0.0000E+00  0.3466E+00
     -8.438  0.0000E+00  0.3466E+00
     -8.326  0.0000E+00  0.3466E+00
     -8.213  0.0000E+00  0.3466E+00
     -8.101  0.0000E+00  0.3466E+00
     -7.988  0.0000E+00  0.3466E+00
     -7.876  0.0000E+00  0.3466E+00
     -7.763  0.0000E+00  0.3466E+00
     -7.651  0.0000E+00  0.3466E+00
     -7.538  0.0000E+00  0.3466E+00
     -7.426  0.0000E+00  0.3466E+00
     -7.313  0.0000E+00  0.3466E+00
     -7.200  0.0000E+00  0.3466E+00
     -7.088  0.0000E+00  0.3466E+00
     -6.975  0.0000E+00  0.3466E+00
     -6.863  0.0000E+00  0.3466E+00
     -6.750  0.0000E+00  0.3466E+00
     -6.638  0.0000E+00  0.3466E+00
     -6.525  0.0000E+00  0.3466E+00
     -6.413  0.0000E+00  0.3466E+00
     -6.300  0.0000E+00  0.3466E+00
     -6.188  0.0000E+00  0.3466E+00
     -6.075  0.0000E+00  0.3466E+00
     -5.963  0.0000E+00  0.3466E+00
     -5.850  0.0000E+00  0.3466E+00
     -5.737  0.0000E+00  0.3466E+00
     -5.625  0.0000E+00  0.3466E+00
     -5.512  0.0000E+00  0.3466E+00
     -5.400  0.0000E+00  0.3466E+00
     -5.287  0.0000E+00  0.3466E+00
     -5.175  0.0000E+00  0.3466E+00
     -5.062  0.0000E+00  0.3466E+00
     -4.950  0.0000E+00  0.3466E+00
     -4.837  0.0000E+00  0.3466E+00
     -4.725  0.0000E+00  0.3466E+00
     -4.612  0.0000E+00  0.3466E+00
     -4.500  0.0000E+00  0.3466E+00
     -4.387  0.0000E+00  0.3466E+00
     -4.274  0.0000E+00  0.3466E+00
     -4.162  0.0000E+00  0.3466E+00
     -4.049  0.0000E+00  0.3466E+00
     -3.937  0.0000E+00  0.3466E+00
     -3.824  0.0000E+00  0.3466E+00
     -3.712  0.0000E+00  0.3466E+00
     -3.599  0.0000E+00  0.3466E+00
     -3.487  0.0000E+00  0.3466E+00
     -3.374  0.4562E-12  0.3466E+00
     -3.262  0.4400E-05  0.3466E+00
     -3.149  0.6171E-02  0.3473E+00
     -3.037  0.5001E-01  0.3529E+00
     -2.924  0.5925E-01  0.3596E+00
     -2.811  0.1278E-01  0.3610E+00
     -2.699  0.1047E-03  0.3610E+00
     -2.586  0.5656E-09  0.3610E+00
     -2.474  0.0000E+00  0.3610E+00
     -2.361  0.0000E+00  0.3610E+00
     -2.249  0.0000E+00  0.3610E+00
     -2.136  0.0000E+00  0.3610E+00
     -2.024  0.0000E+00  0.3610E+00
     -1.911  0.0000E+00  0.3610E+00
     -1.799  0.0000E+00  0.3610E+00
     -1.686  0.0000E+00  0.3610E+00
     -1.574  0.3957E-17  0.3610E+00
     -1.461  0.5145E-08  0.3610E+00
     -1.349  0.4397E-03  0.3611E+00
     -1.236  0.9459E-02  0.3621E+00
     -1.123  0.1861E-01  0.3642E+00
     -1.011  0.5160E-01  0.3700E+00
     -0.898  0.6271E-01  0.3771E+00
     -0.786  0.5654E-01  0.3834E+00
     -0.673  0.4870E-01  0.3889E+00
     -0.561  0.7803E-01  0.3977E+00
     -0.448  0.5304E-01  0.4037E+00
     -0.336  0.2051E-01  0.4060E+00
     -0.223  0.4722E-01  0.4113E+00
     -0.111  0.6202E-01  0.4183E+00
      0.002  0.4614E-01  0.4235E+00
      0.114  0.7203E-01  0.4316E+00
      0.227  0.7126E-01  0.4396E+00
      0.340  0.5623E-01  0.4459E+00
      0.452  0.4623E-01  0.4511E+00
      0.565  0.1015E+00  0.4625E+00
      0.677  0.1455E+00  0.4789E+00
      0.790  0.1060E+00  0.4909E+00
      0.902  0.1181E+00  0.5042E+00
      1.015  0.1147E+00  0.5171E+00
      1.127  0.1745E-01  0.5190E+00
      1.240  0.5799E-02  0.5197E+00
      1.352  0.1516E-02  0.5199E+00
      1.465  0.1319E-05  0.5199E+00
      1.577  0.9760E-13  0.5199E+00
      1.690  0.0000E+00  0.5199E+00
      1.803  0.0000E+00  0.5199E+00
      1.915  0.0000E+00  0.5199E+00
      2.028  0.0000E+00  0.5199E+00
      2.140  0.0000E+00  0.5199E+00
      2.253  0.0000E+00  0.5199E+00
      2.365  0.0000E+00  0.5199E+00
      2.478  0.0000E+00  0.5199E+00
      2.590  0.0000E+00  0.5199E+00
      2.703  0.0000E+00  0.5199E+00
      2.815  0.0000E+00  0.5199E+00
      2.928  0.0000E+00  0.5199E+00
      3.040  0.3224E-10  0.5199E+00
      3.153  0.2572E-04  0.5199E+00
      3.266  0.2717E-02  0.5202E+00
      3.378  0.8219E-03  0.5203E+00
      3.491  0.1579E-06  0.5203E+00
      3.603  0.1121E-13  0.5203E+00
      3.716  0.4789E-06  0.5203E+00
      3.828  0.1881E-02  0.5205E+00
      3.941  0.9220E-02  0.5215E+00
      4.053  0.5409E-02  0.5221E+00
      4.166  0.7075E-02  0.5229E+00
      4.278  0.5887E-02  0.5236E+00
      4.391  0.1584E-01  0.5254E+00
      4.503  0.2200E-01  0.5278E+00
      4.616  0.3033E-01  0.5312E+00
      4.729  0.2650E-01  0.5342E+00
      4.841  0.6186E-03  0.5343E+00
      4.954  0.1246E-07  0.5343E+00
      5.066  0.7067E-03  0.5344E+00
      5.179  0.1870E-01  0.5365E+00
      5.291  0.2146E-02  0.5367E+00
      5.404  0.2109E-01  0.5391E+00
      5.516  0.3544E-01  0.5431E+00
      5.629  0.4335E-01  0.5480E+00
      5.741  0.1957E-01  0.5502E+00
      5.854  0.1456E-01  0.5518E+00
      5.966  0.2265E-01  0.5544E+00
      6.079  0.4173E-01  0.5590E+00
      6.191  0.4775E-01  0.5644E+00
      6.304  0.2707E-01  0.5675E+00
      6.417  0.4565E-01  0.5726E+00
      6.529  0.2496E-01  0.5754E+00
      6.642  0.5266E-01  0.5813E+00
      6.754  0.3907E-01  0.5857E+00
      6.867  0.2599E-01  0.5887E+00
      6.979  0.1754E-01  0.5906E+00
      7.092  0.3167E-01  0.5942E+00
      7.204  0.1619E-01  0.5960E+00
      7.317  0.6298E-01  0.6031E+00
      7.429  0.5271E-01  0.6090E+00
      7.542  0.3697E-01  0.6132E+00
      7.654  0.6105E-01  0.6201E+00
      7.767  0.6218E-01  0.6271E+00
      7.880  0.4757E-01  0.6324E+00
      7.992  0.5230E-01  0.6383E+00
      8.105  0.7576E-01  0.6468E+00
      8.217  0.6055E-01  0.6536E+00
      8.330  0.3577E-01  0.6577E+00
      8.442  0.5530E-01  0.6639E+00
      8.555  0.4754E-01  0.6692E+00
      8.667  0.7049E-01  0.6772E+00
      8.780  0.5311E-01  0.6832E+00
      8.892  0.4566E-01  0.6883E+00
      9.005  0.2291E-01  0.6909E+00
      9.117  0.1982E-01  0.6931E+00
      9.230  0.3403E-03  0.6931E+00
      9.343  0.1338E-08  0.6931E+00
      9.455  0.0000E+00  0.6931E+00
      9.568  0.0000E+00  0.6931E+00
      9.680  0.0000E+00  0.6931E+00
      9.793  0.0000E+00  0.6931E+00
      9.905  0.0000E+00  0.6931E+00
     10.018  0.0000E+00  0.6931E+00
     10.130  0.0000E+00  0.6931E+00
     10.243  0.0000E+00  0.6931E+00
     10.355  0.0000E+00  0.6931E+00
     10.468  0.0000E+00  0.6931E+00
     10.580  0.0000E+00  0.6931E+00
