  20  20   0   0
  0.2378953E+02  0.6834254E-09  0.8835925E-09  0.7880486E-09  0.1500000E-16
   1.0000000000000000E-004
  CAR 
 unknown system                          
      9.42751318    -23.12584164  301      1.51297879      1.00000000
    -23.126  0.0000E+00  0.0000E+00
    -23.017  0.0000E+00  0.0000E+00
    -22.909  0.0000E+00  0.0000E+00
    -22.800  0.0000E+00  0.0000E+00
    -22.692  0.0000E+00  0.0000E+00
    -22.583  0.0000E+00  0.0000E+00
    -22.475  0.0000E+00  0.0000E+00
    -22.366  0.0000E+00  0.0000E+00
    -22.258  0.0000E+00  0.0000E+00
    -22.149  0.0000E+00  0.0000E+00
    -22.041  0.0000E+00  0.0000E+00
    -21.932  0.2216E-16  0.2405E-17
    -21.824  0.2604E-07  0.2825E-08
    -21.715  0.3909E-02  0.4242E-03
    -21.607  0.2742E+00  0.3018E-01
    -21.498  0.1210E+00  0.4330E-01
    -21.390  0.2455E-03  0.4333E-01
    -21.281  0.8801E-01  0.5288E-01
    -21.173  0.6004E+00  0.1180E+00
    -21.064  0.7458E+00  0.1990E+00
    -20.956  0.1625E+00  0.2166E+00
    -20.847  0.1382E-03  0.2166E+00
    -20.739  0.3804E-10  0.2166E+00
    -20.630  0.0000E+00  0.2166E+00
    -20.522  0.0000E+00  0.2166E+00
    -20.413  0.0000E+00  0.2166E+00
    -20.305  0.0000E+00  0.2166E+00
    -20.196  0.0000E+00  0.2166E+00
    -20.088  0.0000E+00  0.2166E+00
    -19.979  0.0000E+00  0.2166E+00
    -19.871  0.0000E+00  0.2166E+00
    -19.762  0.0000E+00  0.2166E+00
    -19.653  0.0000E+00  0.2166E+00
    -19.545  0.0000E+00  0.2166E+00
    -19.436  0.0000E+00  0.2166E+00
    -19.328  0.0000E+00  0.2166E+00
    -19.219  0.0000E+00  0.2166E+00
    -19.111  0.0000E+00  0.2166E+00
    -19.002  0.0000E+00  0.2166E+00
    -18.894  0.0000E+00  0.2166E+00
    -18.785  0.0000E+00  0.2166E+00
    -18.677  0.0000E+00  0.2166E+00
    -18.568  0.0000E+00  0.2166E+00
    -18.460  0.0000E+00  0.2166E+00
    -18.351  0.0000E+00  0.2166E+00
    -18.243  0.0000E+00  0.2166E+00
    -18.134  0.0000E+00  0.2166E+00
    -18.026  0.0000E+00  0.2166E+00
    -17.917  0.0000E+00  0.2166E+00
    -17.809  0.0000E+00  0.2166E+00
    -17.700  0.0000E+00  0.2166E+00
    -17.592  0.0000E+00  0.2166E+00
    -17.483  0.0000E+00  0.2166E+00
    -17.375  0.0000E+00  0.2166E+00
    -17.266  0.0000E+00  0.2166E+00
    -17.158  0.0000E+00  0.2166E+00
    -17.049  0.0000E+00  0.2166E+00
    -16.941  0.0000E+00  0.2166E+00
    -16.832  0.0000E+00  0.2166E+00
    -16.724  0.0000E+00  0.2166E+00
    -16.615  0.0000E+00  0.2166E+00
    -16.507  0.0000E+00  0.2166E+00
    -16.398  0.0000E+00  0.2166E+00
    -16.290  0.0000E+00  0.2166E+00
    -16.181  0.0000E+00  0.2166E+00
    -16.073  0.0000E+00  0.2166E+00
    -15.964  0.0000E+00  0.2166E+00
    -15.856  0.0000E+00  0.2166E+00
    -15.747  0.0000E+00  0.2166E+00
    -15.639  0.0000E+00  0.2166E+00
    -15.530  0.0000E+00  0.2166E+00
    -15.422  0.0000E+00  0.2166E+00
    -15.313  0.0000E+00  0.2166E+00
    -15.205  0.0000E+00  0.2166E+00
    -15.096  0.0000E+00  0.2166E+00
    -14.988  0.0000E+00  0.2166E+00
    -14.879  0.0000E+00  0.2166E+00
    -14.770  0.0000E+00  0.2166E+00
    -14.662  0.0000E+00  0.2166E+00
    -14.553  0.0000E+00  0.2166E+00
    -14.445  0.0000E+00  0.2166E+00
    -14.336  0.0000E+00  0.2166E+00
    -14.228  0.0000E+00  0.2166E+00
    -14.119  0.0000E+00  0.2166E+00
    -14.011  0.0000E+00  0.2166E+00
    -13.902  0.0000E+00  0.2166E+00
    -13.794  0.0000E+00  0.2166E+00
    -13.685  0.0000E+00  0.2166E+00
    -13.577  0.0000E+00  0.2166E+00
    -13.468  0.0000E+00  0.2166E+00
    -13.360  0.0000E+00  0.2166E+00
    -13.251  0.0000E+00  0.2166E+00
    -13.143  0.0000E+00  0.2166E+00
    -13.034  0.0000E+00  0.2166E+00
    -12.926  0.0000E+00  0.2166E+00
    -12.817  0.0000E+00  0.2166E+00
    -12.709  0.0000E+00  0.2166E+00
    -12.600  0.0000E+00  0.2166E+00
    -12.492  0.2323E-12  0.2166E+00
    -12.383  0.1006E-04  0.2166E+00
    -12.275  0.6324E-01  0.2235E+00
    -12.166  0.3279E+00  0.2591E+00
    -12.058  0.7443E-01  0.2671E+00
    -11.949  0.1973E+00  0.2885E+00
    -11.841  0.2463E-02  0.2888E+00
    -11.732  0.9220E-08  0.2888E+00
    -11.624  0.0000E+00  0.2888E+00
    -11.515  0.0000E+00  0.2888E+00
    -11.407  0.0000E+00  0.2888E+00
    -11.298  0.0000E+00  0.2888E+00
    -11.190  0.0000E+00  0.2888E+00
    -11.081  0.0000E+00  0.2888E+00
    -10.973  0.0000E+00  0.2888E+00
    -10.864  0.0000E+00  0.2888E+00
    -10.756  0.0000E+00  0.2888E+00
    -10.647  0.0000E+00  0.2888E+00
    -10.539  0.0000E+00  0.2888E+00
    -10.430  0.0000E+00  0.2888E+00
    -10.322  0.0000E+00  0.2888E+00
    -10.213  0.1764E-13  0.2888E+00
    -10.104  0.3348E-06  0.2888E+00
     -9.996  0.9784E-03  0.2889E+00
     -9.887  0.1320E-01  0.2903E+00
     -9.779  0.6436E-01  0.2973E+00
     -9.670  0.5336E-01  0.3031E+00
     -9.562  0.1174E-02  0.3032E+00
     -9.453  0.2678E-07  0.3032E+00
     -9.345  0.2126E-05  0.3032E+00
     -9.236  0.1298E-01  0.3047E+00
     -9.128  0.1689E+00  0.3230E+00
     -9.019  0.2035E+00  0.3451E+00
     -8.911  0.1384E-01  0.3466E+00
     -8.802  0.4192E-05  0.3466E+00
     -8.694  0.4686E-12  0.3466E+00
     -8.585  0.0000E+00  0.3466E+00
     -8.477  0.0000E+00  0.3466E+00
     -8.368  0.0000E+00  0.3466E+00
     -8.260  0.0000E+00  0.3466E+00
     -8.151  0.0000E+00  0.3466E+00
     -8.043  0.0000E+00  0.3466E+00
     -7.934  0.0000E+00  0.3466E+00
     -7.826  0.0000E+00  0.3466E+00
     -7.717  0.0000E+00  0.3466E+00
     -7.609  0.0000E+00  0.3466E+00
     -7.500  0.0000E+00  0.3466E+00
     -7.392  0.0000E+00  0.3466E+00
     -7.283  0.0000E+00  0.3466E+00
     -7.175  0.0000E+00  0.3466E+00
     -7.066  0.0000E+00  0.3466E+00
     -6.958  0.0000E+00  0.3466E+00
     -6.849  0.0000E+00  0.3466E+00
     -6.741  0.0000E+00  0.3466E+00
     -6.632  0.0000E+00  0.3466E+00
     -6.524  0.0000E+00  0.3466E+00
     -6.415  0.0000E+00  0.3466E+00
     -6.307  0.0000E+00  0.3466E+00
     -6.198  0.0000E+00  0.3466E+00
     -6.090  0.0000E+00  0.3466E+00
     -5.981  0.0000E+00  0.3466E+00
     -5.873  0.0000E+00  0.3466E+00
     -5.764  0.0000E+00  0.3466E+00
     -5.656  0.0000E+00  0.3466E+00
     -5.547  0.0000E+00  0.3466E+00
     -5.439  0.0000E+00  0.3466E+00
     -5.330  0.0000E+00  0.3466E+00
     -5.221  0.0000E+00  0.3466E+00
     -5.113  0.0000E+00  0.3466E+00
     -5.004  0.0000E+00  0.3466E+00
     -4.896  0.0000E+00  0.3466E+00
     -4.787  0.0000E+00  0.3466E+00
     -4.679  0.0000E+00  0.3466E+00
     -4.570  0.0000E+00  0.3466E+00
     -4.462  0.0000E+00  0.3466E+00
     -4.353  0.0000E+00  0.3466E+00
     -4.245  0.0000E+00  0.3466E+00
     -4.136  0.0000E+00  0.3466E+00
     -4.028  0.0000E+00  0.3466E+00
     -3.919  0.0000E+00  0.3466E+00
     -3.811  0.0000E+00  0.3466E+00
     -3.702  0.0000E+00  0.3466E+00
     -3.594  0.0000E+00  0.3466E+00
     -3.485  0.0000E+00  0.3466E+00
     -3.377  0.2893E-12  0.3466E+00
     -3.268  0.2297E-05  0.3466E+00
     -3.160  0.4376E-02  0.3470E+00
     -3.051  0.4244E-01  0.3517E+00
     -2.943  0.6647E-01  0.3589E+00
     -2.834  0.1934E-01  0.3610E+00
     -2.726  0.4416E-03  0.3610E+00
     -2.617  0.2466E-07  0.3610E+00
     -2.509  0.2085E-15  0.3610E+00
     -2.400  0.0000E+00  0.3610E+00
     -2.292  0.0000E+00  0.3610E+00
     -2.183  0.0000E+00  0.3610E+00
     -2.075  0.0000E+00  0.3610E+00
     -1.966  0.0000E+00  0.3610E+00
     -1.858  0.0000E+00  0.3610E+00
     -1.749  0.0000E+00  0.3610E+00
     -1.641  0.0000E+00  0.3610E+00
     -1.532  0.2971E-13  0.3610E+00
     -1.424  0.6622E-06  0.3610E+00
     -1.315  0.2353E-02  0.3613E+00
     -1.207  0.8942E-02  0.3622E+00
     -1.098  0.3162E-01  0.3657E+00
     -0.990  0.5022E-01  0.3711E+00
     -0.881  0.6389E-01  0.3780E+00
     -0.773  0.5616E-01  0.3841E+00
     -0.664  0.4916E-01  0.3895E+00
     -0.556  0.8000E-01  0.3982E+00
     -0.447  0.5107E-01  0.4037E+00
     -0.338  0.2025E-01  0.4059E+00
     -0.230  0.4595E-01  0.4109E+00
     -0.121  0.6378E-01  0.4178E+00
     -0.013  0.4341E-01  0.4225E+00
      0.096  0.6776E-01  0.4299E+00
      0.204  0.7979E-01  0.4385E+00
      0.313  0.5485E-01  0.4445E+00
      0.421  0.4476E-01  0.4493E+00
      0.530  0.8574E-01  0.4586E+00
      0.638  0.1337E+00  0.4731E+00
      0.747  0.1259E+00  0.4868E+00
      0.855  0.1056E+00  0.4983E+00
      0.964  0.1345E+00  0.5129E+00
      1.072  0.5073E-01  0.5184E+00
      1.181  0.9863E-02  0.5194E+00
      1.289  0.3712E-02  0.5198E+00
      1.398  0.2081E-03  0.5199E+00
      1.506  0.5967E-08  0.5199E+00
      1.615  0.2052E-16  0.5199E+00
      1.723  0.0000E+00  0.5199E+00
      1.832  0.0000E+00  0.5199E+00
      1.940  0.0000E+00  0.5199E+00
      2.049  0.0000E+00  0.5199E+00
      2.157  0.0000E+00  0.5199E+00
      2.266  0.0000E+00  0.5199E+00
      2.374  0.0000E+00  0.5199E+00
      2.483  0.0000E+00  0.5199E+00
      2.591  0.0000E+00  0.5199E+00
      2.700  0.0000E+00  0.5199E+00
      2.808  0.0000E+00  0.5199E+00
      2.917  0.0000E+00  0.5199E+00
      3.025  0.2575E-11  0.5199E+00
      3.134  0.5206E-05  0.5199E+00
      3.242  0.1964E-02  0.5201E+00
      3.351  0.1724E-02  0.5203E+00
      3.459  0.3005E-05  0.5203E+00
      3.568  0.9167E-12  0.5203E+00
      3.676  0.3058E-08  0.5203E+00
      3.785  0.2327E-03  0.5203E+00
      3.893  0.7202E-02  0.5211E+00
      4.002  0.7332E-02  0.5219E+00
      4.110  0.6618E-02  0.5226E+00
      4.219  0.7057E-02  0.5233E+00
      4.327  0.6659E-02  0.5241E+00
      4.436  0.2096E-01  0.5263E+00
      4.545  0.2520E-01  0.5291E+00
      4.653  0.3388E-01  0.5328E+00
      4.762  0.1417E-01  0.5343E+00
      4.870  0.5730E-04  0.5343E+00
      4.979  0.1899E-06  0.5343E+00
      5.087  0.2346E-02  0.5346E+00
      5.196  0.1904E-01  0.5366E+00
      5.304  0.1242E-02  0.5368E+00
      5.413  0.2432E-01  0.5394E+00
      5.521  0.3569E-01  0.5433E+00
      5.630  0.4359E-01  0.5480E+00
      5.738  0.1969E-01  0.5501E+00
      5.847  0.1481E-01  0.5517E+00
      5.955  0.1942E-01  0.5538E+00
      6.064  0.4225E-01  0.5584E+00
      6.172  0.4702E-01  0.5635E+00
      6.281  0.3105E-01  0.5669E+00
      6.389  0.4217E-01  0.5715E+00
      6.498  0.2453E-01  0.5741E+00
      6.606  0.5348E-01  0.5799E+00
      6.715  0.3941E-01  0.5842E+00
      6.823  0.3198E-01  0.5877E+00
      6.932  0.1768E-01  0.5896E+00
      7.040  0.2885E-01  0.5927E+00
      7.149  0.1742E-01  0.5946E+00
      7.257  0.4293E-01  0.5993E+00
      7.366  0.6048E-01  0.6058E+00
      7.474  0.4312E-01  0.6105E+00
      7.583  0.4388E-01  0.6153E+00
      7.691  0.7142E-01  0.6230E+00
      7.800  0.4882E-01  0.6283E+00
      7.908  0.4679E-01  0.6334E+00
      8.017  0.1776E-01  0.6353E+00
      8.125  0.3493E-03  0.6354E+00
      8.234  0.2725E-08  0.6354E+00
      8.342  0.1642E-17  0.6354E+00
      8.451  0.0000E+00  0.6354E+00
      8.559  0.0000E+00  0.6354E+00
      8.668  0.0000E+00  0.6354E+00
      8.776  0.0000E+00  0.6354E+00
      8.885  0.0000E+00  0.6354E+00
      8.993  0.0000E+00  0.6354E+00
      9.102  0.0000E+00  0.6354E+00
      9.210  0.0000E+00  0.6354E+00
      9.319  0.0000E+00  0.6354E+00
      9.428  0.0000E+00  0.6354E+00
