       N       E                     dE             d eps       ncg     rms          rms(c)
DAV:   1     0.121474303240E+04    0.12147E+04   -0.63477E+04  1920   0.137E+03
DAV:   2     0.484117328112E+02   -0.11663E+04   -0.11433E+04  1984   0.378E+02
DAV:   3    -0.731198109284E+02   -0.12153E+03   -0.12085E+03  2528   0.131E+02
DAV:   4    -0.765771561482E+02   -0.34573E+01   -0.34532E+01  2368   0.251E+01
DAV:   5    -0.766984776419E+02   -0.12132E+00   -0.12131E+00  2816   0.428E+00    0.132E+01
DAV:   6    -0.719241812966E+02    0.47743E+01   -0.86750E+00  2816   0.208E+01    0.986E+00
DAV:   7    -0.716795504508E+02    0.24463E+00   -0.29235E+00  2880   0.490E+00    0.535E+00
DAV:   8    -0.717097281802E+02   -0.30178E-01   -0.20399E-01  2656   0.230E+00    0.132E+00
DAV:   9    -0.717153891319E+02   -0.56610E-02   -0.54989E-02  3008   0.113E+00    0.542E-01
DAV:  10    -0.717174151854E+02   -0.20261E-02   -0.41464E-03  2272   0.205E-01    0.291E-01
DAV:  11    -0.717212222559E+02   -0.38071E-02   -0.53052E-03  2368   0.195E-01    0.896E-02
DAV:  12    -0.717212314939E+02   -0.92381E-05   -0.13081E-04  2528   0.453E-02    0.859E-02
DAV:  13    -0.717212977699E+02   -0.66276E-04   -0.84951E-05  2432   0.254E-02    0.180E-02
DAV:  14    -0.717213101926E+02   -0.12423E-04   -0.17884E-05  2176   0.139E-02    0.166E-02
DAV:  15    -0.717213181576E+02   -0.79650E-05   -0.10200E-05  2240   0.872E-03    0.675E-03
DAV:  16    -0.717213186659E+02   -0.50833E-06   -0.73924E-07  2080   0.327E-03
   1 F= -.71721319E+02 E0= -.71721319E+02  d E =-.351910E-13
 Found    24 degrees of freedom:
 Adding 6 more for cell shape distortion
       N       E                     dE             d eps       ncg     rms          rms(c)
DAV:   1    -0.727271203234E+02   -0.10058E+01   -0.39015E+01  2176   0.384E+01    0.711E+00
DAV:   2    -0.719299189225E+02    0.79720E+00   -0.20023E+00  2560   0.899E+00    0.342E+00
DAV:   3    -0.716701758190E+02    0.25974E+00   -0.58822E-01  2336   0.462E+00    0.123E+00
DAV:   4    -0.716543201888E+02    0.15856E-01   -0.41974E-02  2528   0.833E-01    0.685E-01
DAV:   5    -0.716497952668E+02    0.45249E-02   -0.62728E-03  3072   0.393E-01    0.243E-01
DAV:   6    -0.716498033653E+02   -0.80985E-05   -0.73262E-04  2528   0.133E-01    0.118E-01
DAV:   7    -0.716498092218E+02   -0.58565E-05   -0.16270E-04  2496   0.480E-02    0.472E-02
DAV:   8    -0.716498167037E+02   -0.74819E-05   -0.17157E-05  2816   0.155E-02    0.178E-02
DAV:   9    -0.716498170804E+02   -0.37667E-06   -0.18694E-06  2208   0.493E-03
   2 F= -.71649817E+02 E0= -.71649817E+02  d E =-.656864E-12
       N       E                     dE             d eps       ncg     rms          rms(c)
DAV:   1    -0.719658338830E+02   -0.31602E+00   -0.92538E+00  2208   0.177E+01    0.368E+00
DAV:   2    -0.717696517784E+02    0.19618E+00   -0.47759E-01  2528   0.459E+00    0.170E+00
DAV:   3    -0.717089722815E+02    0.60679E-01   -0.12396E-01  2400   0.219E+00    0.690E-01
DAV:   4    -0.717041165282E+02    0.48558E-02   -0.10789E-02  3104   0.410E-01    0.351E-01
DAV:   5    -0.717034193930E+02    0.69714E-03   -0.91217E-04  3104   0.140E-01    0.119E-01
DAV:   6    -0.717034080011E+02    0.11392E-04   -0.11867E-04  3072   0.430E-02    0.511E-02
DAV:   7    -0.717034101138E+02   -0.21127E-05   -0.27864E-05  2752   0.186E-02    0.957E-03
DAV:   8    -0.717034107513E+02   -0.63757E-06   -0.24837E-06  2016   0.538E-03
   3 F= -.71703411E+02 E0= -.71703411E+02  d E =-.593031E-14
       N       E                     dE             d eps       ncg     rms          rms(c)
DAV:   1    -0.727778307995E+02   -0.10744E+01   -0.38102E+01  2240   0.355E+01    0.775E+00
DAV:   2    -0.719720759100E+02    0.80575E+00   -0.20199E+00  2560   0.973E+00    0.349E+00
DAV:   3    -0.717246672935E+02    0.24741E+00   -0.47197E-01  2432   0.430E+00    0.148E+00
DAV:   4    -0.717004317377E+02    0.24236E-01   -0.43967E-02  2816   0.829E-01    0.732E-01
DAV:   5    -0.716977880646E+02    0.26437E-02   -0.42549E-03  3104   0.273E-01    0.294E-01
DAV:   6    -0.716976844774E+02    0.10359E-03   -0.37700E-04  3168   0.821E-02    0.120E-01
DAV:   7    -0.716976951435E+02   -0.10666E-04   -0.10255E-04  3104   0.388E-02    0.209E-02
DAV:   8    -0.716976964931E+02   -0.13496E-05   -0.93746E-06  2496   0.115E-02    0.924E-03
DAV:   9    -0.716976961159E+02    0.37717E-06   -0.29998E-06  2144   0.635E-03
   4 F= -.71697696E+02 E0= -.71697696E+02  d E =-.202725E-15
       N       E                     dE             d eps       ncg     rms          rms(c)
DAV:   1    -0.719094978814E+02   -0.21180E+00   -0.10074E+01  2240   0.188E+01    0.396E+00
DAV:   2    -0.717008659828E+02    0.20863E+00   -0.53649E-01  2592   0.494E+00    0.179E+00
DAV:   3    -0.716353148411E+02    0.65551E-01   -0.12111E-01  2464   0.222E+00    0.742E-01
DAV:   4    -0.716288320140E+02    0.64828E-02   -0.11279E-02  2784   0.424E-01    0.387E-01
DAV:   5    -0.716280944324E+02    0.73758E-03   -0.11716E-03  2816   0.143E-01    0.142E-01
DAV:   6    -0.716280595055E+02    0.34927E-04   -0.10968E-04  3072   0.482E-02    0.551E-02
DAV:   7    -0.716280635070E+02   -0.40015E-05   -0.27729E-05  3168   0.185E-02    0.100E-02
DAV:   8    -0.716280633272E+02    0.17981E-06   -0.24648E-06  2048   0.724E-03
   5 F= -.71628063E+02 E0= -.71628063E+02  d E =-.632354E-18
       N       E                     dE             d eps       ncg     rms          rms(c)
DAV:   1    -0.750119790505E+02   -0.33839E+01   -0.10537E+02  2304   0.756E+01    0.123E+01
DAV:   2    -0.723736954540E+02    0.26383E+01   -0.60617E+00  2432   0.163E+01    0.566E+00
DAV:   3    -0.716820507491E+02    0.69164E+00   -0.19392E+00  2368   0.891E+00    0.208E+00
DAV:   4    -0.716488187075E+02    0.33232E-01   -0.11245E-01  2528   0.139E+00    0.127E+00
DAV:   5    -0.716299401471E+02    0.18879E-01   -0.10217E-02  3168   0.638E-01    0.530E-01
DAV:   6    -0.716292449711E+02    0.69518E-03   -0.23533E-03  2848   0.254E-01    0.204E-01
DAV:   7    -0.716292426345E+02    0.23365E-05   -0.10845E-04  2816   0.436E-02    0.993E-02
DAV:   8    -0.716292479046E+02   -0.52701E-05   -0.36044E-05  2528   0.239E-02    0.239E-02
DAV:   9    -0.716292483834E+02   -0.47880E-06   -0.22253E-06  2208   0.641E-03
   6 F= -.71629248E+02 E0= -.71629248E+02  d E =-.222680E-14
       N       E                     dE             d eps       ncg     rms          rms(c)
DAV:   1    -0.719541269292E+02   -0.32488E+00   -0.91811E+00  2272   0.177E+01    0.362E+00
DAV:   2    -0.717615901195E+02    0.19254E+00   -0.47235E-01  2560   0.453E+00    0.170E+00
DAV:   3    -0.717021804553E+02    0.59410E-01   -0.12573E-01  2528   0.219E+00    0.651E-01
DAV:   4    -0.716978133599E+02    0.43671E-02   -0.10665E-02  2784   0.407E-01    0.326E-01
DAV:   5    -0.716972311755E+02    0.58218E-03   -0.89301E-04  3136   0.132E-01    0.114E-01
DAV:   6    -0.716972333830E+02   -0.22075E-05   -0.10546E-04  2432   0.403E-02    0.450E-02
DAV:   7    -0.716972352895E+02   -0.19065E-05   -0.23405E-05  3008   0.184E-02    0.926E-03
DAV:   8    -0.716972359137E+02   -0.62417E-06   -0.15805E-06  1856   0.460E-03
   7 F= -.71697236E+02 E0= -.71697236E+02  d E =-.234972E-18
       N       E                     dE             d eps       ncg     rms          rms(c)
DAV:   1    -0.727497959730E+02   -0.10526E+01   -0.37643E+01  2240   0.356E+01    0.756E+00
DAV:   2    -0.719613055549E+02    0.78849E+00   -0.20060E+00  2560   0.972E+00    0.348E+00
DAV:   3    -0.717192401226E+02    0.24207E+00   -0.48460E-01  2496   0.433E+00    0.141E+00
DAV:   4    -0.716983376331E+02    0.20902E-01   -0.38418E-02  2848   0.757E-01    0.689E-01
DAV:   5    -0.716955127686E+02    0.28249E-02   -0.37149E-03  2976   0.284E-01    0.166E-01
DAV:   6    -0.716954788632E+02    0.33905E-04   -0.55783E-04  2560   0.941E-02    0.907E-02
DAV:   7    -0.716955023909E+02   -0.23528E-04   -0.87260E-05  2688   0.297E-02    0.143E-02
DAV:   8    -0.716955001310E+02    0.22599E-05   -0.56104E-06  2528   0.117E-02    0.819E-03
DAV:   9    -0.716955008676E+02   -0.73657E-06   -0.28897E-06  2208   0.544E-03
   8 F= -.71695501E+02 E0= -.71695501E+02  d E =-.213648E-19
       N       E                     dE             d eps       ncg     rms          rms(c)
DAV:   1    -0.718880073695E+02   -0.19251E+00   -0.99297E+00  2304   0.188E+01    0.384E+00
DAV:   2    -0.716837037949E+02    0.20430E+00   -0.52772E-01  2496   0.492E+00    0.178E+00
DAV:   3    -0.716192288605E+02    0.64475E-01   -0.12973E-01  2528   0.230E+00    0.702E-01
DAV:   4    -0.716141870426E+02    0.50418E-02   -0.10324E-02  2720   0.403E-01    0.360E-01
DAV:   5    -0.716134394752E+02    0.74757E-03   -0.97891E-04  2976   0.150E-01    0.859E-02
DAV:   6    -0.716134318169E+02    0.76583E-05   -0.14722E-04  2656   0.495E-02    0.464E-02
DAV:   7    -0.716134372101E+02   -0.53932E-05   -0.21057E-05  2784   0.143E-02    0.606E-03
DAV:   8    -0.716134366674E+02    0.54268E-06   -0.12246E-06  1824   0.598E-03
   9 F= -.71613437E+02 E0= -.71613437E+02  d E =-.362061E-16
       N       E                     dE             d eps       ncg     rms          rms(c)
DAV:   1    -0.749973544073E+02   -0.33839E+01   -0.10540E+02  2272   0.760E+01    0.123E+01
DAV:   2    -0.723766808409E+02    0.26207E+01   -0.60409E+00  2432   0.163E+01    0.567E+00
DAV:   3    -0.716775973043E+02    0.69908E+00   -0.19717E+00  2400   0.896E+00    0.202E+00
DAV:   4    -0.716447844578E+02    0.32813E-01   -0.11472E-01  2400   0.142E+00    0.127E+00
DAV:   5    -0.716268098481E+02    0.17975E-01   -0.11177E-02  3136   0.608E-01    0.588E-01
DAV:   6    -0.716257552873E+02    0.10546E-02   -0.27634E-03  2720   0.279E-01    0.223E-01
DAV:   7    -0.716257659513E+02   -0.10664E-04   -0.15725E-04  2816   0.469E-02    0.112E-01
DAV:   8    -0.716257871795E+02   -0.21228E-04   -0.79287E-05  2688   0.257E-02    0.411E-02
DAV:   9    -0.716257852538E+02    0.19257E-05   -0.57455E-06  2496   0.824E-03    0.152E-02
DAV:  10    -0.716257865413E+02   -0.12875E-05   -0.18364E-06  2144   0.405E-03    0.576E-03
DAV:  11    -0.716257884208E+02   -0.18796E-05   -0.12742E-06  2080   0.394E-03    0.319E-03
DAV:  12    -0.716257885459E+02   -0.12511E-06   -0.22400E-07  1760   0.135E-03
  10 F= -.71625789E+02 E0= -.71625789E+02  d E =-.152561E-16
       N       E                     dE             d eps       ncg     rms          rms(c)
DAV:   1    -0.719520786392E+02   -0.32629E+00   -0.91581E+00  2240   0.177E+01    0.365E+00
DAV:   2    -0.717596048455E+02    0.19247E+00   -0.48185E-01  2528   0.462E+00    0.170E+00
DAV:   3    -0.717009537344E+02    0.58651E-01   -0.12353E-01  2528   0.220E+00    0.679E-01
DAV:   4    -0.716964787528E+02    0.44750E-02   -0.10850E-02  2784   0.426E-01    0.326E-01
DAV:   5    -0.716958626071E+02    0.61615E-03   -0.95436E-04  3168   0.150E-01    0.125E-01
DAV:   6    -0.716958653517E+02   -0.27446E-05   -0.10909E-04  2624   0.421E-02    0.429E-02
DAV:   7    -0.716958673207E+02   -0.19690E-05   -0.20485E-05  2560   0.171E-02    0.110E-02
DAV:   8    -0.716958684266E+02   -0.11059E-05   -0.20463E-06  2144   0.535E-03    0.289E-03
DAV:   9    -0.716958685011E+02   -0.74524E-07   -0.65881E-07  1792   0.274E-03
  11 F= -.71695869E+02 E0= -.71695869E+02  d E =-.479758E-20
       N       E                     dE             d eps       ncg     rms          rms(c)
DAV:   1    -0.727507132287E+02   -0.10548E+01   -0.37650E+01  2240   0.356E+01    0.766E+00
DAV:   2    -0.719613639799E+02    0.78935E+00   -0.20429E+00  2528   0.985E+00    0.349E+00
DAV:   3    -0.717210570671E+02    0.24031E+00   -0.47513E-01  2528   0.435E+00    0.146E+00
DAV:   4    -0.716989319872E+02    0.22125E-01   -0.43486E-02  2720   0.827E-01    0.707E-01
DAV:   5    -0.716964110531E+02    0.25209E-02   -0.39513E-03  3104   0.292E-01    0.264E-01
DAV:   6    -0.716963633211E+02    0.47732E-04   -0.38818E-04  3008   0.827E-02    0.107E-01
DAV:   7    -0.716963809960E+02   -0.17675E-04   -0.80928E-05  2880   0.321E-02    0.163E-02
DAV:   8    -0.716963824155E+02   -0.14195E-05   -0.83828E-06  2528   0.124E-02    0.665E-03
DAV:   9    -0.716963832670E+02   -0.85150E-06   -0.29144E-06  2176   0.464E-03
  12 F= -.71696383E+02 E0= -.71696383E+02  d E =-.190233E-17
       N       E                     dE             d eps       ncg     rms          rms(c)
DAV:   1    -0.718900762936E+02   -0.19369E+00   -0.99458E+00  2240   0.188E+01    0.390E+00
DAV:   2    -0.716856359595E+02    0.20444E+00   -0.53754E-01  2560   0.497E+00    0.179E+00
DAV:   3    -0.716215249210E+02    0.64111E-01   -0.12535E-01  2528   0.226E+00    0.734E-01
DAV:   4    -0.716158376450E+02    0.56873E-02   -0.11171E-02  2752   0.430E-01    0.368E-01
DAV:   5    -0.716151416315E+02    0.69601E-03   -0.10251E-03  2880   0.140E-01    0.128E-01
DAV:   6    -0.716151308301E+02    0.10801E-04   -0.93760E-05  2752   0.427E-02    0.470E-02
DAV:   7    -0.716151344744E+02   -0.36443E-05   -0.23246E-05  3264   0.176E-02    0.106E-02
DAV:   8    -0.716151349688E+02   -0.49437E-06   -0.22770E-06  2368   0.615E-03
  13 F= -.71615135E+02 E0= -.71615135E+02  d E =-.190523E-14
       N       E                     dE             d eps       ncg     rms          rms(c)
DAV:   1    -0.729969967573E+02   -0.13819E+01   -0.54374E+01  2240   0.432E+01    0.806E+00
DAV:   2    -0.720651313618E+02    0.93187E+00   -0.25098E+00  2560   0.984E+00    0.406E+00
DAV:   3    -0.717163303033E+02    0.34880E+00   -0.70025E-01  2560   0.506E+00    0.140E+00
DAV:   4    -0.716955238245E+02    0.20806E-01   -0.56151E-02  2560   0.972E-01    0.733E-01
DAV:   5    -0.716910904992E+02    0.44333E-02   -0.73550E-03  3232   0.412E-01    0.276E-01
DAV:   6    -0.716911352736E+02   -0.44774E-04   -0.88659E-04  2528   0.153E-01    0.121E-01
DAV:   7    -0.716911473329E+02   -0.12059E-04   -0.13777E-04  2656   0.536E-02    0.476E-02
DAV:   8    -0.716911592236E+02   -0.11891E-04   -0.21382E-05  2848   0.178E-02    0.175E-02
DAV:   9    -0.716911602040E+02   -0.98044E-06   -0.31493E-06  2400   0.640E-03
  14 F= -.71691160E+02 E0= -.71691160E+02  d E =-.167635E-13
       N       E                     dE             d eps       ncg     rms          rms(c)
DAV:   1    -0.717654083315E+02   -0.74249E-01   -0.33158E+00  1984   0.705E+00    0.168E+00
DAV:   2    -0.717344882880E+02    0.30920E-01   -0.82924E-02  2880   0.138E+00    0.101E+00
DAV:   3    -0.717142165725E+02    0.20272E-01   -0.16889E-02  3136   0.694E-01    0.256E-01
DAV:   4    -0.717136022177E+02    0.61435E-03   -0.34649E-03  3200   0.256E-01    0.139E-01
DAV:   5    -0.717135910803E+02    0.11137E-04   -0.33828E-04  2496   0.698E-02    0.589E-02
DAV:   6    -0.717135979727E+02   -0.68924E-05   -0.62376E-05  2880   0.266E-02    0.330E-02
DAV:   7    -0.717136000404E+02   -0.20677E-05   -0.65720E-06  2496   0.931E-03    0.164E-02
DAV:   8    -0.717135997718E+02    0.26855E-06   -0.18328E-06  2176   0.444E-03
  15 F= -.71713600E+02 E0= -.71713600E+02  d E =-.294595E-13
       N       E                     dE             d eps       ncg     rms          rms(c)
DAV:   1    -0.719201231686E+02   -0.20652E+00   -0.13253E+01  1984   0.140E+01    0.336E+00
DAV:   2    -0.717972940460E+02    0.12283E+00   -0.33838E-01  2880   0.273E+00    0.202E+00
DAV:   3    -0.717161908983E+02    0.81103E-01   -0.67282E-02  3104   0.129E+00    0.514E-01
DAV:   4    -0.717136342139E+02    0.25567E-02   -0.13279E-02  3168   0.461E-01    0.288E-01
DAV:   5    -0.717135637395E+02    0.70474E-04   -0.11393E-03  2560   0.129E-01    0.120E-01
DAV:   6    -0.717135916398E+02   -0.27900E-04   -0.24418E-04  2784   0.532E-02    0.625E-02
DAV:   7    -0.717136011883E+02   -0.95485E-05   -0.30855E-05  2752   0.202E-02    0.307E-02
DAV:   8    -0.717135992965E+02    0.18917E-05   -0.66968E-06  2272   0.908E-03    0.839E-03
DAV:   9    -0.717135998331E+02   -0.53654E-06   -0.22389E-06  2240   0.465E-03
  16 F= -.71713600E+02 E0= -.71713600E+02  d E =-.290751E-13
       N       E                     dE             d eps       ncg     rms          rms(c)
DAV:   1    -0.717429349409E+02   -0.29336E-01   -0.33149E+00  2016   0.700E+00    0.168E+00
DAV:   2    -0.717121130727E+02    0.30822E-01   -0.83816E-02  3104   0.142E+00    0.101E+00
DAV:   3    -0.716917935523E+02    0.20320E-01   -0.17017E-02  3104   0.677E-01    0.258E-01
DAV:   4    -0.716911663432E+02    0.62721E-03   -0.35909E-03  3168   0.240E-01    0.144E-01
DAV:   5    -0.716911519009E+02    0.14442E-04   -0.30351E-04  2752   0.645E-02    0.601E-02
DAV:   6    -0.716911590161E+02   -0.71152E-05   -0.59302E-05  2880   0.248E-02    0.325E-02
DAV:   7    -0.716911612681E+02   -0.22521E-05   -0.73701E-06  2592   0.980E-03    0.151E-02
DAV:   8    -0.716911609102E+02    0.35792E-06   -0.16530E-06  2048   0.491E-03
  17 F= -.71691161E+02 E0= -.71691161E+02  d E =-.178198E-13
       N       E                     dE             d eps       ncg     rms          rms(c)
DAV:   1    -0.722333848965E+02   -0.54222E+00   -0.28908E+01  2240   0.205E+01    0.517E+00
DAV:   2    -0.718966399228E+02    0.33674E+00   -0.68306E-01  2624   0.370E+00    0.292E+00
DAV:   3    -0.717054993275E+02    0.19114E+00   -0.15845E-01  3168   0.178E+00    0.104E+00
DAV:   4    -0.716874500369E+02    0.18049E-01   -0.45664E-02  3168   0.943E-01    0.412E-01
DAV:   5    -0.716873675698E+02    0.82467E-04   -0.60254E-03  2624   0.301E-01    0.163E-01
DAV:   6    -0.716874417774E+02   -0.74208E-04   -0.61713E-04  2752   0.829E-02    0.121E-01
DAV:   7    -0.716874732656E+02   -0.31488E-04   -0.10115E-04  2784   0.333E-02    0.342E-02
DAV:   8    -0.716874705109E+02    0.27547E-05   -0.25870E-05  2848   0.173E-02    0.122E-02
DAV:   9    -0.716874728545E+02   -0.23436E-05   -0.48684E-06  2528   0.658E-03    0.888E-03
DAV:  10    -0.716874732432E+02   -0.38869E-06   -0.44693E-07  1920   0.230E-03
  18 F= -.71687473E+02 E0= -.71687473E+02  d E =-.161967E-13
       N       E                     dE             d eps       ncg     rms          rms(c)
DAV:   1    -0.717702914637E+02   -0.82819E-01   -0.33915E+00  1952   0.702E+00    0.177E+00
DAV:   2    -0.717354128441E+02    0.34879E-01   -0.10066E-01  2880   0.154E+00    0.103E+00
DAV:   3    -0.717148555247E+02    0.20557E-01   -0.18028E-02  3104   0.619E-01    0.392E-01
DAV:   4    -0.717127323707E+02    0.21232E-02   -0.56090E-03  3200   0.355E-01    0.147E-01
DAV:   5    -0.717127154651E+02    0.16906E-04   -0.73194E-04  2336   0.108E-01    0.695E-02
DAV:   6    -0.717127255815E+02   -0.10116E-04   -0.98485E-05  2880   0.308E-02    0.361E-02
DAV:   7    -0.717127281418E+02   -0.25603E-05   -0.79067E-06  2368   0.965E-03    0.181E-02
DAV:   8    -0.717127285310E+02   -0.38920E-06   -0.31483E-06  2208   0.517E-03
  19 F= -.71712729E+02 E0= -.71712729E+02  d E =-.289848E-13
       N       E                     dE             d eps       ncg     rms          rms(c)
DAV:   1    -0.719422046633E+02   -0.22948E+00   -0.13559E+01  1952   0.140E+01    0.355E+00
DAV:   2    -0.718037165887E+02    0.13849E+00   -0.41263E-01  2880   0.298E+00    0.205E+00
DAV:   3    -0.717214950994E+02    0.82221E-01   -0.71025E-02  3104   0.122E+00    0.790E-01
DAV:   4    -0.717127790359E+02    0.87161E-02   -0.22034E-02  3200   0.652E-01    0.303E-01
DAV:   5    -0.717126766385E+02    0.10240E-03   -0.25732E-03  2624   0.198E-01    0.138E-01
DAV:   6    -0.717127150376E+02   -0.38399E-04   -0.35411E-04  2880   0.566E-02    0.715E-02
DAV:   7    -0.717127278252E+02   -0.12788E-04   -0.39150E-05  2784   0.210E-02    0.287E-02
DAV:   8    -0.717127278541E+02   -0.28891E-07   -0.13680E-05  2240   0.102E-02    0.702E-03
DAV:   9    -0.717127284982E+02   -0.64412E-06   -0.20045E-06  2208   0.459E-03
  20 F= -.71712728E+02 E0= -.71712728E+02  d E =-.288896E-13
       N       E                     dE             d eps       ncg     rms          rms(c)
DAV:   1    -0.717449065046E+02   -0.32179E-01   -0.33899E+00  1952   0.699E+00    0.177E+00
DAV:   2    -0.717102598119E+02    0.34647E-01   -0.10263E-01  3200   0.157E+00    0.103E+00
DAV:   3    -0.716896577800E+02    0.20602E-01   -0.17757E-02  3104   0.609E-01    0.395E-01
DAV:   4    -0.716874853975E+02    0.21724E-02   -0.58278E-03  3200   0.335E-01    0.158E-01
DAV:   5    -0.716874603146E+02    0.25083E-04   -0.67129E-04  2752   0.101E-01    0.712E-02
DAV:   6    -0.716874702053E+02   -0.98907E-05   -0.91197E-05  2816   0.275E-02    0.365E-02
DAV:   7    -0.716874733304E+02   -0.31252E-05   -0.99665E-06  2208   0.107E-02    0.158E-02
DAV:   8    -0.716874732706E+02    0.59854E-07   -0.42082E-06  2208   0.632E-03
  21 F= -.71687473E+02 E0= -.71687473E+02  d E =-.164917E-13
       N       E                     dE             d eps       ncg     rms          rms(c)
DAV:   1    -0.721224758497E+02   -0.43500E+00   -0.26674E+01  1952   0.200E+01    0.462E+00
DAV:   2    -0.718835206989E+02    0.23896E+00   -0.73308E-01  2560   0.389E+00    0.279E+00
DAV:   3    -0.716971268933E+02    0.18639E+00   -0.15083E-01  3040   0.194E+00    0.547E-01
DAV:   4    -0.716917147022E+02    0.54122E-02   -0.32541E-02  3072   0.631E-01    0.282E-01
DAV:   5    -0.716908863704E+02    0.82833E-03   -0.28439E-03  2976   0.192E-01    0.134E-01
DAV:   6    -0.716905096950E+02    0.37668E-03   -0.75996E-04  2880   0.101E-01    0.639E-02
DAV:   7    -0.716904130486E+02    0.96646E-04   -0.29957E-04  2848   0.596E-02    0.364E-02
DAV:   8    -0.716903935874E+02    0.19461E-04   -0.49884E-05  2944   0.235E-02    0.120E-02
DAV:   9    -0.716903775953E+02    0.15992E-04   -0.18944E-05  2592   0.168E-02    0.371E-03
DAV:  10    -0.716903712129E+02    0.63823E-05   -0.12809E-05  2720   0.135E-02    0.506E-03
DAV:  11    -0.716903689297E+02    0.22833E-05   -0.49127E-06  2720   0.926E-03    0.296E-03
DAV:  12    -0.716903683689E+02    0.56083E-06   -0.13052E-06  1952   0.557E-03
  22 F= -.71690368E+02 E0= -.71690368E+02  d E =-.224852E-11
       N       E                     dE             d eps       ncg     rms          rms(c)
DAV:   1    -0.717650302118E+02   -0.74661E-01   -0.32866E+00  2016   0.711E+00    0.169E+00
DAV:   2    -0.717340355547E+02    0.30995E-01   -0.80701E-02  2880   0.135E+00    0.101E+00
DAV:   3    -0.717143547485E+02    0.19681E-01   -0.16821E-02  3136   0.602E-01    0.279E-01
DAV:   4    -0.717135732693E+02    0.78148E-03   -0.34581E-03  3200   0.230E-01    0.141E-01
DAV:   5    -0.717135536824E+02    0.19587E-04   -0.30720E-04  2592   0.654E-02    0.640E-02
DAV:   6    -0.717135594267E+02   -0.57443E-05   -0.62344E-05  2880   0.244E-02    0.319E-02
DAV:   7    -0.717135613771E+02   -0.19504E-05   -0.76687E-06  2176   0.984E-03    0.122E-02
DAV:   8    -0.717135613396E+02    0.37471E-07   -0.15094E-06  2112   0.479E-03
  23 F= -.71713561E+02 E0= -.71713561E+02  d E =-.645383E-12
       N       E                     dE             d eps       ncg     rms          rms(c)
DAV:   1    -0.719212535306E+02   -0.20769E+00   -0.13198E+01  1984   0.142E+01    0.338E+00
DAV:   2    -0.717962281324E+02    0.12503E+00   -0.33015E-01  2880   0.257E+00    0.202E+00
DAV:   3    -0.717164500035E+02    0.79778E-01   -0.66782E-02  3136   0.120E+00    0.556E-01
DAV:   4    -0.717132846682E+02    0.31653E-02   -0.13777E-02  3168   0.416E-01    0.295E-01
DAV:   5    -0.717131912633E+02    0.93405E-04   -0.11340E-03  2624   0.122E-01    0.135E-01
DAV:   6    -0.717132144150E+02   -0.23152E-04   -0.24740E-04  2880   0.489E-02    0.628E-02
DAV:   7    -0.717132219115E+02   -0.74965E-05   -0.31545E-05  2784   0.191E-02    0.243E-02
DAV:   8    -0.717132218481E+02    0.63386E-07   -0.52754E-06  2304   0.680E-03
  24 F= -.71713222E+02 E0= -.71713222E+02  d E =-.874543E-15
       N       E                     dE             d eps       ncg     rms          rms(c)
DAV:   1    -0.717423279238E+02   -0.29106E-01   -0.33137E+00  1984   0.715E+00    0.169E+00
DAV:   2    -0.717103946734E+02    0.31933E-01   -0.79064E-02  2880   0.132E+00    0.101E+00
DAV:   3    -0.716903126990E+02    0.20082E-01   -0.17123E-02  3040   0.586E-01    0.276E-01
DAV:   4    -0.716895452644E+02    0.76743E-03   -0.35351E-03  3168   0.216E-01    0.149E-01
DAV:   5    -0.716895197755E+02    0.25489E-04   -0.27785E-04  2400   0.583E-02    0.615E-02
DAV:   6    -0.716895261235E+02   -0.63480E-05   -0.63130E-05  2880   0.240E-02    0.316E-02
DAV:   7    -0.716895284233E+02   -0.22998E-05   -0.79044E-06  2304   0.943E-03    0.145E-02
DAV:   8    -0.716895281278E+02    0.29557E-06   -0.16126E-06  2016   0.433E-03
  25 F= -.71689528E+02 E0= -.71689528E+02  d E =-.667490E-16
       N       E                     dE             d eps       ncg     rms          rms(c)
DAV:   1    -0.719207232288E+02   -0.23119E+00   -0.16676E+01  1984   0.154E+01    0.339E+00
DAV:   2    -0.718027136798E+02    0.11801E+00   -0.39818E-01  2816   0.277E+00    0.202E+00
DAV:   3    -0.717240471107E+02    0.78667E-01   -0.70370E-02  3008   0.132E+00    0.571E-01
DAV:   4    -0.717205733806E+02    0.34737E-02   -0.13464E-02  3168   0.438E-01    0.288E-01
DAV:   5    -0.717204899903E+02    0.83390E-04   -0.11975E-03  2528   0.128E-01    0.124E-01
DAV:   6    -0.717205132825E+02   -0.23292E-04   -0.24335E-04  2880   0.506E-02    0.625E-02
DAV:   7    -0.717205225737E+02   -0.92912E-05   -0.30218E-05  2688   0.196E-02    0.288E-02
DAV:   8    -0.717205224728E+02    0.10087E-06   -0.59592E-06  2528   0.792E-03
  26 F= -.71720522E+02 E0= -.71720522E+02  d E =-.498054E-13
       N       E                     dE             d eps       ncg     rms          rms(c)
DAV:   1    -0.717199800535E+02    0.54252E-03   -0.86844E-01  1952   0.154E+00    0.426E-02
DAV:   2    -0.717210726687E+02   -0.10926E-02   -0.11025E-02  2560   0.212E-01    0.906E-03
DAV:   3    -0.717211110626E+02   -0.38394E-04   -0.38659E-04  2560   0.416E-02    0.940E-03
DAV:   4    -0.717211111598E+02   -0.97180E-07   -0.27797E-06  2528   0.605E-03
  27 F= -.71721111E+02 E0= -.71721111E+02  d E =-.436980E-13
       N       E                     dE             d eps       ncg     rms          rms(c)
DAV:   1    -0.717163310762E+02    0.47800E-02   -0.34907E+00  1920   0.322E+00    0.871E-02
DAV:   2    -0.717209855642E+02   -0.46545E-02   -0.47055E-02  2560   0.468E-01    0.206E-02
DAV:   3    -0.717211479573E+02   -0.16239E-03   -0.16660E-03  2592   0.871E-02    0.201E-02
DAV:   4    -0.717211483346E+02   -0.37730E-06   -0.13660E-05  2560   0.157E-02    0.134E-02
DAV:   5    -0.717211493618E+02   -0.10271E-05   -0.30371E-06  3008   0.165E-02    0.401E-03
DAV:   6    -0.717211498528E+02   -0.49106E-06   -0.15464E-06  2560   0.778E-03
  28 F= -.71721150E+02 E0= -.71721150E+02  d E =-.322742E-13
       N       E                     dE             d eps       ncg     rms          rms(c)
DAV:   1    -0.717194681933E+02    0.16812E-02   -0.86800E-01  1952   0.162E+00    0.432E-02
DAV:   2    -0.717206103508E+02   -0.11422E-02   -0.11513E-02  2560   0.225E-01    0.915E-03
DAV:   3    -0.717206502604E+02   -0.39910E-04   -0.40209E-04  2592   0.424E-02    0.914E-03
DAV:   4    -0.717206504622E+02   -0.20176E-06   -0.30946E-06  2528   0.610E-03
  29 F= -.71720650E+02 E0= -.71720650E+02  d E =-.283537E-13
       N       E                     dE             d eps       ncg     rms          rms(c)
DAV:   1    -0.717099095994E+02    0.10741E-01   -0.70349E+00  1920   0.459E+00    0.132E-01
DAV:   2    -0.717196438184E+02   -0.97342E-02   -0.98653E-02  2560   0.660E-01    0.319E-02
DAV:   3    -0.717199618661E+02   -0.31805E-03   -0.33238E-03  2656   0.119E-01    0.279E-02
DAV:   4    -0.717199658556E+02   -0.39895E-05   -0.76579E-05  2560   0.242E-02    0.177E-02
DAV:   5    -0.717199666158E+02   -0.76025E-06   -0.93602E-06  2816   0.179E-02
  30 F= -.71719967E+02 E0= -.71719967E+02  d E =-.556061E-13
       N       E                     dE             d eps       ncg     rms          rms(c)
DAV:   1    -0.717197949278E+02    0.17093E-03   -0.86820E-01  1920   0.155E+00    0.439E-02
DAV:   2    -0.717209592407E+02   -0.11643E-02   -0.11769E-02  2560   0.217E-01    0.117E-02
DAV:   3    -0.717209966842E+02   -0.37443E-04   -0.39242E-04  2464   0.425E-02    0.996E-03
DAV:   4    -0.717209975445E+02   -0.86031E-06   -0.12732E-05  2560   0.101E-02    0.648E-03
DAV:   5    -0.717209976878E+02   -0.14331E-06   -0.11143E-06  2208   0.557E-03
  31 F= -.71720998E+02 E0= -.71720998E+02  d E =-.465153E-13
       N       E                     dE             d eps       ncg     rms          rms(c)
DAV:   1    -0.717158116678E+02    0.51859E-02   -0.34903E+00  1920   0.322E+00    0.928E-02
DAV:   2    -0.717208254242E+02   -0.50138E-02   -0.50722E-02  2688   0.458E-01    0.274E-02
DAV:   3    -0.717209240307E+02   -0.98607E-04   -0.11094E-03  2592   0.873E-02    0.198E-02
DAV:   4    -0.717209257813E+02   -0.17505E-05   -0.30269E-05  2688   0.221E-02    0.123E-02
DAV:   5    -0.717209268649E+02   -0.10837E-05   -0.53025E-06  2976   0.185E-02    0.463E-03
DAV:   6    -0.717209273230E+02   -0.45809E-06   -0.20922E-06  2592   0.631E-03
  32 F= -.71720927E+02 E0= -.71720927E+02  d E =-.367778E-13
       N       E                     dE             d eps       ncg     rms          rms(c)
DAV:   1    -0.717185965910E+02    0.23303E-02   -0.86823E-01  1920   0.158E+00    0.456E-02
DAV:   2    -0.717197828918E+02   -0.11863E-02   -0.11956E-02  2560   0.210E-01    0.120E-02
DAV:   3    -0.717198216966E+02   -0.38805E-04   -0.40301E-04  2592   0.468E-02    0.100E-02
DAV:   4    -0.717198222884E+02   -0.59180E-06   -0.69683E-06  2560   0.753E-03
  33 F= -.71719822E+02 E0= -.71719822E+02  d E =-.365718E-13
       N       E                     dE             d eps       ncg     rms          rms(c)
DAV:   1    -0.717097765044E+02    0.10045E-01   -0.70317E+00  1920   0.456E+00    0.128E-01
DAV:   2    -0.717198459519E+02   -0.10069E-01   -0.10198E-01  2560   0.617E-01    0.356E-02
DAV:   3    -0.717201777417E+02   -0.33179E-03   -0.35197E-03  2528   0.134E-01    0.300E-02
DAV:   4    -0.717201794317E+02   -0.16901E-05   -0.65057E-05  2560   0.288E-02    0.200E-02
DAV:   5    -0.717201805228E+02   -0.10911E-05   -0.12075E-05  2784   0.249E-02    0.585E-03
DAV:   6    -0.717201813210E+02   -0.79813E-06   -0.33383E-06  2560   0.839E-03
  34 F= -.71720181E+02 E0= -.71720181E+02  d E =-.464863E-13
       N       E                     dE             d eps       ncg     rms          rms(c)
DAV:   1    -0.717199041930E+02    0.27633E-03   -0.86911E-01  1920   0.153E+00    0.426E-02
DAV:   2    -0.717210336486E+02   -0.11295E-02   -0.11372E-02  2560   0.207E-01    0.111E-02
DAV:   3    -0.717210700683E+02   -0.36420E-04   -0.37866E-04  2624   0.407E-02    0.976E-03
DAV:   4    -0.717210700751E+02   -0.67921E-08   -0.42057E-06  2560   0.727E-03
  35 F= -.71721070E+02 E0= -.71721070E+02  d E =-.413094E-13
       N       E                     dE             d eps       ncg     rms          rms(c)
DAV:   1    -0.717159192129E+02    0.51509E-02   -0.34941E+00  1920   0.313E+00    0.891E-02
DAV:   2    -0.717207102746E+02   -0.47911E-02   -0.48324E-02  2560   0.458E-01    0.243E-02
DAV:   3    -0.717208686183E+02   -0.15834E-03   -0.16574E-03  2752   0.897E-02    0.211E-02
DAV:   4    -0.717208685861E+02    0.32247E-07   -0.16382E-05  2560   0.169E-02    0.139E-02
DAV:   5    -0.717208696743E+02   -0.10882E-05   -0.52833E-06  3136   0.179E-02    0.430E-03
DAV:   6    -0.717208700731E+02   -0.39883E-06   -0.17826E-06  2304   0.658E-03
  36 F= -.71720870E+02 E0= -.71720870E+02  d E =-.344633E-13
       N       E                     dE             d eps       ncg     rms          rms(c)
DAV:   1    -0.717185181946E+02    0.23515E-02   -0.86902E-01  1920   0.158E+00    0.429E-02
DAV:   2    -0.717196637463E+02   -0.11456E-02   -0.11521E-02  2560   0.214E-01    0.116E-02
DAV:   3    -0.717197027296E+02   -0.38983E-04   -0.40378E-04  2624   0.415E-02    0.980E-03
DAV:   4    -0.717197027995E+02   -0.69933E-07   -0.37803E-06  2560   0.712E-03
  37 F= -.71719703E+02 E0= -.71719703E+02  d E =-.324367E-13
       N       E                     dE             d eps       ncg     rms          rms(c)
DAV:   1    -0.717101853552E+02    0.95174E-02   -0.69757E+00  1920   0.481E+00    0.118E-01
DAV:   2    -0.717203937754E+02   -0.10208E-01   -0.10283E-01  2560   0.701E-01    0.319E-02
DAV:   3    -0.717207115190E+02   -0.31774E-03   -0.33282E-03  2528   0.143E-01    0.270E-02
DAV:   4    -0.717207190301E+02   -0.75111E-05   -0.16072E-04  2752   0.408E-02    0.166E-02
DAV:   5    -0.717207174260E+02    0.16041E-05   -0.20169E-05  2528   0.283E-02    0.528E-03
DAV:   6    -0.717207172837E+02    0.14233E-06   -0.76527E-06  2656   0.129E-02
  38 F= -.71720717E+02 E0= -.71720717E+02  d E =-.343981E-13
       N       E                     dE             d eps       ncg     rms          rms(c)
DAV:   1    -0.717200244215E+02    0.69300E-03   -0.86738E-01  1920   0.102E+00    0.420E-02
DAV:   2    -0.717212286141E+02   -0.12042E-02   -0.12153E-02  2880   0.144E-01    0.117E-02
DAV:   3    -0.717212339986E+02   -0.53845E-05   -0.64954E-05  2400   0.194E-02    0.834E-03
DAV:   4    -0.717212339723E+02    0.26293E-07   -0.38871E-06  2880   0.105E-02
  39 F= -.71721234E+02 E0= -.71721234E+02  d E =-.351477E-13
       N       E                     dE             d eps       ncg     rms          rms(c)
DAV:   1    -0.717159634660E+02    0.52705E-02   -0.34878E+00  1920   0.217E+00    0.862E-02
DAV:   2    -0.717208379216E+02   -0.48745E-02   -0.49169E-02  2560   0.294E-01    0.196E-02
DAV:   3    -0.717209942177E+02   -0.15630E-03   -0.15910E-03  2368   0.656E-02    0.188E-02
DAV:   4    -0.717209987859E+02   -0.45683E-05   -0.71822E-05  2624   0.226E-02    0.126E-02
DAV:   5    -0.717209994426E+02   -0.65663E-06   -0.67152E-06  2400   0.183E-02
  40 F= -.71720999E+02 E0= -.71720999E+02  d E =-.411393E-13
       N       E                     dE             d eps       ncg     rms          rms(c)
DAV:   1    -0.717190646896E+02    0.19341E-02   -0.86727E-01  1920   0.104E+00    0.449E-02
DAV:   2    -0.717202755284E+02   -0.12108E-02   -0.12203E-02  2560   0.142E-01    0.976E-03
DAV:   3    -0.717203149567E+02   -0.39428E-04   -0.39714E-04  2560   0.307E-02    0.915E-03
DAV:   4    -0.717203156614E+02   -0.70475E-06   -0.11986E-05  2400   0.894E-03    0.592E-03
DAV:   5    -0.717203158744E+02   -0.21301E-06   -0.17423E-06  2240   0.103E-02
  41 F= -.71720316E+02 E0= -.71720316E+02  d E =-.456743E-13
       N       E                     dE             d eps       ncg     rms          rms(c)
DAV:   1    -0.717107430022E+02    0.95727E-02   -0.70321E+00  1920   0.302E+00    0.113E-01
DAV:   2    -0.717204389190E+02   -0.96959E-02   -0.97993E-02  2560   0.428E-01    0.284E-02
DAV:   3    -0.717207539094E+02   -0.31499E-03   -0.32103E-03  2464   0.849E-02    0.275E-02
DAV:   4    -0.717207566182E+02   -0.27088E-05   -0.85306E-05  2560   0.243E-02    0.176E-02
DAV:   5    -0.717207576760E+02   -0.10578E-05   -0.10725E-05  2688   0.226E-02    0.511E-03
DAV:   6    -0.717207580295E+02   -0.35351E-06   -0.33645E-06  2624   0.118E-02
  42 F= -.71720758E+02 E0= -.71720758E+02  d E =-.374137E-13
       N       E                     dE             d eps       ncg     rms          rms(c)
DAV:   1    -0.717199821131E+02    0.77556E-03   -0.86883E-01  1952   0.110E+00    0.386E-02
DAV:   2    -0.717211376719E+02   -0.11556E-02   -0.11670E-02  2560   0.152E-01    0.965E-03
DAV:   3    -0.717211770653E+02   -0.39393E-04   -0.40201E-04  2624   0.282E-02    0.986E-03
DAV:   4    -0.717211770555E+02    0.98244E-08   -0.60498E-06  2272   0.567E-03
  43 F= -.71721177E+02 E0= -.71721177E+02  d E =-.376898E-13
       N       E                     dE             d eps       ncg     rms          rms(c)
DAV:   1    -0.717162982691E+02    0.48788E-02   -0.34947E+00  1952   0.229E+00    0.798E-02
DAV:   2    -0.717210145209E+02   -0.47163E-02   -0.47662E-02  2560   0.297E-01    0.202E-02
DAV:   3    -0.717211784971E+02   -0.16398E-03   -0.16715E-03  2624   0.604E-02    0.204E-02
DAV:   4    -0.717211768892E+02    0.16079E-05   -0.11587E-05  2560   0.121E-02    0.130E-02
DAV:   5    -0.717211769931E+02   -0.10384E-06   -0.54545E-06  2848   0.149E-02
  44 F= -.71721177E+02 E0= -.71721177E+02  d E =-.368183E-13
       N       E                     dE             d eps       ncg     rms          rms(c)
DAV:   1    -0.717195694350E+02    0.16075E-02   -0.86902E-01  1952   0.112E+00    0.409E-02
DAV:   2    -0.717207175039E+02   -0.11481E-02   -0.11588E-02  2560   0.148E-01    0.101E-02
DAV:   3    -0.717207582406E+02   -0.40737E-04   -0.41263E-04  2624   0.327E-02    0.971E-03
DAV:   4    -0.717207579956E+02    0.24495E-06   -0.25792E-06  2240   0.523E-03
  45 F= -.71720758E+02 E0= -.71720758E+02  d E =-.373489E-13
       N       E                     dE             d eps       ncg     rms          rms(c)
DAV:   1    -0.717109144035E+02    0.98438E-02   -0.70278E+00  1920   0.344E+00    0.916E-02
DAV:   2    -0.717212154924E+02   -0.10301E-01   -0.10370E-01  2560   0.407E-01    0.305E-02
DAV:   3    -0.717215545033E+02   -0.33901E-03   -0.35047E-03  2720   0.872E-02    0.251E-02
DAV:   4    -0.717215542588E+02    0.24442E-06   -0.80032E-05  2656   0.217E-02    0.137E-02
DAV:   5    -0.717215516062E+02    0.26527E-05   -0.18117E-05  2816   0.221E-02    0.386E-03
DAV:   6    -0.717215510994E+02    0.50680E-06   -0.41125E-06  2528   0.816E-03
  46 F= -.71721551E+02 E0= -.71721551E+02  d E =-.254311E-13
       N       E                     dE             d eps       ncg     rms          rms(c)
DAV:   1    -0.717203565071E+02    0.11951E-02   -0.86863E-01  1920   0.986E-01    0.413E-02
DAV:   2    -0.717215245980E+02   -0.11681E-02   -0.11823E-02  2560   0.136E-01    0.955E-03
DAV:   3    -0.717215639211E+02   -0.39323E-04   -0.40172E-04  2464   0.296E-02    0.100E-02
DAV:   4    -0.717215638000E+02    0.12113E-06   -0.62335E-06  2336   0.618E-03
  47 F= -.71721564E+02 E0= -.71721564E+02  d E =-.301332E-13
       N       E                     dE             d eps       ncg     rms          rms(c)
DAV:   1    -0.717157309400E+02    0.58330E-02   -0.34933E+00  1920   0.203E+00    0.851E-02
DAV:   2    -0.717206283453E+02   -0.48974E-02   -0.49539E-02  2560   0.286E-01    0.197E-02
DAV:   3    -0.717207954368E+02   -0.16709E-03   -0.16982E-03  2464   0.626E-02    0.198E-02
DAV:   4    -0.717207970525E+02   -0.16157E-05   -0.42514E-05  2688   0.150E-02    0.132E-02
DAV:   5    -0.717207970861E+02   -0.33613E-07   -0.56012E-06  2624   0.157E-02
  48 F= -.71720797E+02 E0= -.71720797E+02  d E =-.659413E-13
       N       E                     dE             d eps       ncg     rms          rms(c)
DAV:   1    -0.717187444676E+02    0.20526E-02   -0.86853E-01  1920   0.996E-01    0.435E-02
DAV:   2    -0.717199326078E+02   -0.11881E-02   -0.12007E-02  2560   0.135E-01    0.974E-03
DAV:   3    -0.717199728339E+02   -0.40226E-04   -0.40641E-04  2592   0.284E-02    0.931E-03
DAV:   4    -0.717199730868E+02   -0.25291E-06   -0.75157E-06  2336   0.622E-03
  49 F= -.71719973E+02 E0= -.71719973E+02  d E =-.119270E-12
       N       E                     dE             d eps       ncg     rms          rms(c)
DAV:   1    -0.717104214549E+02    0.95514E-02   -0.69718E+00  1920   0.431E+00    0.122E-01
DAV:   2    -0.717202004034E+02   -0.97789E-02   -0.98742E-02  2432   0.622E-01    0.260E-02
DAV:   3    -0.717205283843E+02   -0.32798E-03   -0.32901E-03  2528   0.120E-01    0.278E-02
DAV:   4    -0.717205353594E+02   -0.69751E-05   -0.10050E-04  2464   0.252E-02    0.188E-02
DAV:   5    -0.717205365406E+02   -0.11812E-05   -0.82449E-06  2656   0.150E-02    0.753E-03
DAV:   6    -0.717205373107E+02   -0.77018E-06   -0.28505E-06  2880   0.121E-02
  50 F= -.71720537E+02 E0= -.71720537E+02  d E =-.358260E-13
       N       E                     dE             d eps       ncg     rms          rms(c)
DAV:   1    -0.717199402687E+02    0.59627E-03   -0.86774E-01  1952   0.137E+00    0.421E-02
DAV:   2    -0.717210627651E+02   -0.11225E-02   -0.11335E-02  2336   0.186E-01    0.851E-03
DAV:   3    -0.717211010484E+02   -0.38283E-04   -0.38398E-04  2720   0.355E-02    0.888E-03
DAV:   4    -0.717211016602E+02   -0.61180E-06   -0.77782E-06  2368   0.701E-03
  51 F= -.71721102E+02 E0= -.71721102E+02  d E =-.372559E-13
       N       E                     dE             d eps       ncg     rms          rms(c)
DAV:   1    -0.717191342396E+02    0.19668E-02   -0.35166E+00  2176   0.278E+00    0.696E-02
DAV:   2    -0.717211641240E+02   -0.20299E-02   -0.20407E-02  2304   0.247E-01    0.162E-02
DAV:   3    -0.717212357995E+02   -0.71676E-04   -0.73779E-04  2784   0.519E-02    0.113E-02
DAV:   4    -0.717212381018E+02   -0.23023E-05   -0.92597E-06  2400   0.125E-02    0.747E-03
DAV:   5    -0.717212389232E+02   -0.82136E-06   -0.10152E-06  2112   0.538E-03
  52 F= -.71721239E+02 E0= -.71721239E+02  d E =-.392328E-13
       N       E                     dE             d eps       ncg     rms          rms(c)
DAV:   1    -0.717196749767E+02    0.15631E-02   -0.86753E-01  1952   0.140E+00    0.435E-02
DAV:   2    -0.717208318172E+02   -0.11568E-02   -0.11652E-02  2368   0.191E-01    0.886E-03
DAV:   3    -0.717208722039E+02   -0.40387E-04   -0.40358E-04  2752   0.371E-02    0.942E-03
DAV:   4    -0.717208724010E+02   -0.19708E-06   -0.26965E-06  2432   0.529E-03
  53 F= -.71720872E+02 E0= -.71720872E+02  d E =-.415624E-13
       N       E                     dE             d eps       ncg     rms          rms(c)
DAV:   1    -0.717096730097E+02    0.11199E-01   -0.70272E+00  1920   0.417E+00    0.133E-01
DAV:   2    -0.717198670114E+02   -0.10194E-01   -0.10320E-01  2560   0.620E-01    0.295E-02
DAV:   3    -0.717202080676E+02   -0.34106E-03   -0.35126E-03  2528   0.116E-01    0.281E-02
DAV:   4    -0.717202166632E+02   -0.85956E-05   -0.12437E-04  2592   0.292E-02    0.186E-02
DAV:   5    -0.717202175924E+02   -0.92916E-06   -0.11317E-05  2752   0.177E-02    0.773E-03
DAV:   6    -0.717202185123E+02   -0.91997E-06   -0.30990E-06  2880   0.117E-02
  54 F= -.71720219E+02 E0= -.71720219E+02  d E =-.356639E-13
       N       E                     dE             d eps       ncg     rms          rms(c)
DAV:   1    -0.717198911644E+02    0.32643E-03   -0.86932E-01  1920   0.162E+00    0.414E-02
DAV:   2    -0.717210004058E+02   -0.11092E-02   -0.11168E-02  2560   0.216E-01    0.105E-02
DAV:   3    -0.717210374672E+02   -0.37061E-04   -0.38183E-04  2624   0.401E-02    0.979E-03
DAV:   4    -0.717210374297E+02    0.37497E-07   -0.29976E-06  2528   0.613E-03
  55 F= -.71721037E+02 E0= -.71721037E+02  d E =-.366745E-13
       N       E                     dE             d eps       ncg     rms          rms(c)
DAV:   1    -0.717162152880E+02    0.48222E-02   -0.34949E+00  1920   0.321E+00    0.848E-02
DAV:   2    -0.717208919844E+02   -0.46767E-02   -0.47121E-02  2592   0.416E-01    0.224E-02
DAV:   3    -0.717210357782E+02   -0.14379E-03   -0.14841E-03  2624   0.749E-02    0.203E-02
DAV:   4    -0.717210360588E+02   -0.28060E-06   -0.14022E-05  2592   0.146E-02    0.137E-02
DAV:   5    -0.717210372133E+02   -0.11545E-05   -0.49869E-06  2752   0.133E-02    0.373E-03
DAV:   6    -0.717210375934E+02   -0.38010E-06   -0.12061E-06  2240   0.454E-03
  56 F= -.71721038E+02 E0= -.71721038E+02  d E =-.366491E-13
       N       E                     dE             d eps       ncg     rms          rms(c)
DAV:   1    -0.717190661581E+02    0.19711E-02   -0.86935E-01  1920   0.161E+00    0.423E-02
DAV:   2    -0.717201812300E+02   -0.11151E-02   -0.11215E-02  2560   0.216E-01    0.106E-02
DAV:   3    -0.717202181509E+02   -0.36921E-04   -0.37828E-04  2592   0.422E-02    0.970E-03
DAV:   4    -0.717202182605E+02   -0.10955E-06   -0.29554E-06  2528   0.558E-03
  57 F= -.71720218E+02 E0= -.71720218E+02  d E =-.357988E-13
       N       E                     dE             d eps       ncg     rms          rms(c)
DAV:   1    -0.717093051228E+02    0.10913E-01   -0.70317E+00  1920   0.461E+00    0.977E-02
DAV:   2    -0.717194760054E+02   -0.10171E-01   -0.10228E-01  2560   0.573E-01    0.329E-02
DAV:   3    -0.717197951283E+02   -0.31912E-03   -0.33058E-03  2528   0.111E-01    0.244E-02
DAV:   4    -0.717197981117E+02   -0.29833E-05   -0.91176E-05  2592   0.269E-02    0.137E-02
DAV:   5    -0.717197975765E+02    0.53514E-06   -0.15586E-05  2880   0.168E-02    0.489E-03
DAV:   6    -0.717197975410E+02    0.35554E-07   -0.31257E-06  2560   0.718E-03
  58 F= -.71719798E+02 E0= -.71719798E+02  d E =-.394842E-13
       N       E                     dE             d eps       ncg     rms          rms(c)
DAV:   1    -0.717197797266E+02    0.17850E-04   -0.86833E-01  1920   0.133E+00    0.445E-02
DAV:   2    -0.717208991334E+02   -0.11194E-02   -0.11282E-02  2528   0.182E-01    0.112E-02
DAV:   3    -0.717209371316E+02   -0.37998E-04   -0.39026E-04  2688   0.357E-02    0.998E-03
DAV:   4    -0.717209370512E+02    0.80427E-07   -0.31283E-06  2560   0.648E-03
  59 F= -.71720937E+02 E0= -.71720937E+02  d E =-.390212E-13
       N       E                     dE             d eps       ncg     rms          rms(c)
DAV:   1    -0.717158687198E+02    0.50684E-02   -0.34882E+00  1920   0.276E+00    0.949E-02
DAV:   2    -0.717207684146E+02   -0.48997E-02   -0.49350E-02  2560   0.395E-01    0.239E-02
DAV:   3    -0.717209350468E+02   -0.16663E-03   -0.17089E-03  2560   0.799E-02    0.214E-02
DAV:   4    -0.717209356578E+02   -0.61101E-06   -0.21130E-05  2560   0.185E-02    0.136E-02
DAV:   5    -0.717209372502E+02   -0.15925E-05   -0.61630E-06  2784   0.171E-02    0.366E-03
DAV:   6    -0.717209377087E+02   -0.45846E-06   -0.18810E-06  2336   0.644E-03
  60 F= -.71720938E+02 E0= -.71720938E+02  d E =-.367059E-13
       N       E                     dE             d eps       ncg     rms          rms(c)
DAV:   1    -0.717185563192E+02    0.23809E-02   -0.86751E-01  1920   0.144E+00    0.479E-02
DAV:   2    -0.717197549180E+02   -0.11986E-02   -0.12055E-02  2528   0.199E-01    0.118E-02
DAV:   3    -0.717197967274E+02   -0.41809E-04   -0.42645E-04  2656   0.397E-02    0.104E-02
DAV:   4    -0.717197968729E+02   -0.14555E-06   -0.34482E-06  2560   0.637E-03
  61 F= -.71719797E+02 E0= -.71719797E+02  d E =-.366865E-13
       N       E                     dE             d eps       ncg     rms          rms(c)
DAV:   1    -0.717103894680E+02    0.94073E-02   -0.69801E+00  1920   0.483E+00    0.135E-01
DAV:   2    -0.717202998272E+02   -0.99104E-02   -0.99912E-02  2560   0.684E-01    0.312E-02
DAV:   3    -0.717206408860E+02   -0.34106E-03   -0.35136E-03  2592   0.136E-01    0.309E-02
DAV:   4    -0.717206377487E+02    0.31373E-05   -0.29765E-05  2560   0.249E-02    0.180E-02
DAV:   5    -0.717206386386E+02   -0.88997E-06   -0.77961E-06  2976   0.222E-02
  62 F= -.71720639E+02 E0= -.71720639E+02  d E =-.373752E-13
       N       E                     dE             d eps       ncg     rms          rms(c)
DAV:   1    -0.717199298496E+02    0.70790E-03   -0.86784E-01  1920   0.150E+00    0.428E-02
DAV:   2    -0.717211145951E+02   -0.11847E-02   -0.11971E-02  2528   0.219E-01    0.949E-03
DAV:   3    -0.717211532832E+02   -0.38688E-04   -0.39448E-04  2496   0.411E-02    0.104E-02
DAV:   4    -0.717211533627E+02   -0.79470E-07   -0.82349E-06  2304   0.807E-03
  63 F= -.71721153E+02 E0= -.71721153E+02  d E =-.372237E-13
       N       E                     dE             d eps       ncg     rms          rms(c)
DAV:   1    -0.717161469626E+02    0.50063E-02   -0.34910E+00  1920   0.297E+00    0.882E-02
DAV:   2    -0.717209901250E+02   -0.48432E-02   -0.48910E-02  2528   0.408E-01    0.202E-02
DAV:   3    -0.717211518146E+02   -0.16169E-03   -0.16521E-03  2528   0.838E-02    0.207E-02
DAV:   4    -0.717211526468E+02   -0.83217E-06   -0.39110E-05  2560   0.204E-02    0.132E-02
DAV:   5    -0.717211532943E+02   -0.64748E-06   -0.64340E-06  2816   0.233E-02
  64 F= -.71721153E+02 E0= -.71721153E+02  d E =-.371339E-13
       N       E                     dE             d eps       ncg     rms          rms(c)
DAV:   1    -0.717194092800E+02    0.17434E-02   -0.86807E-01  1920   0.152E+00    0.459E-02
DAV:   2    -0.717205990726E+02   -0.11898E-02   -0.12013E-02  2560   0.212E-01    0.104E-02
DAV:   3    -0.717206396270E+02   -0.40554E-04   -0.41103E-04  2592   0.436E-02    0.986E-03
DAV:   4    -0.717206394050E+02    0.22200E-06   -0.42240E-06  2240   0.769E-03
  65 F= -.71720639E+02 E0= -.71720639E+02  d E =-.379833E-13
       N       E                     dE             d eps       ncg     rms          rms(c)
DAV:   1    -0.717104587331E+02    0.10181E-01   -0.70410E+00  1920   0.419E+00    0.130E-01
DAV:   2    -0.717202373548E+02   -0.97786E-02   -0.99057E-02  2560   0.580E-01    0.315E-02
DAV:   3    -0.717205726453E+02   -0.33529E-03   -0.35047E-03  2720   0.124E-01    0.307E-02
DAV:   4    -0.717205685101E+02    0.41352E-05   -0.32122E-05  2560   0.236E-02    0.183E-02
DAV:   5    -0.717205679794E+02    0.53071E-06   -0.11163E-05  2944   0.307E-02    0.497E-03
DAV:   6    -0.717205682335E+02   -0.25406E-06   -0.49033E-06  2624   0.123E-02
  66 F= -.71720568E+02 E0= -.71720568E+02  d E =-.414806E-13
       N       E                     dE             d eps       ncg     rms          rms(c)
DAV:   1    -0.717199400879E+02    0.62789E-03   -0.86944E-01  1920   0.150E+00    0.430E-02
DAV:   2    -0.717210858394E+02   -0.11458E-02   -0.11600E-02  2560   0.210E-01    0.994E-03
DAV:   3    -0.717211235712E+02   -0.37732E-04   -0.39161E-04  2816   0.399E-02    0.102E-02
DAV:   4    -0.717211231211E+02    0.45014E-06   -0.27996E-06  2464   0.645E-03
  67 F= -.71721123E+02 E0= -.71721123E+02  d E =-.399922E-13
       N       E                     dE             d eps       ncg     rms          rms(c)
DAV:   1    -0.717162800164E+02    0.48436E-02   -0.34968E+00  1920   0.297E+00    0.884E-02
DAV:   2    -0.717209664224E+02   -0.46864E-02   -0.47472E-02  2560   0.403E-01    0.206E-02
DAV:   3    -0.717211257436E+02   -0.15932E-03   -0.16571E-03  2912   0.821E-02    0.211E-02
DAV:   4    -0.717211236685E+02    0.20751E-05   -0.12172E-05  2560   0.144E-02    0.129E-02
DAV:   5    -0.717211228678E+02    0.80073E-06   -0.59463E-06  2816   0.198E-02
  68 F= -.71721123E+02 E0= -.71721123E+02  d E =-.383611E-13
       N       E                     dE             d eps       ncg     rms          rms(c)
DAV:   1    -0.717193806743E+02    0.17430E-02   -0.86969E-01  1920   0.151E+00    0.453E-02
DAV:   2    -0.717205303082E+02   -0.11496E-02   -0.11625E-02  2560   0.205E-01    0.103E-02
DAV:   3    -0.717205687462E+02   -0.38438E-04   -0.39579E-04  2880   0.402E-02    0.966E-03
DAV:   4    -0.717205684010E+02    0.34524E-06   -0.27207E-06  2336   0.602E-03
  69 F= -.71720568E+02 E0= -.71720568E+02  d E =-.408404E-13
       N       E                     dE             d eps       ncg     rms          rms(c)
DAV:   1    -0.717106307287E+02    0.99380E-02   -0.70387E+00  1920   0.440E+00    0.120E-01
DAV:   2    -0.717203943394E+02   -0.97636E-02   -0.98737E-02  2560   0.573E-01    0.288E-02
DAV:   3    -0.717207147839E+02   -0.32044E-03   -0.32846E-03  2464   0.108E-01    0.282E-02
DAV:   4    -0.717207169285E+02   -0.21447E-05   -0.79454E-05  2560   0.245E-02    0.183E-02
DAV:   5    -0.717207166011E+02    0.32742E-06   -0.10142E-05  2752   0.216E-02    0.570E-03
DAV:   6    -0.717207169350E+02   -0.33391E-06   -0.36255E-06  2848   0.110E-02
  70 F= -.71720717E+02 E0= -.71720717E+02  d E =-.393251E-13
       N       E                     dE             d eps       ncg     rms          rms(c)
DAV:   1    -0.717200047732E+02    0.71183E-03   -0.86952E-01  1920   0.144E+00    0.406E-02
DAV:   2    -0.717211243150E+02   -0.11195E-02   -0.11309E-02  2496   0.199E-01    0.944E-03
DAV:   3    -0.717211620197E+02   -0.37705E-04   -0.38420E-04  2624   0.380E-02    0.967E-03
DAV:   4    -0.717211617010E+02    0.31876E-06   -0.27862E-06  2240   0.599E-03
  71 F= -.71721162E+02 E0= -.71721162E+02  d E =-.388385E-13
       N       E                     dE             d eps       ncg     rms          rms(c)
DAV:   1    -0.717163534784E+02    0.48085E-02   -0.34962E+00  1920   0.282E+00    0.836E-02
DAV:   2    -0.717210057117E+02   -0.46522E-02   -0.47031E-02  2560   0.379E-01    0.199E-02
DAV:   3    -0.717211614302E+02   -0.15572E-03   -0.15901E-03  2496   0.768E-02    0.195E-02
DAV:   4    -0.717211616847E+02   -0.25453E-06   -0.27516E-05  2656   0.164E-02    0.127E-02
DAV:   5    -0.717211615469E+02    0.13779E-06   -0.45003E-06  2720   0.185E-02
  72 F= -.71721162E+02 E0= -.71721162E+02  d E =-.375153E-13
       N       E                     dE             d eps       ncg     rms          rms(c)
DAV:   1    -0.717195674298E+02    0.15943E-02   -0.86984E-01  1920   0.144E+00    0.423E-02
DAV:   2    -0.717206793237E+02   -0.11119E-02   -0.11224E-02  2560   0.190E-01    0.998E-03
DAV:   3    -0.717207171421E+02   -0.37818E-04   -0.38246E-04  2560   0.386E-02    0.916E-03
DAV:   4    -0.717207169601E+02    0.18201E-06   -0.29539E-06  2240   0.640E-03
  73 F= -.71720717E+02 E0= -.71720717E+02  d E =-.385179E-13
       N       E                     dE             d eps       ncg     rms          rms(c)
DAV:   1    -0.717050925616E+02    0.15625E-01   -0.83656E+00  2112   0.554E+00    0.479E-01
DAV:   2    -0.717164412714E+02   -0.11349E-01   -0.11793E-01  2560   0.842E-01    0.106E-01
DAV:   3    -0.717168687108E+02   -0.42744E-03   -0.50675E-03  3200   0.200E-01    0.135E-01
DAV:   4    -0.717168543123E+02    0.14398E-04   -0.64271E-05  2880   0.415E-02    0.841E-02
DAV:   5    -0.717168341584E+02    0.20154E-04   -0.80946E-05  2880   0.721E-02    0.344E-02
DAV:   6    -0.717168342304E+02   -0.72016E-07   -0.18602E-05  2432   0.165E-02    0.295E-02
DAV:   7    -0.717168342380E+02   -0.75597E-08   -0.56872E-06  2528   0.109E-02
  74 F= -.71716834E+02 E0= -.71716834E+02  d E =-.839625E-13
       N       E                     dE             d eps       ncg     rms          rms(c)
DAV:   1    -0.717186259412E+02   -0.17917E-02   -0.12144E+00  2048   0.149E+00    0.212E-01
DAV:   2    -0.717199194962E+02   -0.12936E-02   -0.13892E-02  2592   0.242E-01    0.518E-02
DAV:   3    -0.717199672850E+02   -0.47789E-04   -0.66577E-04  3168   0.662E-02    0.596E-02
DAV:   4    -0.717199627019E+02    0.45831E-05   -0.14510E-05  2880   0.261E-02    0.273E-02
DAV:   5    -0.717199592445E+02    0.34574E-05   -0.12247E-05  2816   0.288E-02    0.150E-02
DAV:   6    -0.717199593990E+02   -0.15456E-06   -0.42007E-06  2336   0.790E-03
  75 F= -.71719959E+02 E0= -.71719959E+02  d E =-.537448E-13
       N       E                     dE             d eps       ncg     rms          rms(c)
DAV:   1    -0.717146441116E+02    0.53151E-02   -0.48818E+00  1952   0.312E+00    0.446E-01
DAV:   2    -0.717201444633E+02   -0.55004E-02   -0.58917E-02  2560   0.530E-01    0.110E-01
DAV:   3    -0.717203389714E+02   -0.19451E-03   -0.27810E-03  3008   0.144E-01    0.116E-01
DAV:   4    -0.717203194110E+02    0.19560E-04   -0.10195E-04  3040   0.671E-02    0.528E-02
DAV:   5    -0.717203059382E+02    0.13473E-04   -0.49238E-05  2880   0.653E-02    0.284E-02
DAV:   6    -0.717203073623E+02   -0.14241E-05   -0.21512E-05  2336   0.175E-02    0.187E-02
DAV:   7    -0.717203074796E+02   -0.11732E-06   -0.23546E-06  2464   0.657E-03
  76 F= -.71720307E+02 E0= -.71720307E+02  d E =-.328084E-13
       N       E                     dE             d eps       ncg     rms          rms(c)
DAV:   1    -0.717158433257E+02    0.44640E-02   -0.12127E+00  1984   0.156E+00    0.239E-01
DAV:   2    -0.717172891864E+02   -0.14459E-02   -0.15462E-02  2624   0.253E-01    0.544E-02
DAV:   3    -0.717173429483E+02   -0.53762E-04   -0.74890E-04  3168   0.688E-02    0.633E-02
DAV:   4    -0.717173377304E+02    0.52179E-05   -0.14295E-05  2848   0.242E-02    0.329E-02
DAV:   5    -0.717173333756E+02    0.43548E-05   -0.16965E-05  2880   0.340E-02    0.180E-02
DAV:   6    -0.717173336710E+02   -0.29534E-06   -0.52823E-06  2336   0.787E-03
  77 F= -.71717334E+02 E0= -.71717334E+02  d E =-.327036E-13
       N       E                     dE             d eps       ncg     rms          rms(c)
DAV:   1    -0.717056214318E+02    0.11712E-01   -0.98224E+00  1952   0.450E+00    0.661E-01
DAV:   2    -0.717174567712E+02   -0.11835E-01   -0.12669E-01  2592   0.740E-01    0.160E-01
DAV:   3    -0.717178865656E+02   -0.42979E-03   -0.59758E-03  3168   0.193E-01    0.183E-01
DAV:   4    -0.717178411877E+02    0.45378E-04   -0.12553E-04  2880   0.618E-02    0.863E-02
DAV:   5    -0.717178095968E+02    0.31591E-04   -0.11712E-04  3104   0.819E-02    0.458E-02
DAV:   6    -0.717178114767E+02   -0.18800E-05   -0.32287E-05  2304   0.208E-02    0.343E-02
DAV:   7    -0.717178119716E+02   -0.49483E-06   -0.54052E-06  2560   0.951E-03
  78 F= -.71717812E+02 E0= -.71717812E+02  d E =-.316059E-13
       N       E                     dE             d eps       ncg     rms          rms(c)
DAV:   1    -0.717190383324E+02   -0.12269E-02   -0.12129E+00  2016   0.154E+00    0.218E-01
DAV:   2    -0.717203800673E+02   -0.13417E-02   -0.14471E-02  2624   0.242E-01    0.528E-02
DAV:   3    -0.717204310698E+02   -0.51003E-04   -0.71709E-04  3104   0.600E-02    0.624E-02
DAV:   4    -0.717204255192E+02    0.55506E-05   -0.16254E-05  2752   0.185E-02    0.254E-02
DAV:   5    -0.717204222930E+02    0.32262E-05   -0.13326E-05  2816   0.192E-02    0.165E-02
DAV:   6    -0.717204223574E+02   -0.64383E-07   -0.28454E-06  2272   0.715E-03
  79 F= -.71720422E+02 E0= -.71720422E+02  d E =-.352360E-13
       N       E                     dE             d eps       ncg     rms          rms(c)
DAV:   1    -0.717148098223E+02    0.56125E-02   -0.48785E+00  2016   0.327E+00    0.449E-01
DAV:   2    -0.717202631821E+02   -0.54534E-02   -0.58734E-02  2560   0.498E-01    0.109E-01
DAV:   3    -0.717204589113E+02   -0.19573E-03   -0.28000E-03  3200   0.130E-01    0.124E-01
DAV:   4    -0.717204343404E+02    0.24571E-04   -0.65089E-05  3136   0.520E-02    0.517E-02
DAV:   5    -0.717204213715E+02    0.12969E-04   -0.56879E-05  2976   0.458E-02    0.317E-02
DAV:   6    -0.717204219535E+02   -0.58200E-06   -0.13502E-05  2368   0.148E-02    0.207E-02
DAV:   7    -0.717204221959E+02   -0.24244E-06   -0.22311E-06  2240   0.587E-03
  80 F= -.71720422E+02 E0= -.71720422E+02  d E =-.351670E-13
       N       E                     dE             d eps       ncg     rms          rms(c)
DAV:   1    -0.717164165006E+02    0.40055E-02   -0.12128E+00  2048   0.160E+00    0.218E-01
DAV:   2    -0.717177635775E+02   -0.13471E-02   -0.14542E-02  2592   0.240E-01    0.517E-02
DAV:   3    -0.717178205395E+02   -0.56962E-04   -0.78152E-04  3168   0.618E-02    0.620E-02
DAV:   4    -0.717178159896E+02    0.45498E-05   -0.14056E-05  2880   0.167E-02    0.319E-02
DAV:   5    -0.717178123353E+02    0.36543E-05   -0.18357E-05  3008   0.212E-02    0.177E-02
DAV:   6    -0.717178123200E+02    0.15263E-07   -0.27407E-06  2272   0.672E-03
  81 F= -.71717812E+02 E0= -.71717812E+02  d E =-.315204E-13
       N       E                     dE             d eps       ncg     rms          rms(c)
DAV:   1    -0.717052501771E+02    0.12562E-01   -0.98244E+00  2016   0.456E+00    0.477E-01
DAV:   2    -0.717170556625E+02   -0.11805E-01   -0.12421E-01  2784   0.720E-01    0.178E-01
DAV:   3    -0.717173008355E+02   -0.24517E-03   -0.44313E-03  2976   0.165E-01    0.138E-01
DAV:   4    -0.717171601331E+02    0.14070E-03   -0.28226E-04  3200   0.102E-01    0.284E-02
DAV:   5    -0.717171228999E+02    0.37233E-04   -0.90098E-05  2720   0.426E-02    0.172E-02
DAV:   6    -0.717171074819E+02    0.15418E-04   -0.43006E-05  2816   0.247E-02    0.759E-03
DAV:   7    -0.717170995348E+02    0.79472E-05   -0.98523E-06  2752   0.134E-02    0.616E-03
DAV:   8    -0.717170951327E+02    0.44020E-05   -0.40705E-06  2368   0.908E-03    0.276E-03
DAV:   9    -0.717170871807E+02    0.79521E-05   -0.93670E-06  2752   0.213E-02    0.206E-03
DAV:  10    -0.717170856930E+02    0.14877E-05   -0.42584E-06  2592   0.981E-03    0.131E-03
DAV:  11    -0.717170845434E+02    0.11496E-05   -0.19991E-06  2112   0.119E-02    0.835E-04
DAV:  12    -0.717170844956E+02    0.47799E-07   -0.17367E-06  2208   0.650E-03
  82 F= -.71717084E+02 E0= -.71717084E+02  d E =-.234715E-13
       N       E                     dE             d eps       ncg     rms          rms(c)
DAV:   1    -0.717188867215E+02   -0.18022E-02   -0.12140E+00  2048   0.148E+00    0.206E-01
DAV:   2    -0.717201375586E+02   -0.12508E-02   -0.13587E-02  2688   0.238E-01    0.544E-02
DAV:   3    -0.717201728908E+02   -0.35332E-04   -0.58375E-04  3072   0.632E-02    0.582E-02
DAV:   4    -0.717201645133E+02    0.83775E-05   -0.19716E-05  2880   0.262E-02    0.180E-02
DAV:   5    -0.717201616771E+02    0.28361E-05   -0.11040E-05  2848   0.223E-02    0.147E-02
DAV:   6    -0.717201621762E+02   -0.49907E-06   -0.50939E-06  2304   0.804E-03
  83 F= -.71720162E+02 E0= -.71720162E+02  d E =-.280389E-13
       N       E                     dE             d eps       ncg     rms          rms(c)
DAV:   1    -0.717150730463E+02    0.50886E-02   -0.48810E+00  2048   0.313E+00    0.427E-01
DAV:   2    -0.717203869312E+02   -0.53139E-02   -0.57431E-02  2688   0.499E-01    0.118E-01
DAV:   3    -0.717204837900E+02   -0.96859E-04   -0.18985E-03  3072   0.121E-01    0.114E-01
DAV:   4    -0.717204461091E+02    0.37681E-04   -0.91667E-05  2976   0.722E-02    0.350E-02
DAV:   5    -0.717204369959E+02    0.91132E-05   -0.44500E-05  2752   0.488E-02    0.247E-02
DAV:   6    -0.717204393429E+02   -0.23470E-05   -0.23436E-05  2336   0.171E-02    0.848E-03
DAV:   7    -0.717204393583E+02   -0.15374E-07   -0.11700E-06  2176   0.458E-03
  84 F= -.71720439E+02 E0= -.71720439E+02  d E =-.576967E-13
       N       E                     dE             d eps       ncg     rms          rms(c)
DAV:   1    -0.717161614313E+02    0.42779E-02   -0.12121E+00  2016   0.154E+00    0.237E-01
DAV:   2    -0.717175865131E+02   -0.14251E-02   -0.15353E-02  2624   0.250E-01    0.540E-02
DAV:   3    -0.717176365685E+02   -0.50055E-04   -0.74625E-04  3136   0.694E-02    0.632E-02
DAV:   4    -0.717176293512E+02    0.72173E-05   -0.17805E-05  2848   0.273E-02    0.280E-02
DAV:   5    -0.717176249736E+02    0.43776E-05   -0.16495E-05  2880   0.313E-02    0.169E-02
DAV:   6    -0.717176254115E+02   -0.43798E-06   -0.63180E-06  2400   0.914E-03
  85 F= -.71717625E+02 E0= -.71717625E+02  d E =-.990419E-13
       N       E                     dE             d eps       ncg     rms          rms(c)
DAV:   1    -0.717093524002E+02    0.82726E-02   -0.59117E+00  1920   0.383E+00    0.633E-01
DAV:   2    -0.717195192179E+02   -0.10167E-01   -0.11077E-01  2720   0.844E-01    0.184E-01
DAV:   3    -0.717195857355E+02   -0.66518E-04   -0.35309E-03  2816   0.157E-01    0.174E-01
DAV:   4    -0.717195137433E+02    0.71992E-04   -0.24176E-04  2944   0.632E-02    0.836E-02
DAV:   5    -0.717194914987E+02    0.22245E-04   -0.10081E-04  2848   0.595E-02    0.244E-02
DAV:   6    -0.717194935371E+02   -0.20384E-05   -0.34310E-05  2528   0.202E-02    0.198E-02
DAV:   7    -0.717194929154E+02    0.62170E-06   -0.75385E-06  2528   0.890E-03
  86 F= -.71719493E+02 E0= -.71719493E+02  d E =-.376365E-13
       N       E                     dE             d eps       ncg     rms          rms(c)
DAV:   1    -0.717205353656E+02   -0.10418E-02   -0.25390E-01  1920   0.692E-01    0.119E-01
DAV:   2    -0.717208071649E+02   -0.27180E-03   -0.37681E-03  2720   0.185E-01    0.453E-02
DAV:   3    -0.717207844499E+02    0.22715E-04   -0.95588E-05  2656   0.300E-02    0.305E-02
DAV:   4    -0.717207719592E+02    0.12491E-04   -0.54541E-05  2560   0.245E-02    0.101E-02
DAV:   5    -0.717207721734E+02   -0.21416E-06   -0.57136E-06  2240   0.842E-03
  87 F= -.71720772E+02 E0= -.71720772E+02  d E =-.369793E-13
       N       E                     dE             d eps       ncg     rms          rms(c)
DAV:   1    -0.717202285742E+02    0.54339E-03   -0.10161E+00  1920   0.139E+00    0.253E-01
DAV:   2    -0.717213291284E+02   -0.11006E-02   -0.15158E-02  2560   0.375E-01    0.855E-02
DAV:   3    -0.717212353993E+02    0.93729E-04   -0.37900E-04  2528   0.635E-02    0.588E-02
DAV:   4    -0.717211871584E+02    0.48241E-04   -0.20368E-04  2720   0.526E-02    0.204E-02
DAV:   5    -0.717211885268E+02   -0.13683E-05   -0.25083E-05  2208   0.164E-02    0.105E-02
DAV:   6    -0.717211882758E+02    0.25099E-06   -0.21036E-06  2240   0.679E-03
  88 F= -.71721188E+02 E0= -.71721188E+02  d E =-.388967E-13
       N       E                     dE             d eps       ncg     rms          rms(c)
DAV:   1    -0.717201541516E+02    0.10344E-02   -0.25408E-01  2080   0.694E-01    0.121E-01
DAV:   2    -0.717204401467E+02   -0.28600E-03   -0.38826E-03  2560   0.199E-01    0.441E-02
DAV:   3    -0.717204174653E+02    0.22681E-04   -0.97829E-05  2624   0.346E-02    0.303E-02
DAV:   4    -0.717204050398E+02    0.12426E-04   -0.55042E-05  2656   0.300E-02    0.101E-02
DAV:   5    -0.717204054967E+02   -0.45695E-06   -0.79727E-06  2176   0.902E-03
  89 F= -.71720405E+02 E0= -.71720405E+02  d E =-.428277E-13
       N       E                     dE             d eps       ncg     rms          rms(c)
DAV:   1    -0.717174354649E+02    0.29696E-02   -0.20477E+00  1952   0.208E+00    0.278E-01
DAV:   2    -0.717196795331E+02   -0.22441E-02   -0.31098E-02  2720   0.666E-01    0.117E-01
DAV:   3    -0.717194847386E+02    0.19479E-03   -0.77099E-04  2592   0.112E-01    0.875E-02
DAV:   4    -0.717193769666E+02    0.10777E-03   -0.40659E-04  2720   0.957E-02    0.285E-02
DAV:   5    -0.717193799497E+02   -0.29831E-05   -0.57204E-05  2240   0.277E-02    0.132E-02
DAV:   6    -0.717193787935E+02    0.11562E-05   -0.49193E-06  2592   0.104E-02    0.835E-03
DAV:   7    -0.717193788776E+02   -0.84083E-07   -0.10716E-06  1984   0.540E-03
  90 F= -.71719379E+02 E0= -.71719379E+02  d E =-.322199E-13
       N       E                     dE             d eps       ncg     rms          rms(c)
DAV:   1    -0.717206212757E+02   -0.12425E-02   -0.25864E-01  1920   0.760E-01    0.859E-02
DAV:   2    -0.717208595512E+02   -0.23828E-03   -0.34786E-03  2560   0.216E-01    0.395E-02
DAV:   3    -0.717208346003E+02    0.24951E-04   -0.87248E-05  2752   0.382E-02    0.277E-02
DAV:   4    -0.717208208995E+02    0.13701E-04   -0.52290E-05  2720   0.340E-02    0.927E-03
DAV:   5    -0.717208212290E+02   -0.32944E-06   -0.78490E-06  2208   0.103E-02
  91 F= -.71720821E+02 E0= -.71720821E+02  d E =-.356427E-13
       N       E                     dE             d eps       ncg     rms          rms(c)
DAV:   1    -0.717199958163E+02    0.82508E-03   -0.10348E+00  1920   0.152E+00    0.177E-01
DAV:   2    -0.717209783864E+02   -0.98257E-03   -0.14224E-02  2560   0.439E-01    0.787E-02
DAV:   3    -0.717208757873E+02    0.10260E-03   -0.35237E-04  2848   0.824E-02    0.564E-02
DAV:   4    -0.717208196291E+02    0.56158E-04   -0.20743E-04  2720   0.860E-02    0.190E-02
DAV:   5    -0.717208216737E+02   -0.20446E-05   -0.37059E-05  2272   0.216E-02    0.935E-03
DAV:   6    -0.717208210994E+02    0.57430E-06   -0.24035E-06  2368   0.705E-03
  92 F= -.71720821E+02 E0= -.71720821E+02  d E =-.355009E-13
       N       E                     dE             d eps       ncg     rms          rms(c)
DAV:   1    -0.717191761287E+02    0.16455E-02   -0.25882E-01  1920   0.759E-01    0.864E-02
DAV:   2    -0.717194180760E+02   -0.24195E-03   -0.35187E-03  2560   0.222E-01    0.394E-02
DAV:   3    -0.717193927401E+02    0.25336E-04   -0.88236E-05  2848   0.383E-02    0.276E-02
DAV:   4    -0.717193787232E+02    0.14017E-04   -0.53348E-05  2560   0.345E-02    0.934E-03
DAV:   5    -0.717193791202E+02   -0.39703E-06   -0.84381E-06  2272   0.105E-02
  93 F= -.71719379E+02 E0= -.71719379E+02  d E =-.322124E-13
       N       E                     dE             d eps       ncg     rms          rms(c)
DAV:   1    -0.717159351966E+02    0.34435E-02   -0.20255E+00  1920   0.223E+00    0.483E-01
DAV:   2    -0.717180641218E+02   -0.21289E-02   -0.32804E-02  2560   0.626E-01    0.928E-02
DAV:   3    -0.717178008529E+02    0.26327E-03   -0.10272E-03  2816   0.127E-01    0.623E-02
DAV:   4    -0.717176283682E+02    0.17248E-03   -0.27329E-04  2880   0.842E-02    0.225E-02
DAV:   5    -0.717175756399E+02    0.52728E-04   -0.95056E-05  2720   0.457E-02    0.181E-02
DAV:   6    -0.717175512677E+02    0.24372E-04   -0.36218E-05  2880   0.302E-02    0.656E-03
DAV:   7    -0.717175418300E+02    0.94377E-05   -0.16114E-05  2976   0.192E-02    0.542E-03
DAV:   8    -0.717175382885E+02    0.35414E-05   -0.51686E-06  2720   0.110E-02    0.210E-03
DAV:   9    -0.717175343361E+02    0.39525E-05   -0.53764E-06  2240   0.177E-02    0.150E-03
DAV:  10    -0.717175336529E+02    0.68313E-06   -0.26365E-06  2240   0.895E-03
  94 F= -.71717534E+02 E0= -.71717534E+02  d E =-.469675E-13
       N       E                     dE             d eps       ncg     rms          rms(c)
DAV:   1    -0.717201978721E+02   -0.26635E-02   -0.24786E-01  2080   0.725E-01    0.211E-01
DAV:   2    -0.717204513155E+02   -0.25344E-03   -0.47739E-03  2560   0.221E-01    0.407E-02
DAV:   3    -0.717204097605E+02    0.41555E-04   -0.18574E-04  2752   0.505E-02    0.257E-02
DAV:   4    -0.717203993176E+02    0.10443E-04   -0.46225E-05  2944   0.302E-02    0.107E-02
DAV:   5    -0.717203991714E+02    0.14616E-06   -0.84295E-06  2688   0.122E-02
  95 F= -.71720399E+02 E0= -.71720399E+02  d E =-.410163E-13
       N       E                     dE             d eps       ncg     rms          rms(c)
DAV:   1    -0.717195492401E+02    0.85008E-03   -0.99109E-01  2080   0.145E+00    0.410E-01
DAV:   2    -0.717205846642E+02   -0.10354E-02   -0.19255E-02  2688   0.446E-01    0.814E-02
DAV:   3    -0.717204199268E+02    0.16474E-03   -0.73447E-04  2624   0.114E-01    0.530E-02
DAV:   4    -0.717203788950E+02    0.41032E-04   -0.19040E-04  2752   0.698E-02    0.214E-02
DAV:   5    -0.717203786988E+02    0.19625E-06   -0.36521E-05  2592   0.275E-02    0.153E-02
DAV:   6    -0.717203781879E+02    0.51085E-06   -0.46990E-06  2880   0.118E-02
  96 F= -.71720378E+02 E0= -.71720378E+02  d E =-.368483E-13
       N       E                     dE             d eps       ncg     rms          rms(c)
DAV:   1    -0.717176046750E+02    0.27740E-02   -0.24830E-01  1920   0.716E-01    0.208E-01
DAV:   2    -0.717178093774E+02   -0.20470E-03   -0.43134E-03  2848   0.225E-01    0.393E-02
DAV:   3    -0.717177696143E+02    0.39763E-04   -0.17524E-04  2752   0.493E-02    0.258E-02
DAV:   4    -0.717177591509E+02    0.10463E-04   -0.41222E-05  2880   0.306E-02    0.103E-02
DAV:   5    -0.717177589820E+02    0.16895E-06   -0.80151E-06  2720   0.126E-02
  97 F= -.71717759E+02 E0= -.71717759E+02  d E =-.384649E-13
       N       E                     dE             d eps       ncg     rms          rms(c)
DAV:   1    -0.717169710180E+02    0.78813E-03   -0.19901E+00  1920   0.224E+00    0.612E-01
DAV:   2    -0.717203446279E+02   -0.33736E-02   -0.46123E-02  2560   0.661E-01    0.143E-01
DAV:   3    -0.717200987206E+02    0.24591E-03   -0.13013E-03  2624   0.119E-01    0.111E-01
DAV:   4    -0.717199930692E+02    0.10565E-03   -0.37947E-04  2880   0.695E-02    0.439E-02
DAV:   5    -0.717199941638E+02   -0.10947E-05   -0.69180E-05  2592   0.306E-02    0.219E-02
DAV:   6    -0.717199930120E+02    0.11519E-05   -0.74911E-06  2944   0.127E-02    0.957E-03
DAV:   7    -0.717199927407E+02    0.27124E-06   -0.26259E-06  2240   0.100E-02
  98 F= -.71719993E+02 E0= -.71719993E+02  d E =-.406238E-13
       N       E                     dE             d eps       ncg     rms          rms(c)
DAV:   1    -0.717207750360E+02   -0.78202E-03   -0.25258E-01  1920   0.758E-01    0.109E-01
DAV:   2    -0.717210553011E+02   -0.28027E-03   -0.38128E-03  2560   0.198E-01    0.420E-02
DAV:   3    -0.717210327509E+02    0.22550E-04   -0.92751E-05  2656   0.329E-02    0.298E-02
DAV:   4    -0.717210199791E+02    0.12772E-04   -0.51849E-05  2752   0.265E-02    0.951E-03
DAV:   5    -0.717210202616E+02   -0.28246E-06   -0.66335E-06  2304   0.907E-03
  99 F= -.71721020E+02 E0= -.71721020E+02  d E =-.386902E-13
       N       E                     dE             d eps       ncg     rms          rms(c)
DAV:   1    -0.717199076680E+02    0.11123E-02   -0.10100E+00  1920   0.152E+00    0.215E-01
DAV:   2    -0.717210357987E+02   -0.11281E-02   -0.15284E-02  2560   0.398E-01    0.835E-02
DAV:   3    -0.717209465216E+02    0.89277E-04   -0.36978E-04  2592   0.703E-02    0.594E-02
DAV:   4    -0.717208968998E+02    0.49622E-04   -0.20560E-04  2720   0.592E-02    0.193E-02
DAV:   5    -0.717208982185E+02   -0.13187E-05   -0.26403E-05  2304   0.179E-02    0.101E-02
DAV:   6    -0.717208978079E+02    0.41064E-06   -0.31735E-06  2240   0.815E-03
 100 F= -.71720898E+02 E0= -.71720898E+02  d E =-.427690E-13
       N       E                     dE             d eps       ncg     rms          rms(c)
DAV:   1    -0.717196283705E+02    0.12698E-02   -0.25223E-01  1920   0.759E-01    0.112E-01
DAV:   2    -0.717198991142E+02   -0.27074E-03   -0.37106E-03  2784   0.199E-01    0.416E-02
DAV:   3    -0.717198766385E+02    0.22476E-04   -0.91106E-05  2624   0.319E-02    0.288E-02
DAV:   4    -0.717198643090E+02    0.12329E-04   -0.51546E-05  2560   0.254E-02    0.955E-03
DAV:   5    -0.717198645711E+02   -0.26205E-06   -0.59705E-06  2336   0.856E-03
 101 F= -.71719865E+02 E0= -.71719865E+02  d E =-.506825E-13
       N       E                     dE             d eps       ncg     rms          rms(c)
DAV:   1    -0.717169107745E+02    0.29535E-02   -0.19776E+00  1920   0.219E+00    0.539E-01
DAV:   2    -0.717185090945E+02   -0.15983E-02   -0.29935E-02  2560   0.568E-01    0.984E-02
DAV:   3    -0.717182638916E+02    0.24520E-03   -0.10635E-03  2784   0.113E-01    0.671E-02
DAV:   4    -0.717181963066E+02    0.67585E-04   -0.26089E-04  2880   0.636E-02    0.282E-02
DAV:   5    -0.717181940184E+02    0.22882E-05   -0.44310E-05  2560   0.261E-02    0.201E-02
DAV:   6    -0.717181931212E+02    0.89717E-06   -0.53371E-06  2912   0.101E-02
 102 F= -.71718193E+02 E0= -.71718193E+02  d E =-.597921E-13
       N       E                     dE             d eps       ncg     rms          rms(c)
DAV:   1    -0.717202823760E+02   -0.20884E-02   -0.24698E-01  1920   0.765E-01    0.185E-01
DAV:   2    -0.717204734559E+02   -0.19108E-03   -0.39392E-03  2560   0.202E-01    0.414E-02
DAV:   3    -0.717204350450E+02    0.38411E-04   -0.14500E-04  2880   0.412E-02    0.258E-02
DAV:   4    -0.717204234553E+02    0.11590E-04   -0.40859E-05  2880   0.263E-02    0.108E-02
DAV:   5    -0.717204233011E+02    0.15428E-06   -0.81226E-06  2784   0.110E-02
 103 F= -.71720423E+02 E0= -.71720423E+02  d E =-.505983E-13
       N       E                     dE             d eps       ncg     rms          rms(c)
DAV:   1    -0.717201794959E+02    0.24396E-03   -0.98923E-01  1920   0.153E+00    0.358E-01
DAV:   2    -0.717209475945E+02   -0.76810E-03   -0.15863E-02  2688   0.414E-01    0.844E-02
DAV:   3    -0.717207931091E+02    0.15449E-03   -0.59495E-04  2432   0.101E-01    0.544E-02
DAV:   4    -0.717207437568E+02    0.49352E-04   -0.17814E-04  2880   0.755E-02    0.216E-02
DAV:   5    -0.717207438273E+02   -0.70557E-07   -0.42683E-05  2656   0.270E-02    0.144E-02
DAV:   6    -0.717207432625E+02    0.56483E-06   -0.41972E-06  2912   0.943E-03
 104 F= -.71720743E+02 E0= -.71720743E+02  d E =-.588608E-13
       N       E                     dE             d eps       ncg     rms          rms(c)
DAV:   1    -0.717186080422E+02    0.21358E-02   -0.24764E-01  1920   0.765E-01    0.173E-01
DAV:   2    -0.717187931213E+02   -0.18508E-03   -0.39231E-03  2880   0.220E-01    0.393E-02
DAV:   3    -0.717187539545E+02    0.39167E-04   -0.15075E-04  2816   0.487E-02    0.252E-02
DAV:   4    -0.717187416933E+02    0.12261E-04   -0.42001E-05  2880   0.326E-02    0.108E-02
DAV:   5    -0.717187416251E+02    0.68179E-07   -0.10238E-05  2720   0.134E-02    0.705E-03
DAV:   6    -0.717187414250E+02    0.20005E-06   -0.83314E-07  1920   0.500E-03
 105 F= -.71718741E+02 E0= -.71718741E+02  d E =-.100441E-12
       N       E                     dE             d eps       ncg     rms          rms(c)
DAV:   1    -0.717178721387E+02    0.86949E-03   -0.19709E+00  1920   0.215E+00    0.586E-01
DAV:   2    -0.717192358169E+02   -0.13637E-02   -0.30510E-02  2560   0.600E-01    0.951E-02
DAV:   3    -0.717189467123E+02    0.28910E-03   -0.12140E-03  2848   0.145E-01    0.680E-02
DAV:   4    -0.717188704172E+02    0.76295E-04   -0.28914E-04  2944   0.798E-02    0.280E-02
DAV:   5    -0.717188646436E+02    0.57737E-05   -0.51735E-05  2816   0.363E-02    0.192E-02
DAV:   6    -0.717188629356E+02    0.17080E-05   -0.85628E-06  2848   0.176E-02    0.717E-03
DAV:   7    -0.717188626929E+02    0.24270E-06   -0.27414E-06  2528   0.961E-03
 106 F= -.71718863E+02 E0= -.71718863E+02  d E =-.316132E-13
       N       E                     dE             d eps       ncg     rms          rms(c)
DAV:   1    -0.717203599311E+02   -0.14970E-02   -0.25180E-01  1920   0.762E-01    0.126E-01
DAV:   2    -0.717206093900E+02   -0.24946E-03   -0.38327E-03  2560   0.217E-01    0.410E-02
DAV:   3    -0.717205803012E+02    0.29089E-04   -0.10685E-04  2752   0.399E-02    0.285E-02
DAV:   4    -0.717205669405E+02    0.13361E-04   -0.49843E-05  2688   0.306E-02    0.998E-03
DAV:   5    -0.717205673381E+02   -0.39761E-06   -0.84609E-06  2336   0.102E-02
 107 F= -.71720567E+02 E0= -.71720567E+02  d E =-.347728E-13
       N       E                     dE             d eps       ncg     rms          rms(c)
DAV:   1    -0.717202346526E+02    0.33229E-03   -0.10073E+00  1920   0.152E+00    0.248E-01
DAV:   2    -0.717212292686E+02   -0.99462E-03   -0.15356E-02  2560   0.432E-01    0.813E-02
DAV:   3    -0.717211125881E+02    0.11668E-03   -0.42895E-04  2784   0.876E-02    0.573E-02
DAV:   4    -0.717210595110E+02    0.53077E-04   -0.20381E-04  2784   0.729E-02    0.205E-02
DAV:   5    -0.717210612222E+02   -0.17112E-05   -0.34872E-05  2304   0.210E-02    0.108E-02
DAV:   6    -0.717210607761E+02    0.44611E-06   -0.25140E-06  2368   0.793E-03
 108 F= -.71721061E+02 E0= -.71721061E+02  d E =-.379559E-13
       N       E                     dE             d eps       ncg     rms          rms(c)
DAV:   1    -0.717195486549E+02    0.15126E-02   -0.25180E-01  1920   0.759E-01    0.127E-01
DAV:   2    -0.717197927553E+02   -0.24410E-03   -0.38050E-03  2784   0.217E-01    0.404E-02
DAV:   3    -0.717197633888E+02    0.29367E-04   -0.10744E-04  2816   0.388E-02    0.277E-02
DAV:   4    -0.717197499506E+02    0.13438E-04   -0.50047E-05  2592   0.289E-02    0.101E-02
DAV:   5    -0.717197503075E+02   -0.35688E-06   -0.79757E-06  2304   0.101E-02
 109 F= -.71719750E+02 E0= -.71719750E+02  d E =-.356608E-13
       N       E                     dE             d eps       ncg     rms          rms(c)
DAV:   1    -0.717142988010E+02    0.54511E-02   -0.19830E+00  1920   0.224E+00    0.490E-01
DAV:   2    -0.717180984029E+02   -0.37996E-02   -0.49260E-02  2560   0.673E-01    0.122E-01
DAV:   3    -0.717178478195E+02    0.25058E-03   -0.13071E-03  2752   0.118E-01    0.820E-02
DAV:   4    -0.717176957363E+02    0.15208E-03   -0.44880E-04  2944   0.768E-02    0.294E-02
DAV:   5    -0.717176802473E+02    0.15489E-04   -0.85924E-05  2720   0.337E-02    0.232E-02
DAV:   6    -0.717176700589E+02    0.10188E-04   -0.14679E-05  2880   0.185E-02    0.114E-02
DAV:   7    -0.717176652177E+02    0.48412E-05   -0.88956E-06  2496   0.170E-02    0.215E-03
DAV:   8    -0.717176643961E+02    0.82168E-06   -0.40013E-06  2752   0.908E-03
 110 F= -.71717664E+02 E0= -.71717664E+02  d E =-.441433E-13
       N       E                     dE             d eps       ncg     rms          rms(c)
DAV:   1    -0.717200564218E+02   -0.23912E-02   -0.24767E-01  1920   0.698E-01    0.230E-01
DAV:   2    -0.717203027683E+02   -0.24635E-03   -0.42028E-03  2880   0.187E-01    0.371E-02
DAV:   3    -0.717202763169E+02    0.26451E-04   -0.13938E-04  2752   0.355E-02    0.274E-02
DAV:   4    -0.717202708958E+02    0.54211E-05   -0.32356E-05  3008   0.177E-02    0.965E-03
DAV:   5    -0.717202709658E+02   -0.70024E-07   -0.32525E-06  2144   0.742E-03
 111 F= -.71720271E+02 E0= -.71720271E+02  d E =-.403260E-13
       N       E                     dE             d eps       ncg     rms          rms(c)
DAV:   1    -0.717198467934E+02    0.42410E-03   -0.99134E-01  1920   0.140E+00    0.481E-01
DAV:   2    -0.717207945942E+02   -0.94780E-03   -0.16574E-02  2560   0.366E-01    0.712E-02
DAV:   3    -0.717206845323E+02    0.11006E-03   -0.56807E-04  2656   0.792E-02    0.553E-02
DAV:   4    -0.717206633339E+02    0.21198E-04   -0.12000E-04  3072   0.377E-02    0.207E-02
DAV:   5    -0.717206626966E+02    0.63734E-06   -0.12715E-05  2816   0.171E-02    0.136E-02
DAV:   6    -0.717206627506E+02   -0.54028E-07   -0.23419E-06  2400   0.933E-03
 112 F= -.71720663E+02 E0= -.71720663E+02  d E =-.542537E-13
       N       E                     dE             d eps       ncg     rms          rms(c)
DAV:   1    -0.717179097894E+02    0.27529E-02   -0.24777E-01  1984   0.712E-01    0.240E-01
DAV:   2    -0.717181848561E+02   -0.27507E-03   -0.45286E-03  2592   0.197E-01    0.376E-02
DAV:   3    -0.717181568224E+02    0.28034E-04   -0.14942E-04  2624   0.372E-02    0.267E-02
DAV:   4    -0.717181512603E+02    0.55620E-05   -0.35992E-05  3040   0.198E-02    0.100E-02
DAV:   5    -0.717181513979E+02   -0.13758E-06   -0.33804E-06  2464   0.766E-03
 113 F= -.71718151E+02 E0= -.71718151E+02  d E =-.833868E-13
       N       E                     dE             d eps       ncg     rms          rms(c)
DAV:   1    -0.717172913908E+02    0.85987E-03   -0.20128E+00  2080   0.209E+00    0.440E-01
DAV:   2    -0.717196936767E+02   -0.24023E-02   -0.35982E-02  2848   0.645E-01    0.118E-01
DAV:   3    -0.717194646297E+02    0.22905E-03   -0.10718E-03  2464   0.126E-01    0.776E-02
DAV:   4    -0.717193898247E+02    0.74805E-04   -0.34997E-04  2560   0.815E-02    0.289E-02
DAV:   5    -0.717193917196E+02   -0.18948E-05   -0.55331E-05  2400   0.301E-02    0.221E-02
DAV:   6    -0.717193912034E+02    0.51620E-06   -0.38014E-06  2560   0.101E-02
 114 F= -.71719391E+02 E0= -.71719391E+02  d E =-.313631E-13
       N       E                     dE             d eps       ncg     rms          rms(c)
DAV:   1    -0.717206424692E+02   -0.12507E-02   -0.25723E-01  1920   0.755E-01    0.894E-02
DAV:   2    -0.717208757535E+02   -0.23328E-03   -0.34339E-03  2528   0.209E-01    0.391E-02
DAV:   3    -0.717208504020E+02    0.25351E-04   -0.89795E-05  2656   0.377E-02    0.280E-02
DAV:   4    -0.717208364847E+02    0.13917E-04   -0.51496E-05  2880   0.342E-02    0.930E-03
DAV:   5    -0.717208368324E+02   -0.34771E-06   -0.80527E-06  2272   0.100E-02
 115 F= -.71720837E+02 E0= -.71720837E+02  d E =-.352182E-13
       N       E                     dE             d eps       ncg     rms          rms(c)
DAV:   1    -0.717200517678E+02    0.78472E-03   -0.10309E+00  1920   0.151E+00    0.182E-01
DAV:   2    -0.717209976746E+02   -0.94591E-03   -0.13946E-02  2496   0.423E-01    0.769E-02
DAV:   3    -0.717208918823E+02    0.10579E-03   -0.36682E-04  2944   0.864E-02    0.560E-02
DAV:   4    -0.717208351109E+02    0.56771E-04   -0.20735E-04  2816   0.864E-02    0.188E-02
DAV:   5    -0.717208372982E+02   -0.21872E-05   -0.39301E-05  2208   0.218E-02    0.945E-03
DAV:   6    -0.717208366789E+02    0.61930E-06   -0.28590E-06  2496   0.805E-03
 116 F= -.71720837E+02 E0= -.71720837E+02  d E =-.351155E-13
       N       E                     dE             d eps       ncg     rms          rms(c)
DAV:   1    -0.717192033774E+02    0.16339E-02   -0.25774E-01  1920   0.754E-01    0.879E-02
DAV:   2    -0.717194313036E+02   -0.22793E-03   -0.33991E-03  2496   0.221E-01    0.381E-02
DAV:   3    -0.717194048635E+02    0.26440E-04   -0.90930E-05  2528   0.396E-02    0.271E-02
DAV:   4    -0.717193909669E+02    0.13897E-04   -0.52418E-05  2784   0.350E-02    0.916E-03
DAV:   5    -0.717193913602E+02   -0.39330E-06   -0.85952E-06  2240   0.110E-02
 117 F= -.71719391E+02 E0= -.71719391E+02  d E =-.312142E-13
       N       E                     dE             d eps       ncg     rms          rms(c)
DAV:   1    -0.717172369587E+02    0.21540E-02   -0.20531E+00  1920   0.217E+00    0.234E-01
DAV:   2    -0.717194825848E+02   -0.22456E-02   -0.30115E-02  2560   0.580E-01    0.101E-01
DAV:   3    -0.717192617202E+02    0.22086E-03   -0.72980E-04  2816   0.103E-01    0.726E-02
DAV:   4    -0.717190301751E+02    0.23155E-03   -0.42231E-04  2720   0.112E-01    0.207E-02
DAV:   5    -0.717190003793E+02    0.29796E-04   -0.82526E-05  2496   0.393E-02    0.125E-02
DAV:   6    -0.717189798839E+02    0.20495E-04   -0.23427E-05  2880   0.277E-02    0.736E-03
DAV:   7    -0.717189701314E+02    0.97525E-05   -0.12819E-05  2944   0.206E-02    0.263E-03
DAV:   8    -0.717189619111E+02    0.82203E-05   -0.14146E-05  2400   0.296E-02    0.154E-03
DAV:   9    -0.717189610718E+02    0.83928E-06   -0.73592E-06  2752   0.125E-02
 118 F= -.71718961E+02 E0= -.71718961E+02  d E =-.649792E-13
       N       E                     dE             d eps       ncg     rms          rms(c)
DAV:   1    -0.717204291344E+02   -0.14672E-02   -0.25577E-01  1920   0.703E-01    0.106E-01
DAV:   2    -0.717206956559E+02   -0.26652E-03   -0.38940E-03  2560   0.212E-01    0.439E-02
DAV:   3    -0.717206677543E+02    0.27902E-04   -0.10696E-04  2624   0.379E-02    0.312E-02
DAV:   4    -0.717206503426E+02    0.17412E-04   -0.63759E-05  2592   0.370E-02    0.110E-02
DAV:   5    -0.717206508222E+02   -0.47956E-06   -0.99825E-06  2272   0.111E-02
 119 F= -.71720651E+02 E0= -.71720651E+02  d E =-.492909E-13
       N       E                     dE             d eps       ncg     rms          rms(c)
DAV:   1    -0.717201405803E+02    0.50976E-03   -0.10227E+00  1920   0.139E+00    0.223E-01
DAV:   2    -0.717212489032E+02   -0.11083E-02   -0.15963E-02  2560   0.425E-01    0.887E-02
DAV:   3    -0.717211354789E+02    0.11342E-03   -0.43750E-04  2720   0.782E-02    0.645E-02
DAV:   4    -0.717210646952E+02    0.70784E-04   -0.25783E-04  2848   0.822E-02    0.228E-02
DAV:   5    -0.717210667545E+02   -0.20594E-05   -0.40043E-05  2240   0.220E-02    0.102E-02
DAV:   6    -0.717210659754E+02    0.77918E-06   -0.25882E-06  2400   0.790E-03
 120 F= -.71721066E+02 E0= -.71721066E+02  d E =-.432765E-13
       N       E                     dE             d eps       ncg     rms          rms(c)
DAV:   1    -0.717196790783E+02    0.13877E-02   -0.25579E-01  1920   0.689E-01    0.106E-01
DAV:   2    -0.717199478929E+02   -0.26881E-03   -0.39109E-03  2560   0.207E-01    0.450E-02
DAV:   3    -0.717199199571E+02    0.27936E-04   -0.10710E-04  2784   0.359E-02    0.321E-02
DAV:   4    -0.717199020719E+02    0.17885E-04   -0.67396E-05  2560   0.345E-02    0.111E-02
DAV:   5    -0.717199025007E+02   -0.42874E-06   -0.92749E-06  2144   0.103E-02
 121 F= -.71719903E+02 E0= -.71719903E+02  d E =-.490367E-13
